LAMMPS data file via write_data, version 30 Jul 2021, timestep = 7250000

864 atoms
2 atom types
576 bonds
1 bond types
288 angles
1 angle types

0.5161151716205676 17.691457228383282 xlo xhi
1.6994467689682882 21.929731031034578 ylo yhi
0.6296593038720157 21.58353649612636 zlo zhi

Masses

1 1.00794
2 15.9994

Pair Coeffs # lj/cut/tip4p/long/omp

1 0 0
2 0.21084 3.1668

Bond Coeffs # harmonic/omp

1 450 0.9572

Angle Coeffs # harmonic/omp

1 55 104.52

Atoms # full

433 1 2 -1.1794 3.185458973559696 2.93933145272931 5.169621730893654 1 5 1
106 1 2 -1.1794 1.2705040433295887 3.7987232407895415 3.3354607759359602 -1 0 4
45 1 1 0.5897 2.057618964040358 5.435586730524244 1.8854649827680816 -2 6 -2
43 1 2 -1.1794 2.374335112336542 6.258482934882552 2.2579974868420867 -2 6 -2
710 1 1 0.5897 4.118332680193746 5.810317944769576 3.299122006758122 -2 -6 -2
44 1 1 0.5897 3.2315951795271793 6.39092588006515 1.8532643275180305 -2 6 -2
434 1 1 0.5897 2.4533201999958596 3.157589596412456 4.592924940969103 1 5 1
108 1 1 0.5897 1.0132222980480576 3.1035173353494336 2.7298349577154126 -1 0 4
711 1 1 0.5897 3.867331266205724 4.685285566311183 4.280572702757997 -2 -6 -2
709 1 2 -1.1794 4.4685708104873765 5.406099687372921 4.09298608369528 -2 -6 -2
389 1 1 0.5897 4.115721103278776 2.32428348847611 0.8852307414792482 0 7 5
388 1 2 -1.1794 3.7033650505140248 2.9396198908612794 1.491509690608078 0 7 6
390 1 1 0.5897 3.0325660741932006 3.3786825267853864 0.9685418598283463 0 7 6
435 1 1 0.5897 3.6906982370793067 2.289769446871295 4.680699790152232 1 5 1
287 1 1 0.5897 1.881990888925225 6.682774463855772 4.025551290073418 6 1 4
379 1 2 -1.1794 4.51635540915483 6.585989036282566 0.8066115932561537 9 5 -2
286 1 2 -1.1794 1.6735686563646333 6.673106135439147 4.959752152768732 6 1 4
94 1 2 -1.1794 3.3086569331957856 5.6870341691093875 7.470082334961108 -4 3 2
622 1 2 -1.1794 2.370017280944837 3.610625423835152 8.631588027323847 9 1 3
623 1 1 0.5897 1.8975860058480087 3.689662038246967 9.460341491362739 9 1 3
96 1 1 0.5897 3.0939240104582497 5.5623436765201415 6.54563877831797 -4 3 2
95 1 1 0.5897 2.969682821666748 4.90349181692992 7.902988376398571 -3 3 2
624 1 1 0.5897 2.7824782215590402 2.7477624746453744 8.67183263011968 9 1 3
609 1 1 0.5897 1.6366708643282175 6.506194845510892 10.614023705898399 4 6 5
792 1 1 0.5897 0.8655158161162586 2.340321367948148 6.275650324519089 3 4 0
567 1 1 0.5897 4.805271081344433 3.5131096832449 7.236397051640998 1 9 -6
217 1 2 -1.1794 1.147932955472022 5.741053633856375 13.649688261305373 6 -1 -2
219 1 1 0.5897 1.9972139674945724 5.534430331597908 14.039916276030414 6 -1 -2
195 1 1 0.5897 1.359442639332253 4.308267647054548 12.278389964418368 1 -5 2
607 1 2 -1.1794 2.3524111900095477 6.660290911295205 11.230645729790268 4 6 5
726 1 1 0.5897 3.9726921807361357 6.238656640434353 15.211722974437714 2 -4 3
194 1 1 0.5897 1.420369102076699 2.8348453209079167 11.93585016568786 1 -5 2
322 1 2 -1.1794 4.584541861662908 4.283579376878437 11.358513966152524 7 0 0
193 1 2 -1.1794 1.6742671230012927 3.698674158756872 11.610887761684834 1 -5 2
724 1 2 -1.1794 3.547780716662921 5.492639658507976 14.788456374876498 2 -4 3
725 1 1 0.5897 4.262649862679222 4.884782904314899 14.599425789968457 2 -4 3
323 1 1 0.5897 4.761574649221728 3.342885886535904 11.359863547219929 7 0 0
608 1 1 0.5897 1.9552676351893556 6.542617099972303 12.093600629499244 4 6 5
442 1 2 -1.1794 0.5869997542113896 2.198284820448394 15.335151643384611 3 5 0
324 1 1 0.5897 3.6365677029173447 4.349543788653685 11.473567045885263 7 0 0
218 1 1 0.5897 0.6304471570336219 6.0933626118987485 14.373811588177944 6 -1 -2
332 1 1 0.5897 2.068646438621067 3.13343298568624 15.972915556436636 -1 -5 -3
331 1 2 -1.1794 2.459845391202419 3.5440176123120493 16.744054239281617 -1 -5 -3
269 1 1 0.5897 1.1825792826520138 4.461726763838949 20.825021552307135 4 6 3
369 1 1 0.5897 3.5029118863345525 5.600289618878864 18.31787297573981 3 6 0
367 1 2 -1.1794 2.8322580645831517 6.1995912708671055 18.645481905309467 3 6 1
268 1 2 -1.1794 2.134176473622955 4.501013192929161 20.729297292164148 4 6 3
832 1 2 -1.1794 3.9320205937854453 2.614293490267318 18.720019183555976 -1 -6 -1
270 1 1 0.5897 2.272603878814787 4.869724776763821 19.856848875271154 4 6 3
833 1 1 0.5897 3.4886460947827085 2.8071555202255127 17.893902348611114 -1 -6 -1
834 1 1 0.5897 3.243720132883709 2.2644539412202622 19.285819377549444 -1 -6 -1
72 1 1 0.5897 1.1202744993704445 4.382242185341253 17.753114701740778 7 2 -5
333 1 1 0.5897 2.8910402861756612 4.32866015428678 16.405431395495565 -1 -5 -3
540 1 1 0.5897 3.162106857525908 10.33930679363563 4.8912416048178216 0 -4 3
729 1 1 0.5897 1.1620757445167051 11.286557639740314 3.0236410889686067 0 1 0
517 1 2 -1.1794 0.5293785125928503 7.7705732357681425 0.7848814893356635 -2 2 -1
376 1 2 -1.1794 1.4569304184719307 9.620999483761924 3.2723074077475025 -1 5 5
638 1 1 0.5897 3.838068326203978 9.934829392910588 1.881332749683727 -7 2 7
288 1 1 0.5897 1.8099032577601342 7.5764794708902565 5.245394560220063 6 1 4
378 1 1 0.5897 1.2727994159031795 8.843208116307416 2.745633166470362 -1 5 5
639 1 1 0.5897 3.1450293001082983 10.851750744850769 0.8959972602718067 -7 2 7
637 1 2 -1.1794 3.941319374542291 10.334704821596773 1.017803055563491 -7 2 7
518 1 1 0.5897 1.032966284179166 7.026177506580152 1.1143266429053544 -2 2 -1
377 1 1 0.5897 2.152256916097828 9.346812505708872 3.8702933116085783 -1 5 5
538 1 2 -1.1794 3.0235014905526496 9.54516395060928 5.4073518473902356 0 -4 3
539 1 1 0.5897 3.9054454766308013 9.243616663505978 5.6253076990799 0 -4 3
97 1 2 -1.1794 2.5180213103881295 8.19791348376745 8.311771036396296 6 -8 7
98 1 1 0.5897 2.5090117308637714 7.270944854870362 8.073207905290992 6 -8 7
99 1 1 0.5897 2.9423741645409844 8.220851863741434 9.169505166107498 6 -8 7
65 1 1 0.5897 4.058966379067678 11.24603369151307 7.859433211440468 4 -1 -6
480 1 1 0.5897 3.4273833093542985 9.509923112167879 10.847906097742086 -3 3 -5
395 1 1 0.5897 1.3000631319228373 10.887460909973367 8.682244991767273 0 2 5
396 1 1 0.5897 2.3738775548037667 9.961881271590636 8.151044781608029 0 2 4
394 1 2 -1.1794 2.230672890618038 10.85635700151616 8.460321527889564 0 2 5
678 1 1 0.5897 0.9851216300773391 8.518923656418117 7.460776256301116 3 0 -4
47 1 1 0.5897 1.7014685259472824 11.71610070976102 6.89763450524959 4 0 -1
478 1 2 -1.1794 3.8460073227923175 8.66816105639933 10.667814257770894 -3 3 -5
479 1 1 0.5897 3.192679752044775 8.016115453074825 10.921284271080285 -3 3 -5
700 1 2 -1.1794 3.2463280977774565 8.971777522072994 14.375642263041408 1 0 2
452 1 1 0.5897 1.8328028293936656 8.653284126635 12.82633218987632 -2 2 6
57 1 1 0.5897 1.3874100686953037 10.718688163314292 15.942505065072163 -1 -1 4
701 1 1 0.5897 2.7801343746545686 9.454044653777462 15.058534947734872 1 0 2
532 1 2 -1.1794 2.523737027470652 11.163951351677886 11.832953110078062 -6 0 -4
451 1 2 -1.1794 0.9547073969626905 8.916380013306359 12.550702328251344 -2 2 6
533 1 1 0.5897 1.8309671650756865 10.596434328721632 12.170951898292053 -6 0 -4
702 1 1 0.5897 3.9337065741240975 8.497515872120925 14.843433439876787 1 0 2
365 1 1 0.5897 4.586999472293553 10.082600024216239 13.475660897886298 1 2 7
419 1 1 0.5897 3.576550705718195 9.094684474327138 20.651860803238094 -6 -1 6
281 1 1 0.5897 1.6815567951032997 7.405184754252529 17.862406976570924 1 -1 3
418 1 2 -1.1794 3.7158175894536187 8.40268342557815 20.005340647535952 -6 -1 6
420 1 1 0.5897 4.204986324241465 8.827485315537515 19.300711354217057 -6 -1 6
280 1 2 -1.1794 0.9795752243879913 8.031362844339627 17.68525435932139 1 -1 3
282 1 1 0.5897 1.409514173212667 8.74829791782283 17.218973189326626 1 -1 3
368 1 1 0.5897 3.3248129858230526 6.902257170523252 19.06963026204518 3 6 1
736 1 2 -1.1794 1.6005090825308192 11.680646145740248 21.042584725658244 -1 -1 -1
737 1 1 0.5897 1.2002743759126684 11.007172399933149 20.49258672551405 -1 -1 -1
381 1 1 0.5897 4.232794088592124 7.159595917037184 21.048578987459557 9 5 -3
56 1 1 0.5897 2.3965029206859247 10.833622009864243 17.065227785143335 -1 -1 4
821 1 1 0.5897 4.798814403216376 11.610283406271071 16.40751344158141 2 -1 5
55 1 2 -1.1794 1.9560191044421031 10.193783326218368 16.505903763711494 -1 -1 4
385 1 2 -1.1794 1.8597927161732462 14.883828629386363 3.957688549030307 -6 -1 0
233 1 1 0.5897 2.3904982069826657 15.110292398617219 1.1819050814169354 -3 1 -1
120 1 1 0.5897 4.171486744743767 13.824520473951285 2.1780111204008072 2 -4 -4
386 1 1 0.5897 2.2725597905847117 15.054996429541948 3.1111620761492946 -6 -1 0
153 1 1 0.5897 3.6103892751167765 15.530812421792502 4.307764222752338 1 -3 -1
234 1 1 0.5897 3.093889891145423 16.276732737950176 1.842662966030508 -3 1 -1
387 1 1 0.5897 1.3581039838502083 14.080003445041081 3.8219008472685174 -6 -1 0
119 1 1 0.5897 4.294054057730491 12.464932719772822 2.8325787970141496 2 -4 -4
471 1 1 0.5897 4.629704101122921 12.82807494908066 5.027838409909147 3 -3 3
232 1 2 -1.1794 3.1398774046569966 15.326507436427239 1.736822400900293 -3 1 -1
727 1 2 -1.1794 0.9390056368112176 12.193864200578018 2.8155509303994295 0 1 0
728 1 1 0.5897 1.0814176819085413 12.265570682013406 1.8717029191104382 0 1 0
151 1 2 -1.1794 4.543296652310434 15.693828335219324 4.44711355754224 1 -3 -1
470 1 1 0.5897 3.120613635404735 12.790188447116407 5.142650369043122 3 -3 3
118 1 2 -1.1794 4.699686497371977 13.026243341204443 2.17178444984917 2 -4 -4
469 1 2 -1.1794 3.8661466512813067 12.298419393076594 4.798258724928725 3 -3 3
152 1 1 0.5897 4.572424247264771 16.312612000197582 5.176857860227743 1 -3 -2
48 1 1 0.5897 0.7206848523531477 11.941961862849 5.766689195855104 4 0 -1
402 1 1 0.5897 0.7332304872093189 15.890780109208546 4.764159077104256 -3 -4 3
274 1 2 -1.1794 3.457165531156019 13.771363954114781 10.110996657778017 -3 -2 -2
215 1 1 0.5897 0.6388710591043625 16.403769719323705 10.257051984876087 -3 1 4
426 1 1 0.5897 3.0361714642769697 13.977727193295467 8.192244284889687 5 -4 2
424 1 2 -1.1794 3.018544589314683 14.287526882870623 7.286721760097745 5 -3 2
425 1 1 0.5897 2.4185734709537505 13.690032438048894 6.840310168280993 5 -3 2
111 1 1 0.5897 2.7435311277545806 16.10824264144101 6.966231233695917 1 2 -9
276 1 1 0.5897 4.08341075243668 13.133586754569828 10.453488423955353 -3 -2 -2
275 1 1 0.5897 3.2841444768525747 14.357345613326608 10.847839808796541 -3 -2 -2
303 1 1 0.5897 0.6674798678002452 13.762778015522834 10.474152648453567 0 1 9
46 1 2 -1.1794 1.399654886730327 12.38118669995634 6.278912690409138 4 0 -1
301 1 2 -1.1794 0.6049682500729909 12.977531820399198 11.017994357490403 0 1 9
66 1 1 0.5897 4.8030687962283665 12.30616541098543 7.075604358974229 4 -1 -6
562 1 2 -1.1794 3.158675015805175 12.84155088002248 14.029198203974287 2 0 7
847 1 2 -1.1794 0.5822202452793578 12.196852631749302 14.785521157431196 2 -1 1
563 1 1 0.5897 3.0864520485815303 12.100893415188658 13.427123641732576 2 0 7
799 1 2 -1.1794 3.019663984407959 15.012826283931878 12.472470376031241 -2 -3 3
564 1 1 0.5897 3.2057110769030026 13.609759736320745 13.460085323598678 2 0 7
801 1 1 0.5897 3.3333427095397745 15.9169884584262 12.454090795302177 -2 -3 3
779 1 1 0.5897 3.005712647940371 16.205935022122766 15.601263292706433 -2 -1 -1
800 1 1 0.5897 2.072501315226855 15.089692751731858 12.587436840426546 -2 -3 3
849 1 1 0.5897 1.418203410826945 12.564735743888543 14.49906666845495 2 -1 1
534 1 1 0.5897 2.0580391788794943 11.889052475621973 11.416295292026174 -6 0 -4
235 1 2 -1.1794 0.8810039217850236 13.963469302060725 19.60332340716696 -1 -4 -3
241 1 2 -1.1794 3.0391103071128738 15.856399268815386 19.272007350320337 -1 -2 0
243 1 1 0.5897 3.8539981245050723 16.30960118573776 19.488361624342865 -1 -2 0
569 1 1 0.5897 3.864310317645158 12.234364020534825 18.49677261341393 5 -2 1
595 1 2 -1.1794 4.120178331642284 13.24614080973464 20.29477975167358 0 -5 2
568 1 2 -1.1794 3.5166684635866132 12.174888623862685 17.60690797676226 5 -2 1
242 1 1 0.5897 3.132428802672086 14.991293840379532 19.67094668498151 -1 -2 0
150 1 1 0.5897 2.830835449533166 15.289774577248657 17.584140411933923 -9 0 2
148 1 2 -1.1794 2.676262162320991 14.783068063955529 16.78689483470142 -9 0 2
597 1 1 0.5897 4.354571833697856 13.018285044040969 21.19444244025484 0 -5 2
570 1 1 0.5897 3.1966690725908595 13.056345807654607 17.414852827141367 5 -2 1
738 1 1 0.5897 1.6237947616553503 12.460631881990366 20.488211170411404 -1 -1 -1
149 1 1 0.5897 1.7484858795777838 14.91734523238693 16.59330610126968 -9 0 2
236 1 1 0.5897 0.6794365238101392 13.979435234093737 18.667715631092 -1 -4 -3
514 1 2 -1.1794 3.4701096721366422 18.450811120410364 4.490695796110309 -4 -4 -2
168 1 1 0.5897 3.2605423779365394 18.220287661158174 2.8078725619567577 -1 -2 1
167 1 1 0.5897 2.173578527826278 18.60144390142802 1.8254525958535401 -1 -2 1
515 1 1 0.5897 2.951092273269617 19.254929494909867 4.474201812134004 -4 -4 -2
251 1 1 0.5897 3.128334325747038 21.491211683798987 2.639468655917506 3 -4 2
250 1 2 -1.1794 2.7325356468828383 20.84551093167127 3.2248364232329183 3 -4 2
252 1 1 0.5897 1.797558007728939 20.8795186426738 3.022594023883103 3 -4 2
166 1 2 -1.1794 2.930271056774378 18.024794375406415 1.9309752822070896 -1 -2 1
186 1 1 0.5897 4.5661897707122705 19.490578203050127 5.819551607932053 -4 8 4
516 1 1 0.5897 2.9820113679764346 17.861879543692012 5.06621407425831 -4 -4 -2
109 1 2 -1.1794 2.567830193409941 17.045331459291752 6.880710340307481 1 2 -9
202 1 2 -1.1794 0.9530014981496204 20.340791760444162 8.803800582859969 -6 1 4
628 1 2 -1.1794 3.4003241599512397 21.385782746413263 8.593940082484025 5 -2 4
552 1 1 0.5897 1.5773375152518874 20.39734254338409 6.961693532609546 -2 8 -6
204 1 1 0.5897 0.9266815796551127 19.56823554630887 9.368407756802002 -6 1 4
110 1 1 0.5897 3.00180634267029 17.440833696141816 7.636685033968006 1 2 -9
550 1 2 -1.1794 1.6287475427420108 20.61216411009498 6.0303168232664985 -2 8 -6
831 1 1 0.5897 4.526887191916842 18.426456616496104 9.40704540892079 3 3 2
630 1 1 0.5897 2.5267132836598574 20.9980927327692 8.646466728729662 5 -2 4
635 1 1 0.5897 2.231332332812678 18.120743702288785 10.139836056537339 -6 1 1
634 1 2 -1.1794 1.3479770782984113 18.001822734737203 10.488972382828916 -6 1 1
629 1 1 0.5897 3.8081103080122856 20.957438980283804 7.841295262286178 5 -2 4
829 1 2 -1.1794 3.8275618985852744 17.829109705384873 9.141779139346522 3 3 2
830 1 1 0.5897 4.031720404416648 17.007321089725004 9.588131584689961 3 3 2
372 1 1 0.5897 4.643786431674682 21.617660381491497 10.267436558055703 2 10 0
551 1 1 0.5897 2.54954716031099 20.82936010943957 5.884588160912003 -2 8 -6
305 1 1 0.5897 2.768654497756492 20.175699872660452 12.762995196863699 3 -3 -7
436 1 2 -1.1794 4.555243333336175 17.389195174552945 12.023233225731184 -1 3 0
643 1 2 -1.1794 1.1642257421868725 18.029712389312117 13.417393352219396 2 -3 0
778 1 2 -1.1794 3.129121732795745 17.105289609112063 15.297617882210258 -2 -1 -1
598 1 2 -1.1794 0.6737712251391698 21.30484706063367 12.655099513286885 2 -1 -9
780 1 1 0.5897 4.069766124653541 17.176871575628955 15.135404356912801 -2 -1 -1
304 1 2 -1.1794 3.7182810779619446 20.241958094378653 12.662635609996487 3 -3 -7
437 1 1 0.5897 4.572903610507496 18.344238862686083 11.961318249632344 -1 3 0
306 1 1 0.5897 4.021270495282144 20.61827001164191 13.488983712067013 3 -3 -7
644 1 1 0.5897 2.0689870249184876 18.01060545076274 13.729297283957147 2 -3 0
371 1 1 0.5897 4.480338816113814 21.300646668787614 11.738736245866013 2 10 0
645 1 1 0.5897 0.9545867690955081 17.11414419773415 13.232917332881033 2 -3 0
636 1 1 0.5897 1.4103797663837074 18.284890559810123 11.401243692268578 -6 1 1
600 1 1 0.5897 0.6029517325602427 21.694168922883875 13.5266940955979 2 -1 -9
356 1 1 0.5897 3.1710716063336464 18.72504784099626 18.43715527578015 2 0 -1
319 1 2 -1.1794 3.642957464661474 18.877994562583282 20.25006116229246 5 0 -2
734 1 1 0.5897 0.8606000890504013 19.56934779178706 16.87369399795471 -2 -1 -5
496 1 2 -1.1794 0.6645651792608224 17.50434774385379 19.764935592760317 -1 1 5
61 1 2 -1.1794 2.068846186054408 21.308610946611303 20.553430191639755 0 -3 5
355 1 2 -1.1794 3.13441797456274 19.106001640758585 17.559765328518907 2 0 -1
498 1 1 0.5897 1.4274749687001462 16.989669832644047 19.501609409874355 -1 1 4
320 1 1 0.5897 3.2718313692947247 18.247576855690554 20.867391327496186 5 0 -2
321 1 1 0.5897 3.132580704721941 19.676293814105144 20.38629384220757 5 0 -2
62 1 1 0.5897 1.240440962721359 21.18584330011314 20.08983745106402 0 -3 5
63 1 1 0.5897 1.8128556307167778 21.588759257178616 21.43219548450176 0 -3 5
357 1 1 0.5897 3.296150703880653 18.368720736527138 16.97106671371008 2 0 -1
75 1 1 0.5897 0.5466581802980812 18.629732455143476 21.46810086420347 -2 1 1
668 1 1 0.5897 6.449740798701137 4.492050778354402 2.5910037904966643 -8 -3 -3
171 1 1 0.5897 5.959996044975968 5.496280669779244 5.013321353282212 -5 5 -5
169 1 2 -1.1794 6.532716466786008 5.550060826117781 5.778401216791981 -5 5 -5
744 1 1 0.5897 6.036798045841373 2.7292442263680545 3.4445685232205623 -2 -2 2
742 1 2 -1.1794 5.810918829535068 2.2117476544960093 4.217500754188164 -2 -2 2
484 1 2 -1.1794 6.836557601021934 6.461775423087002 2.7398567753009306 3 2 0
669 1 1 0.5897 5.456638788049958 3.7025465192997147 1.7649333179334774 -8 -3 -2
667 1 2 -1.1794 6.358348307558084 3.6842828007598465 2.085602290991517 -8 -3 -2
785 1 1 0.5897 8.227771954897506 5.68951645144655 4.860554392945413 5 5 3
758 1 1 0.5897 7.718203209768776 1.9833651897021176 4.714760039435608 -2 2 3
757 1 2 -1.1794 8.643738305091377 1.8888502366501378 4.9399421538488575 -2 2 3
759 1 1 0.5897 8.805349125222815 2.577419892352529 5.584996796463612 -2 2 3
264 1 1 0.5897 9.049339177638835 2.80028305255735 3.5299120507432935 1 -3 8
263 1 1 0.5897 8.895261060031132 3.2757986730080626 2.10089802681202 1 -3 8
485 1 1 0.5897 7.590632640372847 6.690786397504328 2.19652186113024 3 2 0
132 1 1 0.5897 5.218330485874994 5.260786076906535 9.954073436784238 -7 0 -1
566 1 1 0.5897 5.587105839880277 3.0076344867997364 6.0426005461419185 1 9 -6
510 1 1 0.5897 8.410935453798807 6.473626712096755 7.921385809687948 7 -3 6
130 1 2 -1.1794 5.5831332335377635 5.630952566937653 9.150221760577754 -7 0 -1
788 1 1 0.5897 6.758801877325751 2.2608748497327578 8.103395373610734 6 0 8
131 1 1 0.5897 4.880994789579695 5.543356486433636 8.505515784872518 -7 0 -1
565 1 2 -1.1794 5.693438607279952 3.3055017848949566 6.9460482638997325 1 9 -6
789 1 1 0.5897 7.543504246203089 2.2537153543790307 9.398052871887215 6 0 8
459 1 1 0.5897 8.521365062163973 4.441863282518125 10.13039916043366 3 0 -3
457 1 2 -1.1794 8.483782607934849 3.593798417304038 10.572691517696468 3 0 -3
509 1 1 0.5897 7.429124174819909 5.60956411936445 8.68385852904506 7 -3 6
698 1 1 0.5897 8.850766535053486 4.144752927268684 7.386972282297435 3 2 -6
508 1 2 -1.1794 8.327688545064973 5.623958408983193 8.35426167911685 7 -3 6
170 1 1 0.5897 6.335289645772051 4.7603147793538225 6.281956812403198 -5 5 -5
814 1 2 -1.1794 7.1887392323886425 2.0821704236665592 12.610168822275117 -4 8 -2
384 1 1 0.5897 8.322064813044383 5.754342821667553 13.151432406217882 -6 0 1
689 1 1 0.5897 5.121789968181994 5.8554459213147325 12.14863979945295 4 -2 4
841 1 2 -1.1794 8.898419329056422 4.803461994318253 14.767146450026384 -6 1 1
127 1 2 -1.1794 6.24178544891865 3.650709935256515 15.565554177683902 1 2 -4
816 1 1 0.5897 7.514236826297299 2.9058078204095175 12.246947986541144 -4 8 -2
129 1 1 0.5897 7.045257217888466 4.084890664275099 15.2788416533978 1 2 -4
815 1 1 0.5897 6.333230903020853 1.9598595418424374 12.198595610197122 -4 8 -2
843 1 1 0.5897 9.020369459206723 5.102051940173368 15.668377897432462 -6 1 1
128 1 1 0.5897 5.8940689457075335 4.218985175229079 16.25287225746026 1 2 -4
383 1 1 0.5897 7.3186763516317175 6.5838741824795886 12.378743418797905 -6 0 1
382 1 2 -1.1794 8.254065265145755 6.510290504501536 12.568174309589889 -6 0 1
155 1 1 0.5897 5.484624576969288 2.106793960483645 14.935786557920418 3 3 -4
688 1 2 -1.1794 5.476638164827393 6.70626115211087 12.406408493233696 4 -2 4
51 1 1 0.5897 6.229284065118669 3.775153378490919 20.72521143837183 10 1 1
542 1 1 0.5897 8.440202024808553 1.9825339456190298 20.09654250708015 -7 4 1
521 1 1 0.5897 5.549082916704375 4.688846399271819 18.47394106278125 1 2 -6
49 1 2 -1.1794 5.602883336464444 4.293325581372388 20.21985332444448 10 1 1
50 1 1 0.5897 4.969775699668051 3.6535740877807905 19.894044034305644 10 1 1
487 1 2 -1.1794 7.750879846090721 2.526036687764162 17.48921940590367 3 -8 4
522 1 1 0.5897 6.042017231193054 5.835076796669335 17.61653441936943 1 2 -6
520 1 2 -1.1794 5.383959319199047 5.140579874471149 17.646331929206298 1 2 -6
488 1 1 0.5897 7.167268051181821 2.7497361963641653 16.764226335057543 3 -8 4
60 1 1 0.5897 8.403702595702521 5.637089970007887 19.678761460419693 6 -4 -2
541 1 2 -1.1794 9.009002399075271 2.4993125551552393 20.667217357473355 -7 4 1
59 1 1 0.5897 8.911448866177915 5.933117677139002 21.07392798216741 6 -4 -2
380 1 1 0.5897 4.828976535098959 5.795007927625393 21.321317804299092 9 5 -3
543 1 1 0.5897 8.817282838901908 3.408559227513192 20.43749890834512 -7 4 1
58 1 2 -1.1794 8.748576301687082 5.213091720845917 20.464596597972175 6 -4 -2
858 1 1 0.5897 8.888935282440968 3.9564303952550954 17.43174637649276 0 -3 -5
343 1 2 -1.1794 7.387559604780296 9.908483412238935 2.607878127453964 -3 1 1
713 1 1 0.5897 5.7120162401269505 9.117934390522397 3.0059412467829625 -6 -2 4
345 1 1 0.5897 7.863089665818796 9.377623121604762 3.2468750698479694 -3 1 1
603 1 1 0.5897 8.904546524991517 7.710888277475034 4.295391093392397 2 3 -1
486 1 1 0.5897 6.229927465984722 7.193932708770558 2.629358551989471 3 2 0
42 1 1 0.5897 6.8830054449265194 11.697858472031541 3.5735751559403313 -3 -1 0
344 1 1 0.5897 7.9694502791545565 9.948849233068142 1.8488889490911582 -3 1 1
601 1 2 -1.1794 8.85960793286155 8.643875014238947 4.504589963108863 2 3 -1
714 1 1 0.5897 4.966531753007761 8.236890049218232 3.985716821703906 -6 -2 4
712 1 2 -1.1794 5.010858105871075 8.468373804158063 3.057981202943683 -6 -2 4
29 1 1 0.5897 6.215157580613504 7.694011570476516 0.6483768705171116 -5 3 6
18 1 1 0.5897 5.288262491639572 11.598160551452986 9.709553758601341 -3 3 0
493 1 2 -1.1794 5.847717687424109 8.255644017649702 8.827598106478396 -4 0 -1
753 1 1 0.5897 5.561336410480201 8.422629393782639 7.0970480872051835 3 1 1
495 1 1 0.5897 5.836341991777284 7.320910833232074 9.03355483802665 -4 0 -1
20 1 1 0.5897 7.7142669132758215 8.660177307494413 7.43231870245747 -5 -4 -3
31 1 2 -1.1794 7.900385725723069 9.8366091117083 10.074403227679475 0 7 -3
21 1 1 0.5897 8.748351902564645 8.389752671308646 6.360176248549003 -5 -4 -2
32 1 1 0.5897 7.146082117357629 9.38577532626076 9.694893438023234 0 7 -3
751 1 2 -1.1794 5.583596554699984 8.255194305314593 6.154861532101401 3 1 1
687 1 1 0.5897 6.595825426271715 10.945535700159091 7.062317146929847 12 -7 -1
803 1 1 0.5897 8.642151577573706 11.477754454542959 9.344023716881182 3 2 -2
685 1 2 -1.1794 7.1801265263064264 10.671873266631563 6.355216778681477 12 -7 -1
33 1 1 0.5897 8.605126905496169 9.189400691276724 10.04782789560648 0 7 -3
64 1 2 -1.1794 4.934282285723703 11.605108012468225 7.714001263245866 4 -1 -6
752 1 1 0.5897 5.796973343331032 7.324968859053519 6.081402683325043 3 1 1
19 1 2 -1.1794 8.52752169821416 8.182721733367375 7.268268987141973 -5 -4 -2
494 1 1 0.5897 5.147316103857683 8.627967007129442 9.363376447099888 -4 0 -1
16 1 2 -1.1794 5.410251849810361 11.670795475725164 10.65617653664329 -3 3 0
686 1 1 0.5897 6.851190266541458 9.81257655845406 6.091163440223407 12 -7 -1
690 1 1 0.5897 4.841055166734058 7.3413394675151915 12.076327487425733 4 -2 4
147 1 1 0.5897 6.066008489144684 7.985401398723965 15.341815120716761 0 2 -4
222 1 1 0.5897 7.026108619958661 11.240371945932454 12.956412059063517 1 -2 3
257 1 1 0.5897 6.984908210803369 9.113673432560486 13.58831793242225 -3 -3 1
256 1 2 -1.1794 7.363168280348498 8.570007653681447 14.27940357087209 -3 -3 1
820 1 2 -1.1794 5.624258930614471 11.241844942494932 16.092635328614065 2 -1 5
220 1 2 -1.1794 7.78589708045507 11.603572146011988 12.501364235916471 1 -2 3
822 1 1 0.5897 5.41420202187028 10.88544751754707 15.22944198005334 2 -1 5
258 1 1 0.5897 7.724521464146861 7.8129065303979734 13.81844230659939 -3 -3 1
364 1 2 -1.1794 5.354315384801852 10.562216287070118 13.163488210121658 1 2 7
191 1 1 0.5897 8.668067345773794 9.771129571243716 14.777891013866974 4 7 -5
145 1 2 -1.1794 5.320328886996461 7.70207354199634 15.870917648004715 0 2 -4
221 1 1 0.5897 7.800304245094231 11.150015758200256 11.658546620320633 1 -2 3
366 1 1 0.5897 5.152384003845361 10.770510664987079 12.251299449965916 1 2 7
818 1 1 0.5897 7.678495312465061 11.412281259819792 16.969004009646866 1 -5 0
558 1 1 0.5897 8.27632752423904 6.932878755474177 17.911349871078905 1 -2 2
765 1 1 0.5897 5.817063141932481 9.54800189608265 18.81230749830857 -8 -2 -2
467 1 1 0.5897 5.673487323085169 10.705817632922363 21.24224742051336 2 -5 3
763 1 2 -1.1794 5.351228321671289 9.407481394475745 17.98798897276633 -8 -2 -2
764 1 1 0.5897 5.603484596905762 10.150716145165838 17.440068069144914 -8 -2 -2
468 1 1 0.5897 7.0032855816092345 11.202265002960923 20.715826130201215 2 -5 3
556 1 2 -1.1794 7.478051408131423 6.757289034367615 18.4095258435947 1 -2 2
817 1 2 -1.1794 8.52892488737398 11.328834280303088 17.400336828561926 1 -5 0
557 1 1 0.5897 7.423211574195652 7.478183258877177 19.03687734718489 1 -2 2
146 1 1 0.5897 5.396628153832091 8.204900054497404 16.681842647921798 0 2 -4
466 1 2 -1.1794 6.284678280531573 10.603430271553597 20.512721039798677 2 -5 3
30 1 1 0.5897 6.7255526365674525 8.9216578141754 20.878146756039285 -5 3 5
28 1 2 -1.1794 6.928825492005946 8.000918099861657 21.043029514957382 -5 3 5
173 1 1 0.5897 6.590814827090226 13.232336390337625 5.129128078420715 1 1 0
659 1 1 0.5897 7.687661934322195 15.054881425432335 1.3345784163372252 1 0 6
87 1 1 0.5897 8.61540266934389 16.26580309915136 4.662193329662297 -3 6 4
40 1 2 -1.1794 7.005497406076636 12.644728190112392 3.641990208209156 -3 -1 0
316 1 2 -1.1794 6.309357351384436 15.831297771176034 2.402367331201557 -4 -7 0
41 1 1 0.5897 6.338412745849998 13.015383757186836 3.0641839589601276 -3 -1 0
318 1 1 0.5897 5.7987868782986975 16.047864981824997 1.6222020961220207 -4 -7 0
140 1 1 0.5897 8.738680757632142 12.066390088490634 3.043004976933871 -1 -1 1
317 1 1 0.5897 5.676757172561879 15.864327248611424 3.1199824525702824 -4 -7 -1
86 1 1 0.5897 8.818320502816283 14.780615923550284 4.874250087200389 -3 6 4
174 1 1 0.5897 5.623844830742157 14.374585117516647 5.357728583450711 1 1 0
658 1 2 -1.1794 8.44183617598696 14.885271628792536 0.7700273769556768 1 0 6
172 1 2 -1.1794 6.062421809980131 13.652505333086092 5.8077486128685525 1 1 0
531 1 1 0.5897 7.810629504602827 13.550983366478512 10.04262678952285 -3 -1 -5
358 1 2 -1.1794 5.675532108182913 15.650006744158075 9.193174699232134 6 1 -5
340 1 2 -1.1794 8.267069051324432 15.193488129593305 7.46810923691146 2 6 1
17 1 1 0.5897 5.987114819443377 12.426643579794769 10.766513547300852 -3 3 0
342 1 1 0.5897 8.087642246485206 14.368408155334599 7.017171074340351 2 6 1
360 1 1 0.5897 6.186625870649868 15.177279109095878 9.850105355871113 6 1 -5
341 1 1 0.5897 7.490581254593333 15.346501497765216 8.00653992847646 2 6 1
101 1 1 0.5897 8.646798547926116 11.831386529777632 6.089921172479181 2 -5 -2
824 1 1 0.5897 8.725165540987843 16.70398863119582 11.07847774430626 -1 5 5
529 1 2 -1.1794 7.250650439116182 13.942984609643204 10.71270240893676 -3 -1 -5
359 1 1 0.5897 4.962127979703833 15.052611077979092 8.968634390635517 6 1 -5
802 1 2 -1.1794 8.907387145461946 12.371081955286096 9.125251034273962 3 2 -2
36 1 1 0.5897 5.69816602896785 16.848866595337512 7.46819186211008 -6 4 0
530 1 1 0.5897 7.776368931991818 14.654209629582246 11.078796840154993 -3 -1 -5
664 1 2 -1.1794 9.003165573534973 13.675457821976824 14.037091126726047 3 -2 2
375 1 1 0.5897 6.296603053545944 13.653166397324139 13.322074607950217 9 6 0
373 1 2 -1.1794 5.6786740347159945 14.074730563774562 13.91934628094358 9 6 0
776 1 1 0.5897 6.428933173722214 14.269214482705818 15.857650245681315 6 -2 1
159 1 1 0.5897 6.494602936402995 15.668544725858094 13.769606212625792 2 1 -2
666 1 1 0.5897 8.611590150374319 12.946994143440538 13.555156536196515 3 -2 2
823 1 2 -1.1794 8.695863162451191 15.953527588017591 11.671948603072687 -1 5 5
374 1 1 0.5897 4.990443143850502 13.42282545908128 14.052095795568043 9 6 0
158 1 1 0.5897 7.489208762142835 16.308575357369314 12.824558399444108 2 1 -2
157 1 2 -1.1794 6.799801684609892 16.519256397635566 13.454316748579181 2 1 -2
6 1 1 0.5897 6.468959487860863 16.667003181856963 20.461001975160777 1 2 2
5 1 1 0.5897 5.897139412704167 15.265523010576752 20.43247781686449 1 2 2
4 1 2 -1.1794 5.728765839473075 16.145019889199023 20.770678417892633 1 2 2
25 1 2 -1.1794 6.3506007568385305 13.64802778901124 19.0718069480301 -2 6 7
27 1 1 0.5897 7.061609191503743 13.041019670997773 19.277364441408352 -2 6 7
819 1 1 0.5897 9.005861601179962 12.118669240731679 17.14538610721676 1 -6 0
506 1 1 0.5897 6.105683006827927 16.236334017713055 17.319300695918756 2 3 -1
26 1 1 0.5897 6.547991067524206 13.95840405987026 18.188086817136522 -2 6 7
777 1 1 0.5897 7.832865027582355 14.181549753251668 16.41733037436888 6 -2 1
775 1 2 -1.1794 6.9745986152492065 14.57141204648474 16.583715298070892 6 -2 1
859 1 2 -1.1794 8.306388479351547 12.357888070474502 20.700705906039893 -7 -2 -2
860 1 1 0.5897 8.191533266936654 13.22223011097202 21.09569976326899 -7 -2 -2
338 1 1 0.5897 8.875880215182844 15.350640649196174 20.02767082465084 0 3 1
596 1 1 0.5897 4.956248416177777 13.278585767632535 19.82983287512124 1 -5 2
739 1 2 -1.1794 8.483634546622113 18.02771596465348 1.7160766138802466 -1 -1 2
12 1 1 0.5897 6.857269051623474 17.766747236868042 5.2214937579268055 -1 1 5
11 1 1 0.5897 7.112668468137144 18.766860374696506 4.114000186716201 -1 1 5
415 1 2 -1.1794 6.097774885018126 19.775525218171637 3.058885720136298 -1 0 -2