LAMMPS (30 Jul 2021)
  using 1 OpenMP thread(s) per MPI task
package omp 0
using multi-threaded neighbor list subroutines
echo both

include		in.partitions
variable        pid world 0
include		in.temp
variable        temperature equal 267.57
variable	tempDamp equal 100.0
include		in.pressure
variable        pressure equal 10500.0
variable        pressureDamp equal 1000.0 # This is 1 ps
include		in.seed
variable        seed world 745823

units		real
atom_style	full
read_restart	restart.lmp.${pid}
read_restart	restart.lmp.0
Reading restart file ...
  restart file = 30 Jul 2021, LAMMPS = 30 Jul 2021
  restoring atom style full from restart
  orthogonal box = (0.65883501 1.8675519 0.80377718) to (17.548737 21.761626 21.409419)
  4 by 4 by 4 MPI processor grid
  restoring pair style lj/cut/tip4p/long/omp from restart
  restoring bond style harmonic/omp from restart
  restoring angle style harmonic/omp from restart
  864 atoms
  576 bonds
  288 angles
Finding 1-2 1-3 1-4 neighbors ...
  special bond factors lj:    0        0        0       
  special bond factors coul:  0        0        0       
     2 = max # of 1-2 neighbors
     1 = max # of 1-3 neighbors
     1 = max # of 1-4 neighbors
     2 = max # of special neighbors
  special bonds CPU = 1.718 seconds
  read_restart CPU = 2.070 seconds
include 	in.setup
variable	out_freq equal 1000
variable	out_freq2 equal 10000
variable	out_freq3 equal 1000

timestep	2.0

neigh_modify    delay 7 every 1

include		in.tip4p
# This is TIP4P/Ice

# create groups ###
group ox type 2
288 atoms in group ox
group hy type 1
576 atoms in group hy

# set charges - beside manually ###
set group ox charge -1.1794
Setting atom values ...
  288 settings made for charge
set group hy charge 0.5897
Setting atom values ...
  576 settings made for charge

# ### TIP3P Potential Parameters ###
pair_style lj/cut/tip4p/long/omp 2 1 1 1 0.1577 8.5
pair_coeff 1 1*2 0.000 0.000
pair_coeff 2 2 0.21084 3.1668
bond_style  harmonic
bond_coeff  1 450 0.9572
angle_style harmonic
angle_coeff 1 55 104.52
kspace_style pppm/tip4p/omp 1.0e-5
pair_modify tail yes

thermo          ${out_freq}
thermo          1000
thermo_style    custom step temp pe etotal epair emol press lx ly lz vol pxx pyy pzz pxy pxz pyz enthalpy

restart 	${out_freq3} restart.lmp.${pid} restart2.lmp.${pid}
restart 	1000 restart.lmp.${pid} restart2.lmp.${pid}
restart 	1000 restart.lmp.0 restart2.lmp.${pid}
restart 	1000 restart.lmp.0 restart2.lmp.0


include         in.dump
dump            myDump all atom ${out_freq2} dump.water.${pid}
dump            myDump all atom 10000 dump.water.${pid}
dump            myDump all atom 10000 dump.water.0
dump            myDump2 all dcd ${out_freq2} dump.dcd
dump            myDump2 all dcd 10000 dump.dcd
dump_modify     myDump append yes
dump_modify     myDump2 append yes


variable natoms 	equal  "count(all)"                        # NUMBER ATOMS
variable H      	equal  "enthalpy/v_natoms"                 # ENTHALPY-per-atom
variable Vol      	equal  "vol/v_natoms"                 # volume-per-atom
fix AVG all 		ave/time ${out_freq} 1 ${out_freq} v_Vol v_H file vol_enthalpy.dat
fix AVG all 		ave/time 1000 1 ${out_freq} v_Vol v_H file vol_enthalpy.dat
fix AVG all 		ave/time 1000 1 1000 v_Vol v_H file vol_enthalpy.dat


timer           timeout 23:50:00 every 1000
New timer settings: style=normal  mode=nosync  timeout=23:50:00

fix 		1 all shake 1e-6 200 0 b 1 a 1
       0 = # of size 2 clusters
       0 = # of size 3 clusters
       0 = # of size 4 clusters
     288 = # of frozen angles
  find clusters CPU = 0.013 seconds
fix             2 all nph iso ${pressure} ${pressure} ${pressureDamp}
fix             2 all nph iso 10500 ${pressure} ${pressureDamp}
fix             2 all nph iso 10500 10500 ${pressureDamp}
fix             2 all nph iso 10500 10500 1000
fix             3 all temp/csvr ${temperature} ${temperature} ${tempDamp} ${seed}
fix             3 all temp/csvr 267.57 ${temperature} ${tempDamp} ${seed}
fix             3 all temp/csvr 267.57 267.57 ${tempDamp} ${seed}
fix             3 all temp/csvr 267.57 267.57 100 ${seed}
fix             3 all temp/csvr 267.57 267.57 100 745823

run             250000
PPPM initialization ...
  extracting TIP4P info from pair style
  using 12-bit tables for long-range coulomb (../kspace.cpp:340)
  G vector (1/distance) = 0.3746756
  grid = 24 24 24
  stencil order = 5
  estimated absolute RMS force accuracy = 0.0031140875
  estimated relative force accuracy = 9.3779819e-06
  using double precision FFTW3
  3d grid and FFT values/proc = 2535 216
Last active /omp style is kspace_style pppm/tip4p/omp
Neighbor list info ...
  update every 1 steps, delay 7 steps, check yes
  max neighbors/atom: 2000, page size: 100000
  master list distance cutoff = 10.8154
  ghost atom cutoff = 10.8154
  binsize = 5.4077, bins = 4 4 4
  1 neighbor lists, perpetual/occasional/extra = 1 0 0
  (1) pair lj/cut/tip4p/long/omp, perpetual
      attributes: half, newton on, omp
      pair build: half/bin/newton/omp
      stencil: half/bin/3d
      bin: standard
Per MPI rank memory allocation (min/avg/max) = 9.238 | 9.240 | 9.243 Mbytes
Step Temp PotEng TotEng E_pair E_mol Press Lx Ly Lz Volume Pxx Pyy Pzz Pxy Pxz Pyz Enthalpy 
26000000    281.05252   -3847.3319   -3365.6175   -3847.3319            0     9814.708    16.889902    19.894074    20.605641    6923.6803    12601.568    8820.3451    8022.2107    1499.8994     150.6587    1410.7293   -2374.5796 
26001000    269.66564    -3862.801   -3400.6033    -3862.801            0     9487.615    16.906594    19.913735    20.626005    6944.2279    8887.5047     9446.314    10129.026    1124.7288   -914.24268     78.23046   -2439.7504 
26002000    264.31736   -3887.1889    -3434.158   -3887.1889            0    9784.2407    16.912575    19.920779    20.633302    6951.6003    9420.6696    9840.5228     10091.53   -367.96595     452.8168   -2735.6272   -2442.2124 
26003000    267.83629    -3880.611   -3421.5488    -3880.611            0    9189.0206    16.889449     19.89354    20.605088    6923.1229    8896.9986    9112.5826    9557.4804   -1584.1164    2026.0243   -1284.2058   -2493.7642 
26004000    258.11651   -3898.3815   -3455.9787   -3898.3815            0    9071.8636    16.827514    19.820589    20.529528    6847.2388    8005.4079    9446.5442    9763.6386   -1369.5326    135.31151   -1592.3575   -2550.0628 
26005000    260.82493   -3847.5235   -3400.4785   -3847.5235            0    10274.676    16.856361    19.854567    20.564721    6882.5132    11621.572     11319.69    7882.7655    749.11762   -640.87672    860.45994   -2369.1641 
26006000    281.07164   -3876.2473   -3394.5001   -3876.2473            0    10638.725    16.759072    19.739973    20.446028    6764.0292    10417.675    10880.297    10618.203    346.36006   -87.225762    188.06439   -2345.0279 
26007000    262.49986   -3855.9717   -3406.0559   -3855.9717            0      11170.4    16.813658    19.804268    20.512624    6830.3385    13571.779    10384.993    9554.4275   -399.75895   -309.89613    268.31668   -2293.3335 
26008000    271.55361   -3858.5644   -3393.1308   -3858.5644            0    10443.154     16.85671    19.854978    20.565147    6882.9414    10712.968    9593.4888    11023.004   -1002.9532   -1383.8549   -642.76783   -2344.8403 
26009000    297.18208   -3872.9735   -3363.6135   -3872.9735            0    10363.496    16.814892    19.805722    20.514129    6831.8428    10247.679     11540.79    9302.0206    158.98648    267.86112   -740.88593   -2331.0422 
26010000    265.80282   -3834.3671   -3378.7902   -3834.3671            0    9929.2652    16.908023    19.915418    20.627749    6945.9893    10403.392    9546.7798    9837.6244   -695.90142    -1033.454    894.86818   -2372.9544 
26011000    262.04235   -3831.5514   -3382.4198   -3831.5514            0    10287.129    16.891431    19.895875    20.607507    6925.5606    12002.606    10123.325    8735.4546    2228.8186    1569.9154    1653.8035   -2343.3971 
26012000     278.0189   -3851.3517   -3374.8368   -3851.3517            0    9970.8596    16.901651    19.907913    20.619975     6938.139    9399.9909    11290.228    9222.3599   -3551.8408   -37.356982     782.4145    -2365.929 
26013000    268.61996   -3798.1605    -3337.755   -3798.1605            0    10683.067    16.900255    19.906268    20.618272    6936.4199    12613.197    9124.9159    10311.087    356.33243    -1164.534   -294.26614   -2257.0499 
26014000    272.75623   -3845.1684   -3377.6736   -3845.1684            0    11006.831    16.937232    19.949823    20.663384    6982.0497    12172.414     9319.714    11528.364    -371.3623   -578.68746    2529.3794   -2256.8917 
26015000     268.5874     -3826.04   -3365.6904     -3826.04            0    10152.261    16.884118    19.887261    20.598585    6916.5692     9703.064    10906.668    9847.0496    1350.5835    -450.0691     569.3009    -2341.621 
26016000    266.32336   -3842.1575   -3385.6884   -3842.1575            0    11220.046    16.830199    19.823751    20.532803    6850.5166    11541.316    9586.0053    12532.817   -1287.9763    399.20872   -164.95963   -2264.7187 
26017000    272.53843   -3837.6533   -3370.5318   -3837.6533            0    11094.207    16.793485    19.780507    20.488012    6805.7825    13158.955    6998.7254    13124.939   -1629.0749     969.1534   -43.225092   -2269.3723 
26018000    258.04092   -3859.4665   -3417.1932   -3859.4665            0    9915.6588    16.787511    19.773471    20.480725    6798.5225    8212.2862    8894.8839    12639.806    -69.09584   -1425.2572   -1356.1636   -2434.0609 
26019000    257.63001   -3861.5145   -3419.9454   -3861.5145            0     10218.03    16.808171    19.797806     20.50593    6823.6538    8925.3011    11520.113    10208.675   -424.67411   -827.80081    1544.0767   -2403.0881 
26020000    263.18828   -3901.3254   -3450.2296   -3901.3254            0    8725.9371     16.83814    19.833105    20.542492    6860.2187    10626.285    7198.8078    8352.7187    615.04967   -240.85284    118.02679   -2577.2062 
26021000    273.75001   -3897.0272   -3427.8291   -3897.0272            0    10431.726    16.803153    19.791894    20.499807    6817.5434    12489.977    9710.4547     9094.748    1229.0614   -1421.3111    1707.0788   -2390.6351 
26022000    257.76054   -3851.4051   -3409.6123   -3851.4051            0    8502.7105    16.883223    19.886207    20.597493    6915.4697    7280.0223    8663.0057    9565.1034    47.218042    3.2728364    951.94891   -2552.0712 
26023000    264.50402   -3881.6924   -3428.3416   -3881.6924            0    11347.661    16.781795    19.766738    20.473751    6791.5802    10616.517    11970.236    11456.229   -130.13434   -1307.7508    364.41897   -2304.3759 
26024000    282.86027   -3837.3649   -3352.5521   -3837.3649            0     10272.39    16.893796     19.89866    20.610391    6928.4695    9723.7233    10662.258    10431.189   -1193.7698   -1195.1345   -134.83536   -2314.5823 
26025000    270.82433   -3833.8419   -3369.6582   -3833.8419            0    9459.0401    16.871173    19.872014    20.582792    6900.6731     9296.113    10799.286    8281.7211    23.003439    151.09892   -122.31959   -2417.7076 
26026000     285.7965   -3830.4344    -3340.589   -3830.4344            0    10224.612    16.843798     19.83977    20.549395    6867.1366    9249.1346    10876.899    10547.801    2020.1827      1106.61    407.32109   -2316.5926 
26027000    270.11338   -3833.2291    -3370.264   -3833.2291            0    10138.776    16.878369    19.880489     20.59157     6909.506    8935.5766    12202.911    9277.8392    759.78049   -1049.7852    694.06339   -2348.5993 
26028000    281.31627   -3872.0587   -3389.8922   -3872.0587            0    10848.729    16.825832    19.818608    20.527476    6845.1857    10883.747    11036.127    10626.313    341.03772    278.08509    252.51404   -2306.8635 
26029000    267.64217   -3839.3953   -3380.6658   -3839.3953            0    11066.025    16.842526    19.838271    20.547842    6865.5803    9857.7586     11387.22    11953.097   -756.63889    939.38705   -1303.9478   -2272.6529 
26030000      279.785   -3809.8262   -3330.2843   -3809.8262            0    10786.721    16.800061    19.788252    20.496035    6813.7806    8226.4779    10564.545     13569.14   -291.08218    126.79928     933.1913   -2258.3862 
26031000    273.61608   -3806.0872   -3337.1186   -3806.0872            0    10250.838    16.860114    19.858987      20.5693    6887.1114    8729.1637    10454.839    11568.512    74.081236    640.97494   -483.20575   -2307.5095 
26032000    261.63512   -3823.5347   -3375.1011   -3823.5347            0    7824.3894    16.922038    19.931925    20.644847    6963.2754    7998.4204    6344.4971    9130.2507    887.84279   -1160.8222   -236.68991   -2580.5169 
26033000     277.4131   -3852.8988   -3377.4222   -3852.8988            0    9378.5575    16.848652    19.845486    20.555316    6873.0744    9764.0677    8398.9327    9972.6721    301.41979   -755.56211    1004.2712   -2437.3462 
26034000    265.39861   -3857.3802   -3402.4961   -3857.3802            0    11751.568    16.796057    19.783536     20.49115    6808.9098    11770.032    11126.605    12358.067   -470.66154    142.31045    776.33551   -2235.5541 
26035000    250.63536   -3859.6934   -3430.1129   -3859.6934            0    11131.278    16.833889    19.828098    20.537306    6855.0243    11539.431    12584.925    9269.4779   -493.09307    1030.9032   -298.51179   -2317.2801 
26036000    269.83572   -3868.0989   -3405.6097   -3868.0989            0    9948.7962    16.794122    19.781258     20.48879    6806.5578    9250.3159    9916.0543    10680.018   -654.32275   -359.02625   -513.08075   -2418.0259 
26037000     279.0533   -3854.0147   -3375.7269   -3854.0147            0    10832.648    16.873806    19.875114    20.586003    6903.9035    12013.934     10608.24    9875.7692    208.44673    382.53131   -732.12761   -2285.0272 
26038000     269.2004   -3816.1131   -3354.7128   -3816.1131            0    12835.457    16.769994    19.752837    20.459353    6777.2621    11536.949    11419.553    15549.868     1474.812   -280.78706   -431.01245   -2086.0637 
26039000    269.46098   -3826.4608   -3364.6139   -3826.4608            0    10880.459    16.850005     19.84708    20.556967     6874.731    11597.186    10185.232    10858.959   -1433.0588    1458.5919   -1209.7456   -2273.7293 
26040000     270.8513   -3832.7566   -3368.5268   -3832.7566            0    11903.983    16.843584    19.839517    20.549133    6866.8739    13546.378    11822.525    10343.047   -761.99493    480.11217    981.86804   -2176.3867 
26041000    267.31171   -3846.0891    -3387.926   -3846.0891            0    9528.4477    16.824203    19.816688    20.525488    6843.1972    11658.989    10025.675    6900.6782    1084.2888    26.804922    886.71631   -2436.9773 
26042000    274.71995    -3859.648   -3388.7874    -3859.648            0    8725.5168     16.87003    19.870667    20.581397    6899.2697    10641.997    6086.7735    9447.7798    566.25955    392.23543    1866.3525   -2510.8367 
26043000     265.5848   -3847.3321   -3392.1288   -3847.3321            0    9986.3538    16.881749     19.88447    20.595694    6913.6576    9306.2236    9773.4365    10879.401    1316.2662   -2974.2597   -478.55825   -2385.2187 
26044000    267.59147   -3822.8424   -3364.1998   -3822.8424            0    12645.991     16.75328    19.733151    20.438962    6757.0188    11524.449    13378.733    13034.791   -707.12423   -817.10872   -1758.0025   -2118.0108 
26045000     266.3225   -3885.4812   -3429.0135   -3885.4812            0    10122.775    16.852019    19.849452    20.559424    6877.1961     9676.921    9126.8595    11564.545     936.9832    1225.4671   -133.04096    -2413.731 
26046000     267.1877   -3816.2166   -3358.2661   -3816.2166            0    10142.765    16.913742    19.922154    20.634726    6953.0398    11180.024    9548.1241    9700.1461    46.763969    1319.1784   -1828.0103   -2329.7598 
26047000    263.81862   -3843.1392   -3390.9631   -3843.1392            0    11016.882    16.822334    19.814487    20.523208    6840.9174    11357.446    12061.154    9632.0465   -129.74146    797.03247   -903.64815   -2291.8334 
26048000    271.55711    -3824.486   -3359.0464    -3824.486            0    10039.631    16.893578    19.898404    20.610126     6928.202    9764.9616    11022.582    9331.3499   -986.66778   -233.97649    638.89512   -2344.6348 
26049000    276.91498   -3820.7321   -3346.1093   -3820.7321            0    12456.197    16.814105    19.804795    20.513169    6830.8833    15636.941    10248.973    11482.675    300.57499   -104.42163   -209.45249   -2105.2052 
26050000    266.69748   -3818.0138   -3360.9034   -3818.0138            0    11915.027     16.79483    19.782091    20.489653    6807.4176    12388.574    10574.117     12782.39   -1044.8653    -1338.476    1463.1072    -2177.989 
26051000    271.49605   -3816.8718   -3351.5369   -3816.8718            0    9482.3449    16.837497    19.832347    20.541707    6859.4323    8988.6506    8697.7302    10760.654   -398.32479    649.53766    1539.0902   -2402.9441 
26052000    267.11769   -3845.2195    -3387.389   -3845.2195            0    12283.088     16.76579    19.747885    20.454224    6772.1664    10915.988    13280.928    12652.347   -375.00625    206.44147   -303.90643   -2174.2486 
26053000    257.92572   -3852.1571   -3410.0813   -3852.1571            0     9978.326    16.828187    19.821381    20.530348    6848.0599     9080.342    9857.2109    10997.425    157.38023    3530.3097   -381.20874   -2413.5266 
26054000    269.45259   -3835.4204   -3373.5879   -3835.4204            0     11835.48    16.818512    19.809985    20.518545    6836.2555    12502.707    12112.168    10891.563     283.1841    233.76824    1099.5869   -2193.5932 
26055000     268.3482   -3871.1124   -3411.1727   -3871.1124            0    9449.8369       16.844    19.840007     20.54964     6867.383    9079.1283    12852.594    6417.7884   -748.90815   -817.99985    376.55275   -2464.7362 
26056000     274.2749   -3835.8021   -3365.7043   -3835.8021            0    10640.721    16.845918    19.842266     20.55198    6869.7292    10652.097    11019.526    10250.541    60.185547     363.6949   -801.57989   -2299.6322 
26057000    254.59778   -3851.6512   -3415.2793   -3851.6512            0    11702.478    16.869366    19.869885    20.580587    6898.4559    12241.962    11344.647    11520.826    919.02038   -834.28644    469.36146   -2237.9292 
26058000    263.75001    -3861.796   -3409.7375    -3861.796            0    10769.447    16.852423    19.849929    20.559917    6877.6913    10140.852    11985.991    10181.499    28.353949    -296.6213    155.18618   -2329.5181 
26059000    268.35493   -3864.8867   -3404.9355   -3864.8867            0    11218.217    16.841999     19.83765      20.5472    6864.9365    10370.646     13515.46    9768.5462   -361.13562   -1393.9534    248.32361   -2281.7894 
26060000    258.83094   -3869.8837   -3426.2564   -3869.8837            0    9245.5177    16.871735    19.872675    20.583478    6901.3625    10918.316    7244.1192     9574.118    -352.6408   -48.499775    218.75185   -2495.7015 
26061000    261.89019   -3841.1784   -3392.3076   -3841.1784            0    11563.623    16.824467       19.817    20.525811    6843.5205    10034.579    12532.673    12123.617   -666.25118   -65.945194    1231.6697   -2238.1918 
26062000    260.62344   -3839.9804   -3393.2807   -3839.9804            0    10646.208    16.874647    19.876105     20.58703    6904.9366    10356.376    9382.7558    12199.491    35.086058    456.66924   -493.90278   -2321.1925 
26063000    277.19078   -3815.2495    -3340.154   -3815.2495            0    12698.215     16.80938    19.799229    20.507404    6825.1259    14266.399    10585.896    13242.351    917.73105    1492.2154    723.40252   -2076.2059 
26064000    272.79803   -3851.3859   -3383.8194   -3851.3859            0    9289.9354    16.810119      19.8001    20.508306    6826.0262    11717.988    6754.7836    9397.0342   -27.980991   -810.68093   -521.26235   -2459.0009 
26065000    261.08507   -3877.1174   -3429.6265   -3877.1174            0    9108.6705    16.847986    19.844703    20.554504    6872.2603    9001.0861     9047.215    9277.7106   -1515.5508    580.50532    719.90941   -2516.7112 
26066000    272.53193   -3840.6274    -3373.517   -3840.6274            0    9149.3668    16.970155    19.988601     20.70355    7022.8441    8765.6519    9603.2572    9079.1914    271.01662    480.75429    21.058886   -2436.4299 
26067000    255.30003   -3890.4813   -3452.9058   -3890.4813            0    8946.1603    16.881181    19.883801    20.595001    6912.9599    7640.7143     10894.41    8303.3571   -866.27432   -411.47631   -987.44474   -2550.9679 
26068000     262.5393   -3845.8475   -3395.8642   -3845.8475            0    10313.864    16.845751    19.842069    20.551776    6869.5247    9882.0778    11220.324    9839.1895    -884.8306   -76.689112    497.64908     -2362.57 
26069000    256.77978   -3858.2442   -3418.1324   -3858.2442            0    9888.6846    16.863256    19.862688    20.573133    6890.9624    9868.1784    9688.2209    10109.655    1232.9965    1023.7901     488.7847   -2424.3432 
26070000    257.22654   -3834.9986   -3394.1212   -3834.9986            0      8984.34    16.937355    19.949967    20.663533    6982.2008    8368.6311     9836.105     8748.284    922.75343   -411.43345    983.18253   -2479.2616 
26071000    265.69649   -3866.7804   -3411.3857   -3866.7804            0    8008.2367     16.93404    19.946062    20.659489    6978.1017    6897.8895    6972.7692    10154.052    293.17719    1349.4348    162.51669   -2596.3999 
26072000    283.37602   -3805.4706   -3319.7738   -3805.4706            0    8698.3594    16.914906    19.923525    20.636146    6954.4751    7755.7539    7506.1354    10833.189    1174.5064    557.96398   -942.66918   -2437.5524 
26073000    257.51597   -3855.6755   -3414.3019   -3855.6755            0    10928.794    16.800431    19.788689    20.496487    6814.2315    10411.044    10863.199    11512.139    651.54725    1015.4433    1384.0406   -2328.2139 
26074000    272.75044   -3852.3097   -3384.8248   -3852.3097            0    9742.7254    16.784424    19.769835    20.476958    6794.7728    9374.4751    9734.8093    10118.892   -1091.6145   -932.89674   -906.49154   -2419.3715 
26075000    263.19151   -3854.3372    -3403.236   -3854.3372            0     10991.37    16.799969    19.788145    20.495923    6813.6693    10390.493    12108.716    10474.901   -359.98077   -1147.2121     -419.336   -2311.0194 
26076000    271.47106   -3859.8037   -3394.5116   -3859.8037            0    11856.922    16.808359    19.798027    20.506159    6823.8826    10185.203    12428.522    12957.041    595.62484    691.06467     107.8956   -2214.5188 
26077000    260.82135   -3876.2976   -3429.2588   -3876.2976            0    9892.8694    16.817764    19.809104    20.517633    6835.3434    10889.526    10204.034    8585.0475    738.79263   -965.58041    1371.5298   -2443.0735 
26078000    289.18829   -3824.8361   -3329.1773   -3824.8361            0    11380.591    16.821362    19.813342    20.522022    6839.7314    12269.856    13022.532    8849.3866    96.058907    1396.1219   -690.73474    -2193.958 
26079000    261.51865   -3833.0621   -3384.8281   -3833.0621            0    9458.3405    16.804772    19.793802    20.501783     6819.515    10679.929    9817.7097     7877.383   -1527.0537    277.55486    1138.2354   -2444.1429 
26080000    272.87841   -3807.2727   -3339.5685   -3807.2727            0    10610.839    16.832718    19.826719    20.535877    6853.5935    10847.389    12007.786    8977.3406   -128.92392   -372.62492   -1299.9138   -2278.9872 
26081000    262.53134   -3846.1993   -3396.2295   -3846.1993            0    12467.645    16.810734    19.800824    20.509057    6826.7758    11862.312    13445.438    12095.184    755.50874    111.10837    211.55602   -2154.9318 
26082000    259.67554   -3873.9768   -3428.9018   -3873.9768            0     11427.41    16.830555     19.82417    20.533237    6850.9513    9542.1948    12000.304    12739.731   -964.63366    583.98463    2070.3771   -2287.1424 
26083000     272.3801   -3875.2961   -3408.4459   -3875.2961            0    8749.5535    16.894104    19.899023    20.610768    6928.8489    9577.4754    9577.9838    7093.2014   -368.59602    791.58397    227.38024   -2524.3022 
26084000    280.98514   -3813.7015   -3332.1026   -3813.7015            0    11491.855    16.822151    19.814272    20.522985    6840.6938    12454.481    12167.439    9853.6446    86.200508     1229.186    737.52693   -2185.6234 
26085000    270.35107   -3853.7209   -3390.3485   -3853.7209            0    10986.849    16.813442    19.804013    20.512359    6830.0746    13010.387    9538.0187    10412.142   -620.54014    2066.8649   -926.54877   -2295.9525 
26086000    274.07456   -3856.6885   -3386.9341   -3856.6885            0    10152.705    16.821206    19.813159    20.521832    6839.5414    10865.125    9278.7877    10314.203   -1193.8511    989.53893   -660.65876   -2374.2251 
26087000    263.24097   -3850.5661   -3399.3801   -3850.5661            0    10458.808    16.834381    19.828678    20.537906    6855.6254    10481.742    10783.475    10111.206   -161.18893   -1540.9547   -687.95214   -2353.6848 
26088000    282.67684   -3869.2291   -3384.7306   -3869.2291            0    9592.5329    16.883036    19.885987    20.597265      6915.24    8932.1813    9735.3804    10110.037   -480.05127    878.59598    748.57498   -2417.3076 
26089000    248.91371   -3858.4109   -3431.7813   -3858.4109            0    13451.698    16.777155    19.761272    20.468089    6785.9477    12463.604    12502.512    15388.979    238.47678    1098.5086   -152.78933   -2100.5194 
26090000    268.49743   -3848.6705   -3388.4751   -3848.6705            0    9954.3588    16.836752     19.83147    20.540799    6858.5225    8862.2551     10358.53    10642.291   -31.988281    1644.4156   -877.21011   -2392.7952 
26091000    259.17091   -3887.5485   -3443.3384   -3887.5485            0    7850.6476     16.88988    19.894047    20.605614    6923.6524    8245.3026    7620.5337    7686.1065   -38.722203    180.95487    481.81153   -2650.6243 
26092000    270.63245   -3861.5157   -3397.6609   -3861.5157            0    11069.199    16.806772    19.796157    20.504222    6821.9494    12395.376    9517.3649    11294.856    1568.1708    2157.0686   -410.38188   -2296.3738 
26093000    263.95003   -3910.1527   -3457.7514   -3910.1527            0    10111.964    16.848202    19.844957    20.554767    6872.5242    10928.293    10491.696    8915.9042    949.19393   -284.53587   -804.23812   -2444.2422 
26094000    271.51287   -3906.4962   -3441.1324   -3906.4962            0    10037.563    16.833879    19.828085    20.537293    6855.0111    9514.6267    9702.1485    10895.914    -30.11181   -402.50339   -146.90112    -2437.644 
26095000    266.46317   -3896.9554   -3440.2466   -3896.9554            0    8905.5931    16.862533    19.861837    20.572251    6890.0768    8795.4551    9826.2865    8095.0377   -182.85549    803.88244   -590.01241   -2545.3707 
26096000    270.79029   -3854.5121   -3390.3868   -3854.5121            0      7864.03    16.920428     19.93003    20.642883    6961.2889    6702.8193    9033.3087     7855.962    1724.1735   -128.15794    -1155.199   -2592.0049 
26097000    274.87263   -3876.3544   -3405.2321   -3876.3544            0    8648.8404    16.884069    19.887203    20.598524    6916.5085    6586.7718    10655.132    8704.6178   -631.16321    915.83337    1522.7494    -2532.822 
26098000    248.73906   -3885.0097   -3458.6794   -3885.0097            0     8307.265    16.883639    19.886696       20.598    6915.9803     8059.569    9630.5172    7231.7088   -357.82055    803.81168    275.73933   -2620.7881 
26099000    276.48192   -3874.3586    -3400.478   -3874.3586            0    9487.1485    16.822917    19.815175     20.52392    6841.6292    11038.545    9106.5145    8316.3863    1122.7406    209.47343   -55.070094   -2453.8679 
26100000    260.39675   -3863.8943   -3417.5832   -3863.8943            0    12950.976    16.777124    19.761236    20.468052    6785.9108    11946.996    13739.843    13166.089    94.086806   -1245.3296    800.12328   -2135.8828 
26101000     261.0822   -3867.3835   -3419.8976   -3867.3835            0    10663.187    16.811204    19.801378     20.50963    6827.3482    11870.894    10415.594    9703.0741   -1334.9794    274.90706   -292.97442   -2358.1654 
26102000    282.48713   -3813.9056   -3329.7323   -3813.9056            0    12181.029    16.753695     19.73364    20.439469    6757.5208    14181.678    12590.394    9771.0157   -723.47624   -300.02634   -126.92441   -2129.2735 
26103000    273.21648   -3836.9418   -3368.6581   -3836.9418            0    9549.1204    16.846273    19.842685    20.552414    6870.1641    9117.8597    10659.488    8870.0132   -477.51123    845.87508    1148.1685   -2411.8907 
26104000    264.17209   -3855.3275   -3402.5456   -3855.3275            0    10520.728    16.835364    19.829834    20.539104    6856.8253    9296.8449    9809.4495     12455.89    1836.5817   -310.90545    665.36603   -2350.4753 
26105000     269.6832   -3832.2441   -3370.0163   -3832.2441            0    9821.3854    16.887901    19.891716    20.603199     6921.219    7898.0158    10220.768    11345.372   -251.62984    2054.6559    812.57575   -2378.6567 
26106000    254.65998   -3846.8107   -3410.3322   -3846.8107            0    8620.0343    16.848088    19.844822    20.554628    6872.3844    9255.3594     10205.01    6399.7336   -1667.1358    497.42396    632.95591   -2546.3748 
26107000    262.71751   -3859.2334   -3408.9446   -3859.2334            0    10994.402    16.842816    19.838612    20.548196    6865.9351    9746.5479    10662.135    12574.524    738.95174    313.34948   -279.70714   -2308.0462 
26108000    275.30519   -3866.0825   -3394.2189   -3866.0825            0    11254.789    16.891381    19.895815    20.607445    6925.4986    8747.8167    14324.034    10692.515   -1402.4252   -855.70818     245.6113   -2257.4706 
26109000    269.00538   -3861.8826   -3400.8165   -3861.8826            0    11658.788    16.842213    19.837903    20.547461    6865.1981     12983.28    9669.4775    12323.606   -536.46298    -607.3096    519.99298   -2233.5169 
26110000    273.66183   -3870.7473   -3401.7003   -3870.7473            0     9267.897    16.876627    19.878438    20.589446    6907.3675    8235.4277    10156.884    9411.3789   -1927.8536    968.24669   -845.34532   -2468.0813 
26111000    269.36733   -3834.8934    -3373.207   -3834.8934            0    9746.6536    16.872132    19.873142    20.583961    6901.8491    10876.062    8732.9259    9630.9728   -1017.5859   -405.75213   -490.00062    -2392.144 
26112000    267.74457   -3849.8799   -3390.9749   -3849.8799            0    10202.462    16.845165    19.841379    20.551062    6868.8081    10180.003    9534.0944    10893.289   -506.61225   -603.12126     278.1365   -2368.9481 
26113000    268.39486    -3856.142   -3396.1224    -3856.142            0    9201.9745    16.875477    19.877083    20.588043    6905.9555    9496.9476    9875.0907    8233.8851    1176.1323   -8.6204317    1284.1563   -2469.3338 
26114000    277.04978   -3827.5658   -3352.7119   -3827.5658            0    10364.592    16.871674    19.872603    20.583402    6901.2869     11212.77    9394.6791    10486.326    360.53574   -1650.1895    698.08097   -2309.5345 
26115000    276.46955   -3837.2033   -3363.3439   -3837.2033            0    12384.591    16.840878    19.836329    20.545831    6863.5651     12089.26    12725.971    12338.541   -257.38821   -7.8854849    1548.1341   -2123.6705 
26116000    264.32932   -3832.0554    -3379.004   -3832.0554            0      12102.7    16.795496    19.782876    20.490466    6808.2281    9787.3925    12843.676    13677.032    1611.9497   -892.52286   -584.25914   -2177.3145 
26117000    258.74124   -3882.2867   -3438.8131   -3882.2867            0    9135.0713    16.872715    19.873829    20.584672    6902.5644    9579.5046    9122.8836    8702.8258   -90.867959   -505.95397   -360.48628   -2519.2145 
26118000      254.307   -3825.9312   -3390.0577   -3825.9312            0    12336.448    16.788841    19.775037    20.482347     6800.138    11535.367    11732.806     13741.17   -848.49723    594.92217    946.98902   -2166.6148 
26119000    262.86987   -3831.6069   -3381.0569   -3831.6069            0    9274.9635    16.955062    19.970823    20.685136    7004.1223    9127.1291    9758.7025    8939.0588   -327.19952    756.15676    231.67231   -2433.6385 
26120000    264.37539   -3847.5203   -3394.3899   -3847.5203            0     10447.76    16.838037    19.832983    20.542365    6860.0921    10299.958    11079.195    9964.1263    1230.6746   -1769.1141    1244.3225   -2349.1187 
26121000    266.41903   -3830.3456   -3373.7125   -3830.3456            0    10678.514    16.884005    19.887128    20.598447    6916.4304    10127.521    12025.582    9882.4393    1626.0786   -470.25108    1182.8023    -2296.581 
26122000    286.23842   -3806.7099    -3316.107   -3806.7099            0     11746.37    16.840745    19.836173     20.54567    6863.4029    9297.0421    13489.477     12452.59   -376.83192   -1063.9858   -509.55082    -2140.346 
26123000     246.8767    -3822.749   -3399.6108    -3822.749            0    8418.5372    16.872384    19.873439    20.584269    6902.1584    8996.6745    8156.5379    8102.3992   -123.53504    153.29587   -371.31558   -2552.1933 
26124000    270.68111   -3807.0967   -3343.1585   -3807.0967            0    12027.658    16.829016    19.822358    20.531361    6849.0728    13472.745    11652.494    10957.734    657.60729    422.33529    831.34008   -2141.7554 
26125000    285.02759   -3830.9278   -3342.4003   -3830.9278            0    10563.204    16.887158    19.890842    20.602293    6920.3059    11137.604    9265.9424    11286.065   -1015.8962   -478.33634   -658.45847    -2276.303 
26126000    284.09038   -3860.6031   -3373.6819   -3860.6031            0    11282.867    16.852932    19.850528    20.560538    6878.3144    10810.189    9372.1909    13666.223    1679.8551  0.044230825   -582.03569   -2241.8618 
26127000    264.31323   -3832.6708    -3379.647   -3832.6708            0    9136.1867    16.902521    19.908937    20.621036    6939.2102    8849.7241    11678.056    6880.7801    27.919943    833.43611    -229.6427   -2455.0533 
26128000    273.68249   -3853.1026   -3384.0202   -3853.1026            0    13504.609    16.848802    19.845663    20.555499    6873.2582    14082.002     13359.88    13071.944   -1465.0732   -928.50419    786.36051   -2030.3261 
26129000    269.92998   -3826.5404   -3363.8896   -3826.5404            0    10797.416    16.856001    19.854143    20.564282    6882.0729    8836.2105    11407.208    12148.828    114.53339   -376.01221    555.10962   -2280.1749 
26130000    256.08584   -3842.9375   -3404.0152   -3842.9375            0    9688.5041    16.881363    19.884015    20.595223    6913.1837    9328.7439    9257.1761    10479.592   -1561.6185   -588.36939   -303.64618   -2427.2038 
26131000    258.15736   -3852.7397   -3410.2668   -3852.7397            0    10764.606    16.892524    19.897162     20.60884    6926.9054    11766.983    9684.5117    10842.324     198.3752    2199.9167     220.5561   -2322.8069 
26132000     275.0808   -3826.2586   -3354.7795   -3826.2586            0    9702.1202    16.917571    19.926664    20.639397    6957.7629    9967.4427    9172.5867    9966.3312    897.12724    -554.6382     1344.437   -2370.2875 
26133000    258.22212   -3850.1519    -3407.568   -3850.1519            0    9732.0777    16.856277    19.854468    20.564619     6882.411    9501.3836    8617.5121    11077.338   -952.51449   -224.41812    944.09094   -2430.7311 
26134000    265.55164   -3883.1157   -3427.9693   -3883.1157            0    11555.467    16.862051    19.861269    20.571663    6889.4854    11504.021    10627.495    12534.884   -1080.1507   -963.65614   -1328.9824   -2266.9213 
26135000    255.97745   -3853.4821   -3414.7455   -3853.4821            0    10804.138    16.863728    19.863244    20.573708    6891.5407    10480.488    12147.319    9784.6056   -272.26343   -1695.9871   -1979.6191   -2328.8643 
26136000    264.59579   -3846.0044   -3392.4963   -3846.0044            0    10290.089    16.915113    19.923769    20.636399    6954.7306    11104.222    10524.012    9242.0339   -1306.6599   -2095.8608    475.43955   -2348.7971 
26137000    258.72246   -3863.2211   -3419.7796   -3863.2211            0    12521.207    16.859236    19.857953    20.568229    6886.0357    12913.701    11880.492    12769.426    834.82396    668.59374   -322.85166   -2162.3278 
26138000    265.09549   -3833.9112   -3379.5467   -3833.9112            0    10562.489    16.865367    19.865175    20.575708    6893.5509    10308.623    8345.5592    13033.286   -120.67434   -829.35078   -198.01988   -2317.6429 
26139000    242.94935   -3848.1253   -3431.7184   -3848.1253            0    8183.5396    16.855008    19.852973    20.563071    6880.8566    9166.7366    7819.5298    7564.3526    423.32504    116.03573   -1329.7583   -2610.4983 
26140000    269.35344   -3857.7852   -3396.1226   -3857.7852            0     10354.86    16.847594     19.84424    20.554025      6871.78    7839.4325    11833.536    11391.611    100.02125    734.36681   -849.93567   -2358.3807 
26141000    262.11142   -3867.4525   -3418.2025   -3867.4525            0    11579.011    16.805363    19.794497    20.502503    6820.2335    7619.2979    13373.424    13744.311   -1834.9208   -1092.1741    621.51777   -2266.4833 
26142000    256.11978   -3847.3235    -3408.343   -3847.3235            0     11258.03    16.833891      19.8281    20.537308    6855.0262    12024.271    10786.358     10963.46    2258.6712   -521.23567    806.69717   -2282.8381 
26143000    256.06258    -3852.134   -3413.2515    -3852.134            0    7242.4091    16.960706    19.977472    20.692022    7011.1197    7129.5275    6736.9554    7860.7445    2.9170349   -656.31426   -34.547983   -2672.7153 
26144000    260.13436   -3825.3633   -3379.5019   -3825.3633            0    10227.738    16.890854    19.895194    20.606802    6924.8502    8755.5956    12466.648    9460.9705   -1034.9263    248.25527   -1544.0375   -2346.5838 
26145000    275.80827    -3850.921   -3378.1951    -3850.921            0    11405.939    16.928269    19.939265    20.652449     6970.971    11932.302    10263.416      12022.1    -96.11718    490.01014   -1020.7055   -2218.6164 
26146000    263.11398   -3856.4148   -3405.4464   -3856.4148            0    11342.243    16.862284    19.861543    20.571947    6889.7711    9872.2629    11851.219    12303.246    443.23841     823.8174   -236.38225   -2265.7751 
26147000    255.90574   -3861.1051   -3422.4914   -3861.1051            0    11362.778    16.904932    19.911777    20.623978    6942.1806    10920.094    10177.407    12990.833    250.99507   -498.78434   -2171.5575   -2272.0717 
26148000    271.44982   -3903.1354   -3437.8797   -3903.1354            0    10825.134    16.841511    19.837076    20.546604    6864.3398    11312.063    11231.699    9931.6408    134.57585   -81.922802    979.67638   -2354.1824 
26149000     286.0833   -3867.6306   -3377.2936   -3867.6306            0    10567.391    16.929726     19.94098    20.654226      6972.77    11990.339    10750.068    8961.7656    1.2666684   -2605.1075   -672.80096   -2302.6883 
26150000    268.47782   -3879.5166   -3419.3548   -3879.5166            0    8866.5137    16.864012    19.863579    20.574055    6891.8893    10204.754    7237.5961    9157.1905   -117.17178   -780.72163   -783.03066   -2528.1715 
26151000     271.2837   -3822.8461   -3357.8752   -3822.8461            0    11537.293    16.788312    19.774414    20.481702    6799.4959     12705.23    11241.763    10664.886    1013.5372   -53.006832    425.01078   -2213.7948 
26152000    252.26341   -3867.1568   -3434.7859   -3867.1568            0    8585.4553     16.89092    19.895272    20.606883    6924.9316    9123.0392    8042.0985    8591.2281    1028.2641   -318.57779   -622.42137   -2567.7148 
26153000    253.78098   -3852.3206   -3417.3486   -3852.3206            0    9523.3795     16.90206    19.908394    20.620473     6938.642    9795.7666    8602.5729    10171.799   -2561.5339   -334.72688    1221.5043   -2453.6495 
26154000    268.74388   -3894.8477   -3434.2299   -3894.8477            0    10312.357    16.825415    19.818117    20.526967    6844.6769    10730.955    8799.8621    11406.254   -128.95166    0.4460125   -967.17715   -2404.8237 
26155000    266.78463   -3876.7556   -3419.4958   -3876.7556            0    9469.7206    16.867355    19.867516    20.578133    6895.9884    8076.0078    11278.928    9054.2263    407.46393   -711.64958   -644.22261   -2467.1173 
26156000    244.40537   -3876.0628   -3457.1603   -3876.0628            0    10884.379    16.838225    19.833205    20.542596    6860.3226    10581.436    12024.424    10047.278   -567.59392    1197.8026    2117.8604   -2368.1698 
26157000    267.26093   -3868.6268   -3410.5507   -3868.6268            0    9776.3787    16.865948    19.865859    20.576417    6894.2628    10680.412    12083.794    6564.9297    64.346564   -710.20005   -347.55793   -2427.5773 
26158000    265.15032   -3880.6417   -3426.1832   -3880.6417            0    10247.911    16.849442    19.846417     20.55628    6874.0416    10484.514    8869.1611    11390.057   -175.05591    677.07126    110.34808   -2398.8214 
26159000    259.95302   -3860.5644   -3415.0138   -3860.5644            0    11207.262    16.854865    19.852804    20.562896    6880.6809    11276.757    11633.898     10711.13   -1098.3502    40.225962     -1156.68   -2290.3912 
26160000    283.17833    -3867.389   -3382.0311    -3867.389            0    11298.472    16.873955     19.87529    20.586185    6904.0864    11269.172    13155.407    9470.8364    59.654344   -1320.2189    1481.6447    -2244.399 
26161000    266.34647   -3878.1417    -3421.633   -3878.1417            0    9491.9479    16.900847    19.906966    20.618994    6937.1488    9426.1844    10686.817    8362.8421    531.99511    1123.1296   -1875.4096   -2461.3212 
26162000    262.77853   -3861.8333   -3411.4399   -3861.8333            0    8220.7793    16.935476    19.947754    20.661242    6979.8782    6368.9217    9185.2817    9108.1345    753.53497    132.53519   -614.53467   -2574.6109 
26163000    250.68658   -3784.6657   -3354.9975   -3784.6657            0    10892.081    16.810033    19.799998    20.508201    6825.9212    7293.3157    12626.311    12756.616   -247.25822   -428.51467    351.33575   -2270.7011 
26164000    270.82995   -3844.9642    -3380.771   -3844.9642            0    11361.094    16.776148    19.760086    20.466861    6784.7262    11041.747    11445.646    11595.888   -1087.5975   -384.22032   -955.63457   -2256.6104 
26165000    254.89374   -3834.2751    -3397.396   -3834.2751            0    10082.929    16.806741     19.79612    20.504184    6821.9115    7150.5623    9957.4812    13140.743   -241.80238    186.88134    746.19832   -2394.2395 
26166000    267.89085   -3843.2285   -3384.0727   -3843.2285            0     10548.08    16.797058    19.784716    20.492372     6810.128    9291.0525     11209.27    11143.918    185.45474    783.23529    872.58618   -2336.4508 
26167000    256.71021   -3845.9141   -3405.9216   -3845.9141            0    9369.2472    16.825183    19.817843    20.526684    6844.3938      8552.12    9532.5452    10023.076   -543.26257    984.78759    2135.3085   -2470.6978 
26168000    283.66109   -3808.3387   -3322.1533   -3808.3387            0    12995.629     16.81045     19.80049     20.50871    6826.4294    13222.877    12868.606    12895.404   -2090.4454     2027.944    1368.5113   -2028.3544 
26169000    265.04456   -3796.0305   -3341.7532   -3796.0305            0    12017.154    16.824326    19.816833    20.525638    6843.3474    14646.573    11001.168    10403.721   -601.50099    280.45568    137.90259   -2142.4028 
26170000    265.75075   -3847.1941   -3391.7065   -3847.1941            0    9452.5489    16.872962     19.87412    20.584974    6902.8681    9120.7707    10289.303    8947.5729   -747.62382    199.00471    43.637668   -2440.1065 
26171000    265.63411   -3851.0451   -3395.7573   -3851.0451            0    10704.662    16.824716    19.817293    20.526114    6843.8234    10844.241    11601.315    9668.4304   -213.88775    258.41921    563.16624   -2327.3235 
26172000    271.46203   -3872.0682   -3406.7916   -3872.0682            0    10337.255    16.863131    19.862541     20.57298    6890.8091    9567.7284    12063.754     9380.283   -691.30689    287.06964    887.97069   -2367.9452 
26173000    262.52806   -3842.3128   -3392.3487   -3842.3128            0    11991.055    16.766938    19.749238    20.455625    6773.5579    12902.107    12362.722    10708.337   -520.28479   -807.15276    817.07894   -2207.8075 
26174000    255.01987   -3837.8599   -3400.7645   -3837.8599            0    11480.413    16.839197    19.834349    20.543781      6861.51    10526.384    11815.267     12099.59     -1775.39    503.05521     838.7367   -2251.9415 
26175000    274.17501   -3844.4958   -3374.5692   -3844.4958            0    12114.382    16.808735    19.798469    20.506617    6824.3399    11285.234    10306.923    14750.988   -153.49923    467.48028     690.3659   -2168.8733 
26176000     260.1746    -3847.901   -3401.9707    -3847.901            0    11160.311    16.770105    19.752968    20.459488    6777.3966    10779.929    11351.021    11349.982    852.44139     64.61444    584.62203   -2298.8702 
26177000    277.03724   -3834.2986   -3359.4663   -3834.2986            0    11054.594    16.830193    19.823744    20.532796    6850.5095    11156.254    12494.113    9513.4137   -928.13209   -1103.5364    1031.8692   -2255.0277 
26178000     270.5718   -3832.4498    -3368.699   -3832.4498            0    10106.739    16.835186    19.829625    20.538887     6856.608    9767.2787    9277.5978    11275.342    932.13026   -84.406338    1581.2901   -2358.0595 
26179000    262.63758   -3801.5423   -3351.3905   -3801.5423            0    11169.824    16.828478    19.821725    20.530704    6848.4159      11077.3    12842.707    9589.4655   -1082.1295    2612.5997    692.24735   -2235.7806 
26180000    254.50675   -3818.1597   -3381.9438   -3818.1597            0    9285.7039    16.878383    19.880505    20.591587     6909.523    8336.0261    8845.3504    10675.735    109.55562   -310.49985   -375.92579   -2446.2392 
26181000    277.83543   -3847.5301   -3371.3297   -3847.5301            0    8238.4361    16.913951      19.9224     20.63498    6953.2966    9340.7017    8618.9903    6755.6164    572.65399    1909.7801    1308.6179   -2535.8971 
26182000     275.2646   -3825.5587   -3353.7646   -3825.5587            0    11578.725    16.831115    19.824831    20.533922    6851.6361    12592.987    11044.936    11098.254   -839.59474    1175.2753   -324.16348    -2196.771 
26183000    265.09887   -3838.3012   -3383.9308   -3838.3012            0    11513.988    16.797892    19.785698    20.493389    6811.1425    13514.787    10280.446    10746.732    881.15235   -429.31234    261.37776   -2240.2057 
26184000    267.06963   -3879.3321   -3421.5839   -3879.3321            0    11053.153    16.814561    19.805331    20.513725    6831.4383    11335.595    10486.631    11337.234   -552.22957   -1070.6403    1107.9733   -2320.3635 
26185000    267.88978   -3847.9783   -3388.8244   -3847.9783            0    12000.842    16.860069    19.858935    20.569245    6887.0569    12954.101    11040.532    12007.894    408.10849   -1052.8099   -538.01392   -2183.4519 
26186000    274.96866   -3849.0404   -3377.7535   -3849.0404            0     9400.702    16.923794    19.933994    20.646989    6965.4434    10632.107     11178.79    6391.2097    502.40169    1154.5249   -133.64469    -2422.794 
26187000    256.93397    -3843.928    -3403.552    -3843.928            0    10510.688    16.854314    19.852156    20.562224    6880.0063    8812.7581    12231.565     10487.74    1147.2089   -50.412382   -1802.9115   -2348.9323 
26188000    275.38494   -3816.8086   -3344.8082   -3816.8086            0    11322.537    16.864871    19.864591    20.575104    6892.9431    11884.675    10557.043    11525.892    2442.1824   -421.21832   -352.87484   -2206.5932 
26189000    264.01373   -3877.7495    -3425.239   -3877.7495            0    10215.127    16.881582    19.884273     20.59549    6913.4524    12312.759    9175.7815    9156.8394    2186.1839   -591.20806   -446.28528   -2395.2926 
26190000    276.16743    -3815.805   -3342.4635    -3815.805            0    11016.118    16.876034    19.877739    20.588723    6906.6397    9453.2377    12120.032    11475.085    436.55997   -1134.7684    371.03982   -2232.8511 
26191000    263.14851   -3816.5217   -3365.4942   -3816.5217            0    9956.5379    16.908431    19.915898    20.628246    6946.4916    10640.923    10088.723    9139.9687   -240.84755    637.45273   -1316.2524   -2356.8227 
26192000    264.87144   -3819.8555   -3365.8749   -3819.8555            0    9700.9914    16.873686    19.874973    20.585857    6903.7563    10952.541    9567.8575    8582.5751   -994.90242   -943.23399   -751.84573   -2389.1383 
26193000    264.47476   -3849.4096   -3396.1089   -3849.4096            0    10139.407    16.871369    19.872244    20.583031     6900.913    10941.903    10830.126    8646.1917   -1846.2694   -33.497889    -253.0417   -2375.6512 
26194000    275.89001   -3851.1844   -3378.3183   -3851.1844            0     9849.749    16.898425    19.904113    20.616039    6934.1668    8338.1246    8887.3376    12323.785    546.28296   -565.59045   -1441.5976   -2382.2358 
26195000    265.05425   -3845.4076   -3391.1137   -3845.4076            0    11833.574    16.831358    19.825116    20.534217    6851.9317    12269.395    10181.592    13049.736   -1156.9328     86.98542   -1962.9624   -2208.6036 
26196000    270.19197   -3833.6109   -3370.5111   -3833.6109            0    9144.2607    16.877743    19.879752    20.590807    6908.7375    11731.332    8004.7618    7696.6886   -685.62727   -301.37261    981.50845   -2449.1642 
26197000    266.31461   -3826.3408   -3369.8867   -3826.3408            0    11658.324    16.861391    19.860492    20.570858    6888.6768    11087.154    10561.462    13326.356   -1971.6131   -1315.4016   -1961.0591   -2198.6415 
26198000    270.86627   -3823.0462   -3358.7907   -3823.0462            0    10699.501    16.910406    19.918224    20.630655    6948.9256    11004.183    10677.272    10417.047   -1590.3679     480.7557   -1133.1341   -2274.4717 
26199000    266.59846    -3825.688   -3368.7474    -3825.688            0    9044.6154    16.894506    19.899496    20.611257    6929.3429    10381.998    8094.5899    8657.2579    1407.1762    62.993441    295.55859   -2454.7224 
26200000    272.52797   -3853.4635   -3386.3599   -3853.4635            0    9831.6682    16.855575    19.853641    20.563762    6881.5506    8783.1764    9829.8925    10881.936    543.77708   -130.06309    1293.0572   -2399.6501 
26201000    273.21665   -3879.6969   -3411.4129   -3879.6969            0    9208.5389    16.879592    19.881929    20.593063    6911.0081    10411.534    7406.7706    9807.3118    585.58096   -162.34201    1567.7164   -2483.2846 
26202000    282.07155   -3910.2033   -3426.7423   -3910.2033            0    9006.5451    16.966578    19.984388    20.699186    7018.4041    9089.6548    8987.3021    8942.6783   -972.79662   -714.25974    2200.3804   -2504.8663 
26203000    267.10659   -3909.8668   -3452.0553   -3909.8668            0    9657.2417    16.876412    19.878184    20.589184    6907.1036    8726.3824    9769.4499    10475.893   -544.78883   -277.33147    1257.2383   -2479.2522 
26204000    270.69569    -3886.501   -3422.5378    -3886.501            0    11285.708     16.82769    19.820797    20.529743    6847.4541    9904.8918    13499.498    10452.735    -1124.465   -51.503394   -471.74887   -2295.5121 
26205000    244.80957   -3839.9907   -3420.3954   -3839.9907            0    9725.4935    16.849436     19.84641    20.556273    6874.0347    10220.519    10073.401    8882.5605    -53.08421    172.34156    353.86118   -2445.4075 
26206000    265.50539   -3856.1711   -3401.1039   -3856.1711            0    9519.0296    16.856149    19.854317    20.564462    6882.2534    11479.361    8081.1271    8996.6003    1197.7172    1583.8074    123.29471   -2445.6732 
26207000    252.61258   -3826.4368   -3393.4675   -3826.4368            0    9394.5964    16.855276    19.853289    20.563398    6881.1845    8441.9023    9772.5896    9969.2972   -590.66235   -571.31127   -1551.7277   -2450.6726 
26208000    259.68891    -3813.453   -3368.3551    -3813.453            0    9979.1661    16.873666     19.87495    20.585833    6903.7323    10542.561    9278.3235    10116.613   -369.85377    2139.2636    1335.0407   -2363.6142 
26209000    272.44237   -3855.0308   -3388.0739   -3855.0308            0     10328.65    16.868942    19.869386     20.58007    6897.9359     11997.17    10247.199    8741.5823    1274.8447   -1483.3763    -774.2775   -2349.0187 
26210000    267.72339   -3814.8316   -3355.9629   -3814.8316            0     9446.317    16.881217    19.883843    20.595045    6913.0041    8829.9816    9160.4491     10348.52    -1151.034    1500.0758   -492.09508   -2403.5939 
26211000    256.27234   -3830.0524   -3390.8104   -3830.0524            0    9885.7518    16.831042    19.824745    20.533832    6851.5467    10075.531    9502.0112    10079.714    926.04401   -422.43254    849.93212   -2402.9985 
26212000    278.36277   -3849.3759   -3372.2716   -3849.3759            0    9772.9864    16.814487    19.805245    20.513635    6831.3492     9630.566    8939.9594    10748.434   -714.21478    1104.8137   -1642.1896   -2398.6064 
26213000    281.42088   -3822.7386   -3340.3929   -3822.7386            0    11401.963    16.772107    19.755327    20.461932    6779.8249    10354.395     13220.76    10630.735    3733.7685   -922.07437    776.29319   -2213.0033 
26214000    275.92621   -3847.1111    -3374.183   -3847.1111            0    11037.929     16.81249    19.802892    20.511198    6828.9149     10723.82     12148.74    10241.226   -1439.6284   -35.273721    160.63702   -2274.8857 
26215000    256.30814   -3870.2904    -3430.987   -3870.2904            0    9474.6322    16.827791    19.820915    20.529866    6847.5767    11830.302      6837.17    9756.4248    507.17432     202.3207   -908.79506    -2484.804 
26216000     255.4466   -3829.0072   -3391.1804   -3829.0072            0    10417.123     16.83575    19.830289    20.539575    6857.2969    12164.976    9234.0346    9852.3589   -84.798504    60.186398     513.8268   -2349.3989 
26217000    256.83763   -3860.3945   -3420.1835   -3860.3945            0    10009.855    16.911013     19.91894    20.631396    6949.6745    9168.5913    11176.225    9684.7491    444.69886   -397.62053    759.13652   -2405.6459 
26218000    273.70382   -3827.1077   -3357.9887   -3827.1077            0    10938.889    16.881613     19.88431    20.595528     6913.491    11525.787    10051.249    11239.629    68.437759   -80.294882    1862.8216   -2255.0624 
26219000    265.78078   -3824.9423   -3369.4031   -3824.9423            0    10106.614    16.862585    19.861898    20.572314    6890.1398    8152.8862    10746.747    11420.209    26.263036   -1154.3143    206.50677   -2353.8337 
26220000    255.18711    -3839.107    -3401.725    -3839.107            0    13439.096    16.760566    19.741733    20.447851    6765.8386    14657.402    12639.616     13020.27    1292.1684    1272.6084    900.11873   -2075.6515 
26221000    269.93872   -3835.0665   -3372.4007   -3835.0665            0    10912.174    16.819224    19.810825    20.519414    6837.1244    11187.441    10639.799    10909.282     -1802.94    352.56352   -609.22083   -2284.3212 
26222000    264.48983   -3842.6892   -3389.3627   -3842.6892            0    12029.101    16.778836    19.763252    20.470141    6787.9882    9803.1766    11213.318    15070.808   -1184.8853    692.85071   -948.98161   -2198.5317 
26223000    258.49002   -3839.3794   -3396.3363   -3839.3794            0    10277.293    16.875382    19.876971    20.587927    6905.8385    11274.583    11286.562    8270.7331   -928.81575    -111.3985   -399.30044   -2361.2632 
26224000    271.71474   -3821.5959   -3355.8861   -3821.5959            0    9983.2732    16.858751    19.857381    20.567636    6885.4407    10013.832    11246.781    8689.2059     411.3802    1066.5169    1733.9325   -2353.3948 
26225000    259.29977   -3829.0322   -3384.6013   -3829.0322            0    12434.236    16.846994    19.843533    20.553293    6871.0455    10363.662    13584.059    13354.987    786.40665   -1049.1534   -209.38609   -2138.6019 
26226000    267.84669   -3809.7642   -3350.6841   -3809.7642            0    11867.416     16.80848     19.79817    20.506307    6824.0302    10048.354    12284.416    13269.477   -743.53946   -432.94264   -1143.1135   -2169.6213 
26227000    282.17763   -3803.6043   -3319.9615   -3803.6043            0     9067.551    16.936697    19.949192    20.662731    6981.3873    8687.1666    10034.737    8480.7493    1347.5851   -207.61089   -1772.8538   -2396.7363 
26228000    271.22377   -3822.3865   -3357.5183   -3822.3865            0    9821.8685    16.897905      19.9035    20.615405    6933.5265    10123.055     10065.12      9277.43     220.3939    193.72964    2098.9125   -2364.3469 
26229000    270.25959   -3854.8581   -3391.6424   -3854.8581            0    8275.1188    16.939605    19.952617    20.666278    6984.9838     7199.103    7428.9078    10197.346   -426.38078    1480.7128    1099.6765   -2548.6658 
26230000    272.18482   -3842.8994    -3376.384   -3842.8994            0    10084.108    16.907164    19.914406      20.6267      6944.93    8932.1043    9430.5803    11889.641     824.7403   -1314.7226    946.19779   -2355.0183 
26231000    272.78723   -3865.2047   -3397.6567   -3865.2047            0    10932.101    16.882337    19.885163    20.596412     6914.381    9961.4522    10599.733    12235.118     516.1381   -667.57931   -1226.1006   -2295.2729 
26232000    283.22416   -3880.9362   -3395.4997   -3880.9362            0    11687.477    16.815416    19.806339    20.514768    6832.4812    11675.665    12022.713    11364.053    983.07515   -393.57625   -1669.6847   -2230.9042 
26233000    274.55269   -3872.4561   -3401.8822   -3872.4561            0     13123.29    16.831183    19.824911    20.534004    6851.7189    13766.686    13397.269    12205.916    649.78545   -2401.4675   -112.23875   -2090.5336 
26234000    268.65672   -3836.8491   -3376.3807   -3836.8491            0    10770.341    16.902872     19.90935    20.621464    6939.6422    10219.916    9756.2034    12334.904    418.95238    116.75995    177.84802   -2286.3407 
26235000    253.91701   -3844.6039   -3409.3988   -3844.6039            0    7971.9104    16.907758    19.915105    20.627425    6945.6618    7552.5059    8237.4855    8125.7398   -1002.6164    997.88247    552.81557   -2601.8813 
26236000    267.45274   -3839.4842   -3381.0794   -3839.4842            0     9605.931    16.924275    19.934561    20.647576     6966.038    8144.8773    10143.292    10529.624    304.98815    -525.7494    660.46178   -2405.1887 
26237000    270.80607   -3831.9452   -3367.7929   -3831.9452            0    9501.6221    16.842759    19.838545    20.548127    6865.8655    9250.1674    9414.8561    9839.8429    743.35238   -2109.7629    2585.0185   -2416.3802 
26238000    265.23603   -3815.9401   -3361.3346   -3815.9401            0    11017.608    16.848412    19.845204    20.555023    6872.7812    11910.238    10781.153    10361.435    407.38677    782.06986   -1264.7914   -2257.0126 
26239000    264.17873   -3835.1648   -3382.3715   -3835.1648            0     10485.69    16.865375    19.865184    20.575718    6893.5601    9790.7065    10226.184    11440.181   -290.17755    696.16848    3223.6889   -2328.1874 
26240000    273.38955   -3862.9785   -3394.3981   -3862.9785            0    9972.3577    16.915465    19.924183    20.636828    6955.1646    11273.703    9491.0103    9152.3596    942.16084    236.03915    911.71608   -2382.8626 
26241000    264.50928    -3869.518   -3416.1582    -3869.518            0    9081.7244    16.888166    19.892029    20.603523    6921.5451    9116.0372    8921.7726    9207.3634   -230.37945     1172.231    140.73291   -2499.4159 
26242000    258.89619   -3834.3378   -3390.5986   -3834.3378            0    9102.1035    16.829511    19.822941    20.531964    6849.6764    8507.7471     10673.65    8124.9131    1204.5041    1112.6191    985.43624   -2481.3394 
26243000    270.55363   -3810.6763   -3346.9566   -3810.6763            0    10610.434    16.870632    19.871376    20.582132    6900.0092    9130.3144    10106.445    12594.543    -972.7592   -1041.2036   -857.28924   -2279.2333 
26244000    268.99831   -3834.4279    -3373.374   -3834.4279            0    10613.748    16.923544    19.933699    20.646684    6965.1344    10501.845    11481.238    9858.1601      1482.27    1528.5953     596.1225   -2295.2365 
26245000    272.42612   -3834.4566   -3367.5276   -3834.4566            0    10925.322    16.896534    19.901885    20.613731    6931.8385    10753.918    12935.167    9086.8794     632.8987   -478.88705    1528.4291   -2263.0458 
26246000     248.8827   -3820.5006   -3393.9242   -3820.5006            0     12667.05    16.826284     19.81914    20.528027    6845.7376    12157.946    12006.596    13836.609    245.99507   -2871.1367    1111.2684   -2129.2704 
26247000    257.44547   -3849.1361   -3407.8833   -3849.1361            0    10554.492    16.832735    19.826738    20.535897     6853.614    11683.027    11245.961     8734.489    -447.2755   -152.06032    870.82733   -2352.9309 
26248000    274.37197   -3841.8388   -3371.5747   -3841.8388            0    9043.8347    16.851796     19.84919    20.559152    6876.9233    9454.7253    8408.4121    9268.3667   -327.39858    -295.0493    969.47671   -2464.5425 
26249000    264.55963    -3893.855   -3440.4088    -3893.855            0    10997.152    16.908524    19.916008     20.62836    6946.6067    10894.377     12465.75    9631.3277   -560.46142    -945.6382    178.86286   -2326.2969 
26250000    279.25383   -3827.6745    -3349.043   -3827.6745            0    13093.737    16.853755    19.851497    20.561541    6879.3214    13101.995    13958.967    12220.249   -146.43857   -45.824889    223.70256   -2035.3766 
Loop time of 473.349 on 64 procs for 250000 steps with 864 atoms

Performance: 91.265 ns/day, 0.263 hours/ns, 528.152 timesteps/s
99.0% CPU use with 64 MPI tasks x 1 OpenMP threads

MPI task timing breakdown:
Section |  min time  |  avg time  |  max time  |%varavg| %total
---------------------------------------------------------------
Pair    | 22.758     | 27.823     | 32.631     |  47.8 |  5.88
Bond    | 0.27445    | 0.2845     | 0.301      |   1.1 |  0.06
Kspace  | 196.94     | 208.06     | 217.9      |  32.1 | 43.95
Neigh   | 5.8403     | 6.5967     | 7.9767     |  24.2 |  1.39
Comm    | 101.85     | 112.74     | 119.24     |  44.5 | 23.82
Output  | 0.97574    | 0.97654    | 0.97789    |   0.0 |  0.21
Modify  | 110.51     | 112.14     | 114.45     |   8.6 | 23.69
Other   |            | 4.737      |            |       |  1.00

Nlocal:        13.5000 ave          18 max          10 min
Histogram: 5 9 9 13 0 9 5 5 5 4
Nghost:        2291.52 ave        2350 max        2253 min
Histogram: 4 9 12 6 16 5 5 4 1 2
Neighs:        4482.61 ave        6332 max        3229 min
Histogram: 9 11 6 9 8 6 3 6 4 2

Total # of neighbors = 286887
Ave neighs/atom = 332.04514
Ave special neighs/atom = 2.0000000
Neighbor list builds = 14621
Dangerous builds = 2

unfix		3
unfix		2
unfix		1

write_data	data.final.${pid}
write_data	data.final.0
System init for write_data ...
PPPM initialization ...
  extracting TIP4P info from pair style
  using 12-bit tables for long-range coulomb (../kspace.cpp:340)
  G vector (1/distance) = 0.37485186
  grid = 24 24 24
  stencil order = 5
  estimated absolute RMS force accuracy = 0.0030943059
  estimated relative force accuracy = 9.3184104e-06
  using double precision FFTW3
  3d grid and FFT values/proc = 2535 216
Last active /omp style is kspace_style pppm/tip4p/omp
WARNING: Not all mixed pair coeffs generated from mixing. Use write_data with 'pair ij' option to store all pair coeffs. (../write_data.cpp:312)

write_restart   restart.lmp.${pid}
write_restart   restart.lmp.0
System init for write_restart ...
PPPM initialization ...
  extracting TIP4P info from pair style
  using 12-bit tables for long-range coulomb (../kspace.cpp:340)
  G vector (1/distance) = 0.37485186
  grid = 24 24 24
  stencil order = 5
  estimated absolute RMS force accuracy = 0.0030943059
  estimated relative force accuracy = 9.3184104e-06
  using double precision FFTW3
  3d grid and FFT values/proc = 2535 216
Last active /omp style is kspace_style pppm/tip4p/omp
Total wall time: 0:07:57
