LAMMPS (30 Jul 2021)
  using 1 OpenMP thread(s) per MPI task
package omp 0
using multi-threaded neighbor list subroutines
echo both

include		in.partitions
variable        pid world 0
include		in.temp
variable        temperature equal 255.03
variable	tempDamp equal 100.0
include		in.pressure
variable        pressure equal 10125.0
variable        pressureDamp equal 1000.0 # This is 1 ps
include		in.seed
variable        seed world 745823

units		real
atom_style	full
read_restart	restart.lmp.${pid}
read_restart	restart.lmp.0
Reading restart file ...
  restart file = 30 Jul 2021, LAMMPS = 30 Jul 2021
  restoring atom style full from restart
  orthogonal box = (0.63230444 1.8363024 0.77140994) to (17.575268 21.792875 21.441786)
  4 by 4 by 4 MPI processor grid
  restoring pair style lj/cut/tip4p/long/omp from restart
  restoring bond style harmonic/omp from restart
  restoring angle style harmonic/omp from restart
  864 atoms
  576 bonds
  288 angles
Finding 1-2 1-3 1-4 neighbors ...
  special bond factors lj:    0        0        0       
  special bond factors coul:  0        0        0       
     2 = max # of 1-2 neighbors
     1 = max # of 1-3 neighbors
     1 = max # of 1-4 neighbors
     2 = max # of special neighbors
  special bonds CPU = 1.589 seconds
  read_restart CPU = 1.893 seconds
include 	in.setup
variable	out_freq equal 1000
variable	out_freq2 equal 10000
variable	out_freq3 equal 1000

timestep	2.0

neigh_modify    delay 7 every 1

include		in.tip4p
# This is TIP4P/Ice

# create groups ###
group ox type 2
288 atoms in group ox
group hy type 1
576 atoms in group hy

# set charges - beside manually ###
set group ox charge -1.1794
Setting atom values ...
  288 settings made for charge
set group hy charge 0.5897
Setting atom values ...
  576 settings made for charge

# ### TIP3P Potential Parameters ###
pair_style lj/cut/tip4p/long/omp 2 1 1 1 0.1577 8.5
pair_coeff 1 1*2 0.000 0.000
pair_coeff 2 2 0.21084 3.1668
bond_style  harmonic
bond_coeff  1 450 0.9572
angle_style harmonic
angle_coeff 1 55 104.52
kspace_style pppm/tip4p/omp 1.0e-5
pair_modify tail yes

thermo          ${out_freq}
thermo          1000
thermo_style    custom step temp pe etotal epair emol press lx ly lz vol pxx pyy pzz pxy pxz pyz enthalpy

restart 	${out_freq3} restart.lmp.${pid} restart2.lmp.${pid}
restart 	1000 restart.lmp.${pid} restart2.lmp.${pid}
restart 	1000 restart.lmp.0 restart2.lmp.${pid}
restart 	1000 restart.lmp.0 restart2.lmp.0


include         in.dump
dump            myDump all atom ${out_freq2} dump.water.${pid}
dump            myDump all atom 10000 dump.water.${pid}
dump            myDump all atom 10000 dump.water.0
dump            myDump2 all dcd ${out_freq2} dump.dcd
dump            myDump2 all dcd 10000 dump.dcd
dump_modify     myDump append yes
dump_modify     myDump2 append yes


variable natoms 	equal  "count(all)"                        # NUMBER ATOMS
variable H      	equal  "enthalpy/v_natoms"                 # ENTHALPY-per-atom
variable Vol      	equal  "vol/v_natoms"                 # volume-per-atom
fix AVG all 		ave/time ${out_freq} 1 ${out_freq} v_Vol v_H file vol_enthalpy.dat
fix AVG all 		ave/time 1000 1 ${out_freq} v_Vol v_H file vol_enthalpy.dat
fix AVG all 		ave/time 1000 1 1000 v_Vol v_H file vol_enthalpy.dat


timer           timeout 23:50:00 every 1000
New timer settings: style=normal  mode=nosync  timeout=23:50:00

fix 		1 all shake 1e-6 200 0 b 1 a 1
       0 = # of size 2 clusters
       0 = # of size 3 clusters
       0 = # of size 4 clusters
     288 = # of frozen angles
  find clusters CPU = 0.431 seconds
fix             2 all nph iso ${pressure} ${pressure} ${pressureDamp}
fix             2 all nph iso 10125 ${pressure} ${pressureDamp}
fix             2 all nph iso 10125 10125 ${pressureDamp}
fix             2 all nph iso 10125 10125 1000
fix             3 all temp/csvr ${temperature} ${temperature} ${tempDamp} ${seed}
fix             3 all temp/csvr 255.03 ${temperature} ${tempDamp} ${seed}
fix             3 all temp/csvr 255.03 255.03 ${tempDamp} ${seed}
fix             3 all temp/csvr 255.03 255.03 100 ${seed}
fix             3 all temp/csvr 255.03 255.03 100 745823

run             250000
PPPM initialization ...
  extracting TIP4P info from pair style
  using 12-bit tables for long-range coulomb (../kspace.cpp:340)
  G vector (1/distance) = 0.37441726
  grid = 24 24 24
  stencil order = 5
  estimated absolute RMS force accuracy = 0.0031432877
  estimated relative force accuracy = 9.4659176e-06
  using double precision FFTW3
  3d grid and FFT values/proc = 2535 216
Last active /omp style is kspace_style pppm/tip4p/omp
Neighbor list info ...
  update every 1 steps, delay 7 steps, check yes
  max neighbors/atom: 2000, page size: 100000
  master list distance cutoff = 10.8154
  ghost atom cutoff = 10.8154
  binsize = 5.4077, bins = 4 4 4
  1 neighbor lists, perpetual/occasional/extra = 1 0 0
  (1) pair lj/cut/tip4p/long/omp, perpetual
      attributes: half, newton on, omp
      pair build: half/bin/newton/omp
      stencil: half/bin/3d
      bin: standard
Per MPI rank memory allocation (min/avg/max) = 9.236 | 9.240 | 9.243 Mbytes
Step Temp PotEng TotEng E_pair E_mol Press Lx Ly Lz Volume Pxx Pyy Pzz Pxy Pxz Pyz Enthalpy 
24500000    260.53806   -3890.9732   -3444.4199   -3890.9732            0    9573.7816    16.942964    19.956573    20.670376    6989.1396    7950.3182    11320.431    9450.5952    -98.15537    1908.4294    538.40259   -2468.5698 
24501000    272.13477   -3921.6283   -3455.1986   -3921.6283            0     10429.82    16.880624    19.883146    20.594322    6912.2763    8702.9874    10445.648    12140.826    60.136138    391.18659    378.94115   -2403.7845 
24502000    252.67082   -3891.1244   -3458.0553   -3891.1244            0    9753.6049    16.888458    19.892373     20.60388    6921.9045    8673.4123    11060.756    9526.6459   -516.61447    820.78459    -1595.872   -2473.4398 
24503000    255.32665   -3889.8948   -3452.2736   -3889.8948            0    9817.1728    16.878102    19.880175    20.591245    6909.1783    9805.5759    9669.7224    9976.2202      1038.68   -485.08208    318.53057   -2463.0631 
24504000    232.04248   -3895.8474   -3498.1346   -3895.8474            0     8581.538     16.87204    19.873034    20.583849    6901.7365    8630.0965     9221.934    7892.5837    74.629992   -530.87972    182.03591    -2634.362 
24505000    257.90437   -3882.3479   -3440.3086   -3882.3479            0    10386.091    16.888265    19.892145    20.603644    6921.6666    9465.2961     10996.59    10696.388   -479.83072    622.39262    -1035.407   -2391.8804 
24506000     253.4687   -3881.1993   -3446.7626   -3881.1993            0      9408.37    16.905896    19.912913    20.625154    6943.3683    11729.053    8172.0941    8323.9626    899.89931   -1652.5406   -547.62601   -2494.0531 
24507000     249.7877   -3890.8235    -3462.696   -3890.8235            0    10522.865    16.889166    19.893207    20.604743    6922.7749    11277.486    11937.152    8353.9558    2120.9159    1030.6693   -223.33032    -2400.291 
24508000    250.91315    -3890.534   -3460.4774    -3890.534            0    10358.972    16.877475    19.879437    20.590481     6908.409    9806.6632    10976.739    10293.513    709.37057    555.88973    -29.19727   -2416.7897 
24509000    271.36471   -3876.1251   -3411.0153   -3876.1251            0    11990.552    16.809635    19.799529    20.507715    6825.4361     13047.09    13579.611    9344.9573    714.36588    1238.7547   -712.33387   -2217.4519 
24510000    251.97075   -3869.8549   -3437.9857   -3869.8549            0    11455.939     16.83344    19.827568    20.536757    6854.4748    12263.995      9788.33    12315.491   -965.08835    1375.8844    149.24787   -2292.7872 
24511000    252.71788   -3875.3311   -3442.1813   -3875.3311            0    10347.172    16.910811    19.918702     20.63115    6949.4258    10650.118    9229.1457    11162.253    456.73628   -977.54452   -60.631314   -2393.4929 
24512000    263.84759   -3859.7489   -3407.5232   -3859.7489            0    9213.7987    16.923779    19.933977    20.646971    6965.4254     9649.574     9434.186    8557.6362    -868.8001    935.22312     185.8789   -2471.5525 
24513000    273.37912   -3885.9477   -3417.3853   -3885.9477            0     10302.02    16.858096    19.856611    20.566838    6884.6391     10721.15    10302.245    9882.6649    315.57429    30.503041   -377.30501   -2383.0068 
24514000    258.34826   -3919.5015   -3476.7015   -3919.5015            0     9330.415    16.858023    19.856525    20.566749    6884.5497    8125.4728    8955.7954    10909.977    -1164.438     1707.416    655.33485   -2539.8896 
24515000    262.10088   -3893.3769    -3444.145   -3893.3769            0    10067.803    16.856066    19.854219    20.564361     6882.152    11833.151     9409.927    8960.3292    1000.8022   -678.01568     284.6107   -2433.6484 
24516000    260.56089   -3901.1901   -3454.5977   -3901.1901            0    8885.4322    16.915095    19.923747    20.636376    6954.7079    8066.3164    7859.6565    10730.324   -1251.6261   -234.95601   -531.58152   -2553.3724 
24517000    245.06642   -3849.3187   -3429.2832   -3849.3187            0    13250.353    16.791118    19.777719    20.485124    6802.9051    11087.855    13301.547    15361.658    1353.7411   -741.10473    1235.7749   -2114.6707 
24518000    247.50927   -3902.3925   -3478.1701   -3902.3925            0    8387.8285    16.844808    19.840959    20.550627    6868.3719    7072.7286     8597.414    9493.3429     424.3419    1375.7222    -655.7237   -2637.9768 
24519000    261.40705   -3906.7863   -3458.7436   -3906.7863            0    11038.609    16.913594    19.921979    20.634545    6952.8565    10625.986    10923.386    11566.454   -780.48742    -625.4545   -904.96402   -2339.4255 
24520000     253.5315   -3910.1599   -3475.6156   -3910.1599            0    8140.5524    16.915215    19.923889    20.636523    6954.8564    9416.0837    7643.2035    7362.3701   -1296.6493   -521.98611    300.85204   -2649.9238 
24521000    259.05988   -3919.1819   -3475.1621   -3919.1819            0    11218.311    16.846997    19.843537    20.553297    6871.0498    10498.617    11571.334    11584.983   -40.291124   -993.42406    1237.5806   -2351.0064 
24522000    251.36755   -3865.1895   -3434.3541   -3865.1895            0    10930.315     16.80414    19.793057    20.501011    6818.7448    12124.782    10242.857    10423.307    460.38424    1161.2767   -201.05985   -2347.3955 
24523000    235.58799   -3865.8578    -3462.068   -3865.8578            0    12048.145    16.793745    19.780814     20.48833    6806.0993    10363.236    11874.392    13906.808     1885.115   -308.64404     953.0498   -2266.1694 
24524000    282.85774   -3862.4061   -3377.5976   -3862.4061            0     10874.02    16.818859    19.810394    20.518968    6836.6786    10635.302    9234.6789     12752.08    516.55543    -1664.622    -219.3626   -2293.3932 
24525000    260.43765   -3865.5521   -3419.1709   -3865.5521            0     8954.569    16.856758    19.855035    20.565206    6883.0002    9494.3476    6957.0879    10412.272   -297.36241    566.06124    504.38372   -2520.2978 
24526000    267.59662    -3878.644   -3419.9926    -3878.644            0    9601.0883    16.903595    19.910203    20.622347    6940.5336    10136.883    8891.5327    9774.8491   -83.188774   -772.06332    1169.6969    -2448.165 
24527000     257.8407    -3864.311   -3422.3808    -3864.311            0    9822.3093    16.849627    19.846634    20.556505    6874.2675    10528.994    10293.907    8644.0268   -138.25417   -706.75518    2830.1806   -2437.6537 
24528000    245.97878   -3900.7359   -3479.1367   -3900.7359            0     9512.038    16.878937    19.881158    20.592264    6910.2037    8060.7845    10770.136     9705.194   -590.83514   -684.61259    -206.0894   -2520.5303 
24529000    245.37565   -3893.4591   -3472.8936   -3893.4591            0    12249.702    16.779306    19.763806    20.470714    6788.5583    11244.385    11397.483    14107.238    765.01401    1155.3674    12.897222   -2260.1221 
24530000    257.45446   -3886.4393   -3445.1711   -3886.4393            0    8055.0388    16.972101    19.990893    20.705923    7025.2597    9091.1749    9430.3311    5643.6104   -1612.2474   -1468.9564    828.36954   -2619.8824 
24531000    266.04674   -3876.0194   -3420.0244   -3876.0194            0    10620.131    16.839152    19.834297    20.543726    6861.4556     11823.07    10551.996    9485.3272   -568.87907    1141.9397     1094.232   -2357.2967 
24532000    245.94989    -3866.046   -3444.4963    -3866.046            0    8376.5698    16.945586    19.959661    20.673575     6992.385    9499.7102    7480.3337    8149.6655    392.66799    102.72565   -896.66062   -2590.2809 
24533000    263.37615   -3876.3386   -3424.9208   -3876.3386            0     9037.549    16.867112     19.86723    20.577838    6895.6911    9336.6775    9615.1672    8160.8024   -920.69789   -489.48081   -1032.8463   -2516.0454 
24534000    237.82591   -3874.0026   -3466.3772   -3874.0026            0    11063.388    16.829836    19.823324     20.53236    6850.0735    10389.796    11979.534    10820.835   -152.40346    2202.3818    -306.2429   -2361.1303 
24535000     246.2597   -3921.5714   -3499.4907   -3921.5714            0     9984.196    16.867355    19.867516    20.578133    6895.9885    9525.7654    10956.583    9470.2391    1318.7998   -125.51555   -2117.7454   -2495.3709 
24536000    247.00158   -3906.6977   -3483.3455   -3906.6977            0    9634.4892     16.85859    19.857192    20.567441    6885.2441     9045.284     9549.406    10308.778    701.83931    2028.6411   -1125.2694   -2515.9057 
24537000    269.94113   -3884.2696   -3421.5997   -3884.2696            0     11306.77    16.807682    19.797229    20.505332    6823.0575    11934.666    10228.214    11757.432    630.94101    470.57947    1680.0866   -2296.4936 
24538000    254.68596   -3888.3725   -3451.8495   -3888.3725            0     9050.601    16.844627    19.840746    20.550406    6868.1506     9269.046     8197.435    9685.3221    1368.7356    346.06212    238.63934   -2545.2967 
24539000    261.63844   -3915.4197   -3466.9804   -3915.4197            0    9847.3446    16.883005     19.88595    20.597227    6915.2013    10795.159    9716.0769    9030.7978   -675.22022   -876.13724    646.56788   -2473.8647 
24540000    243.18185   -3890.9481   -3474.1427   -3890.9481            0    10037.913    16.878194    19.880283    20.591357    6909.2914    10739.233    7987.7703    11386.735    119.99934   -628.45644     331.3951   -2462.6732 
24541000    251.37476   -3879.6955   -3448.8477   -3879.6955            0    10653.665    16.873637    19.874915    20.585797     6903.696    10288.132    11471.243    10201.618   -1772.8101   -955.51785    335.80844   -2376.2014 
24542000    252.26029   -3880.3879   -3448.0224   -3880.3879            0    8983.0942    16.881654    19.884358    20.595578    6913.5411    9053.3046    8706.0893    9189.8886    243.87822    366.90508   -609.66332   -2542.2849 
24543000    250.80182   -3847.4461   -3417.5803   -3847.4461            0    11280.803    16.849125    19.846043    20.555893    6873.6535    11262.273    11468.543    11111.594   -384.64661   -733.95372   -440.36668   -2286.7341 
24544000    256.49523   -3860.4446   -3420.8205   -3860.4446            0    10354.807    16.871089    19.871914    20.582689    6900.5697    9524.2763    10155.029    11385.115   -98.087287   -661.88324    754.66767   -2378.7363 
24545000    237.04719   -3897.3666   -3491.0758   -3897.3666            0     10093.69     16.83132    19.825072    20.534172    6851.8863    10541.358    11956.566    7783.1465   -1067.3347   -224.13354   -1029.1361   -2482.4362 
24546000    262.22694   -3865.3443   -3415.8963   -3865.3443            0    9221.4646    16.900499    19.906555    20.618569    6936.7197    9322.4007    8891.0791     9450.914   -51.305815    1704.2545    555.69235   -2483.0073 
24547000    250.69074   -3877.0323    -3447.357   -3877.0323            0    10338.706     16.87927    19.881551     20.59267    6910.6132    9251.8411    12228.474    9535.8044   -1547.3993   -177.98301    470.11913   -2405.3787 
24548000    262.00725   -3905.5635    -3456.492   -3905.5635            0    8645.7033    16.924497    19.934822    20.647847    6966.3114    7894.7482    8977.4493    9064.9124   -1537.8606    244.79148   -1347.1139   -2578.1187 
24549000    254.43646   -3868.0291   -3431.9338   -3868.0291            0    9627.1909    16.851859    19.849264    20.559229    6877.0006    10807.607    10411.622    7662.3433   -728.19038   -134.15041    1993.0081   -2466.3843 
24550000    252.68988   -3884.9917   -3451.8898   -3884.9917            0    9557.1199    16.858063    19.856572    20.566798    6884.5986    10683.056    9703.2278    8285.0763    275.17365   -231.38458    1015.2515    -2492.309 
24551000    257.58895   -3854.8178   -3413.3192   -3854.8178            0    8371.1815    16.913094    19.921391    20.633936    6952.2408    8284.3794    8046.6204    8782.5446    329.49405   -271.40987   -297.95674   -2564.5542 
24552000    260.28949    -3889.216   -3443.0887    -3889.216            0    11308.417    16.818744    19.810259    20.518828    6836.5387    11949.049    11658.585    10317.616    386.68198    298.07945    542.28794   -2315.5954 
24553000    254.61859   -3877.7362   -3441.3287   -3877.7362            0     10104.54    16.805113    19.794203    20.502198    6819.9293    10678.217    9139.6795    10495.725      529.924   -1430.1846    3025.9994   -2436.3142 
24554000    273.27068   -3868.3614   -3399.9848   -3868.3614            0    10596.841     16.82559    19.818323    20.527181    6844.8904    10504.616    11503.022    9782.8844   -124.83874   -492.95068    -711.3945   -2342.1477 
24555000    240.14984   -3834.4199   -3422.8113   -3834.4199            0     10291.38    16.853704    19.851437    20.561479    6879.2592    11046.379    9980.6536     9847.109    973.57062   -575.40358   -306.48181   -2390.3085 
24556000    247.03809   -3835.8962   -3412.4814   -3835.8962            0    9699.9873    16.902496    19.908908    20.621006    6939.1794    9390.4765    10722.856     8986.629   -1105.6982   -356.99046    1803.6406   -2430.8347 
24557000    250.27047   -3855.2018   -3426.2467   -3855.2018            0     10200.32    16.838783    19.833862    20.543276    6861.0045    8940.2451    11597.574    10063.139    160.78985   -1138.5635   -1022.8485   -2405.5955 
24558000    257.96715   -3865.2756   -3423.1287   -3865.2756            0    10864.823    16.793575    19.780613    20.488122    6805.8921    11491.018    12500.327    8603.1239    132.57035    319.66029    199.10034   -2344.7195 
24559000     253.0115   -3864.3311   -3430.6781   -3864.3311            0    10160.711    16.846487    19.842936    20.552675    6870.4254    9524.0024    10412.564    10545.567   -320.69625   -582.34498    511.79687   -2412.5941 
24560000    254.12263   -3916.3756   -3480.8181   -3916.3756            0    10203.296    16.849961    19.847028    20.556913    6874.6769    9040.5367    11444.345    10125.005    611.24052    1147.2347   -168.79917   -2457.8345 
24561000    244.95342   -3886.2614   -3466.4196   -3886.2614            0    9227.4405    16.854002    19.851788    20.561843    6879.6236    10176.455    9429.6395     8076.227    516.37211    1769.1789    560.02489   -2540.6097 
24562000    260.03066   -3899.6692   -3453.9855   -3899.6692            0    9777.7792    16.881042    19.883637    20.594831    6912.7893    10145.996    9315.1207    9872.2211   -645.24182   -1532.8964   -568.05688   -2468.2295 
24563000    269.61411   -3880.5185   -3418.4091   -3880.5185            0    10304.859    16.820364    19.812167    20.520805    6838.5144    8384.1317    10012.539    12517.907    759.37422   -841.31865    699.80326   -2390.6775 
24564000    243.13343   -3897.2526   -3480.5302   -3897.2526            0    10327.944    16.867669    19.867886    20.578517    6896.3742    8538.1583    8961.2512    13484.421    -467.8188    2583.3908    416.02102   -2441.7813 
24565000    253.35009   -3946.0472   -3511.8138   -3946.0472            0    7945.7552    16.885258    19.888604    20.599976    6917.9708    9900.1177    7416.2932    6520.8548   -1437.5302     564.5952    366.73166   -2710.1546 
24566000     263.9936   -3888.9301   -3436.4541   -3888.9301            0    10358.607     16.82923    19.822609    20.531621    6849.3332    9906.6229    10260.485    10908.713   -1254.4961   -52.745531   -63.047079   -2401.7277 
24567000    243.71926   -3922.4309   -3504.7045   -3922.4309            0    9288.8579    16.873814    19.875124    20.586013    6903.9135    11149.186    7630.6078    9086.7796    287.97955   -457.06555    50.074909   -2569.4419 
24568000    264.38971    -3939.987   -3486.8321    -3939.987            0    11946.006    16.807371    19.796863    20.504953    6822.6788    9782.0301    13543.195    12512.792   -171.67631    -893.9583    731.35194   -2298.1833 
24569000    242.19292   -3925.5354    -3510.425   -3925.5354            0     9384.294      16.8507    19.847899    20.557815    6875.5816    9556.5942    9739.1449    8857.1431    -1382.554   -322.05962    39.526337   -2569.4308 
24570000    250.03266   -3897.0166   -3468.4692   -3897.0166            0    9426.4681    16.874467    19.875893     20.58681    6904.7153    11466.916    8466.5133    8345.9753   -892.79453    245.63136    -691.6551   -2519.2409 
24571000    253.24766    -3898.489   -3464.4312    -3898.489            0    9217.0078    16.854572    19.852459    20.562538    6880.3216    7737.3502    11329.212    8584.4612   -29.236336   -652.86359    723.48347   -2539.5742 
24572000    268.52575   -3857.3113   -3397.0673   -3857.3113            0    9745.4477    16.899519    19.905402    20.617374    6935.5141    9354.7598    10502.734    9378.8493    2282.0783   -2385.1672    1779.3825    -2411.341 
24573000    243.31633   -3893.5456   -3476.5098   -3893.5456            0    11101.033    16.811353    19.801553    20.509811    6827.5294    12519.426     10499.71    10283.964   -996.81838    1732.1653    962.35754    -2371.152 
24574000    244.35123   -3863.8009   -3444.9913   -3863.8009            0    10573.928      16.8346    19.828935    20.538173    6855.8924    12383.462    9829.0515    9509.2704    409.94562   -1557.1074   -1101.5975   -2387.7448 
24575000    256.72162   -3882.4338   -3442.4218   -3882.4338            0    9628.2138    16.808181    19.797817    20.505942    6823.6657    9943.9035    9605.0853    9335.6527   -33.749997   -1293.6541    1301.2149   -2484.2589 
24576000    253.29976   -3859.9515   -3425.8044   -3859.9515            0    11244.655    16.798601    19.786533    20.494254    6812.0048    11935.354    10546.907    11251.704    2364.9204    1634.2036   -27.007031   -2308.6918 
24577000    256.55602   -3898.4098   -3458.6815   -3898.4098            0    10485.731    16.836952    19.831706    20.541043     6858.767    10397.256    8822.9842    12236.953    471.52274   -1047.4356   -2395.0591    -2409.814 
24578000    276.90696   -3852.2535   -3377.6445   -3852.2535            0     10039.98    16.858217    19.856752    20.566985    6884.7865    12393.096    8956.0129    8770.8298    203.49632    480.61663   -504.96399   -2369.5547 
24579000     259.3626   -3890.6001   -3446.0615   -3890.6001            0    10106.392    16.864351    19.863978    20.574469    6892.3053    9355.4315    9838.9656    11124.778   -936.60969    290.91417   -789.16101   -2430.1953 
24580000    272.99518   -3885.8553   -3417.9509   -3885.8553            0    9318.4444    16.866112    19.866052    20.576617    6894.4642    9268.6106    9220.7538    9465.9687   -1009.4285   -734.69671    397.59267   -2480.9936 
24581000    255.87953   -3910.6106   -3472.0419   -3910.6106            0    10861.038    16.870923    19.871719    20.582487    6900.3664    11218.491    10489.046    10875.576    159.08444    1767.8139    2753.7182   -2379.0439 
24582000    251.39396   -3944.6696   -3513.7889   -3944.6696            0    7818.2394    16.952449    19.967746    20.681948    7000.8848    7436.8649    9038.8004    6979.0529    703.46932   -1188.5582    1250.6533    -2715.541 
24583000    247.72289   -3926.5204   -3501.9319   -3926.5204            0    11183.006    16.846296    19.842712    20.552442     6870.192     10833.99    13227.129    9487.8989    312.68111   -727.29021   -1189.0723   -2381.4539 
24584000    264.75815   -3880.9721   -3427.1857   -3880.9721            0    9879.5486     16.87261    19.873706    20.584545    6902.4359    10004.383    11296.511    8337.7517    148.71819    2000.7034    -282.5556   -2432.6614 
24585000    262.20106   -3910.5377    -3461.134   -3910.5377            0    9066.9016    16.912991     19.92127     20.63381    6952.1137    9003.0267    8896.2557    9301.4225   -523.65929    1081.6995   -273.58799   -2541.8459 
24586000    254.75859   -3897.7568   -3461.1093   -3897.7568            0    11709.042    16.797478     19.78521    20.492883     6810.638    10657.968    11952.463    12516.696   -980.03292    1638.3713   -261.35751    -2298.095 
24587000    253.07462   -3923.0872    -3489.326   -3923.0872            0    10428.193    16.845142    19.841352    20.551033    6868.7796    10610.845     9253.178    11420.556     873.6704   -13.820999    33.454083   -2444.6911 
24588000    265.42553   -3891.4035   -3436.4733   -3891.4035            0    14201.059    16.807137    19.796588    20.504668    6822.3947    14259.547    14181.193    14162.437    1040.1199    2336.7597   -206.84371   -2023.5015 
24589000    243.94869   -3918.9314   -3500.8117   -3918.9314            0    9173.4917    16.904082    19.910776    20.622941    6941.1334    8336.0496    10527.174    8657.2518    1303.3142   -480.68326   -40.698923   -2572.1854 
24590000    250.15092   -3895.9922   -3467.2421   -3895.9922            0    12139.484    16.796584    19.784157    20.491793    6809.5512    11931.841    13504.901    10981.709     1983.094    251.07526    1725.4671   -2261.6661 
24591000    250.55228   -3925.2167   -3495.7787   -3925.2167            0     11064.76    16.779033    19.763485    20.470381    6788.2277    8116.7443    13060.282    12017.254    837.31205    494.50188    367.37719   -2400.3748 
24592000    266.89378   -3906.5165   -3449.0697   -3906.5165            0    10793.373    16.817526    19.808824    20.517342    6835.0528    9872.0383    12403.776    10104.306     136.2626   -811.90693   -1392.8633   -2373.1621 
24593000    245.98899   -3918.4912   -3496.8744   -3918.4912            0    10339.607     16.81648    19.807592    20.516066     6833.778    10093.755    10527.305    10397.762   -1304.7866   -46.475134    -547.9966   -2466.3915 
24594000     245.0475   -3915.3628   -3495.3597   -3915.3628            0     9926.094    16.846281    19.842694    20.552424    6870.1737    10232.888    10739.777    8805.6163    398.34237     509.5662   -1880.8036   -2500.8203 
24595000    251.64379   -3945.5641   -3514.2552   -3945.5641            0    11040.602    16.859464    19.858221    20.568506    6886.3147    8437.7121     11727.95    12956.143    24.004125    176.77969    643.38115   -2405.4494 
24596000    263.83458   -3941.9495   -3489.7461   -3941.9495            0    9272.2712    16.883004    19.885948    20.597225    6915.1998    8769.8575    10820.726      8226.23    1648.8756   -895.28654    355.40997   -2554.6274 
24597000    270.13411   -3927.6839   -3464.6833   -3927.6839            0    10570.546     16.82002    19.811762    20.520385     6838.095     11055.77    10039.387    10616.482     1034.624    270.83485   -1589.3456   -2410.5186 
24598000    246.88222   -3935.6158   -3512.4681   -3935.6158            0    9868.7091    16.799752    19.787889    20.495658     6813.405    9186.4088    10259.424    10160.295    858.38064   -153.21295   -933.75079   -2531.8488 
24599000    260.65645   -3936.7407   -3489.9845   -3936.7407            0    9099.0823     16.86702    19.867122    20.577725    6895.5779    11316.209    7079.7472    8901.2908   -1720.4255    95.075844   -84.032281   -2574.9359 
24600000    250.62121   -3936.1487   -3506.5925   -3936.1487            0    9747.9086    16.867823    19.868067    20.578705    6896.5628    11120.842    10753.126    7369.7575   -546.08102   -1920.2527     808.4603   -2526.1547 
24601000    252.11728   -3945.8039   -3513.6835   -3945.8039            0      9702.63    16.838041    19.832988    20.542371    6860.0971    8883.1494    10841.476    9383.2648   -1132.0063    665.17992   -1754.5281   -2542.9599 
24602000    254.83526   -3910.0275   -3473.2486   -3910.0275            0    9314.2913    16.925301    19.935769    20.648828    6967.3045    9269.7744    8666.8502    10006.249    -959.3145    1203.1201    218.91844   -2526.8143 
24603000    254.35274   -3925.1355   -3489.1836   -3925.1355            0    6476.7964    16.997959    20.021351     20.73747    7057.4194    7204.0811    5280.3923    6945.9159   -39.603881    373.85171    892.17644   -2822.5579 
24604000    255.11152    -3922.561   -3485.3086    -3922.561            0    9132.6641    16.881266    19.883902    20.595105    6913.0648    8215.3025    9623.8172    9558.8727   -1926.5735    323.92817   -230.10413   -2564.5537 
24605000    260.43196   -3895.8626   -3449.4912   -3895.8626            0    7845.2545    16.867278    19.867426     20.57804    6895.8949     9518.257    7195.3344    6822.1721    445.62585    515.55821    -1173.585   -2660.4974 
24606000    239.40245   -3917.6052   -3507.2776   -3917.6052            0    9131.1235    16.880948    19.883527    20.594717     6912.674    9151.1094    7314.1169    10928.144   -696.52106    904.15602   -497.76786   -2586.7301 
24607000    250.82882   -3912.6411    -3482.729   -3912.6411            0    8538.5505    16.868827     19.86925     20.57993    6897.7946    9086.7258    8367.3635    8161.5621   -751.63816   -400.44053   -575.63924   -2623.7743 
24608000    252.07189   -3920.1737   -3488.1311   -3920.1737            0    8297.0218    16.913105    19.921403    20.633948    6952.2534    10869.861    6789.3327    7231.8721   -550.04936    430.79957   -273.25799   -2646.8837 
24609000    250.86014   -3908.0921   -3478.1264   -3908.0921            0    10372.849    16.841675    19.837269    20.546804      6864.54    9792.4881     9663.792    11662.268   -302.28419    584.89797    390.44236   -2439.6768 
24610000    255.15673    -3913.394   -3476.0641    -3913.394            0     11125.12    16.848053    19.844781    20.554585    6872.3414    11190.901    9568.1383    12616.322   -802.19894    28.919425     678.9826   -2361.0372 
24611000     256.0178   -3895.9934   -3457.1877   -3895.9934            0    9842.6667    16.932718    19.944505    20.657877    6976.4685    9523.3824    9582.8656    10421.752   -963.03387    1413.0699   -7.5943705   -2455.7491 
24612000    252.85235   -3877.4938   -3444.1135   -3877.4938            0    9720.1138    16.858546    19.857141    20.567387    6885.1904    8997.5875    10789.993    9372.7606   -635.03959    2295.2582     -162.432   -2468.0835 
24613000    265.08494   -3909.0976   -3454.7511   -3909.0976            0    9551.1203    16.845212    19.841435     20.55112    6868.8663    9899.0534    9739.8774    9014.4302   -2121.9688   -336.03908   -398.43437   -2497.9641 
24614000    262.35375   -3881.1342   -3431.4688   -3881.1342            0    10698.085    16.846425    19.842864      20.5526    6870.3503    10425.881    11785.227    9883.1478   -448.21038    429.03156   -604.27519   -2359.5527 
24615000    268.27477     -3906.08   -3446.2662     -3906.08            0    8172.1817    16.933152    19.945016    20.658406    6977.0043     8852.848    9343.2519     6320.445   -250.46832   -1937.2255   -462.73332   -2614.7267 
24616000    244.06686    -3898.331   -3480.0088    -3898.331            0     8968.432    16.854675    19.852581    20.562665    6880.4487    8271.8991    8428.1325    10205.264   -847.37743   -22.571948   -756.93974   -2580.0779 
24617000    238.13376   -3899.0893   -3490.9361   -3899.0893            0    12369.593    16.827158    19.820169    20.529093    6846.8041    10384.346    13457.595    13266.839    -868.6665   -34.195682    687.79092   -2255.7875 
24618000    245.02072   -3895.3496   -3475.3925   -3895.3496            0     10356.59    16.833265    19.827363    20.536544    6854.2615    10479.337    9957.8788    10632.553    447.37563   -855.93857    202.12667   -2440.1232 
24619000    259.46002   -3902.9447   -3458.2391   -3902.9447            0     9783.556    16.843578     19.83951    20.549126    6866.8673    8923.5066     11988.47    8438.6915    261.62392    875.99378   -809.97007    -2478.453 
24620000    248.49481   -3914.3376    -3488.426   -3914.3376            0    9104.1963    16.870568      19.8713    20.582053    6899.9301    8516.1144    9367.2612    9429.2132    234.80257    587.07308   -337.47386   -2572.2853 
24621000    262.24273   -3929.0264   -3479.5513   -3929.0264            0    8464.2695    16.892444    19.897068    20.608742    6926.8066    6746.3554    8154.6405    10491.812    80.475983   -384.07422    -1361.587   -2624.4877 
24622000    267.74343   -3880.5144   -3421.6114   -3880.5144            0    11159.088    16.879808    19.882184    20.593326    6911.2739    11053.253    10502.185    11921.825    351.21632    229.57306   -1027.0786    -2296.844 
24623000    250.10029   -3921.8392   -3493.1759   -3921.8392            0    10049.783    16.828589    19.821854    20.530839    6848.5506    8454.1643     10804.54    10890.644   -1317.7546    645.84145   -2672.2093   -2489.4128 
24624000    255.55052   -3874.3188   -3436.3139   -3874.3188            0    11782.386    16.771028    19.754055    20.460615    6778.5159    12339.976    11918.791    11088.393    670.55775   -209.69397    87.211569   -2271.5343 
24625000    270.64151   -3901.3443    -3437.474   -3901.3443            0    9033.2316    16.912291    19.920445    20.632956    6951.2501    8696.2058    9528.1327    8875.3564   -578.26081    1178.5188   -1645.6572   -2521.7134 
24626000    265.62444   -3902.8491   -3447.5779   -3902.8491            0    11711.941     16.85889    19.857546    20.567807     6885.612     10480.07    11800.622     12855.13   -1424.6215    900.53519   -1272.2158   -2271.4696 
24627000     273.5338   -3925.1865   -3456.3589   -3925.1865            0     10960.15    16.864182    19.863778    20.574262    6892.0973    11423.998     8895.044    12561.409   -553.88711    1012.6686   -1586.0775   -2354.7085 
24628000    256.25461   -3902.8475   -3463.6359   -3902.8475            0    10656.396    16.888658    19.892609    20.604124    6922.1505    10612.697     12268.36    9088.1297   -1129.2938    192.41294   -1590.6261   -2387.8465 
24629000    267.57662   -3875.8603   -3417.2431   -3875.8603            0    11058.024    16.837535    19.832393    20.541754    6859.4793    11621.105    12038.759    9514.2078    351.59061     2114.969    1510.8346   -2311.0154 
24630000    244.27847   -3895.5924   -3476.9074   -3895.5924            0    11437.389    16.848021    19.844743    20.554546    6872.3026      10243.1    11293.657    12775.409    1452.3753    1594.8962    679.18335   -2330.5896 
24631000     252.2913   -3911.0424   -3478.6238   -3911.0424            0    9850.3878    16.851211      19.8485    20.558438    6876.2065    11216.196    8794.6762     9540.291    520.56264   -576.09263   -581.52364   -2490.8031 
24632000    267.00665   -3871.1863    -3413.546   -3871.1863            0    9292.9813    16.901602    19.907854    20.619915    6938.0782     8520.887    8483.6176    10874.439    -51.76105   -1119.8091    1415.1533    -2473.238 
24633000    254.79175   -3887.6824    -3450.978   -3887.6824            0    10548.916    16.880627    19.883149    20.594326    6912.2803     12161.15    9700.3018     9785.298   -244.96157   -1151.3204    384.33216   -2387.5574 
24634000    240.04206   -3886.1204   -3474.6965   -3886.1204            0    10277.917    16.856609    19.854859    20.565024     6882.817    11433.761    8609.5431    10790.448   -1152.5141    -504.2948    1223.5131   -2443.0112 
24635000    247.01582   -3913.2454   -3489.8687   -3913.2454            0    9713.1803    16.821679    19.813716    20.522409    6840.1183    11023.893    8961.8356    9153.8119    -57.65518    1406.3537    1005.8582   -2520.9196 
24636000    240.65384   -3842.3893   -3429.9169   -3842.3893            0    9604.8741    16.847252    19.843838    20.553608    6871.3617    9806.6614    12675.979     6331.982    111.97247   -1221.0217    800.07982   -2467.3955 
24637000    256.95131   -3922.1256   -3481.7199   -3922.1256            0    9691.1936    16.840502    19.835887    20.545373    6863.1058    8799.1571     10119.83    10154.593   -1819.2529   -1194.2025    688.79645   -2511.7152 
24638000    260.45095   -3902.8633   -3456.4593   -3902.8633            0    9711.5772    16.847142    19.843708    20.553474     6871.227    9132.4699    10659.537    9342.7243   -142.48627   -140.47238    221.58503   -2483.2641 
24639000    226.88253   -3902.6158   -3513.7469   -3902.6158            0    9763.1287    16.796581    19.784154     20.49179    6809.5479    10005.712    8554.4897    10729.184   -357.17207    392.54557    656.03573   -2544.1679 
24640000    261.29879   -3912.8321   -3464.9749   -3912.8321            0    9435.6507    16.824455    19.816985    20.525795    6843.5047    9263.4837     9193.025    9850.4434   -481.90699    2025.7678   -2222.7418   -2523.2451 
24641000    248.71887   -3911.1244   -3484.8288   -3911.1244            0     8717.564    16.864053    19.863627    20.574105    6891.9395    8675.0643    8049.9122    9427.7155    1126.4122    167.64367     197.2462   -2608.6102 
24642000     251.3065   -3889.4161   -3458.6854   -3889.4161            0    9548.0606    16.803321    19.792093    20.500013    6817.7488    8859.6078     9749.427    10035.147    1489.3521   -2288.9819    -205.2336   -2509.3229 
24643000    240.05071   -3901.3651   -3489.9264   -3901.3651            0    9825.0456    16.874758    19.876236    20.587165    6905.0723    10127.489    10681.904    8665.7439    1148.8587   -796.22826   -58.000729   -2500.5109 
24644000    253.22044   -3892.7526   -3458.7415   -3892.7526            0    11054.495     16.78721    19.773116    20.480357    6798.1564    9890.5322    12276.475    10996.477    419.33688    -456.7293   -846.68732   -2362.7531 
24645000    273.98505   -3896.1439   -3426.5429   -3896.1439            0    9927.6701    16.826826    19.819778    20.528688    6846.3989    10538.333    7982.1165    11262.561   -967.01413    3375.0045    742.00057   -2435.2878 
24646000    251.69259   -3902.9012   -3471.5087   -3902.9012            0    12224.693    16.778596     19.76297    20.469848    6787.6966    12615.833     13092.58    10965.666    -657.7625    804.00227     138.1548   -2261.3669 
24647000     230.8667   -3902.0138   -3506.3162   -3902.0138            0    10008.288    16.805443    19.794592    20.502601    6820.3317    9867.0672    9735.7884    10422.008   -88.488249    1377.4431    85.502307   -2510.8164 
24648000    251.99174   -3915.6453   -3483.7401   -3915.6453            0    11576.192    16.772905    19.756267    20.462905    6780.7926    10822.957    10782.363    13123.257    1374.0711    812.33244   -290.66608     -2338.96 
24649000    266.95208   -3883.7214   -3426.1746   -3883.7214            0    10850.411    16.808239    19.797885    20.506012     6823.736    12146.418    11464.897    8939.9177    81.169135    1189.4023    -686.4384   -2346.3722 
24650000    246.31864   -3898.0555   -3475.8738   -3898.0555            0    9264.9336    16.860963    19.859987    20.570336    6888.1519    7043.7154    10360.764    10390.322    132.76848   -589.22776    545.04531   -2545.1498 
24651000     258.6326    -3879.825   -3436.5376    -3879.825            0    8942.3697    16.865198    19.864975    20.575502    6893.3435    7567.8464    8980.3757    10278.887   -661.45648    351.83608   -1277.4567   -2537.5402 
24652000    240.71085   -3893.4249   -3480.8548   -3893.4249            0    9416.2637    16.849559    19.846555    20.556423    6874.1851    9015.6681    8606.7048    10626.418   -1106.6262   -53.127175    862.53605   -2536.8467 
24653000    266.27227   -3887.9318   -3431.5502   -3887.9318            0    10271.079    16.849014    19.845913    20.555758    6873.5181    7966.9383    11587.016    11259.281    599.76123    21.537684    188.79333   -2401.9443 
24654000    260.48172   -3924.7222   -3478.2654   -3924.7222            0     9836.068    16.847854    19.844546    20.554342    6872.0978    9415.8503    9961.3207    10131.033     2076.259   -608.81378   -1698.7036   -2492.4701 
24655000    256.73518   -3913.9851   -3473.9498   -3913.9851            0    8620.5931    16.881804    19.884535    20.595761    6913.7255    8484.0223    7495.8609     9881.896    -623.7676    275.12538    512.43524   -2604.7389 
24656000    241.73171   -3902.0379    -3487.718   -3902.0379            0    13233.939    16.761966    19.743382    20.449559     6767.534    13299.199    12854.248    13548.369   -683.03972   -385.75637    977.29393   -2181.5608 
24657000    253.22407   -3898.3769   -3464.3596   -3898.3769            0    9430.8374    16.824713    19.817289     20.52611    6843.8195    7291.7407    10743.749    10257.022     195.7977   -822.57462   -2098.9617   -2523.0668 
24658000     262.1793   -3897.0435   -3447.6772   -3897.0435            0    12558.361    16.724766    19.699565    20.404176    6722.5765    11968.111    12659.683    13047.288    -1545.008      26.8893   -325.21162   -2216.4318 
24659000    245.89231   -3891.1683   -3469.7172   -3891.1683            0    9289.2888    16.832796     19.82681    20.535972    6853.6887    8760.2899    8546.3624    10561.214    813.81046   -945.52899    1356.9623   -2541.2155 
24660000    257.93836   -3880.2513   -3438.1538   -3880.2513            0     10145.78    16.835753    19.830293    20.539579    6857.3011    11746.258    9186.0676    9505.0133    991.33823   -545.12181   -385.17371   -2423.5078 
24661000    248.59415   -3934.7516   -3508.6697   -3934.7516            0    12232.479    16.814437    19.805186    20.513574    6831.2884    13219.548    12852.433    10625.455    461.71909   -1170.3666    1560.5314   -2289.9805 
24662000     243.9835   -3895.4385   -3477.2591   -3895.4385            0    11409.948    16.862544    19.861849    20.572264    6890.0893    11642.921    10893.226    11693.698   -985.85936    317.36614    85.042287   -2330.7318 
24663000    253.80606   -3900.9698   -3465.9549   -3900.9698            0    10150.667    16.872405    19.873465    20.584295    6902.1847    10749.298      10702.3    9000.4036   -786.77026    412.33512   -426.70378   -2444.1757 
24664000    268.70516   -3953.1377   -3492.5863   -3953.1377            0    9569.0855    16.852707    19.850262    20.560263    6878.0379    7695.5346    12518.459    8493.2628   -649.78806    604.69016   -1967.3861   -2532.7197 
24665000     243.8725   -3897.5732   -3479.5841   -3897.5732            0    12343.791    16.818571    19.810055    20.518618    6836.3278    11695.618    12239.126    13096.628    467.73601    1230.3017    1435.7584   -2248.8979 
24666000    248.84585   -3882.9547   -3456.4414   -3882.9547            0    10710.388    16.846598    19.843067     20.55281    6870.5615    11658.103    10399.754    10073.308    190.62362    633.76464   -41.171096   -2383.2596 
24667000    242.85853   -3917.6278   -3501.3766   -3917.6278            0    10946.993    16.800324    19.788563    20.496356     6814.101    10801.716    10253.609    11785.654    1222.2197    1230.2796   -311.78911   -2413.5008 
24668000    265.93107   -3881.7741   -3425.9773   -3881.7741            0    10519.762    16.814516    19.805279     20.51367    6831.3842    12426.367    8129.5584     11003.36   -72.568574    1191.0197   -232.45265   -2377.9068 
24669000     260.0862   -3887.0606   -3441.2817   -3887.0606            0    10407.431    16.885745    19.889177     20.60057    6918.5691    7934.3758     13027.86    10260.059   -1677.3336   -765.43045     477.4482   -2391.1695 
24670000    268.11185   -3913.6818   -3454.1473   -3913.6818            0    8642.9289    16.883044    19.885995    20.597274    6915.2491    8401.0971    9272.0076     8255.682    608.66371    675.46186    718.56605   -2582.4922 
24671000    253.97415   -3884.9062   -3449.6032   -3884.9062            0    8168.6642    16.862017    19.861229    20.571621    6889.4438    7763.9132    6311.8166    10430.263   -387.46517   -637.05149    1637.3725   -2628.8528 
24672000    260.06487   -3925.2342   -3479.4919   -3925.2342            0    10323.573    16.832133    19.826029    20.535162    6852.8782    8016.8995    11789.426    11164.393   -1271.6133    1047.0193   -825.69579   -2447.7313 
24673000    248.10687   -3900.1238   -3474.8771   -3900.1238            0    10538.337     16.85506    19.853035    20.563134    6880.9201    9420.7407    10333.034    11861.236    109.45151    332.46994   -1334.0738   -2417.3428 
24674000    243.65702   -3898.9497   -3481.3299   -3898.9497            0    10418.262    16.814899     19.80573    20.514138    6831.8509    10575.526    10546.448    10132.813   -25.825024     635.1477   -814.12839   -2443.3007 
24675000    255.51094   -3877.3836   -3439.4466   -3877.3836            0    11419.092    16.813436    19.804007    20.512353    6830.0681    11192.938    11583.878     11480.46   -1081.3655    4.7656433    420.45153   -2301.9961 
24676000    251.99449   -3909.8975   -3477.9876   -3909.8975            0    8095.9746    16.891556    19.896022    20.607659    6925.7139    8240.9361    8177.4292    7869.5586    643.31674    595.06831    544.17797   -2660.2583 
24677000    261.66188   -3882.5728   -3434.0933   -3882.5728            0    10223.731    16.847671    19.844331    20.554119     6871.874    9647.7702    12191.133    8832.2906   -153.54669    217.29723    572.03221   -2409.4788 
24678000    266.56581   -3901.2624   -3444.3777   -3901.2624            0    9039.0194    16.867052    19.867159    20.577764    6895.6168    6804.9652    9931.7945    10380.298    431.70738    1011.4225    88.937561   -2535.3642 
24679000    249.97905   -3909.6868   -3481.2313   -3909.6868            0    9134.3338    16.886498    19.890064    20.601488    6919.4941    9555.5703    9134.6927    8712.7383   -572.83351   -36.045113   -25.982392   -2559.4516 
24680000    247.13995   -3913.6167   -3490.0272   -3913.6167            0    9249.3627    16.864633    19.864309    20.574812    6892.6501    9971.6205    9164.5864    8611.8812   -1733.6069   -881.09562   -249.64186   -2560.2607 
24681000    245.12987   -3884.2928   -3464.1486   -3884.2928            0    9076.3907    16.912292    19.920446    20.632956    6951.2511    9834.0787    9502.6019    7892.4914   -1237.2221    54.925137   -473.19234   -2544.0126 
24682000    255.25857   -3881.1304    -3443.626   -3881.1304            0    11469.529    16.835922    19.830493    20.539786     6857.508    9098.8416     12400.44    12909.304   -62.948335    44.373883   -490.02937   -2296.5616 
24683000    248.65997   -3920.2296   -3494.0349   -3920.2296            0    8427.6611    16.866626    19.866658    20.577245     6895.095    7912.2858    9943.4314    7427.2661    299.04949    5.9643142   -1712.1482   -2646.5671 
24684000    238.78259   -3929.6069   -3520.3417   -3929.6069            0    8437.8728    16.909056    19.916634    20.629009    6947.2617     9518.273    7733.4389    8061.9066    13.414763   -727.58053   -402.40297   -2665.4275 
24685000     266.4798   -3924.0705   -3467.3333   -3924.0705            0    10940.706    16.868538     19.86891    20.579577      6897.44    10920.556    12372.705     9528.858   -388.45584    1108.3535   -454.66777   -2366.7848 
24686000    247.75941   -3865.5871    -3440.936   -3865.5871            0    9046.5455    16.874962    19.876476    20.587414    6905.3232    10632.148    9510.7878    6996.7007    1048.8138    1213.8765     937.5966    -2529.885 
24687000    248.05891   -3903.3524   -3478.1879   -3903.3524            0    9802.0541    16.901914    19.908222    20.620295    6938.4623    10969.407    10085.133    8351.6225   -537.79497    -192.8465    97.810458   -2486.3145 
24688000    271.18891   -3887.7631   -3422.9546   -3887.7631            0    10406.013    16.865892    19.865793    20.576349    6894.1948    11290.651    11405.089     8522.301   -561.00764    685.43149    1336.4807   -2376.6845 
24689000    246.01911   -3895.7451   -3474.0768   -3895.7451            0     9185.724    16.880915    19.883488    20.594677    6912.6334    10765.833     7951.733     8839.606    119.36127    261.19556   -408.80461   -2548.0303 
24690000    263.73731   -3846.4372   -3394.4005   -3846.4372            0    11070.464    16.851434    19.848763     20.55871    6876.4796    11060.096    11384.552    10766.745   -745.91866   -1094.8111    305.80522   -2284.1834 
24691000    264.00495   -3879.9097   -3427.4142   -3879.9097            0    9990.3391    16.856566    19.854809    20.564972     6882.765     12753.52    8020.2766    9197.2205     644.3806   -1403.3212    -670.4363   -2424.6033 
24692000    255.35305   -3884.1965   -3446.5301   -3884.1965            0    8837.3908    16.831617    19.825421    20.534533    6852.2481     10102.08    8303.2925    8106.8002    873.01477   -2037.8604   -75.675327    -2563.383 
24693000    259.38795   -3876.8618   -3432.2798   -3876.8618            0    9999.1476    16.831656    19.825467    20.534581    6852.2958    8758.7632    10534.634    10704.046    43.041987     1322.458    374.59281   -2433.0279 
24694000     252.2611   -3845.1364   -3412.7695   -3845.1364            0    10956.851    16.892567    19.897213    20.608892    6926.9577    11454.982     8336.704    13078.866    809.11559    -159.6749    -141.7102   -2305.8802 
24695000    258.47589   -3894.8244   -3451.8056   -3894.8244            0     10440.76    16.830351     19.82393    20.532989    6850.7027    9438.8231    10225.365    11658.092   -678.34295    588.99422   -1346.4736   -2408.6644 
24696000    262.94398   -3900.0428   -3449.3658   -3900.0428            0    9258.3862    16.847996    19.844714    20.554516    6872.2726    8459.3969    7419.0532    11896.709    1889.6104    31.335071   -375.83965   -2521.4436 
24697000    258.74593   -3896.8104   -3453.3287   -3896.8104            0    9211.6216    16.857348    19.855729    20.565925    6883.7218    8565.6216    10173.721    8895.5227   -478.96483   -843.53319    874.75155   -2528.5554 
24698000    250.22569   -3855.5184   -3426.6402   -3855.5184            0    8178.2626    16.861823       19.861    20.571385    6889.2062    10603.849    7712.2184    6218.7201   -158.20418    831.05715   -242.49248   -2604.9537 
24699000    260.00163    -3871.103   -3425.4691    -3871.103            0    10252.316    16.801057    19.789426     20.49725     6814.993    9761.0733    9734.3101    11261.565   -1249.5377   -409.73757    -1160.562   -2406.4947 
24700000    252.44374   -3882.7749    -3450.095   -3882.7749            0    9278.7206    16.806611    19.795968    20.504026    6821.7539    10674.738    8537.1391    8624.2844   -749.89775   -391.59022    169.58847    -2526.971 
24701000     258.2256   -3886.5924   -3444.0025   -3886.5924            0     11682.23    16.778353    19.762684    20.469551     6787.402    10246.328    12438.491    12361.871    31.940612   -140.82444   -704.70511   -2287.6102 
24702000    254.74764   -3888.7345   -3452.1057   -3888.7345            0    10618.745     16.85737    19.855755    20.565952    6883.7492    9414.5852    12169.807    10271.843    1053.9561   -417.38021    1158.6845   -2386.0642 
24703000    254.84513    -3923.307   -3486.5112    -3923.307            0    9583.6648    16.848021    19.844744    20.554547    6872.3031    9624.9614    8696.1499    10429.883    -1248.748   -2021.4766    -7.741319   -2525.9837 
24704000    255.39502   -3923.9269   -3486.1886   -3923.9269            0    8946.4387    16.830406    19.823995    20.533056    6850.7695    7860.2297    11139.227    7839.8591    936.78285    36.672559    310.23589    -2592.337 
24705000    246.59141   -3907.9302    -3485.281   -3907.9302            0    9960.7244    16.795929    19.783385    20.490994    6808.7541      10101.2    10590.206    9190.7674    667.14951   -291.63113   -1163.8168   -2496.1941 
24706000    249.36865   -3918.4988   -3491.0894   -3918.4988            0    8927.9067    16.864825    19.864536    20.575047    6892.8862     8103.185    10989.651    7690.8843    1707.7788   -115.50015    679.67954   -2593.6056 
24707000    252.34154   -3893.6796   -3461.1748   -3893.6796            0    12117.052    16.821981    19.814072    20.522778    6840.4871    12786.673    12459.208    11105.277    1203.3848   -825.67557    6.3027918   -2252.3596 
24708000    255.03333    -3873.778   -3436.6596    -3873.778            0    11455.272     16.78444    19.769853    20.476977    6794.7913    11615.192    11216.367    11534.257    807.17899    -239.3049   -573.55415   -2301.4987 
24709000    255.67844   -3894.7516   -3456.5276   -3894.7516            0    10312.049    16.825322    19.818007    20.526853    6844.5629    11349.808    8005.0968    11581.242    148.46833    282.92794   -1332.5396   -2427.1692 
24710000    258.81036   -3862.8395   -3419.2474   -3862.8395            0    10344.619    16.865519    19.865354    20.575894    6893.7377    9389.5728     11931.62    9712.6632    280.42807   -303.14723   -608.47792   -2379.2191 
24711000     253.2868   -3903.6124   -3469.4874   -3903.6124            0    10510.758    16.843643    19.839586    20.549205    6866.9461    11430.297     12408.45    7693.5288   -233.23158     48.54816   -128.49405   -2416.8627 
24712000    266.55957   -3926.6031   -3469.7291   -3926.6031            0    9214.1656    16.841709    19.837309    20.546846    6864.5814    9923.9211    7983.5146    9735.0611    34.113184   -958.88388   -216.60421   -2547.2725 
24713000    250.30411   -3869.0909   -3440.0782   -3869.0909            0    8292.0104    16.890957    19.895316    20.606928    6924.9774     8403.442     9460.431    7012.1581   -126.58265    1213.7725    442.78293   -2602.6375 
24714000    250.01372   -3888.6319   -3460.1169   -3888.6319            0    10890.262    16.808817    19.798566    20.506717      6824.44    9627.5929    11926.621    11116.572   -532.77108     1348.514     547.6981   -2376.2368 
24715000     242.9007   -3940.3303   -3524.0068   -3940.3303            0    9483.3973     16.86359    19.863081     20.57354    6891.3715    11399.708    8360.2219     8690.262     1035.427   -423.49452   -62.134412   -2570.8913 
24716000    258.86874   -3927.8618   -3484.1697   -3927.8618            0    10134.929      16.8385    19.833529    20.542931    6860.6586    11292.592    9769.6292    9342.5668    866.24019    766.63482    512.67976   -2470.1125 
24717000    244.37756   -3909.0483   -3490.1935   -3909.0483            0    10973.567    16.816057    19.807094    20.515551    6833.2628     12564.84    10827.664    9528.1958   -276.97237   -524.50785   -550.35107   -2396.6103 
24718000    254.81603   -3888.4526   -3451.7067   -3888.4526            0    9444.8699    16.889534     19.89364    20.605192    6923.2269    11762.022    8545.4873       8027.1    572.33496   -98.697601    2314.5359   -2498.0755 
24719000    253.43761   -3894.7017   -3460.3183   -3894.7017            0    9833.9021    16.907266    19.914526    20.626825    6945.0562    12352.647    8133.5225    9015.5364    307.12568    1972.0974    2500.9745   -2464.2766 
24720000    246.82455   -3925.7018   -3502.6529   -3925.7018            0    10745.383    16.815915    19.806926    20.515377    6833.0892    12560.219    10025.649    9650.2815   -996.48322    218.18081    50.741665   -2431.8369 
24721000    249.68357   -3903.7389   -3475.7898   -3903.7389            0    10809.626    16.870103    19.870753    20.581486    6899.3597    13322.003    10430.624    8676.2503   -13.675451   -1152.6196    1658.5815   -2388.1243 
24722000    257.96343   -3927.6844   -3485.5439   -3927.6844            0    9296.5489     16.87273    19.873847    20.584691    6902.5829    9830.7845     9427.659    8631.2031   -150.63464   -2403.3795    1423.0913   -2549.6874 
24723000     243.2281   -3889.0602   -3472.1755   -3889.0602            0    10184.996    16.854489    19.852362    20.562437    6880.2208    7811.0197    11510.392    11233.578    587.49043    560.37443   -102.75895   -2450.2032 
24724000    254.55415   -3892.2438   -3455.9467   -3892.2438            0    12061.683    16.848435    19.845231    20.555051     6872.809    11132.274    13807.196    11245.579   -161.28348   -792.28858    841.52396   -2246.9696 
24725000    242.10549    -3877.676   -3462.7155    -3877.676            0    12294.837    16.785327    19.770898     20.47806    6795.8691     13308.97    11395.759    12179.782   -612.21063    99.013353   -869.25537   -2244.1646 
24726000    253.17036   -3913.3377   -3479.4124   -3913.3377            0    8465.1826    16.911249    19.919217    20.631684    6949.9651    8268.1221     8113.193    9014.2328    593.81243    -16.71334   -460.87179   -2621.3974 
24727000    255.24442   -3870.1729   -3432.6927   -3870.1729            0     9207.142    16.921296    19.931052    20.643942      6962.36     8053.063    8540.5369    11027.826    2283.1371    291.33475   -1415.0045   -2497.8098 
24728000    263.44551   -3917.1534   -3465.6168   -3917.1534            0    10501.595    16.883785    19.886869    20.598179    6916.1604    11292.256    9652.1169    10560.413   -1399.5446   -66.881976   -1270.7057   -2406.3723 
24729000    263.04142   -3919.1964   -3468.3525   -3919.1964            0    7948.9544    16.871362    19.872236    20.583023    6900.9051    8337.3309     7363.361    8146.1714    556.71555   -869.15284    1746.6522   -2668.3488 
24730000    273.72267   -3908.1313     -3438.98   -3908.1313            0    10854.825    16.855202    19.853201    20.563307    6881.0933    10316.952    11620.555    10626.968    318.30928   -465.89408    -258.3485   -2349.6583 
24731000    258.76588   -3906.8221   -3463.3063   -3906.8221            0    10128.392    16.866354    19.866337    20.576912    6894.7611    10014.889    10695.095    9675.1904    233.28689   -623.12338    554.68588   -2444.8659 
24732000    245.85792   -3893.6933   -3472.3012   -3893.6933            0    10927.286    16.854144    19.851955    20.562016    6879.7979    12697.872    10761.544    9322.4416     -762.284   -530.30351   -1423.3672   -2375.9142 
24733000    251.56057    -3906.725   -3475.5588    -3906.725            0     9434.885    16.811471    19.801692    20.509955    6827.6733    8452.1308    8608.4212    11244.103   -1511.8346   -376.95264     603.0485   -2536.0838 
24734000    264.33946   -3876.7105   -3423.6417   -3876.7105            0    11696.239    16.778612    19.762989    20.469867    6787.7162    11362.625    10304.261    13421.831    388.07248    98.338126    574.08939    -2265.809 
24735000    240.53339   -3903.0059   -3490.7398   -3903.0059            0    8707.7362    16.855603    19.853674    20.563796    6881.5845    8030.1984    9629.6258    8463.3844   -1359.2591   -2516.5259    1149.8283    -2616.824 
24736000    251.85181   -3912.8009   -3481.1355   -3912.8009            0    9128.3747    16.875631    19.877265    20.588231    6906.1447    7822.6633    9753.8823    9808.5785   -914.29778    883.21926    531.68189   -2561.7344 
24737000    235.38407   -3884.6051   -3481.1649   -3884.6051            0    8498.9608    16.902528    19.908945    20.621045    6939.2188    9055.3359    7482.9109    8958.6357    365.96051   -186.16615   -978.66213   -2621.0582 
24738000    264.56453   -3924.3322   -3470.8777   -3924.3322            0    9585.3828    16.870791    19.871563    20.582325    6900.2034    9782.3685    10330.245    8643.5347   -1186.7708   -867.11342    12.814229   -2506.2777 
24739000     254.9478   -3925.1371   -3488.1653   -3925.1371            0    7771.5806    16.871626    19.872547    20.583345    6901.2289    8024.6229    7969.6686    7320.4503   -239.50057    224.82749     1427.547   -2705.9764 
24740000     250.0919   -3890.9592   -3462.3102   -3890.9592            0    10435.139    16.848158    19.844905    20.554714    6872.4705    11177.177    9434.7195     10693.52    1249.8104     786.0838    769.00738   -2416.4178 
24741000    246.86154    -3886.819   -3463.7068    -3886.819            0    10002.404    16.805819    19.795035     20.50306    6820.7892    9493.6403    10180.318    10333.254   -1070.6414    340.85208   -654.19208   -2468.7255 
24742000    267.80496   -3911.5353   -3452.5268   -3911.5353            0    9395.6625    16.843744    19.839705    20.549328    6867.0698      7705.97     9863.818      10617.2   -209.93815    566.15757    573.01583    -2511.559 
24743000    255.87109    -3869.236   -3430.6817    -3869.236            0    11290.589    16.851397    19.848719    20.558665    6876.4342    10433.703    11306.175    12131.889    1181.8226    686.62853    479.96331   -2298.3967 
24744000    253.96827   -3882.0887   -3446.7958   -3882.0887            0    11378.327    16.799085    19.787103    20.494844    6812.5929    10680.927    11695.693    11758.362   -972.43076   -657.14406    678.38938   -2316.3057 
24745000    271.40713   -3889.5306    -3424.348   -3889.5306            0    8927.4582    16.897392    19.902895    20.614778    6932.8947    8366.4987    9338.6649    9077.2108    319.99498   -54.173701   -925.05667   -2521.7002 
24746000    255.53915   -3915.3703   -3477.3849   -3915.3703            0     8589.723    16.920539     19.93016    20.643018    6961.4257    6530.4753    10195.689    9043.0045     12.31004     1773.218   -871.76976   -2605.3111 
24747000    253.50531   -3915.2115   -3480.7121   -3915.2115            0     8564.208    16.867424    19.867598    20.578218     6896.074    9178.8579    8362.2624    8151.5037   -357.89199     1551.429   -973.10506   -2619.3911 
24748000    251.11332   -3887.9454   -3457.5457   -3887.9454            0    8857.3983    16.947558    19.961985    20.675981    6994.8268    9622.3627     8283.428    8666.4042    -564.8981   -1008.0706   -612.57518   -2553.9815 
24749000    255.64414    -3930.731   -3492.5657    -3930.731            0     9386.086    16.900053     19.90603    20.618025    6936.1711    9801.3481    8223.9142    10132.996    346.98616    850.32877   -429.10305   -2543.0979 
24750000    258.75123    -3866.568   -3423.0773    -3866.568            0    11596.835    16.817951    19.809325    20.517861    6835.5716    11290.964     12747.17    10752.371   -539.25106   -195.99892     -1548.86   -2266.9911 
Loop time of 572.76 on 64 procs for 250000 steps with 864 atoms

Performance: 75.424 ns/day, 0.318 hours/ns, 436.483 timesteps/s
99.2% CPU use with 64 MPI tasks x 1 OpenMP threads

MPI task timing breakdown:
Section |  min time  |  avg time  |  max time  |%varavg| %total
---------------------------------------------------------------
Pair    | 21.977     | 27.075     | 32.518     |  49.4 |  4.73
Bond    | 0.26588    | 0.27556    | 0.30352    |   1.3 |  0.05
Kspace  | 236.37     | 246.97     | 273.12     |  49.0 | 43.12
Neigh   | 5.115      | 6.2492     | 9.101      |  36.4 |  1.09
Comm    | 127.09     | 153.06     | 165.04     |  67.8 | 26.72
Output  | 1.3874     | 1.3923     | 1.4065     |   0.5 |  0.24
Modify  | 131.67     | 133.44     | 136.02     |   9.4 | 23.30
Other   |            | 4.293      |            |       |  0.75

Nlocal:        13.5000 ave          17 max           8 min
Histogram: 1 0 4 5 10 8 18 9 3 6
Nghost:        2301.33 ave        2352 max        2238 min
Histogram: 1 0 6 6 10 13 12 8 5 3
Neighs:        4509.73 ave        6620 max        2905 min
Histogram: 5 5 6 11 12 12 7 4 1 1

Total # of neighbors = 288623
Ave neighs/atom = 334.05440
Ave special neighs/atom = 2.0000000
Neighbor list builds = 13291
Dangerous builds = 1

unfix		3
unfix		2
unfix		1

write_data	data.final.${pid}
write_data	data.final.0
System init for write_data ...
PPPM initialization ...
  extracting TIP4P info from pair style
  using 12-bit tables for long-range coulomb (../kspace.cpp:340)
  G vector (1/distance) = 0.37502667
  grid = 24 24 24
  stencil order = 5
  estimated absolute RMS force accuracy = 0.0030748011
  estimated relative force accuracy = 9.2596721e-06
  using double precision FFTW3
  3d grid and FFT values/proc = 2535 216
Last active /omp style is kspace_style pppm/tip4p/omp
WARNING: Not all mixed pair coeffs generated from mixing. Use write_data with 'pair ij' option to store all pair coeffs. (../write_data.cpp:312)

write_restart   restart.lmp.${pid}
write_restart   restart.lmp.0
System init for write_restart ...
PPPM initialization ...
  extracting TIP4P info from pair style
  using 12-bit tables for long-range coulomb (../kspace.cpp:340)
  G vector (1/distance) = 0.37502667
  grid = 24 24 24
  stencil order = 5
  estimated absolute RMS force accuracy = 0.0030748011
  estimated relative force accuracy = 9.2596721e-06
  using double precision FFTW3
  3d grid and FFT values/proc = 2535 216
Last active /omp style is kspace_style pppm/tip4p/omp
Total wall time: 0:09:35
