LAMMPS data file via write_data, version 30 Jul 2021, timestep = 9000000

1296 atoms
2 atom types
864 bonds
1 bond types
432 angles
1 angle types

-10.743919129528964 12.723919129528964 xlo xhi
-9.32665772498184 12.31665572498184 ylo yhi
0.06949598561596027 21.79050301438117 zlo zhi
-9.146088851313602 2.154438543492311 3.1027416050799954 xy xz yz

Masses

1 1.008
2 15.999

Pair Coeffs # lj/cut/tip4p/long/omp

1 0 0
2 0.21084 3.1668

Bond Coeffs # harmonic/omp

1 450 0.9572

Angle Coeffs # harmonic/omp

1 55 104.52

Atoms # full

280 94 2 -1.1794 -9.38835551009225 -4.4851509568557235 1.4345819411308256 1 1 0
270 90 1 0.5897 -8.625607670946803 -7.528126550173095 2.2414831067015784 1 1 0
269 90 1 0.5897 -9.205905749759463 -6.1437539874954386 2.4363217608595265 1 1 0
268 90 2 -1.1794 -9.326743017332365 -7.057964486859563 2.6924923176583477 1 1 0
314 105 1 0.5897 -9.015874629918782 -6.596483255798086 4.48584477981756 1 1 0
299 100 1 0.5897 -6.8115723479567585 -7.92329298257859 3.9790495993208017 1 1 0
163 55 2 -1.1794 -7.305156765695564 -8.083433638182548 0.9988467820344705 1 1 0
164 55 1 0.5897 -6.455731194563863 -8.412817082059918 1.2923409047694836 1 1 0
298 100 2 -1.1794 -6.2137285439729215 -7.175859057262182 3.9833302019172767 1 1 0
310 104 2 -1.1794 -3.679756201295909 -8.240879222616385 3.820095312257559 1 1 0
316 106 2 -1.1794 -1.7556508963405904 -4.655217315612646 1.3808286479864307 1 1 0
323 108 1 0.5897 -6.301382386901128 -5.600512759021441 3.4041790298904733 1 1 0
322 108 2 -1.1794 -6.445496658006241 -4.743043071880918 3.004202163285353 1 1 0
201 67 1 0.5897 0.2226848582872165 -8.794376393336764 0.29184121745898345 1 1 0
257 86 1 0.5897 -12.53335865781443 -3.7487504761734467 2.2878162411671608 1 1 0
282 94 1 0.5897 -10.273126693771367 -4.12754810444878 1.507989795813994 1 1 0
324 108 1 0.5897 -7.1792084908743945 -4.370582459863897 3.493093952260531 1 1 0
313 105 2 -1.1794 -8.892429332249309 -6.273159250027451 5.378300741282207 1 1 0
293 98 1 0.5897 -5.0029720319125275 -3.957505126352162 2.2030200346396502 1 1 0
242 81 1 0.5897 -1.2479432927684009 -6.768935218723618 4.262792530407109 0 1 0
311 104 1 0.5897 -2.8374470568499914 -7.863584720862779 3.5665530162865147 1 1 0
261 87 1 0.5897 -6.827957348318765 -4.891305642281609 0.9589148927314824 1 1 0
73 25 2 -1.1794 -8.462138225636414 -3.7151333159643816 4.686364387657948 1 0 0
300 100 1 0.5897 -5.348029547942065 -7.560085256936079 3.845451535567895 1 1 0
306 102 1 0.5897 -0.7429043504404849 -7.407320348400508 1.954515195025419 1 1 0
305 102 1 0.5897 -1.6315392327002414 -6.218228552617042 2.250524974279263 1 1 0
304 102 2 -1.1794 -1.4456658614986857 -7.11327495135719 2.5339596424023334 1 1 0
318 106 1 0.5897 -2.6182509313076316 -4.246979604803598 1.4537067306118225 1 1 0
243 81 1 0.5897 -1.0811828544254514 -5.402413398437428 4.892239342578144 0 1 0
165 55 1 0.5897 -7.502669322683715 -8.59440213089551 0.2139211184989155 1 1 0
315 105 1 0.5897 -8.71538995881734 -5.338568217660406 5.272525103112984 1 1 0
281 94 1 0.5897 -8.81379287997692 -3.725480741965934 1.5287434608920127 1 1 0
1177 393 2 -1.1794 -2.81880524720866 -8.879911900902348 0.1037505184762641 0 0 1
199 67 2 -1.1794 0.4302484794437902 -8.36732597805604 1.1229780434143006 1 1 0
1 1 2 -1.1794 -0.7685206507416069 -3.702464836569379 4.528532463803019 0 0 0
74 25 1 0.5897 -8.261710038196728 -3.233594656168461 5.488966436720258 1 0 0
241 81 2 -1.1794 -1.1668359342505017 -6.330487969696819 5.109793352292539 0 1 0
260 87 1 0.5897 -7.044213202694381 -6.243768967037058 0.3143460956867725 1 1 0
259 87 2 -1.1794 -6.806047170807077 -5.338898633542804 0.11311593904574674 1 1 0
275 92 1 0.5897 -10.729681885858522 -8.077334103544107 3.2399857735642614 1 1 0
317 106 1 0.5897 -1.1379248797144594 -3.9322377147651677 1.4895439671310002 1 1 0
420 140 1 0.5897 -9.150115659502047 -6.779437099705275 9.915555472922046 1 0 0
618 206 1 0.5897 -7.930413281978431 -7.415277924158436 6.73567579831062 1 1 0
413 138 1 0.5897 -7.403776880705658 -3.6280447708353556 7.72560826573221 1 0 0
419 140 1 0.5897 -8.686248642740718 -5.709408439770494 8.950417841463722 1 0 0
418 140 2 -1.1794 -9.47559555615815 -6.099121029936952 9.326184837210302 1 0 0
414 138 1 0.5897 -6.7722556863992835 -4.9859022439740635 7.505135917513801 1 0 0
350 117 1 0.5897 -7.059734801078944 -4.008113573573905 9.979091293028135 0 0 0
412 138 2 -1.1794 -7.272632085678081 -4.4786901146244595 8.144220973372246 1 0 0
429 143 1 0.5897 -6.034281107574389 -7.180811108901623 8.654836095941624 1 0 0
427 143 2 -1.1794 -5.711437780770689 -7.129901169642303 9.554552245308189 1 0 0
428 143 1 0.5897 -6.489868418030525 -7.258393710991845 10.096481501098543 1 0 0
632 211 1 0.5897 -4.756253079477253 -5.980830368180484 6.582980544368311 1 1 0
631 211 2 -1.1794 -5.6506465663300895 -5.729208174209448 6.352974826106006 1 1 0
616 206 2 -1.1794 -7.377503840529943 -7.866538488088237 7.3735252276861925 1 1 0
356 119 1 0.5897 1.2217560051682348 -7.378546838166288 10.080360309487325 0 0 0
404 135 1 0.5897 -5.245426616307965 -4.055052252288746 5.776925955245036 1 0 0
334 112 2 -1.1794 -4.286028763521248 -4.702200118303658 10.036012377521983 0 0 0
627 209 1 0.5897 -10.732636441815023 -6.883163163477297 6.304700457476416 1 1 0
546 182 1 0.5897 -0.013606469220121653 -7.601571348331919 6.665440180759686 0 1 0
359 120 1 0.5897 -4.488785046072854 -2.994001909210544 8.813182931863224 0 0 0
346 116 2 -1.1794 -1.934785576599431 -6.008995466213671 9.289250983316814 0 0 0
335 112 1 0.5897 -4.95717355273547 -5.364641093064118 9.872103043267568 0 0 0
554 185 1 0.5897 -2.6966157003203257 -6.520541729631903 7.841937797047394 0 1 0
347 116 1 0.5897 -1.2653223114467984 -5.426587674631052 8.930448838119903 0 0 0
555 185 1 0.5897 -2.422645187357924 -6.453618416143645 6.354519617710131 0 1 0
348 116 1 0.5897 -1.4406206426274633 -6.719294650251929 9.698325922848467 0 0 0
336 112 1 0.5897 -3.4591519857008572 -5.147412907986368 9.851369327667483 0 0 0
553 185 2 -1.1794 -3.1144737867163723 -6.640309284884566 6.989091990405701 0 1 0
641 214 1 0.5897 -4.141943492260477 -8.291196497174887 6.787087807370737 1 1 0
544 182 2 -1.1794 0.3799648996522116 -8.131129634464378 7.358880295965998 0 1 0
340 114 2 -1.1794 0.116855069006915 -4.428263609471813 8.198376489267531 0 0 0
403 135 2 -1.1794 -4.905883295745152 -3.1629208787655045 5.707423996902571 1 0 0
408 136 1 0.5897 -11.127041868473322 -4.863161276589112 9.226114623556656 1 0 0
357 119 1 0.5897 1.420966268570476 -7.211566162398723 8.588911191374054 0 0 0
349 117 2 -1.1794 -7.031943055339485 -3.858175570017613 10.924087987235124 0 0 0
633 211 1 0.5897 -5.8728327586059965 -6.286999502788585 5.6075278782620845 1 1 0
652 218 2 -1.1794 -5.653228166670732 -5.542629888523935 12.868690565739932 0 0 0
780 260 1 0.5897 -7.020323267806544 -4.049156488439447 15.335380333072889 0 0 0
779 260 1 0.5897 -7.131913736695952 -3.0215180293097843 14.229403648537927 0 0 0
778 260 2 -1.1794 -7.640611462135436 -3.6744495305854086 14.710047729636186 0 0 0
768 256 1 0.5897 -9.230853166179857 -2.762974968312813 14.818519678701112 0 0 0
654 218 1 0.5897 -6.1558334711867975 -5.064201898981415 12.209380119333082 0 0 0
653 218 1 0.5897 -6.2968279735459465 -6.104938339382372 13.29963092713238 0 0 0
662 221 1 0.5897 -8.711380305434126 -4.368220353548006 13.453760439062666 0 0 0
661 221 2 -1.1794 -9.220663765490512 -4.572069710721162 12.669305684118122 0 0 0
663 221 1 0.5897 -8.58536470727627 -4.53497932824078 11.95432868431378 0 0 0
684 228 1 0.5897 -8.472431154469556 -6.810491305595378 14.215559775792938 0 0 0
689 230 1 0.5897 1.501786147218004 -6.025450412693333 13.160193505625708 0 0 0
729 243 1 0.5897 -7.933870234406235 -7.027582069420728 11.998289854353628 1 0 0
727 243 2 -1.1794 -7.997865430981487 -7.447256993364589 11.140385937753639 1 0 0
655 219 2 -1.1794 -0.4302533317207793 -7.659000794303498 11.167611689617742 0 0 0
788 263 1 0.5897 -4.6794763640457715 -4.687011166037697 15.544656059182339 0 0 0
682 228 2 -1.1794 -7.693957987469124 -7.254373986166414 13.87939897017621 0 0 0
787 263 2 -1.1794 -4.015189024058982 -4.522538844697454 14.875452170699166 0 0 0
789 263 1 0.5897 -4.478513657843335 -4.632781101066016 14.045109111801558 0 0 0
816 272 1 0.5897 0.5152702506758491 -4.032336574125127 15.477818758374267 0 0 0
802 268 2 -1.1794 -2.0744533328751498 -2.052764335747746 14.8216239004222 0 0 0
657 219 1 0.5897 -0.2881512552537959 -7.395021457279836 12.07667650531551 0 0 0
667 223 2 -1.1794 -3.6389050475687075 -2.862000143775596 11.903862958022499 0 0 0
676 226 2 -1.1794 -3.208774592085912 -6.7759983873411365 12.546533725372107 0 0 0
814 272 2 -1.1794 0.22582828257579202 -3.660959326043862 14.644421004316499 0 0 0
803 268 1 0.5897 -2.707333063762313 -2.7536517120458024 14.977564701267434 0 0 0
804 268 1 0.5897 -1.236598781950553 -2.5041176252106965 14.719945832346927 0 0 0
795 265 1 0.5897 -2.566865148840309 -5.899229844462666 15.367880963213496 0 0 0
720 240 1 0.5897 -0.49806116033199466 -6.521272115357208 14.250393412548155 0 0 0
698 233 1 0.5897 -0.9422071245382533 -4.499348848981622 13.376828520848266 0 0 0
668 223 1 0.5897 -2.82044089423019 -3.223132952249074 12.244229044570451 0 0 0
699 233 1 0.5897 -0.8207457721247575 -4.48090084891696 11.86788471318961 0 0 0
697 233 2 -1.1794 -1.4114324816345825 -4.7356745127369075 12.576657951462069 0 0 0
677 226 1 0.5897 -2.474198129201204 -6.166814178197328 12.472925593793704 0 0 0
793 265 2 -1.1794 -1.6495179027635665 -5.930555373536454 15.639352768473596 0 0 0
718 240 2 -1.1794 0.17435047959092564 -7.03038090692001 13.79795074739563 0 0 0
678 226 1 0.5897 -3.9869859573849427 -6.223274769985563 12.476265755322498 0 0 0
740 247 1 0.5897 -10.773559951335338 -3.4163919507585456 11.95388560208598 1 0 0
766 256 2 -1.1794 -10.031023325280993 -2.2424616772307466 14.888076421322552 0 0 0
758 253 1 0.5897 -9.38520360762323 -5.232507601586948 16.2672881685615 0 0 0
767 256 1 0.5897 -10.738808696448833 -2.88650890668585 14.868856953626418 0 0 0
774 258 1 0.5897 -4.951490846866436 -2.1802664279472506 12.8303925075609 0 0 0
757 253 2 -1.1794 -9.662164065886166 -5.951741441053619 15.699728689648477 0 0 0
669 223 1 0.5897 -4.010054212671193 -3.566847833796513 11.373220865719134 0 0 0
794 265 1 0.5897 -1.5858424903355957 -5.286973608781526 16.344962813064363 0 0 0
351 117 1 0.5897 -6.814024366063129 -2.9305401220580993 11.013546065122767 0 0 0
1150 384 2 -1.1794 -5.919469014012403 -4.244598842164386 19.296272557673618 0 0 0
1152 384 1 0.5897 -6.69474374331692 -3.8252642333115485 19.669324797060163 0 0 0
1227 409 1 0.5897 -8.841166098226957 -2.7898456201249804 20.845329781993428 0 0 0
1109 370 1 0.5897 -8.68716459349358 -3.329251822887496 17.515541223316582 0 0 0
1089 363 1 0.5897 -6.149195441024459 -4.6073733517076985 17.5008934092754 0 0 0
1151 384 1 0.5897 -5.893321062315054 -5.108846929992934 19.706659993066772 0 0 0
1225 409 2 -1.1794 -7.98518713021373 -3.1899080727212237 20.9981719986392 0 0 0
1108 370 2 -1.1794 -9.284795888413171 -4.051054174566547 17.710288148973696 0 0 0
1129 377 2 -1.1794 -7.629938104791242 -1.864081983220582 17.75531104443433 0 0 0
1219 407 2 -1.1794 -10.209785009871773 -1.778033904644884 20.2660173974755 0 0 0
1165 389 2 -1.1794 0.170565693581759 -2.0538441609816545 18.060873151017404 0 0 0
1132 378 2 -1.1794 -0.9847491959392709 -6.403031171079857 19.10136609889343 0 0 0
1110 370 1 0.5897 -10.152253951345223 -3.6468916317046514 17.72607889348391 0 0 0
1130 377 1 0.5897 -7.312270436488932 -1.6283799316838046 18.626989504907492 0 0 0
1179 393 1 0.5897 -0.45008737020342515 -4.845700556143405 21.77530282283326 0 0 0
1124 375 1 0.5897 1.2425412214638456 -5.7083557786835195 16.802360661875653 0 0 0
1121 374 1 0.5897 -4.548956115092599 -3.427472219044388 18.579575192790564 0 0 0
1131 377 1 0.5897 -6.848746958121686 -1.8471498988629609 17.202501694711785 0 0 0
1187 396 1 0.5897 2.0830738330979823 -5.249134489953211 19.78840017235398 0 0 0
1125 375 1 0.5897 1.8107364177418628 -4.660034549595723 17.7350382284419 0 0 0
1262 421 1 0.5897 0.05916000755132167 -2.5775372046166254 21.74574667101131 0 0 0
1133 378 1 0.5897 -1.177765289271525 -5.5641037361001136 18.683058958421057 0 0 0
1256 419 1 0.5897 -3.1681197658220333 -2.039022647446047 20.762481061534885 0 0 0
1122 374 1 0.5897 -4.385926127698609 -2.499909437986082 17.3943388424356 0 0 0
1261 421 2 -1.1794 -0.10200862094656493 -3.2341769678108454 21.068257613120593 0 0 0
1146 382 1 0.5897 -2.2939404976346456 -3.697496119853982 17.81157918506004 0 0 0
1255 419 2 -1.1794 -2.432602204700073 -1.8537064843312425 20.17867412005795 0 0 0
1257 419 1 0.5897 -2.757804604419305 -2.073620005680106 19.305646904791672 0 0 0
1120 374 2 -1.1794 -3.887528915960952 -2.959337473553518 18.07015906790886 0 0 0
1145 382 1 0.5897 -0.8109268767745199 -3.4009621417945457 17.74471781970427 0 0 0
1144 382 2 -1.1794 -1.4393891897715676 -4.122853985959241 17.741731581126785 0 0 0
1263 421 1 0.5897 -0.9272688401826059 -2.965298254010211 20.664717553927133 0 0 0
1188 396 1 0.5897 1.1713228001942646 -4.046200450409994 19.902099976183024 0 0 0
1088 363 1 0.5897 -6.425333587276057 -5.83364229989552 16.657357755732967 0 0 0
1143 381 1 0.5897 -8.408565582304032 -5.021730589599585 21.53144985277074 0 0 0
1248 416 1 0.5897 -5.757823285555914 -1.3482591396064176 20.61764315338194 0 0 0
1123 375 2 -1.1794 1.6493266505640314 -4.842033334931779 16.809236546346682 0 0 0
1087 363 2 -1.1794 -6.263346064655757 -4.892498504304136 16.594286141458078 0 0 0
1097 366 1 0.5897 -8.753784995898036 -5.63631753562446 18.562295865051006 0 0 0
1221 407 1 0.5897 -10.59372648370578 -2.1261150782633447 19.461217276105756 0 0 0
1178 393 1 0.5897 -0.7159424975391371 -6.060312238213181 20.911834565584257 0 0 0
1096 366 2 -1.1794 -8.668189486911938 -6.49788577181163 18.970191040654797 0 0 0
1141 381 2 -1.1794 -8.733493403082118 -5.905267840909772 21.70406993003278 0 0 0
1226 409 1 0.5897 -7.518054523628271 -2.556704942371173 21.54314745638011 0 0 0
1166 389 1 0.5897 0.4850373658344118 -1.9846239458534107 18.962326205952323 0 0 0
84 28 1 0.5897 -8.028139481275593 -0.3145482045000687 3.879090569011018 1 0 0
67 23 2 -1.1794 -10.711736732356561 -2.1822831946170513 3.8411180224914063 1 0 0
27 9 1 0.5897 -3.8272670700677605 1.5846627181620399 4.93288309711664 0 0 0
301 101 2 -1.1794 -7.858671756053711 -2.294100421661258 1.5929773393597952 1 1 0
25 9 2 -1.1794 -4.011107646383459 0.6745778023224052 5.165149678902337 0 0 0
292 98 2 -1.1794 -4.390312293003038 -3.326858178275722 1.8248100923932817 1 1 0
103 35 2 -1.1794 -3.006948677834944 -2.1023327739965723 4.015110264346527 1 0 0
53 18 1 0.5897 -12.458386138686484 1.1962860555217727 2.14179883119822 1 0 0
272 91 1 0.5897 -9.528273307329668 -1.2566508589289231 1.2701413655245701 1 1 0
82 28 2 -1.1794 -8.871654365856532 0.13096880695112034 3.8010775532408503 1 0 0
98 33 1 0.5897 -11.986166945391545 0.6513035583780127 4.157271854568198 1 0 0
69 23 1 0.5897 -11.065637122752232 -2.3865647876115332 2.9754878558555258 1 0 0
54 18 1 0.5897 -11.704359009638623 -0.11425628884780892 2.070314135851903 1 0 0
271 91 2 -1.1794 -10.292774601345487 -0.8454184047609896 0.8669312263349324 1 1 0
83 28 1 0.5897 -9.517690050388062 -0.5356429930260749 4.0342374611196945 1 0 0
52 18 2 -1.1794 -12.484953538730295 0.2901466180050303 2.448716380674083 1 0 0
68 23 1 0.5897 -11.392528228187668 -2.4651177616685205 4.451594139878376 1 0 0
258 86 1 0.5897 -12.388038697634332 -2.810741450681496 1.1085091065748185 1 1 0
95 32 1 0.5897 -5.8239587314266315 -0.5378446195071138 3.1736773960901625 1 0 0
3 1 1 0.5897 -1.5528811259032604 -3.2671824289492024 4.194722322464252 0 0 0
302 101 1 0.5897 -7.515222492322709 -2.0070101504406574 2.439083391242453 1 1 0
89 30 1 0.5897 -4.387548219103761 1.071267073305176 2.103434499159236 1 0 0
96 32 1 0.5897 -5.76935505736542 -1.6564875203085556 4.1921273848433405 1 0 0
303 101 1 0.5897 -7.123432089379804 -2.1926917399067127 0.9885976453572045 1 1 0
294 98 1 0.5897 -4.896697945330823 -2.8759127859215425 1.1492225510680874 1 1 0
107 36 1 0.5897 -9.100282861418048 1.7643425571088613 3.126352031596331 1 0 0
104 35 1 0.5897 -3.5988893730499028 -2.417242375787101 4.698198074971814 1 0 0
26 9 1 0.5897 -4.024174970071581 0.21121347786480982 4.327705242191067 0 0 0
105 35 1 0.5897 -3.5095878566132868 -2.185712841613709 3.2047366329386535 1 0 0
88 30 2 -1.1794 -4.296049965832383 0.16455130265392803 2.3958228456449544 1 0 0
94 32 2 -1.1794 -6.377793250255603 -1.0647735556962008 3.7496550490139064 1 0 0
90 30 1 0.5897 -3.7778987423446635 -0.2573267982718246 1.7105182606473202 1 0 0
99 33 1 0.5897 -11.611038451452432 1.6508571265699743 5.230524498309532 1 0 0
97 33 2 -1.1794 -11.744035282471671 0.7149121732435493 5.081191844568741 1 0 0
256 86 2 -1.1794 -11.878009784074033 -3.332989961141405 1.7276246167969833 1 1 0
59 20 1 0.5897 -13.679145853719628 -0.8382647193715069 3.2591771369045697 1 0 0
75 25 1 0.5897 -9.195300083831713 -3.238575191994049 4.297153681824719 1 0 0
417 139 1 0.5897 -8.748819093983066 1.1346250299925753 5.409022502283097 1 0 0
273 91 1 0.5897 -10.50910326025976 -1.4135594340006081 0.12760020532562522 1 1 0
44 15 1 0.5897 -10.105489835545335 0.980033976699497 0.21999361189672742 1 0 0
426 142 1 0.5897 -8.616660718427806 -1.4747095519981555 7.056257101449787 1 0 0
526 176 2 -1.1794 -12.724044801058135 1.3194131944650547 9.003128319652332 1 0 0
435 145 1 0.5897 -7.3554259482567055 -0.8591349365873668 9.801642439111538 0 0 0
400 134 2 -1.1794 -10.23612778103914 -0.7132772287120606 6.941880236938046 1 0 0
425 142 1 0.5897 -7.154177796142836 -1.3595099880329276 6.6827134509728765 1 0 0
528 176 1 0.5897 -12.339431415766683 0.7477061891579098 9.667501678381354 1 0 0
536 179 1 0.5897 -9.634736278559988 -0.2656544528791809 10.04942726069701 1 0 0
537 179 1 0.5897 -9.396439651159955 -0.16858285064221157 8.557533124295928 1 0 0
535 179 2 -1.1794 -8.9843683301246 0.008986883223853326 9.403087018015322 1 0 0
424 142 2 -1.1794 -7.823505683900157 -1.9961029178993064 6.933434713138735 1 0 0
527 176 1 0.5897 -11.972437099852755 1.7283808450402347 8.574210710068646 1 0 0
402 134 1 0.5897 -10.633495059449627 -0.09845094524904852 6.325248994553687 1 0 0
401 134 1 0.5897 -10.979125663121577 -1.1576492633855242 7.350082233059672 1 0 0
442 148 2 -1.1794 -7.27566418711012 2.4012153979124946 9.763272910439374 0 0 0
405 135 1 0.5897 -4.91182602343506 -2.8332429230648994 6.606043882243769 1 0 0
433 145 2 -1.1794 -6.558078316044812 -1.106123765267979 10.270074514753581 0 0 0
337 113 2 -1.1794 -6.140556780004628 0.5696829788840052 6.865302651081037 0 0 0
415 139 2 -1.1794 -8.475621561843674 1.8640938574158188 5.965220977468271 1 0 0
443 148 1 0.5897 -7.861742705275036 1.6455016916050536 9.724534355915111 0 0 0
330 110 1 0.5897 -3.0117165537582817 -0.35206603611672804 6.546314895698729 0 0 0
411 137 1 0.5897 -13.139572813233643 0.3247684182549513 6.084635395047712 1 0 0
444 148 1 0.5897 -6.40535699908217 2.038789584251173 9.598113217340803 0 0 0
522 174 1 0.5897 -9.691803560705731 2.320443499145643 7.309443706641391 1 0 0
339 113 1 0.5897 -5.584685179791512 0.5342743334209015 6.086889775095667 0 0 0
360 120 1 0.5897 -5.321105681867314 -1.7463724078505098 8.608409102227727 0 0 0
338 113 1 0.5897 -5.528328144980178 0.6815656529268672 7.5925908907056145 0 0 0
416 139 1 0.5897 -7.713877800729999 1.5318081914804278 6.440104723071597 1 0 0
456 152 1 0.5897 -4.338651854416547 0.6139954007712127 9.815717052505152 0 0 0
455 152 1 0.5897 -4.008306546358228 1.6583410886786112 8.77078960255383 0 0 0
358 120 2 -1.1794 -4.586244580695026 -2.235141382649771 8.238105268406377 0 0 0
454 152 2 -1.1794 -4.74384161014642 1.2549498636930672 9.231657908410108 0 0 0
328 110 2 -1.1794 -2.5340914851817935 -0.8665559200137345 7.196971631570711 0 0 0
329 110 1 0.5897 -3.213178224968324 -1.3546381973434274 7.662540591904535 0 0 0
520 174 2 -1.1794 -10.397660989853378 2.5081526301280483 7.928029345763764 1 0 0
464 155 1 0.5897 -1.663762127817785 0.2809907879138347 9.716161575958687 0 0 0
430 144 2 -1.1794 -12.375042538105632 -2.1532820818941847 8.090422419536873 1 0 0
410 137 1 0.5897 -13.625439214761897 0.4210395047596638 7.515214949577643 1 0 0
924 308 1 0.5897 -2.5329748290450826 3.4678778933162118 15.060221613861101 0 0 0
792 264 1 0.5897 -11.391501387282586 0.6139371068367723 14.15542394911979 0 0 0
818 273 1 0.5897 -5.282327643735314 -1.613063766842524 15.287613258005944 0 0 0
806 269 1 0.5897 -4.045567852576765 3.168301161684946 13.32677331795012 0 0 0
762 254 1 0.5897 -9.109003503658268 2.144068016477899 11.860473710832608 0 0 0
760 254 2 -1.1794 -8.631947198475228 1.6278865157190587 12.510209521542091 0 0 0
791 264 1 0.5897 -10.53048968850469 -0.6266492485327024 14.051246624339068 0 0 0
761 254 1 0.5897 -9.312395379144105 1.1471901785681826 12.981440547979608 0 0 0
837 279 1 0.5897 -11.01863906625892 -0.118823435227835 11.94007759986344 1 0 0
790 264 2 -1.1794 -10.607706077903611 0.2704309386244379 13.726765092772288 0 0 0
896 299 1 0.5897 -7.777100812368046 2.72248286711592 15.477290883481512 0 0 0
805 269 2 -1.1794 -4.4421811349751605 2.9013673833781244 12.497473980271678 0 0 0
865 289 2 -1.1794 -12.53697172401983 1.6727276162677978 15.522323598510274 0 0 0
434 145 1 0.5897 -6.4567013262488056 -0.433110147293684 10.943034803146155 0 0 0
763 255 2 -1.1794 -3.278873914724839 -0.27953733500306477 10.97176714151759 0 0 0
785 262 1 0.5897 -5.5333479886789805 1.34687706222112 12.625136754739282 0 0 0
897 299 1 0.5897 -7.330035910108517 2.501028949775426 14.047970062812848 0 0 0
895 299 2 -1.1794 -7.009275469081102 2.7725338997938778 14.90801680460211 0 0 0
773 258 1 0.5897 -5.907027338060197 -1.095309587302241 13.278840294821673 0 0 0
770 257 1 0.5897 -11.978111195738357 3.3248425349677078 13.074345095922272 0 0 0
784 262 2 -1.1794 -6.160982480196187 0.6267178364763808 12.565612968852673 0 0 0
827 276 1 0.5897 -2.68608077374836 -0.4413683090222733 14.126340626099376 0 0 0
903 301 1 0.5897 -5.473015176567578 1.6321693820292111 15.285855484923504 0 0 0
836 279 1 0.5897 -11.469417188907045 -1.331287660170874 11.153771459367375 1 0 0
828 276 1 0.5897 -3.6044913827724 0.6945817309295421 14.523101278376414 0 0 0
786 262 1 0.5897 -7.0069876319841224 1.0555583152373718 12.437300871626874 0 0 0
826 276 2 -1.1794 -2.8661064483420695 0.48234841092394376 13.952257618483113 0 0 0
901 301 2 -1.1794 -4.68637802087064 1.3542362977519264 15.755047147703088 0 0 0
765 255 1 0.5897 -3.1827940512087407 0.18592579846560042 11.802623363383852 0 0 0
817 273 2 -1.1794 -5.12492527550544 -1.4510219220181835 16.217806828569074 0 0 0
1101 367 1 0.5897 -10.1959206507419 -0.9403523724513008 16.34149210927781 0 0 0
769 257 2 -1.1794 -12.39553888377136 2.863564240233261 12.346869344576934 0 0 0
771 257 1 0.5897 -11.782502817051995 2.9600197824422523 11.618128629299594 0 0 0
764 255 1 0.5897 -3.35940867931273 -1.2002035475639339 11.220539300952119 0 0 0
888 296 1 0.5897 -10.325823777605267 3.4176524046273986 15.153696478087411 0 0 0
1231 411 2 -1.1794 -1.6096501965491612 2.313598729309337 16.312759414330216 0 0 0
772 258 2 -1.1794 -5.569286067076151 -1.9559603744741958 13.52620440810322 0 0 0
807 269 1 0.5897 -3.778021932279133 3.102232817594981 11.838144418410076 0 0 0
866 289 1 0.5897 -12.186058576838256 2.2604451501177767 16.19138566720904 0 0 0
819 273 1 0.5897 -4.9541211299034025 -0.5108852969910718 16.27204543505121 0 0 0
835 279 2 -1.1794 -11.299779852851414 -0.3933518838480463 11.067228715086157 1 0 0
797 266 1 0.5897 -1.4449467447179138 1.2882596217803748 13.236478597167988 0 0 0
1196 399 1 0.5897 -9.620138771855185 1.6098346070347151 16.284325054291372 0 0 0
1232 411 1 0.5897 -1.8887546058136824 1.39880192986878 16.348121072139783 0 0 0
1195 399 2 -1.1794 -9.411953981215573 2.541625863762869 16.350807207141095 0 0 0
1206 402 1 0.5897 -11.020622012082542 0.5090697912962359 18.356606181557098 0 0 0
1011 337 1 0.5897 -12.015790999079897 4.386474778504915 20.941986147200247 0 -1 0
1246 416 2 -1.1794 -6.137859922203395 -0.7184624656001883 20.005211704379924 0 0 0
1250 417 1 0.5897 -11.34730519575664 1.0823184406767759 20.845569374104265 0 0 0
1254 418 1 0.5897 -5.469834770481114 3.4763091812949707 17.789086093183265 0 0 0
1135 379 2 -1.1794 -2.0757257373380185 -0.473251970313596 17.17290721248142 0 0 0
1295 432 1 0.5897 -1.2368022913727668 2.0291076496141063 19.397302778497213 0 0 0
1047 349 1 0.5897 -3.828540239998289 4.449806506008217 20.80964854564943 0 -1 0
1260 420 1 0.5897 -9.940812452466604 3.1695052407727946 19.37160344614412 0 0 0
1216 406 2 -1.1794 -12.29021018186665 3.3108833468258876 17.63697608448436 0 0 0
1235 412 1 0.5897 -9.084244234086801 -0.29044777190268967 20.19568597577714 0 0 0
1259 420 1 0.5897 -8.766146929235036 2.2153553808273774 19.405491904871248 0 0 0
1285 429 2 -1.1794 -3.5731380999821294 1.1686818106614556 21.566652798171823 0 0 0
1099 367 2 -1.1794 -9.9379426804092 -0.3096558059962877 17.013681201759056 0 0 0
1234 412 2 -1.1794 -8.561563825237766 0.5108740513558576 20.22324294386741 0 0 0
1197 399 1 0.5897 -9.121730043267815 2.6587574707158 17.255432641029564 0 0 0
1258 420 2 -1.1794 -9.085174792899165 3.0079903690764933 18.974239124420343 0 0 0
1236 412 1 0.5897 -7.660496390255718 0.20622324945083292 20.329980654272262 0 0 0
1218 406 1 0.5897 -13.188224572097226 3.63504703807763 17.70464012054969 0 0 0
1100 367 1 0.5897 -9.110151392144404 -0.6477669162295623 17.355159095061417 0 0 0
1009 337 2 -1.1794 -11.120249995000925 4.076867563502018 21.077177015668298 0 -1 0
1233 411 1 0.5897 -1.6056068008674274 2.598733573846788 17.22649721157503 0 0 0
1253 418 1 0.5897 -4.05665584255859 4.012519522167176 17.87350464369318 0 0 0
1249 417 2 -1.1794 -11.397109790942828 1.3621695405693348 21.75959428539322 0 0 0
1247 416 1 0.5897 -5.382812288541938 -0.2871319831301964 19.605211929140786 0 0 0
1204 402 2 -1.1794 -11.656372241027372 0.8705531742526702 18.97405590458731 0 0 0
1286 429 1 0.5897 -3.6743069087227056 0.8604730098943616 20.666080456348062 0 0 0
1270 424 2 -1.1794 -0.5661003935148461 0.4382138098268644 20.080755699218408 0 0 0
1241 414 1 0.5897 -3.991849435554622 1.4096301938071267 18.59126062280287 0 0 0
1252 418 2 -1.1794 -4.553205563409303 3.205521466310234 17.73839892264626 0 0 0
1240 414 2 -1.1794 -3.893749479820187 0.5285587871328499 18.951957747455893 0 0 0
1045 349 2 -1.1794 -3.1043091645337437 3.986444539189737 21.230269159593675 0 -1 0
1296 432 1 0.5897 -1.9928152161099373 3.235252597310481 19.912002907270242 0 0 0
1242 414 1 0.5897 -3.2518729363040206 0.10592719746346901 18.381467910306306 0 0 0
1271 424 1 0.5897 -1.1849015659020594 -0.2918690730852962 20.06801852745418 0 0 0
1205 402 1 0.5897 -11.907893860610178 1.712222193648019 18.594121136788146 0 0 0
1136 379 1 0.5897 -1.279831065639721 -0.8504170266417574 17.547664476433766 0 0 0
1137 379 1 0.5897 -2.2727276252896313 -1.0288613837686587 16.41879562351538 0 0 0
1251 417 1 0.5897 -11.09141562775762 2.2690723534227946 21.749836844261196 0 0 0
309 103 1 0.5897 -0.5683420051512247 1.6664613167855933 21.56648758911114 1 1 -1
1294 432 2 -1.1794 -1.4055667739711524 2.9525763081346614 19.21103243837895 0 0 0
1229 410 1 0.5897 -7.810099660540496 4.0288030810633995 18.37261232625307 0 0 0
1287 429 1 0.5897 -3.387440641811768 2.1036328532958777 21.48080444868505 0 0 0
902 301 1 0.5897 -4.641652324477228 1.9354492519910718 16.51422677327342 0 0 0
40 14 2 -1.1794 -15.40715989185839 4.227550015984127 1.932767839547574 1 0 0
177 59 1 0.5897 -14.34555394162816 4.952713394580867 3.2051455986025403 1 0 0
56 19 1 0.5897 -12.718930874897797 6.075915327289996 1.0942816679407685 1 0 0
66 22 1 0.5897 -13.720541755968853 3.2507544541672093 1.461687513270302 1 0 0
65 22 1 0.5897 -12.302010117544803 3.7489243541385964 1.2848118151122783 1 0 0
64 22 2 -1.1794 -12.814223031112455 2.948924459136345 1.4018562409268196 1 0 0
191 64 1 0.5897 -12.41865086908706 6.541062226500905 3.9861223906941277 1 0 0
183 61 1 0.5897 -12.206536370917487 3.9561354592468856 4.009542966142446 1 0 0
175 59 2 -1.1794 -13.833825339844019 5.160921187623115 3.9868612694395344 1 0 0
176 59 1 0.5897 -14.433220146210608 5.000951410263488 4.715766548619775 1 0 0
42 14 1 0.5897 -15.83539424107575 4.810258610816156 1.3057007231828825 1 0 0
181 61 2 -1.1794 -11.372182581675801 3.636052611955508 4.352427077922005 1 0 0
55 19 2 -1.1794 -13.59470411299128 6.431834722449793 0.9444184925678256 1 0 0
85 29 2 -1.1794 -11.088642169386933 5.121939000708139 1.5010631582038256 1 0 0
111 37 1 0.5897 -4.172854587108816 3.873914578362456 4.241543167452062 0 0 0
77 26 1 0.5897 -7.952931297883652 3.6741273442507705 2.2185237562524187 1 0 0
106 36 2 -1.1794 -9.295395852790419 2.6321742709900864 2.7730618632564568 1 0 0
167 56 1 0.5897 -16.871862547663316 6.525051657497855 3.3666739271152686 1 0 0
108 36 1 0.5897 -10.077577937628188 2.9139335925922953 3.247286552000575 1 0 0
203 68 1 0.5897 -8.889523457735294 6.394857216226011 3.1418276216010868 1 0 0
43 15 2 -1.1794 -9.864737876933232 1.8993442328846832 0.10638040718361513 1 0 0
86 29 1 0.5897 -10.612878457630574 5.278641284966371 2.316782720729363 1 0 0
192 64 1 0.5897 -11.030076341889515 7.113422498293028 3.7964811510249907 1 0 0
87 29 1 0.5897 -10.419949039782159 5.178383754320391 0.8185484672389592 1 0 0
57 19 1 0.5897 -14.006969296913145 5.81045402792237 0.34432846696428016 1 0 0
202 68 2 -1.1794 -9.58095807456869 6.141920196206462 3.753456938893245 1 0 0
76 26 2 -1.1794 -7.215358738505573 4.079892396412248 1.7630272664711908 1 0 0
182 61 1 0.5897 -11.204735897766819 4.179360473585529 5.1224753650864345 1 0 0
78 26 1 0.5897 -7.620895041677405 4.668129576000881 1.1260977662183695 1 0 0
213 71 1 0.5897 -6.487888502081648 4.85884649535681 3.2960312016461977 1 0 0
100 34 2 -1.1794 -4.701201794313942 2.677102572433869 1.5536040493503445 1 0 0
102 34 1 0.5897 -5.617814263331865 2.9439636168172303 1.6222188231645787 1 0 0
204 68 1 0.5897 -9.148619371826346 5.557513658617781 4.376119239575499 1 0 0