LAMMPS data file via write_data, version 30 Jul 2021, timestep = 9000000

972 atoms
2 atom types
648 bonds
1 bond types
324 angles
1 angle types

0.1028050700838321 19.8971959299096 xlo xhi
0.09238507335223467 19.907615926632683 ylo yhi
0.05803186029754137 20.6419661397 zlo zhi

Masses

1 1.008
2 15.999

Pair Coeffs # lj/cut/tip4p/long/omp

1 0 0
2 0.21084 3.1668

Bond Coeffs # harmonic/omp

1 450 0.9572

Angle Coeffs # harmonic/omp

1 55 104.52

Atoms # full

10 4 2 -1.1794 1.4148006840672924 3.8192291850749682 4.110575095261282 0 0 0
11 4 1 0.5897 1.2228143218042444 3.1205191609488763 3.4851331837074566 0 0 0
31 11 2 -1.1794 0.9826068290515697 1.8271796708881243 2.287451250566156 0 0 0
33 11 1 0.5897 1.761310795353007 1.8628333103073094 1.7319388962109739 0 0 0
32 11 1 0.5897 0.2836844781744098 2.191691272254695 1.744455532596033 0 0 0
23 8 1 0.5897 2.925988057941898 0.8583241900273274 4.711073722901932 0 0 0
12 4 1 0.5897 2.3702973986409064 3.8743785172503307 4.12292092952407 0 0 0
4 2 2 -1.1794 4.3035771368041935 1.3327914835387686 3.4355732002340154 0 0 0
16 6 2 -1.1794 4.210690047466521 4.019922395576322 3.980133548197201 0 0 0
15 5 1 0.5897 4.5134795342769385 6.633979201989516 2.2235548455762038 0 0 0
139 47 2 -1.1794 1.06723864552921 8.58223509740998 2.095309092218592 0 0 0
18 6 1 0.5897 4.312985736889345 3.148874533961566 3.596804817062483 0 0 0
140 47 1 0.5897 0.9490910978186389 9.061359752327274 2.915555194851041 0 0 0
236 79 1 0.5897 0.8608249955471635 0.09814439371291625 2.0012604434190338 0 1 0
674 225 1 0.5897 2.2150875833117674 5.62959311396495 0.5407013621393366 0 0 1
5 2 1 0.5897 4.426461817969543 0.7293240025961644 2.702780290064188 0 0 0
141 47 1 0.5897 1.0406313363637971 7.66007029948481 2.350223513753649 0 0 0
20 7 1 0.5897 0.8961755760687321 5.4022644735796765 2.6969758623544777 0 0 0
112 38 2 -1.1794 4.563293938999267 8.176034688693994 3.3539831923419805 0 0 0
102 34 1 0.5897 0.5533329788738486 0.8328269376352248 5.170525819931753 1 0 0
126 42 1 0.5897 4.214096944976595 9.90227985877338 3.4488804983283337 0 0 0
114 38 1 0.5897 3.7249327238515364 7.929523989130098 3.7446116591450704 0 0 0
110 37 1 0.5897 2.005650319209649 9.013958411571997 0.7575653646376627 0 0 0
17 6 1 0.5897 4.455983274273277 4.6216391334479 3.2772701649688623 0 0 0
19 7 2 -1.1794 0.873876293347325 5.801995226496159 1.8274569587698895 0 0 0
14 5 1 0.5897 4.293595588196799 5.60196135675316 1.1379539453791352 0 0 0
111 37 1 0.5897 3.4152455264969848 9.087229089370865 0.21038957542072392 0 0 0
13 5 2 -1.1794 4.72036536861659 5.7303988243555946 1.9851287834076268 0 0 0
3 1 1 0.5897 3.6973529333147694 2.5528403040498695 0.5257454403531171 0 0 0
132 44 1 0.5897 1.4894469376220483 7.179974824416576 4.795072014368325 0 0 0
130 44 2 -1.1794 2.4229458233065513 6.9761916673635715 4.738473672993958 0 0 0
6 2 1 0.5897 4.9807087088832125 1.0863875849323383 4.065687172327347 0 0 0
81 27 1 0.5897 0.22822280194610886 4.6588530267881625 5.165103398952698 1 0 0
1 1 2 -1.1794 2.8089315320649426 2.5916859990836074 0.17162190976990388 0 0 0
325 109 2 -1.1794 3.2970801729767687 2.6243540309330733 7.391058749953785 0 0 0
326 109 1 0.5897 3.0146732323962686 2.055369454941683 6.674973788806979 0 0 0
327 109 1 0.5897 4.176890922025919 2.3169188602085886 7.609212466778394 0 0 0
355 119 2 -1.1794 0.9499774129935491 1.9814061342962703 9.031134065242851 0 0 0
356 119 1 0.5897 1.6671589497937802 2.082053589216395 8.405201744632755 0 0 0
437 146 1 0.5897 4.640836809857779 7.566696667239558 9.864984070523457 0 0 0
342 114 1 0.5897 4.072231084712052 5.049797562856164 9.570733081627969 0 0 0
27 9 1 0.5897 2.889513445831969 4.55080198812584 7.260867032340674 0 0 0
330 110 1 0.5897 4.621099333517222 0.9720089509612797 9.39785856427696 0 0 0
25 9 2 -1.1794 2.6390413361042415 5.427670867198976 6.9701947747250435 0 0 0
22 8 2 -1.1794 2.6300704505552344 0.7370619740068259 5.613353573889477 0 0 0
433 145 2 -1.1794 3.0120095329164718 8.9016404558555 6.943972604910327 0 0 0
335 112 1 0.5897 1.1882392013767336 3.4929321036550207 10.277247330016637 0 0 0
344 115 1 0.5897 1.050759147166949 5.506322685991995 9.748962567602941 0 0 0
468 156 1 0.5897 4.814327159387086 8.715156313911121 7.421440463756888 0 0 0
463 155 2 -1.1794 1.100700143303372 8.636158742780411 9.103498851024911 0 0 0
339 113 1 0.5897 4.330354723380994 5.92055756224349 7.890547289089513 0 0 0
464 155 1 0.5897 1.7719965259644481 8.725939215850307 8.427045434555875 0 0 0
435 145 1 0.5897 2.5690963278132686 8.387868329284549 6.268604341386673 0 0 0
345 115 1 0.5897 0.73170141320402 6.797090856150936 9.025245724705512 0 0 0
343 115 2 -1.1794 0.5838558595921015 5.852187097492484 8.988267142400371 0 0 0
337 113 2 -1.1794 4.922631727694408 6.2455925565324 8.568658744490653 0 0 0
26 9 1 0.5897 1.7520500395701715 5.548548232101277 7.309060703434285 0 0 0
357 119 1 0.5897 0.15667981330207817 2.0869368032863393 8.505988929222935 0 0 0
341 114 1 0.5897 4.0412529004548965 3.614774598968066 10.05172820953429 0 0 0
328 110 2 -1.1794 4.597502053565337 1.6888145480067691 10.031762463140373 0 0 0
340 114 2 -1.1794 3.801919882880229 4.504843068991937 10.309814261456406 0 0 0
434 145 1 0.5897 2.7236065774809286 9.80102703631932 6.788937728100023 0 0 0
131 44 1 0.5897 2.5586192232073546 6.289330878381936 5.391204742195795 0 0 0
465 155 1 0.5897 0.27899987956531314 8.832613480139903 8.653599011403491 0 0 0
649 217 2 -1.1794 2.4514003797466457 2.63258541460887 13.729561506722161 0 0 0
650 217 1 0.5897 2.141226603030088 2.271453991042808 12.899098563559633 0 0 0
651 217 1 0.5897 1.794693308182618 2.359674461112743 14.37027366475358 0 0 0
348 116 1 0.5897 3.0710539385789475 0.9821670050862655 10.828234158324502 0 0 0
668 223 1 0.5897 1.2179871919106287 5.684394918338925 14.782877730718985 0 0 0
334 112 2 -1.1794 1.3001271646419492 4.113241818678386 10.997635128594858 0 0 0
759 253 1 0.5897 2.7871882532099885 8.77472434246986 13.08845544113387 0 0 0
346 116 2 -1.1794 2.2723629964911165 0.731092529731911 11.292205131164678 0 0 0
336 112 1 0.5897 2.2434099866935013 4.27165159761913 11.033573508277234 0 0 0
347 116 1 0.5897 1.5744551603136177 1.209388588847053 10.8446096479107 0 0 0
350 117 1 0.5897 2.4914005836099222 4.426358917879303 13.433328626829082 0 0 0
349 117 2 -1.1794 2.7752695740055024 5.337404434849305 13.359214413382563 0 0 0
792 264 1 0.5897 4.761700131835698 9.196221551828334 14.548992859397513 0 0 0
789 263 1 0.5897 1.6498097020283007 8.760342981894073 15.140408211721203 0 0 0
351 117 1 0.5897 3.4473460373399107 5.434964083875128 14.033794714037501 0 0 0
455 152 1 0.5897 2.8271343392074506 7.630958446010263 11.323897645656386 0 0 0
757 253 2 -1.1794 2.865903051880632 9.29369535029645 13.888944115424525 0 0 0
667 223 2 -1.1794 0.5607706366993197 5.832214128956718 15.462947805709534 0 0 0
454 152 2 -1.1794 2.05987311742334 7.446834623562976 11.865796439815364 0 0 0
456 152 1 0.5897 2.2363233856226734 6.586968213612724 12.24742410306179 0 0 0
683 228 1 0.5897 4.460524078050802 2.7239793327794093 14.158903127933929 0 0 0
533 178 1 0.5897 0.3949948577669752 7.730381843987871 11.951247555155833 1 0 0
332 111 1 0.5897 4.91836015144384 4.7289652442765195 11.984640318584063 0 0 0
436 146 2 -1.1794 4.589142144452375 8.069067740724787 10.678168471074805 0 0 0
438 146 1 0.5897 4.552962014593396 8.982336759725875 10.39402034936548 0 0 0
658 220 2 -1.1794 1.1397176353210137 3.910076950453176 17.407305084534165 0 0 0
664 222 2 -1.1794 3.9455042093841723 4.077833950391126 17.72239457878036 0 0 0
671 224 1 0.5897 2.2898367049924127 1.4774430342289713 19.21001286936886 0 0 0
653 218 1 0.5897 3.322122075192235 1.3570121896080216 17.06291093272702 0 0 0
670 224 2 -1.1794 1.9988226815082188 1.0451381332878054 18.407065700340404 0 0 0
652 218 2 -1.1794 4.198997965173289 1.571562679123855 16.744719029542566 0 0 0
672 224 1 0.5897 1.0866953378662756 1.3168100676446273 18.305303354380506 0 0 0
665 222 1 0.5897 2.998532577763638 4.214720088742152 17.69714685066883 0 0 0
681 227 1 0.5897 0.6112823884824286 2.49037334409666 16.379839343927557 0 0 0
666 222 1 0.5897 4.081807555809454 3.255863794668079 17.251280074437688 0 0 0
663 221 1 0.5897 4.335203265574106 6.565572631686344 16.197707739602002 0 0 0
660 220 1 0.5897 0.8201875145041672 4.526427679315445 16.748341491595546 0 0 0
787 263 2 -1.1794 0.9824794600492631 8.555160707168522 15.79526338402508 0 0 0
679 227 2 -1.1794 0.4741745938533225 1.8726480933344778 15.661608873369818 0 0 0
669 223 1 0.5897 0.6334754908151963 6.764184513520926 15.668457137558299 0 0 0
788 263 1 0.5897 1.0915638807041086 9.2273255765526 16.467969309456542 0 0 0
780 260 1 0.5897 2.888895400973773 7.617778533867509 17.752991833182307 0 0 0
779 260 1 0.5897 2.39996705077213 8.020980307289408 19.12798201400649 0 0 0
760 254 2 -1.1794 4.579988130235859 8.032633967988344 16.921399423107843 0 0 0
778 260 2 -1.1794 2.3305265093181284 7.325843294450002 18.473614380053732 0 0 0
662 221 1 0.5897 4.034644595143342 5.095378867104973 16.3971178079236 0 0 0
761 254 1 0.5897 4.717798653740687 8.976351665109833 17.00199109127273 0 0 0
675 225 1 0.5897 2.651569525791023 6.019219770610735 19.728247053847078 0 0 0
2 1 1 0.5897 2.666741708700964 3.51888190751286 20.565306015868067 0 0 -1
654 218 1 0.5897 4.392646028361297 0.8925549915184934 16.09842914384685 0 0 0
659 220 1 0.5897 0.496140407121672 3.9592914390691734 18.11417623393293 0 0 0
858 286 1 0.5897 0.6518074563421311 7.445800227543407 18.461950621595392 1 0 0
109 37 2 -1.1794 2.497098055499859 9.15264899078346 20.531842727224458 0 0 -1
673 225 2 -1.1794 2.8468644935332565 5.409657605488176 20.439970504363053 0 0 0
762 254 1 0.5897 5.051156796277429 7.656960773349516 17.66515324747646 0 0 0
661 221 2 -1.1794 4.2518531657809 5.738850343506771 15.722570823543311 0 0 0
240 80 1 0.5897 2.7267248418973775 13.869384324788314 4.32645925121078 0 0 0
129 43 1 0.5897 1.0657143751934255 13.37382583398009 1.6654188096013518 0 0 0
120 40 1 0.5897 1.2775694724301245 11.38151378479872 3.264127704533002 0 0 0
125 42 1 0.5897 4.7337893120144905 11.040444208438753 4.301127220493217 0 0 0
119 40 1 0.5897 2.338908491376033 10.559834657936419 3.964264377787863 0 0 0
235 79 2 -1.1794 0.7175131554862783 19.036021714513183 1.6465039479704666 0 0 0
783 261 1 0.5897 2.012668857781132 12.179717944674996 0.38544217017425914 0 0 1
118 40 2 -1.1794 1.3968684049213407 10.72898518908432 3.954208225881798 0 0 0
124 42 2 -1.1794 4.07332264255281 10.829257287373443 3.641234746403244 0 0 0
220 74 2 -1.1794 4.244978816757737 14.534531812571204 3.530655903126347 0 0 0
123 41 1 0.5897 3.8369781831899314 12.431056876412079 0.8760397983721788 0 0 0
127 43 2 -1.1794 0.814400420395025 12.451391178963732 1.7107543606413451 0 0 0
122 41 1 0.5897 4.20911675919616 12.082521702705552 2.3016186930800755 0 0 0
233 78 1 0.5897 4.204841472801107 17.920440553499745 2.889473450601316 0 0 0
247 83 2 -1.1794 1.4247748528118445 15.178606763793475 1.732864491461915 0 0 0
890 297 1 0.5897 1.8487591386358304 18.924873234257355 0.3407740494896388 0 0 1
228 76 1 0.5897 0.5612001934161839 17.2973785680788 4.201484299427106 0 0 0
232 78 2 -1.1794 4.016783323938549 17.342944438992348 3.629335276382683 0 0 0
230 77 1 0.5897 3.919944403468355 18.826768321946474 0.7819855473527596 0 0 0
249 83 1 0.5897 1.9719891053625076 15.581070224825455 1.0584381226797783 0 0 0
222 74 1 0.5897 4.287084040647781 14.165093370970245 2.648554055519208 0 0 0
248 83 1 0.5897 1.3085729636479053 15.865514592956766 2.3892814098572184 0 0 0
227 76 1 0.5897 0.921213927125365 17.90346146465444 2.861624335145589 0 0 0
221 74 1 0.5897 4.32919384896295 15.478886100250516 3.3994973149447625 0 0 0
234 78 1 0.5897 3.076266213550759 17.441198603738606 3.7774869911636872 0 0 0
226 76 2 -1.1794 1.1398203789005423 17.179290903365533 3.448121451234529 0 0 0
229 77 2 -1.1794 4.465591137203622 18.94294978740694 1.5598650480803702 0 0 0
121 41 2 -1.1794 4.511772546448098 12.57602163240745 1.5393055125050565 0 0 0
238 80 2 -1.1794 2.0201058184429765 13.58016134388695 4.903772689045439 0 0 0
188 63 1 0.5897 0.12783890011336396 11.104587257967612 5.115109397918417 1 0 0
239 80 1 0.5897 2.291995922539805 12.711294618612756 5.1991953121851475 0 0 0
317 106 1 0.5897 0.2815171470667125 13.904316512307817 5.031663704621416 1 0 0
133 45 2 -1.1794 2.4106373295297585 11.448867790412704 6.581695840749675 0 0 0
134 45 1 0.5897 1.7923333814203184 11.612176348556517 7.293963181541887 0 0 0
135 45 1 0.5897 3.2667920654176603 11.659712328349457 6.954165033803412 0 0 0
453 151 1 0.5897 0.9690142003497665 12.225716399828428 9.53804851541095 0 0 0
560 187 1 0.5897 0.2505299547186298 18.772380680686553 8.695714665376395 0 0 0
446 149 1 0.5897 4.16371366732357 13.101088516548739 8.787360272626287 0 0 0
451 151 2 -1.1794 1.0821677040285027 12.539320376285009 8.640709729136553 0 0 0
553 185 2 -1.1794 4.559360515346907 18.991282377679042 8.707162289408501 0 0 0
543 181 1 0.5897 2.0700596310713095 14.568554107668707 6.4002121787245505 0 0 0
573 191 1 0.5897 0.9062968191008144 14.319993058224968 9.350864335565959 0 0 0
445 149 2 -1.1794 4.3905876997794255 12.301946918400509 8.311906198048584 0 0 0
576 192 1 0.5897 4.200323707603448 15.453117985089785 7.397692092256889 0 0 0
571 191 2 -1.1794 0.599960596390448 15.177157331975785 9.05496638020005 0 0 0
551 184 1 0.5897 1.304591181267965 17.892048564883183 10.149831623470572 0 0 0
242 81 1 0.5897 2.4204297629984204 16.926484207999984 6.59911314755031 0 0 0
241 81 2 -1.1794 2.6384570514677246 17.858422947436182 6.597368510324254 0 0 0
243 81 1 0.5897 2.0001258732476366 18.255280394585824 7.190043227634852 0 0 0
559 187 2 -1.1794 1.1882893084847654 18.956728181020978 8.748414112257674 0 0 0
541 181 2 -1.1794 2.357656901257821 15.219821340259005 7.040005708452282 0 0 0
555 185 1 0.5897 4.128846354669969 18.83981560230675 7.865695132816499 0 0 0
450 150 1 0.5897 4.421852501905492 11.0793392677335 9.779276285458865 0 0 0
542 181 1 0.5897 1.6839891374616727 15.202329196457995 7.7198230726802235 0 0 0
572 191 1 0.5897 0.6639005273304935 15.735395619471548 9.829937910483562 0 0 0
558 186 1 0.5897 3.9477588461277624 17.433972035579373 9.534530314922687 0 0 0
561 187 1 0.5897 1.2387406325677592 19.897040810434667 8.919789035383866 0 0 0
24 8 1 0.5897 2.6487047188154733 19.604696043995375 5.746717808294844 0 -1 0
544 182 2 -1.1794 4.300075482547031 14.284977742601237 10.033983253523843 0 0 0
557 186 1 0.5897 3.988428444739737 15.980638741357337 9.956168520905523 0 0 0
452 151 1 0.5897 0.19947571350054716 12.531543190686055 8.270619762916652 0 0 0
556 186 2 -1.1794 3.9408029905334314 16.869625773810135 10.307678293513526 0 0 0
457 153 2 -1.1794 2.642849347850929 12.090183691106152 13.457849875576203 0 0 0
458 153 1 0.5897 1.9606845037856817 12.33039946913011 14.0848947409674 0 0 0
459 153 1 0.5897 3.460344432091276 12.17497273771257 13.948482753642637 0 0 0
562 188 2 -1.1794 2.237055928253411 14.342039993224194 11.767270183127735 0 0 0
563 188 1 0.5897 2.6618657920801843 13.545437818659062 12.085235749036471 0 0 0
567 189 1 0.5897 2.3251921932604978 19.120239060139014 12.519208375873783 0 0 0
444 148 1 0.5897 2.293571819998483 11.1681859565345 10.968435996978755 0 0 0
449 150 1 0.5897 4.900723404395549 10.906112874444673 11.205077863119824 0 0 0
565 189 2 -1.1794 2.4465958640659453 18.7612486828033 13.398248045023712 0 0 0
564 188 1 0.5897 2.434967848193482 15.001299249608644 12.43242973417465 0 0 0
552 184 1 0.5897 2.1724866833366607 17.062713816761793 11.072251889468685 0 0 0
550 184 2 -1.1794 1.2678343327983008 17.171833960914576 10.779222481469642 0 0 0
758 253 1 0.5897 2.6842604737848346 10.191554943787988 13.61152645439656 0 0 0
642 214 1 0.5897 0.607145178837465 14.306381931702381 11.985675311823707 1 0 0
566 189 1 0.5897 2.4770426352484103 17.813488671550644 13.268219610265103 0 0 0
545 182 1 0.5897 3.548557250993507 14.379904528433633 10.619191964702077 0 0 0
885 295 1 0.5897 0.9020889512588658 18.832452503968106 14.594306102914674 0 0 0
865 289 2 -1.1794 2.627570565840301 16.14398773313097 13.750700219441294 0 0 0
879 293 1 0.5897 3.8220732659607277 19.187178751185506 14.484066564943644 0 0 0
867 289 1 0.5897 2.012302746538591 15.889849426797385 14.438547856360305 0 0 0
442 148 2 -1.1794 1.3923073141918447 10.846831185440488 10.943689294606772 0 0 0
866 289 1 0.5897 3.487097035441569 16.100633977385954 14.169682883586933 0 0 0
769 257 2 -1.1794 4.897826220710265 12.733267157655956 15.05362293638369 0 0 0
620 207 1 0.5897 0.12986662368547286 17.852030850379407 11.923983157074572 1 0 0
877 293 2 -1.1794 4.6473345864865525 19.26530004264871 14.962669858226649 0 0 0
883 295 2 -1.1794 0.5043019593846698 18.95230720265139 15.456715963110588 0 0 0
775 259 2 -1.1794 0.6149596948112637 12.609023966693545 15.296208754821931 0 0 0
448 150 2 -1.1794 4.1503149078256785 10.74341132921191 10.633540833589663 0 0 0
771 257 1 0.5897 4.59214477357868 13.558695203826973 15.429612686151623 0 0 0
443 148 1 0.5897 1.4510880776803194 10.001504549603283 10.49858195092099 0 0 0
888 296 1 0.5897 2.2858726201778814 13.166244928945021 19.010016571350945 0 0 0
768 256 1 0.5897 0.7882031447486206 11.463719724305047 16.695130854957135 0 0 0
773 258 1 0.5897 3.075081802784286 10.855150221269653 17.09179437748461 0 0 0
766 256 2 -1.1794 1.019080971794018 10.857655480830736 17.399145764154603 0 0 0
886 296 2 -1.1794 2.0952300810508215 13.924257489324788 18.45750098844119 0 0 0
781 261 2 -1.1794 2.6910725987118163 12.009391475226302 20.31589790079979 0 0 0
965 322 1 0.5897 0.16108313146829994 14.223606616631526 18.609644161716503 1 0 0
774 258 1 0.5897 4.296995310744079 11.370452850772812 16.361566560411013 0 0 0
891 297 1 0.5897 2.3403631036237664 19.340765426540578 19.5544635519476 0 0 0
878 293 1 0.5897 4.626814107754042 18.547300997243788 15.595335379274081 0 0 0
887 296 1 0.5897 2.501131418096579 14.661528498689714 18.913405307747283 0 0 0
884 295 1 0.5897 0.550480946019908 19.895404963391496 15.613306570717189 0 0 0
869 290 1 0.5897 3.10620584086048 14.566275267784166 16.949842557121876 0 0 0
868 290 2 -1.1794 3.8958847443276636 14.89902305044199 16.52335538255963 0 0 0
875 292 1 0.5897 0.438969467158199 17.701563241182754 18.4035348297652 0 0 0
772 258 2 -1.1794 4.021724730832824 10.732932351386118 17.020378661818135 0 0 0
767 256 1 0.5897 0.38492376490015223 11.041822685956502 18.092121466400123 0 0 0
880 294 2 -1.1794 3.722395996174922 17.43791662611995 17.418660514824424 0 0 0
882 294 1 0.5897 3.8681959033170252 16.571761628087728 17.038393547578373 0 0 0
881 294 1 0.5897 2.7973007393692018 17.439535921667982 17.664305859006348 0 0 0
874 292 2 -1.1794 0.8893274199520356 17.323010323172575 17.64847764998671 0 0 0
876 292 1 0.5897 0.8164656748138892 17.99022675240348 16.96602464510405 0 0 0
897 299 1 0.5897 0.7013456702655758 15.932943776356996 16.477547305229884 0 0 0
870 290 1 0.5897 4.608566341875623 14.654510861553954 17.11373244277062 0 0 0
889 297 2 -1.1794 2.559267983148846 18.78115206744902 20.299575845562714 0 0 0
782 261 1 0.5897 2.678248456273721 11.05956097463249 20.198631904290913 0 0 0
218 73 1 0.5897 2.714048431461241 17.046782899925475 20.205865047410548 0 0 -1
777 259 1 0.5897 0.8208982584972013 13.491238591506585 15.605086497121476 0 0 0
873 291 1 0.5897 4.974275617857438 17.59551899109603 18.47985375177155 0 0 0
219 73 1 0.5897 3.7836235455356073 16.025843405558376 20.530472740794515 0 0 -1
217 73 2 -1.1794 2.857301800992133 16.105436824412678 20.302946201946376 0 0 -1
895 299 2 -1.1794 0.6965793941655496 15.411953840657121 15.67452046141201 0 0 0
764 255 1 0.5897 4.852883526407473 11.122959017102668 18.705271418813325 0 0 0
143 48 1 0.5897 5.729556568528831 8.84301542233015 0.9461499286994496 0 0 0
56 19 1 0.5897 6.641184286581547 5.6233623646332465 1.6534866691286796 0 0 0
176 59 1 0.5897 7.596155163577669 7.620031244547901 2.0077641755173827 0 0 0
48 16 1 0.5897 7.279842059582391 4.051549229925624 4.731899379612821 0 0 0
68 23 1 0.5897 8.115960184879489 2.0989276994885957 1.7102561532050398 0 0 0
67 23 2 -1.1794 7.4817616661371185 1.947228784245784 2.4110207806006785 0 0 0
47 16 1 0.5897 7.6333207222863795 3.2549904294919396 3.493913973402136 0 0 0
46 16 2 -1.1794 7.854405499448694 4.057572154302534 3.966287271538954 0 0 0
69 23 1 0.5897 6.635680654174224 1.9101521594912065 1.9649450463670137 0 0 0
113 38 1 0.5897 5.218455148449328 7.883466205987408 3.9875729503219097 0 0 0
53 18 1 0.5897 9.564619638039686 4.264503082823352 3.680292745626997 0 0 0
57 19 1 0.5897 7.7439497572449385 5.306562378499996 2.6411781038654967 0 0 0
37 13 2 -1.1794 9.355141993484473 2.4769720189863262 0.320520490718569 0 0 0
36 12 1 0.5897 5.547190148650741 3.034064213346483 0.24139425406583534 0 0 0
177 59 1 0.5897 8.089898222064633 8.978620901394134 1.5583002623852498 0 0 0
34 12 2 -1.1794 5.398968798767631 2.1660453717878774 0.6165012421377736 0 0 0
175 59 2 -1.1794 7.4255816009070434 8.556965389319272 2.103366221884922 0 0 0
55 19 2 -1.1794 7.578025179430262 5.745670903380364 1.806921674595293 0 0 0
711 237 1 0.5897 8.720107273675143 5.5241489707035 0.591553417123022 0 0 1
138 46 1 0.5897 7.0177750115339705 7.3644734395986635 4.928047048970443 0 0 0
166 56 2 -1.1794 8.98815345979334 7.514464283031703 5.109839695751224 0 0 0
29 10 1 0.5897 7.292927307500626 0.6038121365269228 4.894558450299505 0 0 0
142 48 2 -1.1794 5.15095548647011 8.983520444283522 0.19662668276465622 0 0 0
145 49 2 -1.1794 9.272344792381666 9.38864440432819 0.34107093235823666 0 0 0
58 20 2 -1.1794 9.169773746088783 0.4997994193291986 4.714355294661429 0 0 0
28 10 2 -1.1794 6.363717381037 0.5365674340706255 5.114139784837552 0 0 0
155 52 1 0.5897 7.535468575093792 9.748928839187485 3.6521064831600345 0 0 0
393 131 1 0.5897 8.06790148181587 1.1288618159974586 8.959159977671872 0 0 0
362 121 1 0.5897 9.508953594342529 3.414591189483107 6.345477449139892 0 0 0
360 120 1 0.5897 6.219495363783614 1.4252523598643658 6.742530909795247 0 0 0
168 56 1 0.5897 9.165958175446201 7.959059608805841 5.938716573570382 0 0 0
359 120 1 0.5897 6.6993768181781865 2.1231656767479197 7.997411514509517 0 0 0
500 167 1 0.5897 7.898919163822069 8.86714185678438 9.784315887626965 0 0 0
8 3 1 0.5897 6.1993988790902685 3.90520041189939 6.452658474486062 0 0 0
361 121 2 -1.1794 9.63977198090658 2.471368141047426 6.441664864420112 0 0 0
392 131 1 0.5897 8.67978653817232 2.197261146271642 8.078284282374563 0 0 0
391 131 2 -1.1794 8.11952109214457 2.077764669219479 8.845177985203996 0 0 0
466 156 2 -1.1794 5.744229773608986 8.940593846694254 7.396422901317809 0 0 0
381 127 1 0.5897 7.810858268701983 4.741604947285674 9.458766063514691 0 0 0
499 167 2 -1.1794 7.706616351628346 8.077755350836267 9.278299601663951 0 0 0
62 21 1 0.5897 8.703621269646558 5.218355258304398 7.329386608507382 0 0 0
61 21 2 -1.1794 9.37938308068527 5.19335310150204 6.651882255911907 0 0 0
469 157 2 -1.1794 9.15312649952471 9.163518127707858 7.218905545891739 0 0 0
338 113 1 0.5897 5.7783259576579376 5.888463927717257 8.331145438509532 0 0 0
7 3 2 -1.1794 6.076512666906032 4.680078367040307 5.9043592935660225 0 0 0
501 167 1 0.5897 6.903478275190095 8.287794090654769 8.801771478645911 0 0 0
470 157 1 0.5897 8.800610247400002 8.73888471869414 8.001035781536382 0 0 0
358 120 2 -1.1794 5.973044494956344 2.100752822177597 7.374349236896762 0 0 0
380 127 1 0.5897 7.789430734791879 6.200681462284655 9.055976969553708 0 0 0
379 127 2 -1.1794 7.596250552021928 5.322237765672948 8.728636197146848 0 0 0
59 20 1 0.5897 9.257137856712397 1.2443023287505157 5.309552931140559 0 0 0
136 46 2 -1.1794 6.171693577074938 7.252719779124044 5.361470909638956 0 0 0
467 156 1 0.5897 6.102738747303781 8.402452889479074 6.690626656529707 0 0 0
167 56 1 0.5897 9.225552892901723 6.601462771508925 5.271582729440347 0 0 0
137 46 1 0.5897 6.152151133381168 6.3301091652070856 5.615403575887504 0 0 0
9 3 1 0.5897 5.253047072731861 4.51987355862623 5.443432280892175 0 0 0
685 229 2 -1.1794 9.218868477205254 2.3659234558566493 13.797981743989848 0 0 0
793 265 2 -1.1794 9.362021858607921 9.154334924824148 14.46795658136478 0 0 0
790 264 2 -1.1794 5.702631641648638 9.314926731327997 14.419839629552033 0 0 0
352 118 2 -1.1794 5.7955866123607 0.7988134778574378 12.247122174791086 0 0 0
491 164 1 0.5897 9.292454554650384 7.210060430177617 11.665741503637442 0 0 0
354 118 1 0.5897 5.678457202356198 1.454257152392025 12.934818269146644 0 0 0
386 129 1 0.5897 8.773303754624898 4.26296724265101 13.539488676690178 0 0 0
372 124 1 0.5897 7.144443719876943 4.017591002034397 11.139796610422009 0 0 0
382 128 2 -1.1794 8.649127489187665 0.7765534725148735 11.755530309353245 0 0 0
686 229 1 0.5897 8.877860604591536 2.529363659067878 14.677384640140389 0 0 0
353 118 1 0.5897 6.689180666601441 0.9372373182920453 11.933274688334539 0 0 0
383 128 1 0.5897 8.77540898367787 1.3761465071126753 12.490925690649853 0 0 0
384 128 1 0.5897 9.231427232825363 1.1085941445599627 11.07223408653256 0 0 0
461 154 1 0.5897 5.974386551482175 7.9560807576014465 13.376910350601829 0 0 0
331 111 2 -1.1794 5.830221334362363 4.559498999942962 12.22122214068318 0 0 0
682 228 2 -1.1794 5.4158846469664805 2.7165167558218757 14.217122518493493 0 0 0
705 235 1 0.5897 7.555360407729743 5.615512601758442 15.465700039465839 0 0 0
794 265 1 0.5897 9.29422787904564 8.53802561931508 13.738701339000073 0 0 0
370 124 2 -1.1794 8.061220472063308 3.8480973675426213 10.923071153031575 0 0 0
387 129 1 0.5897 8.82500141939168 5.773466458804447 13.454233498290007 0 0 0
333 111 1 0.5897 6.210179059815346 5.428465081673753 12.350207806290983 0 0 0
460 154 2 -1.1794 6.064912938861247 7.23117296312965 12.758411389637873 0 0 0
490 164 2 -1.1794 8.904972533227268 7.316232628668548 12.534620408131618 0 0 0
385 129 2 -1.1794 8.705652701039739 5.05399233248421 14.074178707655765 0 0 0
684 228 1 0.5897 5.701375106719727 3.3500116878401283 13.558777972154099 0 0 0
492 164 1 0.5897 7.965913418658644 7.40097874559493 12.369804610566336 0 0 0
791 264 1 0.5897 6.10007582517213 8.969287827761022 15.219134224401696 0 0 0
329 110 1 0.5897 5.144115622193265 1.3861352965102933 10.756950608501215 0 0 0
371 124 1 0.5897 8.046949642132791 3.0126802653574503 10.456124985767236 0 0 0
462 154 1 0.5897 5.692100583727327 7.564096754055096 11.94201473689633 0 0 0
38 13 1 0.5897 9.27746738198137 1.9137076737658822 20.13440021038668 0 0 -1
825 275 1 0.5897 7.244874320154334 7.68785196339136 16.4388966441173 0 0 0
694 232 2 -1.1794 7.924518604101872 4.342245534965514 18.038049863578053 0 0 0
708 236 1 0.5897 7.752849224868541 0.8253494448011106 18.703613187283437 0 0 0
655 219 2 -1.1794 5.85857848258041 4.542413545253266 19.790496092987517 0 0 0
676 226 2 -1.1794 5.877931599450578 0.7275987029213303 18.887046166182827 0 0 0
706 236 2 -1.1794 8.698837695546864 0.9322179830239539 18.604499203481637 0 0 0
696 232 1 0.5897 7.553496014319301 4.986904363156344 17.435585537458543 0 0 0
657 219 1 0.5897 6.679935981285591 4.459884007470989 19.305942096107913 0 0 0
709 237 2 -1.1794 9.400208588118268 5.309231299037036 20.537120026650946 0 0 0
689 230 1 0.5897 9.749013867964246 1.4264380234550735 17.22640954990642 0 0 0
707 236 1 0.5897 9.070169440736437 0.12534941433796595 18.96118307515701 0 0 0
695 232 1 0.5897 7.95390927690658 3.5302577548446084 17.532115104058747 0 0 0
824 275 1 0.5897 8.175496634301215 8.629310003079965 15.704498507757712 0 0 0
716 239 1 0.5897 7.553136562742526 1.630221422309405 16.21818306310248 0 0 0
823 275 2 -1.1794 7.498968260782245 8.60880858762985 16.381368348578334 0 0 0
814 272 2 -1.1794 8.4287534034858 7.389153960336182 19.187794947169365 0 0 0
715 239 2 -1.1794 7.592736134026926 2.5711479461074442 16.047352752795824 0 0 0
784 262 2 -1.1794 5.819474241932528 7.05161593766416 19.061795765023746 0 0 0
786 262 1 0.5897 6.750891669503358 7.272078838196949 19.066632887968304 0 0 0
785 262 1 0.5897 5.7824103709159775 6.158870482959321 19.40495098394389 0 0 0
816 272 1 0.5897 8.784398475525876 8.02447803880389 19.80917927585108 0 0 0
815 272 1 0.5897 8.707168722292174 6.5390129176186145 19.52816039219303 0 0 0
677 226 1 0.5897 5.312704082390722 0.8897320838127 18.13170130240718 0 0 0
656 219 1 0.5897 5.178062976068896 4.365502116069852 19.14098207161137 0 0 0
703 235 2 -1.1794 6.95810032418653 6.002617910930379 16.105772110516597 0 0 0
702 234 1 0.5897 9.685208627233788 4.280216606967379 17.737317855158018 0 0 0
797 266 1 0.5897 9.875436353629402 7.9025039795913115 17.95644282076877 0 0 0
144 48 1 0.5897 5.302062172359415 8.226007649088313 20.215279999411493 0 0 -1
35 12 1 0.5897 5.48257484058586 1.5667475586806965 20.45872957925566 0 0 -1
710 237 1 0.5897 9.317443251140727 4.364602745080236 20.407159532482765 0 0 0
717 239 1 0.5897 6.829715488387378 2.747450788672727 15.496956438972646 0 0 0
704 235 1 0.5897 6.0852445607221375 5.841696606388303 15.74740456579917 0 0 0
271 91 2 -1.1794 7.301403902540132 19.113012434322584 1.6480042165051456 0 0 0
285 95 1 0.5897 7.442372580251293 14.187900581934821 2.181655871478418 0 0 0
165 55 1 0.5897 7.341314788593878 11.725806680684794 2.5723977649663987 0 0 0
163 55 2 -1.1794 7.285596755050213 12.349065069474747 1.8480340393363692 0 0 0
164 55 1 0.5897 6.347630974884089 12.503252130487068 1.7357358983647377 0 0 0
264 88 1 0.5897 8.518552918649174 17.26420468980067 4.216760732156212 0 0 0
154 52 2 -1.1794 7.796484972312899 10.531609946883227 4.1373179906721544 0 0 0
246 82 1 0.5897 5.635704526255875 14.038792630215799 4.60719412285732 0 0 0
276 92 1 0.5897 9.32972326476358 14.26798492130834 4.620307795829007 0 0 0
263 88 1 0.5897 7.0689431294386145 17.256077210298102 4.6530659729291335 0 0 0
927 309 1 0.5897 8.596026781361648 19.097521949257334 0.41001761274412735 0 0 1
272 91 1 0.5897 7.310362402345307 18.30050157306053 2.153872603116832 0 0 0
254 85 1 0.5897 8.88173768078962 15.856004103392564 0.7691815965470338 0 0 0
262 88 2 -1.1794 7.644830088343771 16.993249964727617 3.935047564970068 0 0 0