LAMMPS data file via write_data, version 30 Jul 2021, timestep = 3000000

864 atoms
2 atom types
576 bonds
1 bond types
288 angles
1 angle types

0.6390034583707802 17.56856894162837 xlo xhi
1.8441929385208145 21.784984861480723 ylo yhi
0.7795827266727713 21.43361307331881 zlo zhi

Masses

1 1.00794
2 15.9994

Pair Coeffs # lj/cut/tip4p/long/omp

1 0 0
2 0.21084 3.1668

Bond Coeffs # harmonic/omp

1 450 0.9572

Angle Coeffs # harmonic/omp

1 55 104.52

Atoms # full

41 1 1 0.5897 2.935138121452444 3.590581262576322 1.9402585986995946 -1 1 6
158 1 1 0.5897 3.9834600209789786 2.185555371232403 3.278382723943126 2 3 -2
289 1 2 -1.1794 7.140347909345542 4.004652339043931 0.7992675914350584 -5 -5 -7
479 1 1 0.5897 1.6853087122688875 5.16646043011802 4.047127070636755 0 4 0
132 1 1 0.5897 3.3815892630006044 6.455365619259351 5.630240278215717 -4 3 -1
385 1 2 -1.1794 8.57637144594284 6.35598850291976 2.141646357009656 -4 0 0
309 1 1 0.5897 5.993365790991857 4.339606828003668 4.200256928503011 2 6 3
160 1 2 -1.1794 8.202376529440585 6.3343939305395285 5.079294624063451 0 7 3
352 1 2 -1.1794 9.082258015339878 3.7283165711794446 5.042687787102293 5 2 0
478 1 2 -1.1794 1.8612149284498163 5.226606038899753 3.108111100559234 0 4 0
578 1 1 0.5897 3.859181309424414 2.220014194346442 5.487720823948053 1 3 -2
527 1 1 0.5897 4.801526279161678 5.555362802385632 2.309173647297172 -3 -3 1
480 1 1 0.5897 1.3459233202755887 5.978200680926124 2.8150776560052897 0 4 0
42 1 1 0.5897 3.8654130853886453 2.8139858295024682 1.0327667997460042 -1 1 6
290 1 1 0.5897 6.729960723692006 3.5627582774023487 1.542638519381855 -5 -5 -7
307 1 2 -1.1794 6.243385732839468 3.5485599090257396 3.722743890031742 2 6 3
526 1 2 -1.1794 4.309506792673595 6.305127887952383 2.6439373680415184 -3 -3 1
387 1 1 0.5897 8.081057006917757 5.71835792137343 1.6274124575968012 -4 0 0
40 1 2 -1.1794 3.8294316962944284 3.2542174442976797 1.8819986089532799 -1 1 6
528 1 1 0.5897 3.483819261858355 5.931886436405659 2.9525719987294092 -3 -3 1
308 1 1 0.5897 7.139213857981027 3.3689389691831755 4.008252962102089 2 6 3
181 1 2 -1.1794 0.881944748256805 3.3008109388779863 0.9342987625156832 -4 4 -1
354 1 1 0.5897 8.810807835580052 4.646235705102079 5.0478008615450065 5 2 0
496 1 2 -1.1794 4.675250301722212 5.314368724155228 5.573280899708334 2 -3 1
162 1 1 0.5897 8.548565809411127 6.41492198017658 4.1905022999780766 0 7 3
735 1 1 0.5897 6.059677261944549 1.8472024339941058 4.875586739638646 -2 2 -1
498 1 1 0.5897 4.399371119270553 4.429459327258061 5.812271600780633 2 -3 0
610 1 2 -1.1794 1.4923375972261146 4.090798141507884 5.806957563883044 2 3 -2
612 1 1 0.5897 1.2279775644915865 3.1714071643852026 5.772603211952215 2 3 -2
301 1 2 -1.1794 3.177305518935947 5.550688689270249 8.69774544520184 -1 4 7
640 1 2 -1.1794 6.046090142536413 1.9997403797028892 8.2983636445197 6 2 -3
497 1 1 0.5897 5.256807211493299 5.584603410540257 6.283948829924577 2 -3 1
452 1 1 0.5897 8.111538511277743 5.257275098619724 8.396777093901147 1 1 5
205 1 2 -1.1794 8.336980979988775 3.675266038992705 7.822955066627213 -4 1 -3
723 1 1 0.5897 3.889940458399734 2.6790664365949692 10.472214482729624 1 1 0
721 1 2 -1.1794 4.068478496148709 3.379640253058393 9.844827727118597 1 1 0
722 1 1 0.5897 4.770395660246096 3.0345175502880193 9.293019749992242 1 1 0
611 1 1 0.5897 0.8461239721531553 4.505135158406439 6.378817458792966 2 3 -2
206 1 1 0.5897 7.589552701780093 3.0863178134515312 7.926943528497274 -4 1 -3
641 1 1 0.5897 6.058317646589526 1.9008535145828063 7.346295353451473 6 2 -3
303 1 1 0.5897 2.314359933595503 5.24752884769243 8.41542745788265 -1 4 7
227 1 1 0.5897 5.173792910495151 4.616862915764098 10.521963264017177 2 -2 2
302 1 1 0.5897 3.546236260453647 4.810077445880742 9.17907121452925 -1 4 7
451 1 2 -1.1794 8.167649990519642 6.189288926659337 8.607805522970441 1 1 5
577 1 2 -1.1794 3.846440353382067 2.7990594241286995 6.249861310901324 1 3 -2
453 1 1 0.5897 7.317426671096037 6.545376178374293 8.34964833735923 1 1 5
579 1 1 0.5897 2.9788605834494035 3.2030323778918706 6.229875273468371 1 3 -2
293 1 1 0.5897 8.826182574159963 5.956546143006009 10.701444270414838 -3 2 0
207 1 1 0.5897 8.976892138244617 3.3665602200338522 8.464467694845695 -4 1 -3
226 1 2 -1.1794 5.914671542290212 5.154547556826612 10.801844615519151 2 -2 2
353 1 1 0.5897 8.963268095233403 3.437822646726801 5.9470102935790745 5 2 0
80 1 1 0.5897 4.701900115100813 6.335942054897311 8.269755254192352 0 1 -3
228 1 1 0.5897 6.575511161997881 4.523132560299651 11.086293176179822 2 -2 2
739 1 2 -1.1794 8.389878232957374 2.011475611880994 15.997678715049084 0 1 3
85 1 2 -1.1794 4.295252575513541 3.9137700487433014 13.538446518295089 1 8 0
807 1 1 0.5897 2.3648170038692617 6.19442012714158 11.325400753581581 4 -1 -1
858 1 1 0.5897 7.9146719708286515 6.246499828436688 15.852186431725714 2 0 -2
300 1 1 0.5897 7.3142664063781275 4.866184119397456 14.34275460570627 -5 -1 0
532 1 2 -1.1794 7.3916864044530435 2.931606250267966 11.962883440177372 -7 -2 -4
617 1 1 0.5897 1.0070721721867582 4.270669602882779 15.591092063541945 -1 1 -1
298 1 2 -1.1794 6.7537928307657715 4.1965791026175365 14.734913694171432 -5 -1 0
805 1 2 -1.1794 2.534488439397227 5.674476395790379 12.111017371467197 4 -1 -1
806 1 1 0.5897 1.7224581180756848 5.189303610462243 12.257726474170198 4 -1 -1
534 1 1 0.5897 7.6088453138447445 2.375149810479598 11.214891076279379 -7 -2 -4
318 1 1 0.5897 3.7507893753648163 2.178640594208324 12.580829817357168 -4 -5 1
19 1 2 -1.1794 8.375255510337766 6.151068368623251 13.909431094465653 -2 -3 1
362 1 1 0.5897 0.8614812065598652 6.243582695109873 14.927977186537941 3 -1 -3
87 1 1 0.5897 3.7678778743673913 3.7483830251549572 14.319993765002035 1 8 0
86 1 1 0.5897 3.7203385504957995 4.418890249918249 12.963451166483289 1 8 0
343 1 2 -1.1794 2.9919210180578206 4.141104372334723 16.043842610669785 -2 -1 -1
299 1 1 0.5897 6.107377836794146 3.9977968758178304 14.05744171236948 -5 -1 0
192 1 1 0.5897 5.003218919973847 6.55825177238714 15.546255374068553 4 3 -7
533 1 1 0.5897 6.960956080142846 2.3430164382005954 12.582826301088444 -7 -2 -4
741 1 1 0.5897 7.525999763761022 2.41261610682308 15.90230552221789 0 1 3
740 1 1 0.5897 8.868729367941194 2.283934100395602 15.214887122139015 0 1 3
356 1 1 0.5897 7.168605637710898 2.2422259474259563 18.444086763906167 -2 -1 2
9 1 1 0.5897 5.377317436815998 1.9006501572760015 20.037605220056285 3 -1 -1
671 1 1 0.5897 5.438927747191128 5.71703150486985 19.530709105531542 5 2 0
345 1 1 0.5897 2.8571858689961713 3.5566518646340954 16.78988392927552 -2 -1 -1
4 1 2 -1.1794 2.0298125353796523 2.8021365940790663 18.640612595634448 4 1 0
768 1 1 0.5897 6.161206477061132 3.9998253642852806 16.583036287318336 -3 -1 1
460 1 2 -1.1794 1.0249112982563877 5.857125500515628 18.059530027526336 4 6 -2
670 1 2 -1.1794 5.032678898772077 4.850666130259924 19.50495220102033 5 2 0
5 1 1 0.5897 1.1120577350008554 3.0695811051741666 18.69061587541742 4 1 0
856 1 2 -1.1794 7.877886047981967 6.2322075525429375 16.808613663585284 2 0 -2
6 1 1 0.5897 2.411823328056395 3.099658995842466 19.466361696903423 4 1 0
190 1 2 -1.1794 4.9986168134580335 6.322472217927541 16.47400530065447 4 3 -7
122 1 1 0.5897 1.846328684661859 5.6120273964381715 19.73398357902086 2 -2 -2
485 1 1 0.5897 8.372037048269583 6.8227394973381505 19.710493139896812 0 3 0
767 1 1 0.5897 5.453726737398753 2.7014828121539787 16.908347331504416 -3 -1 1
121 1 2 -1.1794 2.327666246073675 5.164872611814058 20.430179893455332 2 -2 -2
672 1 1 0.5897 5.3728493813745475 4.449760650693374 18.705013404692373 5 2 0
90 1 1 0.5897 8.990665959995457 4.884590550586847 17.25704966477111 7 -1 4
123 1 1 0.5897 3.2379570727845643 5.170062174175843 20.134091170572145 2 -2 -2
766 1 2 -1.1794 5.999327312325024 3.384554018432869 17.29825743722872 -3 -1 1
462 1 1 0.5897 1.4314642184247384 5.967289454930033 17.199951577946152 4 6 -2
291 1 1 0.5897 6.406639800067796 4.2884758066872815 20.907918359989957 -5 -5 -8
392 1 1 0.5897 8.746555653195939 3.6080821551821116 20.842024319767685 3 -4 0
344 1 1 0.5897 3.5476260394744252 4.841789354765471 16.38522905215069 -2 -1 -1
191 1 1 0.5897 5.903596607740167 6.074375554881872 16.663082608534005 4 3 -7
183 1 1 0.5897 1.3100562814593277 4.086337403677158 21.24779514693673 -4 4 -2
804 1 1 0.5897 2.3547343379245804 6.793407901645774 21.31604265511601 6 3 -3
654 1 1 0.5897 7.755287742059655 1.868150338569391 21.401037305203786 -2 1 -1
295 1 2 -1.1794 2.865796377994544 9.18413494454028 3.25793095087181 0 5 2
70 1 2 -1.1794 8.213623613250936 10.596833101196161 4.369602928496145 7 2 -5
719 1 1 0.5897 4.961396719490952 10.300655007775124 3.1264367658575227 3 3 0
718 1 2 -1.1794 5.300968195978998 11.13155066065694 3.458999111638831 3 3 0
539 1 1 0.5897 5.716556487782593 7.441199764884017 3.408568434670499 -1 -5 -1
72 1 1 0.5897 8.075547938771514 11.273831258848118 5.032092719955443 7 2 -5
296 1 1 0.5897 2.5756795146955804 8.838741566854127 2.413633357207832 0 5 2
130 1 2 -1.1794 2.7484020528240984 7.141112431955646 5.417832571658289 -4 3 -1
720 1 1 0.5897 6.144634409729766 10.906278745541654 3.851175773661478 3 3 0
258 1 1 0.5897 8.494906331456665 11.794287279480871 1.7001140961948389 -1 -2 -1
161 1 1 0.5897 8.333241903767668 7.199689982251043 5.467138341182813 0 7 3
84 1 1 0.5897 2.762097329535648 11.15105727285299 3.9998700800491176 -3 -2 -4
538 1 2 -1.1794 6.3995869839522195 8.018611159728675 3.7496724731163247 -1 -5 -1
164 1 1 0.5897 0.9764251331398273 9.249065849160273 4.097881602411187 -7 -1 0
564 1 1 0.5897 4.368627005512237 8.313345679110224 1.2309083411382908 3 3 6
71 1 1 0.5897 8.382907826233787 9.800047069729636 4.872354727255099 7 2 -5
297 1 1 0.5897 2.83543737857497 8.43133294169975 3.848437400141175 0 5 2
802 1 2 -1.1794 2.1677642480265282 7.69582795799943 0.9208444810474515 6 3 -2
430 1 2 -1.1794 8.180190641130368 9.019761734716965 1.27547126930368 -6 -2 -2
803 1 1 0.5897 1.2655360684872665 7.671992060307043 1.2397801152993115 6 3 -2
562 1 2 -1.1794 5.144581378639375 8.856553395753291 1.0926820416471603 3 3 6
386 1 1 0.5897 8.244847729743881 7.206401990769894 1.8532378003538692 -4 0 0
540 1 1 0.5897 6.932451668453941 7.45484324289906 4.31049854935225 -1 -5 -1
431 1 1 0.5897 7.447912114855905 9.635405246951205 1.2431392353507746 -6 -2 -2
563 1 1 0.5897 5.726445981985805 8.633157253429967 1.819188295537409 3 3 6
567 1 1 0.5897 5.591311763957775 8.955854515481242 5.359488568264432 1 7 -5
374 1 1 0.5897 5.917481511069398 11.540485228459117 0.9137025857796658 4 4 0
373 1 2 -1.1794 6.874243269517729 11.533971059525443 0.943069897996303 4 4 0
193 1 2 -1.1794 0.9351780740647576 10.2161666649877 1.0253164999892768 2 -4 0
477 1 1 0.5897 3.1258993933163546 8.40791121396446 9.948284485159055 5 -5 -2
601 1 2 -1.1794 3.989829743926837 11.536458618689828 6.602516927932789 3 5 -1
537 1 1 0.5897 8.948137177532509 8.053235675583572 7.428302655844589 7 5 2
111 1 1 0.5897 1.6428467071022648 9.576135461402686 6.297227913441066 0 -2 -8
747 1 1 0.5897 7.7783884408486665 9.844575744487544 9.296648132650423 3 4 -8
109 1 2 -1.1794 2.259226192953344 9.46132202060044 7.020540064173384 0 -2 -8
81 1 1 0.5897 5.158436078566017 7.711443451297176 7.832011597467261 0 1 -3
535 1 2 -1.1794 8.586952854572498 8.690784900728156 6.812378270598763 7 5 2
603 1 1 0.5897 3.2943634535223847 10.878718954546144 6.606725904004713 3 5 -1
139 1 2 -1.1794 4.477827312564781 9.593029449558927 9.501752889454757 -3 -4 1
140 1 1 0.5897 5.348663858414239 9.578021482874298 9.104581996812877 -3 -4 1
332 1 1 0.5897 5.925295941389545 11.627303140070014 8.869994455209254 -1 -1 -3
744 1 1 0.5897 2.933207203319884 11.732138945538047 9.040878910693626 0 -1 0
746 1 1 0.5897 7.19501245921414 9.557823970653178 7.929361783271346 3 4 -8
110 1 1 0.5897 1.7050836945264913 9.366865334901426 7.795355461772674 0 -2 -8
323 1 1 0.5897 0.6427656579858587 8.462702305170406 9.462693920177552 5 2 -3
476 1 1 0.5897 2.7446091185441555 6.963282549723275 9.703914861015969 5 -5 -2
745 1 2 -1.1794 7.022140731547801 10.034352109614966 8.741347086310945 3 4 -8
565 1 2 -1.1794 5.429656745852233 9.14419308022553 6.283997870008875 1 7 -5
475 1 2 -1.1794 2.5111385715144636 7.729557777598765 10.227936433200055 5 -5 -2
131 1 1 0.5897 2.7687500447786837 7.728853369703137 6.173113158469496 -4 3 -1
600 1 1 0.5897 7.707858115272789 8.461703626572543 10.948225140434984 1 -5 -6
141 1 1 0.5897 4.580813141690268 10.132760555375869 10.28556938704958 -3 -4 1
79 1 2 -1.1794 5.488454112229557 6.861641854677282 8.123958111414883 0 1 -3
176 1 1 0.5897 5.318963418427654 8.36727556819592 10.65655930230904 -2 -5 4
215 1 1 0.5897 0.8846025290896773 6.848397209130305 6.213101856122228 3 3 1
177 1 1 0.5897 6.041535963134522 7.058371964625574 10.894927145992078 -2 -5 4
566 1 1 0.5897 5.001888762879602 10.00056963964315 6.283239037237009 1 7 -5
146 1 1 0.5897 4.379145874308806 7.7457494451768545 13.853121998185959 -3 1 -4
690 1 1 0.5897 6.776172829769377 10.501232004763239 12.634022208433125 3 -1 5
814 1 2 -1.1794 8.346277120038025 8.7375906580388 15.145212035570374 -5 7 -3
816 1 1 0.5897 7.533136997214337 8.953907309245762 15.601623251237871 -5 7 -3
69 1 1 0.5897 5.622162993193656 9.171750685515901 14.921073168039994 6 -2 -5
599 1 1 0.5897 8.441428368036739 9.620915226931151 11.58865003542553 1 -5 -6
705 1 1 0.5897 3.5302014154164705 10.006308511091136 15.942741655593387 3 -2 -1
147 1 1 0.5897 5.6840441903986 7.600485250191986 13.099344685809859 -3 1 -4
727 1 2 -1.1794 2.940143854544045 8.542146406925042 13.673993140221098 1 1 -1
729 1 1 0.5897 2.3554129473094454 8.313999973889583 14.396759724694945 1 1 -1
709 1 2 -1.1794 5.374072712077185 11.085155731990875 11.74688869672571 -5 -3 -2
801 1 1 0.5897 2.8063336285967853 10.312683986634207 12.968700362097671 0 -2 2
145 1 2 -1.1794 5.3098288613926545 7.560943631783394 13.97951517217338 -3 1 -4
689 1 1 0.5897 7.661877757418447 11.294999739716376 13.57076443474259 3 -1 5
68 1 1 0.5897 5.882193916802552 10.648725736461392 15.128334742625956 6 -2 -5
67 1 2 -1.1794 5.626516377790848 9.852453709812037 15.594077538279548 6 -2 -5
688 1 2 -1.1794 7.582784028164066 10.440880549965536 13.145901940862727 3 -1 5
815 1 1 0.5897 8.35935335514062 9.322803755125078 14.387802094497019 -5 7 -3
800 1 1 0.5897 2.195405751050703 11.176902024229944 11.88613856570667 0 -2 2
711 1 1 0.5897 4.530159179805513 11.135150459896945 12.195899195301266 -5 -3 -2
361 1 2 -1.1794 1.022197024874148 7.154160041740396 15.175587905214403 3 -1 -3
728 1 1 0.5897 2.7795595829806117 7.868160439672686 13.013499626627784 1 1 -1
175 1 2 -1.1794 5.921837346411373 7.934617776626905 11.261254937360452 -2 -5 4
144 1 1 0.5897 0.7779843159833094 10.05758098590486 15.542004851971269 2 7 4
799 1 2 -1.1794 2.7274747400492347 11.222114804348097 12.680588023938883 0 -2 2
21 1 1 0.5897 8.35058440681503 7.088329067659775 14.102465085183365 -2 -3 1
598 1 2 -1.1794 8.586903074470815 8.80211010195879 11.114636240837845 1 -5 -6
195 1 1 0.5897 1.2227077510486724 9.396116568791392 21.2779181037347 2 -4 -1
568 1 2 -1.1794 4.0160179606491 11.438290268853205 20.982923101939615 1 2 0
435 1 1 0.5897 7.13887833228189 9.486937634187312 18.093593263881775 1 4 -3
554 1 1 0.5897 5.898646207655427 7.952898749434525 20.318154250912404 -6 -6 1
513 1 1 0.5897 4.069149551463244 7.324255105972162 17.701692785788723 -1 4 -3
457 1 2 -1.1794 5.4677007219945715 10.112416484031867 18.233726112879346 -1 0 -2
555 1 1 0.5897 6.689979835258734 7.924510177510057 19.02779149322426 -6 -6 1
151 1 2 -1.1794 0.8685699746288216 8.817237090117207 18.742521742030505 3 0 -2
704 1 1 0.5897 2.883103985210355 9.06673376793605 16.93797793440602 3 -2 -1
703 1 2 -1.1794 2.705263636997607 9.836639463835713 16.39769350303891 3 -2 -1
459 1 1 0.5897 5.591946641393887 11.039851064184468 18.43553673692297 -1 0 -2
153 1 1 0.5897 1.2819180715298906 9.677235420792762 18.819005037335632 3 0 -2
570 1 1 0.5897 3.4369347411660978 11.213587328686462 20.25459457082158 1 2 0
152 1 1 0.5897 1.5891273974060103 8.222234198816473 18.534985860468304 3 0 -3
512 1 1 0.5897 4.063317011943132 8.55355161024983 18.585353399740153 -1 4 -3
433 1 2 -1.1794 7.818565759092395 8.813874193962736 18.05755850880455 1 4 -3
287 1 1 0.5897 8.843157743039766 11.296435410420596 19.9223519322477 1 1 0
434 1 1 0.5897 8.559744395652107 9.195860171996191 18.527691506928203 1 4 -3
511 1 2 -1.1794 3.4807784996550555 7.950545348115494 18.12348107871235 -1 4 -3
458 1 1 0.5897 5.347615432108885 10.087384796830197 17.2843768723778 -1 0 -2
759 1 1 0.5897 2.708310490870821 10.768228198005298 17.85382701099372 3 1 1
757 1 2 -1.1794 2.45266338255664 11.14099048765349 18.697624059755885 3 1 1
432 1 1 0.5897 8.738198570405103 9.27168328516558 21.193661870660325 -6 -2 -3
553 1 2 -1.1794 6.147485695592071 7.376836829961494 19.595299280928757 -6 -6 1
194 1 1 0.5897 1.4913642164986194 10.88603233149998 21.281529436893514 2 -4 -1
863 1 1 0.5897 8.403042953112674 11.745187905425091 16.616400918034792 -2 -1 3
569 1 1 0.5897 4.284354794987827 10.593981056989687 21.345485439156377 1 2 0
857 1 1 0.5897 8.03113357148091 7.140714998292285 17.068265420710294 2 0 -2
150 1 1 0.5897 1.6598783886978505 15.39200902944708 3.631221553196459 -3 -1 1
268 1 2 -1.1794 8.312594368391327 13.931490463551166 3.756241709000163 0 5 6
334 1 2 -1.1794 6.704539738764464 15.96682405963139 2.590288921726743 6 -1 4
633 1 1 0.5897 2.563936548355837 13.338614773362814 1.165762912525158 7 4 5
413 1 1 0.5897 8.687025521045795 16.339653449623462 4.918411153976303 1 -2 3
98 1 1 0.5897 4.39327932730753 14.04706971819093 1.012545355813279 1 -6 6
149 1 1 0.5897 2.8613379029406842 16.28228892360512 3.8677998753584264 -3 -1 1
501 1 1 0.5897 5.221760759125733 14.709399769115256 5.907304496487362 -2 -1 -1
270 1 1 0.5897 8.694775724422387 13.387488947770093 3.067552501095651 0 5 6
269 1 1 0.5897 7.682033022175412 14.488601318167413 3.299828796517648 0 5 6
412 1 2 -1.1794 8.302709926834059 16.452603291805758 5.787876042517434 1 -2 3
414 1 1 0.5897 7.486772132231783 15.953068993587733 5.756339270727451 1 -2 3
336 1 1 0.5897 7.555096735730016 16.40014497702594 2.5190739946587017 6 -1 4
586 1 2 -1.1794 4.502177665343658 13.826021285052331 2.7641962002922638 2 2 5
632 1 1 0.5897 2.0185211916764505 12.389717952636179 2.2117935309581425 7 4 5
587 1 1 0.5897 4.960454781424239 12.98932812278843 2.8434805301744293 2 2 5
148 1 2 -1.1794 2.3178953662162387 15.61641968589001 4.2892162298951 -3 -1 1
631 1 2 -1.1794 1.751469468791235 12.9359216556578 1.4724151179097025 7 4 5
335 1 1 0.5897 6.601073761548986 15.503179792934118 1.7592575994798816 6 -1 4
588 1 1 0.5897 3.774419042062217 13.760593855770274 3.382623803808298 2 2 5
425 1 1 0.5897 6.79487671104073 13.229130550494693 5.885022164551145 7 -3 0
500 1 1 0.5897 5.813919834544747 14.571434034217136 4.520819319515606 -2 -1 -1
82 1 2 -1.1794 2.2543858182451264 11.947329170963023 3.8434198385006155 -3 -2 -4
83 1 1 0.5897 1.6466209960399314 11.993341370280431 4.581518027274807 -3 -2 -4
499 1 2 -1.1794 6.022306912009122 14.867600547304097 5.406910521783484 -2 -1 -1
681 1 1 0.5897 2.9308919930071164 14.713331247490828 5.746521896645483 -8 -5 1
845 1 1 0.5897 0.8196400510635923 16.217133365034076 5.311855909646323 -1 1 5
779 1 1 0.5897 5.065814910837781 16.75494822016948 3.284502166859082 0 0 0
680 1 1 0.5897 3.1558118718240245 15.052647767830939 7.204720174623523 -8 -5 1
738 1 1 0.5897 9.034498011649308 12.482063075554196 9.519855175876856 0 -3 0
602 1 1 0.5897 3.5845430778153773 12.311785673267265 6.214061996850412 3 5 -2
692 1 1 0.5897 3.459038206397097 15.420253930162689 9.21378822905266 0 -2 4
630 1 1 0.5897 7.274969579686652 14.850178572250869 8.84844137854952 -1 -3 4
261 1 1 0.5897 0.9636972824243994 12.952568492047517 6.7140979873349 2 -1 7
339 1 1 0.5897 6.696968187231054 15.872397379019977 10.658156922544372 -2 2 3
628 1 2 -1.1794 6.395006708552447 15.1423971984423 9.086281154950951 -1 -3 4
138 1 1 0.5897 8.490740794361507 12.422962291779623 7.224576017436922 4 -8 0
331 1 2 -1.1794 5.564926797085457 12.489876859244438 8.664030562093151 -1 -1 -3
859 1 2 -1.1794 9.05403624083375 15.145430613793069 8.152040231800003 -2 -3 0
544 1 2 -1.1794 3.2676771557537942 14.149456286292041 10.716717577363163 -4 5 4
545 1 1 0.5897 2.9710332323787894 13.29055760590881 10.415740172558007 -4 5 4
691 1 2 -1.1794 3.2384951132796576 16.16367627697975 8.652552625853113 0 -2 4
679 1 2 -1.1794 3.4307396983717493 14.445449379924636 6.517682098091387 -8 -5 1
629 1 1 0.5897 5.902336009042728 14.333249919032124 9.223552523805063 -1 -3 4
424 1 2 -1.1794 6.943561649920316 12.339439349684616 6.205380940939654 7 -3 0
333 1 1 0.5897 4.823038028204454 12.308487991004911 8.0869661164835 -1 -1 -3
737 1 1 0.5897 8.442561136640322 12.695131915232087 10.896911676451563 0 -3 0
259 1 2 -1.1794 0.7074321490469268 12.358562106270288 6.008508506371265 2 -1 7
860 1 1 0.5897 8.924971091707654 15.572097003890136 7.304929553789532 -2 -3 0
231 1 1 0.5897 6.338694502310008 16.72745399043804 8.59392174437301 3 5 0
742 1 2 -1.1794 2.26893614286391 11.90404399215031 9.708318877107038 0 -1 0
426 1 1 0.5897 6.449163247164361 12.293288963581743 7.0237806462815335 7 -4 0
743 1 1 0.5897 1.4484809109180936 11.96821833967603 9.219423960241675 0 -1 0
546 1 1 0.5897 2.461410320322523 14.644936865854099 10.860717388556376 -4 5 4
707 1 1 0.5897 7.663879383088254 13.251884117647473 12.773777979380483 0 -3 -5
395 1 1 0.5897 4.937578726361995 12.737771394523888 15.467707843914985 2 1 6
184 1 2 -1.1794 8.72805589019525 13.01183546969243 14.071840698079221 2 4 4
337 1 2 -1.1794 6.827310326993249 16.080326995431186 11.583403706907315 -2 2 3
494 1 1 0.5897 1.8228840468351772 12.336754617805363 13.95220602462992 -3 -1 -1
338 1 1 0.5897 5.977419393270272 16.407883615066755 11.877815678503712 -2 2 3
493 1 2 -1.1794 1.4850823318356792 12.713468190378777 14.764779719818721 -3 -1 -1
174 1 1 0.5897 3.9133141013375305 14.574827588909239 12.403113416109234 0 1 -2
495 1 1 0.5897 0.9207517791487523 12.031467114974095 15.129070906461198 -3 -1 -1
708 1 1 0.5897 6.952090756773389 14.351198576104162 12.014215319506487 0 -3 -5
172 1 2 -1.1794 4.4411313591090025 14.733655136642033 13.18574433374972 0 1 -2
13 1 2 -1.1794 6.393193803773799 15.943990898713173 14.779179557897889 2 -4 -2
561 1 1 0.5897 2.7555631870511217 12.661759091431952 15.928675060233864 2 0 2
173 1 1 0.5897 3.854451866013168 15.20165414864653 13.779967153761616 0 1 -2
394 1 2 -1.1794 5.768167996854993 12.81092034700296 14.997522846027332 2 1 6
710 1 1 0.5897 5.778218020190528 11.939313865234825 11.899761453638138 -5 -3 -2
396 1 1 0.5897 5.594044696530088 13.442482335533311 14.299570363365486 2 1 5
755 1 1 0.5897 1.4960699856789752 16.191324052639153 14.365033347211032 -3 -2 -3
14 1 1 0.5897 5.824364479632319 15.591575943681285 14.094694245204437 2 -4 -2
706 1 2 -1.1794 6.996046844512351 13.399201646829106 12.104003828396163 0 -3 -5
754 1 2 -1.1794 2.313882144509045 16.62530364077828 14.121767040827756 -3 -2 -3
185 1 1 0.5897 8.79373874734212 13.813644821980006 14.590589670974525 2 4 4
574 1 2 -1.1794 0.6482514187795005 15.127949066620797 11.114944733015417 2 -2 1
417 1 1 0.5897 8.514129480722675 16.40370257502685 14.673339062342437 -2 -4 0
117 1 1 0.5897 8.562667534776924 16.01467003474473 12.223472123931977 -2 -5 3
864 1 1 0.5897 7.253286544791559 12.642697239319892 16.21073611576039 -2 -1 3
368 1 1 0.5897 5.902557199869599 15.371680237732065 20.45309233138766 6 4 -1
16 1 2 -1.1794 6.633446050604521 14.995534112874696 17.314514517081637 -1 4 2
369 1 1 0.5897 7.215883242881873 14.631490092316943 20.31395617094067 6 4 -2
408 1 1 0.5897 3.3818355919284993 15.741932115389595 19.883167010222934 -2 -2 4
608 1 1 0.5897 4.468089298742626 12.877005135878496 18.067001026487862 6 2 2
56 1 1 0.5897 8.673192287450492 14.23056701322837 16.80815871409208 -4 -2 -1
522 1 1 0.5897 8.02589706467951 13.219438669688254 18.804953754072507 -1 -1 -1
97 1 2 -1.1794 4.199362621401521 14.42670566513691 20.809501215486435 1 -6 5
203 1 1 0.5897 2.8288672244765625 15.738668843912512 16.723897277460537 -5 1 2
609 1 1 0.5897 5.698842094852253 13.75360584244038 18.161211739112577 6 2 2
17 1 1 0.5897 6.216100526507612 14.939431162238 16.454873202317316 -1 4 2
520 1 2 -1.1794 8.055192612505493 13.12335617626175 19.756914864118723 -1 -1 -1
758 1 1 0.5897 2.184765444180781 12.036879801037761 18.492930709377976 3 1 1
406 1 2 -1.1794 2.9613437669133886 16.556186206208743 19.60662624688298 -2 -2 4
367 1 2 -1.1794 6.850439387869084 15.496282289071747 20.50081080656836 6 4 -1
607 1 2 -1.1794 5.178400497803155 13.123421358516207 18.659505145150682 6 2 2
560 1 1 0.5897 3.373378692625746 13.780802573194958 16.739924049614675 2 0 2
589 1 2 -1.1794 1.2700823384270172 15.995214087609964 17.630659744758137 2 4 2
18 1 1 0.5897 6.34075338155598 15.835144468433029 17.669049631980183 -1 4 2
677 1 1 0.5897 7.952151536908209 16.361742067675017 17.881102529739028 0 -2 -3
590 1 1 0.5897 1.8142947916038872 16.18402784577433 18.395183670741584 2 4 2
204 1 1 0.5897 4.261264848516099 16.226115684680337 16.77546320810798 -5 1 2
559 1 2 -1.1794 3.368911930538938 12.828344587654747 16.644470189506528 2 0 2
375 1 1 0.5897 7.141748415327062 12.006898546191136 20.80899307504321 4 4 -1
99 1 1 0.5897 4.475167454984229 13.757795299284574 20.182764377065492 1 -6 5
202 1 2 -1.1794 3.7158259468695887 15.51299268266641 16.44342853681067 -5 1 2
103 1 2 -1.1794 0.7255072938093257 13.442556857073825 18.287812382496938 6 -2 5
105 1 1 0.5897 0.8591560226662097 14.348363748288534 18.008630451829838 6 -2 5
862 1 2 -1.1794 7.743664514445509 12.339366446731319 16.97480785815821 -2 -1 3
521 1 1 0.5897 8.918970032270785 13.453020857863464 20.00493424381755 -1 -1 -1
266 1 1 0.5897 2.3528645735599047 20.394568207521964 3.553886836416038 0 -3 -1
159 1 1 0.5897 4.708067314946863 20.82394504450889 3.5444377906368283 2 2 -2
780 1 1 0.5897 4.304184153919232 17.65553304116135 4.2336557433631885 0 0 0
364 1 2 -1.1794 5.064249420223156 18.66542556627458 5.772101453374548 2 5 4
377 1 1 0.5897 6.064921136639444 18.944417617894445 2.4400917585156803 3 3 5
796 1 2 -1.1794 8.470663066139261 19.575231386210632 4.97489685904355 -2 -5 -2
652 1 2 -1.1794 7.972007907517198 21.228550556145635 1.4767078287580655 -2 0 0
734 1 1 0.5897 7.1001468758811 20.739405308991024 5.207117037502888 -2 1 -1
733 1 2 -1.1794 6.360456984646887 21.217068277967137 5.5825935187277915 -2 1 -1
653 1 1 0.5897 8.704464597114201 21.659778754277617 1.9169843405864968 -2 0 0
267 1 1 0.5897 0.9717467785838357 21.00969649164154 3.4750937087687923 0 -3 -1
265 1 2 -1.1794 1.4443748130787415 20.18953869778415 3.33273585574251 0 -3 -1
376 1 2 -1.1794 5.895140642712308 19.864785341558672 2.6410789659812446 3 3 5
764 1 1 0.5897 4.609111660660787 19.81105558735593 1.2885670867137868 -5 0 -1
247 1 2 -1.1794 2.357834782596947 17.683768395923604 1.3329789426419576 0 1 -3
157 1 2 -1.1794 3.999164694815535 21.376671616091116 3.8734282268328695 2 2 -2
573 1 1 0.5897 1.3925754782115531 20.175634966339565 1.3493712290003177 2 -3 -3
378 1 1 0.5897 6.673578740866642 20.32615342605296 2.3287932261474644 3 3 5
248 1 1 0.5897 2.7410509960277643 17.060191736778556 1.949903080513937 0 1 -3
249 1 1 0.5897 3.058670596571975 18.31267938450224 1.1609574382989682 0 1 -3
798 1 1 0.5897 8.20543765277236 18.65645779868013 4.932013890528879 -2 -5 -2
778 1 2 -1.1794 4.230124868446025 17.209741184231774 3.3898087927500358 0 0 0
366 1 1 0.5897 5.546515685973425 19.490818196328142 5.722775920420316 2 5 4
797 1 1 0.5897 8.577926618984295 19.750675159347807 5.90977555005171 -2 -5 -2
372 1 1 0.5897 1.584217487309702 16.901872990846428 9.198973589400273 4 7 -1
776 1 1 0.5897 2.3438725841348607 21.116524128505084 9.224536540588609 3 -5 1
636 1 1 0.5897 2.3728934868397773 19.492939636381735 7.751165685050355 -8 0 3
582 1 1 0.5897 3.9036492591678833 19.13803253240512 9.594070026235157 -2 -4 -1
593 1 1 0.5897 8.613916619687323 20.71831160178509 9.340639176110914 -1 -2 -3
777 1 1 0.5897 3.36431466860026 21.104717817724655 8.106197708347946 3 -5 1
580 1 2 -1.1794 4.305423177894052 18.31536289533382 9.873598569804745 -2 -4 -1
371 1 1 0.5897 0.7781697884954111 17.55111769059697 10.303875718891748 4 7 -1
229 1 2 -1.1794 6.417022091586283 17.676085141896706 8.492639108523996 3 5 0
813 1 1 0.5897 1.29650404364188 20.49560094119802 6.297792968530557 -5 5 -2
775 1 2 -1.1794 3.061204126461482 20.598176423447484 8.859761007279927 3 -5 1
370 1 2 -1.1794 0.893731207033998 17.546543782513126 9.353660930995611 4 7 -1
365 1 1 0.5897 5.3479498266290175 18.270608233236885 6.596678235714299 2 5 4
811 1 2 -1.1794 0.9136233577076953 21.372843236280964 6.310414364295122 -5 5 -2
581 1 1 0.5897 5.178006090776895 18.32860068281326 9.480211865485792 -2 -4 -1
594 1 1 0.5897 7.676561764089791 20.14365115343182 10.381435455045272 -1 -2 -3
592 1 2 -1.1794 7.966604918545446 20.971740150335584 9.998735066275108 -1 -2 -3
230 1 1 0.5897 7.348069518376515 17.855411030606263 8.624088413458342 3 5 0
846 1 1 0.5897 1.1267602216492065 17.213471817303844 6.4096349103140975 -1 1 5
634 1 2 -1.1794 2.180896001611755 18.965782964350396 6.975582220715287 -8 0 3
635 1 1 0.5897 3.039729980307079 18.762408763663267 6.605003434306405 -8 0 3
642 1 1 0.5897 6.849169904334644 21.511872295726015 8.594433710886968 6 1 -3
693 1 1 0.5897 3.74141186521 16.89402984188 9.013041391868807 0 -2 4
419 1 1 0.5897 9.096463696548607 16.971484353352604 8.169517348620243 -7 -2 5
53 1 1 0.5897 6.35067087955478 18.840470810083836 15.703804129961952 -4 -4 3
276 1 1 0.5897 3.8624931349113933 17.1313594948412 12.712773182202481 -1 3 -2
52 1 2 -1.1794 5.534123977376137 18.48156212194096 15.356346068075828 -4 -4 3
848 1 1 0.5897 1.3925098201356825 17.18378765572639 12.267497132475324 2 1 6
398 1 1 0.5897 5.888119776357157 21.008654998967472 14.314793189517598 5 2 -7
274 1 2 -1.1794 4.391714390636823 17.925457098956088 12.637802154180848 -1 3 -2
180 1 1 0.5897 1.4849869266879223 20.71328653149549 13.510567834447652 -7 2 -2