LAMMPS (30 Jul 2021)
  using 1 OpenMP thread(s) per MPI task
package omp 0
using multi-threaded neighbor list subroutines
echo both

include		in.partitions
variable        pid world 0
include		in.temp
variable        temperature equal 248.36
variable	tempDamp equal 100.0
include		in.pressure
variable        pressure equal 5000.0
variable        pressureDamp equal 1000.0 # This is 1 ps
include		in.seed
variable        seed world 745823

units		real
atom_style	full
read_restart	restart.lmp.${pid}
read_restart	restart.lmp.0
Reading restart file ...
  restart file = 30 Jul 2021, LAMMPS = 30 Jul 2021
  restoring atom style full from restart
  orthogonal box = (0.43402027 1.6027498 0.52950371) to (17.773552 22.026428 21.683692)
  4 by 4 by 4 MPI processor grid
  restoring pair style lj/cut/tip4p/long/omp from restart
  restoring bond style harmonic/omp from restart
  restoring angle style harmonic/omp from restart
  864 atoms
  576 bonds
  288 angles
Finding 1-2 1-3 1-4 neighbors ...
  special bond factors lj:    0        0        0       
  special bond factors coul:  0        0        0       
     2 = max # of 1-2 neighbors
     1 = max # of 1-3 neighbors
     1 = max # of 1-4 neighbors
     2 = max # of special neighbors
  special bonds CPU = 0.019 seconds
  read_restart CPU = 0.190 seconds
include 	in.setup
variable	out_freq equal 1000
variable	out_freq2 equal 10000
variable	out_freq3 equal 1000

timestep	2.0

neigh_modify    delay 7 every 1

include		in.tip4p
# This is TIP4P/Ice

# create groups ###
group ox type 2
288 atoms in group ox
group hy type 1
576 atoms in group hy

# set charges - beside manually ###
set group ox charge -1.1794
Setting atom values ...
  288 settings made for charge
set group hy charge 0.5897
Setting atom values ...
  576 settings made for charge

# ### TIP3P Potential Parameters ###
pair_style lj/cut/tip4p/long/omp 2 1 1 1 0.1577 8.5
pair_coeff 1 1*2 0.000 0.000
pair_coeff 2 2 0.21084 3.1668
bond_style  harmonic
bond_coeff  1 450 0.9572
angle_style harmonic
angle_coeff 1 55 104.52
kspace_style pppm/tip4p/omp 1.0e-5
pair_modify tail yes

thermo          ${out_freq}
thermo          1000
thermo_style    custom step temp pe etotal epair emol press lx ly lz vol pxx pyy pzz pxy pxz pyz enthalpy

restart 	${out_freq3} restart.lmp.${pid} restart2.lmp.${pid}
restart 	1000 restart.lmp.${pid} restart2.lmp.${pid}
restart 	1000 restart.lmp.0 restart2.lmp.${pid}
restart 	1000 restart.lmp.0 restart2.lmp.0


include         in.dump
dump            myDump all atom ${out_freq2} dump.water.${pid}
dump            myDump all atom 10000 dump.water.${pid}
dump            myDump all atom 10000 dump.water.0
dump            myDump2 all dcd ${out_freq2} dump.dcd
dump            myDump2 all dcd 10000 dump.dcd
dump_modify     myDump append yes
dump_modify     myDump2 append yes


variable natoms 	equal  "count(all)"                        # NUMBER ATOMS
variable H      	equal  "enthalpy/v_natoms"                 # ENTHALPY-per-atom
variable Vol      	equal  "vol/v_natoms"                 # volume-per-atom
fix AVG all 		ave/time ${out_freq} 1 ${out_freq} v_Vol v_H file vol_enthalpy.dat
fix AVG all 		ave/time 1000 1 ${out_freq} v_Vol v_H file vol_enthalpy.dat
fix AVG all 		ave/time 1000 1 1000 v_Vol v_H file vol_enthalpy.dat


timer           timeout 23:50:00 every 1000
New timer settings: style=normal  mode=nosync  timeout=23:50:00

fix 		1 all shake 1e-6 200 0 b 1 a 1
       0 = # of size 2 clusters
       0 = # of size 3 clusters
       0 = # of size 4 clusters
     288 = # of frozen angles
  find clusters CPU = 0.008 seconds
fix             2 all nph iso ${pressure} ${pressure} ${pressureDamp}
fix             2 all nph iso 5000 ${pressure} ${pressureDamp}
fix             2 all nph iso 5000 5000 ${pressureDamp}
fix             2 all nph iso 5000 5000 1000
fix             3 all temp/csvr ${temperature} ${temperature} ${tempDamp} ${seed}
fix             3 all temp/csvr 248.36 ${temperature} ${tempDamp} ${seed}
fix             3 all temp/csvr 248.36 248.36 ${tempDamp} ${seed}
fix             3 all temp/csvr 248.36 248.36 100 ${seed}
fix             3 all temp/csvr 248.36 248.36 100 745823

run             250000
PPPM initialization ...
  extracting TIP4P info from pair style
  using 12-bit tables for long-range coulomb (../kspace.cpp:340)
  G vector (1/distance) = 0.37407172
  grid = 24 24 25
  stencil order = 5
  estimated absolute RMS force accuracy = 0.0030930062
  estimated relative force accuracy = 9.3144964e-06
  using double precision FFTW3
  3d grid and FFT values/proc = 2730 288
Last active /omp style is kspace_style pppm/tip4p/omp
Neighbor list info ...
  update every 1 steps, delay 7 steps, check yes
  max neighbors/atom: 2000, page size: 100000
  master list distance cutoff = 10.8154
  ghost atom cutoff = 10.8154
  binsize = 5.4077, bins = 4 4 4
  1 neighbor lists, perpetual/occasional/extra = 1 0 0
  (1) pair lj/cut/tip4p/long/omp, perpetual
      attributes: half, newton on, omp
      pair build: half/bin/newton/omp
      stencil: half/bin/3d
      bin: standard
Per MPI rank memory allocation (min/avg/max) = 9.239 | 9.242 | 9.248 Mbytes
Step Temp PotEng TotEng E_pair E_mol Press Lx Ly Lz Volume Pxx Pyy Pzz Pxy Pxz Pyz Enthalpy 
 4000000    256.96509   -3900.2348   -3459.8054   -3900.2348            0    4345.5491    17.339532    20.423678    21.154188    7491.4812    4776.9034    4992.7066    3267.0372   -174.88137   -166.93722   -537.54889     -2985.03 
 4001000    259.99149   -3902.7977   -3457.1812   -3902.7977            0    6378.6668    17.291146    20.366686    21.095158    7428.9415     7639.347    5895.7325     5600.921   -362.50136    355.75137    748.99258   -2766.0941 
 4002000    249.26626    -3927.077   -3499.8431    -3927.077            0    6182.6485    17.338976    20.423023     21.15351    7490.7603    5791.5298    6141.9818    6614.4339    835.94759   -65.557988    -939.5846   -2824.4194 
 4003000    245.70683   -3920.6634   -3499.5303   -3920.6634            0    3613.7176    17.275525    20.348287    21.076101    7408.8258    4623.3384      3087.59    3130.2244    218.61698    912.40481   -447.83291   -3109.0677 
 4004000    225.81037   -3922.3888   -3535.3575   -3922.3888            0    5219.3023    17.203035    20.262903    20.987663    7315.9518    5896.6204    6131.1183    3630.1683    93.637761     1441.585    183.33897   -2978.4806 
 4005000    253.28241   -3927.8797   -3493.7623   -3927.8797            0    4953.0822     17.19229    20.250246    20.974553    7302.2507    5961.2111     4734.462    4163.5736   -33.764945   -107.01555     879.1572   -2966.2797 
 4006000    256.45679   -3924.4771    -3484.919   -3924.4771            0    5529.1221    17.231064    20.295917    21.021858    7351.7695    5684.2157    3972.1331    6931.0174   -255.96028    280.62652   -533.31093   -2892.0975 
 4007000    251.66974   -3934.5414   -3503.1881   -3934.5414            0     3835.501     17.34269    20.427398    21.158041    7495.5754    4027.0539    3217.8951     4261.554    952.84806    -906.4135    88.055992   -3083.9092 
 4008000    245.35304   -3923.0218   -3502.4951   -3923.0218            0    5277.8974     17.28727    20.362121     21.09043    7423.9471    5206.3636    5491.1322    5136.1965    396.00968    -1775.661   -841.14711   -2931.0537 
 4009000    258.54182   -3890.7713   -3447.6395   -3890.7713            0    5228.7189    17.236306    20.302092    21.028253    7358.4813     5370.816    6457.8596    3857.4812   -925.85715    267.66987    -885.6688   -2886.5148 
 4010000    243.76021   -3887.0798   -3469.2832   -3887.0798            0    4294.5812    17.236784    20.302655    21.028837    7359.0937    5225.1257    4058.8002    3599.8177   -488.04563    90.657215    638.98826    -3008.368 
 4011000    251.65411   -3907.4084   -3476.0818   -3907.4084            0    4563.7529    17.299855    20.376944    21.105783    7440.1719    3898.3686    4986.0888    4806.8012   -436.58072   -602.65407    500.03187   -2980.8814 
 4012000    252.27254    -3875.061   -3442.6745    -3875.061            0    5489.7714    17.291455     20.36705    21.095535    7429.3395    3978.2257    5236.7588    7254.3298   -553.35028    605.02233    1423.3698   -2847.8616 
 4013000    253.35559   -3900.7969   -3466.5541   -3900.7969            0    5383.2752    17.276997    20.350021    21.077896    7410.7198    7407.3628    4807.7884    3934.6745   -270.07546    590.96009    174.28677   -2884.7419 
 4014000    244.98993   -3928.3855   -3508.4812   -3928.3855            0     4912.431    17.193511    20.251684    20.976043    7303.8068    3582.5927     5186.093    5968.6072    1478.7626   -225.44386   -1130.3801   -2985.2162 
 4015000     256.7938   -3924.9336   -3484.7978   -3924.9336            0    4513.8812    17.306774    20.385094    21.114224     7449.103    5176.3276    4143.0346    4222.2814   -1312.3932   -41.495862     -518.474    -2994.421 
 4016000     241.6412   -3885.7246   -3471.5598   -3885.7246            0    7135.8831    17.221346    20.284471    21.010002    7339.3382    8033.2434    5685.8412    7688.5647    893.67256   -1074.8118   -827.42837   -2707.7583 
 4017000    247.65725   -3895.9483   -3471.4722   -3895.9483            0    4263.2788     17.28479      20.3592    21.087404    7420.7521    2023.0592    5767.7743    4999.0028    1213.2623    -26.69883    1062.2081   -3010.0829 
 4018000    242.57799    -3918.419   -3502.6487    -3918.419            0     5390.251    17.252852     20.32158    21.048439    7379.6921    5526.2649    4961.1453    5683.3428   -411.74755   -2032.9183    259.60952   -2922.5216 
 4019000    246.85501    -3899.405    -3476.304    -3899.405            0    5170.1381    17.269908    20.341671    21.069248    7401.6014    5995.6395    4313.0395    5201.7352    298.36562   -452.60021   -640.69915   -2918.2146 
 4020000     245.2935   -3919.7079   -3499.2832   -3919.7079            0    5755.1145    17.168146    20.221808    20.945098    7271.5299    4728.1657    5255.1547     7282.023    486.99658   -907.63721    1046.6546    -2888.966 
 4021000    243.34441   -3930.4056   -3513.3216   -3930.4056            0    4276.3302    17.307217    20.385616    21.114765    7449.6753    1361.1539    5195.6269    6272.2097   -797.91174   -690.00111    959.26507    -3048.716 
 4022000    256.12665   -3900.5875   -3461.5951   -3900.5875            0    4807.7651    17.274249    20.346784    21.074544    7407.1843    3665.8333    5533.6333    5223.8287    180.07364   -1039.0005   -870.20552   -2942.2306 
 4023000     234.2635   -3933.7429   -3532.2233   -3933.7429            0    5061.7061    17.280134    20.353715    21.081723    7414.7563    4946.8608    3867.8947    6370.3629    1317.0343   -190.33865   -115.26182   -2984.8675 
 4024000     255.1397   -3878.1913   -3440.8906   -3878.1913            0    5700.0234    17.290928     20.36643    21.094892    7428.6608    5425.5426    4801.1729    6873.3548    369.11465    271.14713   -586.90082   -2823.3535 
 4025000    260.24271   -3941.8055   -3495.7584   -3941.8055            0    4537.0019    17.288118     20.36312    21.091464    7425.0396    4772.6223     3849.011    4989.3723   -584.46153   -192.31352   -743.31482   -3004.4619 
 4026000    257.06834   -3896.8914   -3456.2851   -3896.8914            0    7264.5734    17.247238    20.314968     21.04159     7372.491    7850.6429    7907.4224     6035.655   -1194.5118    514.23428   -719.68398   -2675.1965 
 4027000    247.63803   -3884.9458   -3460.5027   -3884.9458            0    5676.7388    17.236034    20.301771    21.027921    7358.1322    6376.0328     6397.895    4256.2887   -583.39903    142.95524    995.11168   -2851.3272 
 4028000    229.70177   -3910.6446   -3516.9436   -3910.6446            0    6649.7484    17.196116    20.254754    20.979222     7307.128     7575.819    6309.8212    6063.6049   -597.49724    645.21077    942.23209   -2808.3001 
 4029000    243.51737   -3928.1872   -3510.8068   -3928.1872            0    4707.2052    17.220366    20.283316    21.008806    7338.0842    5368.3862    5257.7757    3495.4536    1014.6818   -19.906144    127.55664    -3007.049 
 4030000    264.32264   -3927.5556   -3474.5157   -3927.5556            0    6676.0628    17.198166    20.257168    20.981723    7309.7418    6355.1981    6714.5174    6958.4728    332.68512   -476.52642    242.34495   -2762.8134 
 4031000    262.80061   -3909.7648   -3459.3335   -3909.7648            0    4147.6649    17.270061    20.341851    21.069434     7401.798    3412.5723    5952.3035    3078.1191    239.64263    707.13404    -888.5605   -3011.6029 
 4032000    258.87619   -3925.7898   -3482.0849   -3925.7898            0    5004.5575     17.27574    20.348539    21.076362    7409.1013    4156.4891    4444.3345    6412.8489   -226.45425   -178.70872   -276.16444   -2941.3217 
 4033000    254.46415    -3910.686   -3474.5432    -3910.686            0    5210.3307    17.224286    20.287934    21.013589    7343.0974    4027.8483     7753.645    3849.4989    1703.6972   -1371.8301    1149.7245   -2916.5608 
 4034000    241.31127   -3936.8638   -3523.2646   -3936.8638            0    5578.9012    17.184101    20.240601    20.964563    7291.8216    4953.3929    6926.2714    4857.0394   -537.60643   -267.40317    324.75991   -2929.9834 
 4035000    241.12153   -3952.8768   -3539.6028   -3952.8768            0    4628.5144    17.276796    20.349784    21.077651    7410.4607    4848.7961    3857.4943    5179.2527    27.217224    386.41568    858.90197   -3039.3809 
 4036000    240.83382   -3928.6034   -3515.8224   -3928.6034            0    4339.4031    17.229032    20.293524    21.019379    7349.1685    5487.1159    3735.0995    3795.9939    1281.0112   -273.13679    1196.0328   -3050.7248 
 4037000    256.69479   -3927.1007   -3487.1347   -3927.1007            0    7489.9209    17.161517       20.214     20.93701    7263.1093    8541.9208     5055.305     8872.537     1069.917   -153.69325   -574.31794   -2693.7648 
 4038000    262.23273   -3934.3152   -3484.8573   -3934.3152            0    3947.1779    17.254335    20.323327    21.050248    7381.5957    5490.5686    3491.0632    2859.9018   -1081.9472    -766.3071   -1519.7132   -3059.9318 
 4039000    253.30783   -3911.6326   -3477.4716   -3911.6326            0    4870.1579    17.188574    20.245869     20.97002     7297.517    3408.5922    6056.2859    5145.5956   -586.29891   -543.63512    285.86069   -2959.1563 
 4040000    242.33608   -3899.9392   -3484.5835   -3899.9392            0    4295.5732     17.27032    20.342156     21.06975    7402.1304    4036.4589    4737.5371    4112.7234   -1642.2925   -1193.4302    280.62416   -3020.8657 
 4041000    242.50333     -3904.25   -3488.6076     -3904.25            0    5711.8009     17.18716    20.244204    20.968295    7295.7161    4903.2099    3317.3197    8914.8729   -823.68971    929.33253      269.462   -2880.8689 
 4042000    248.33907   -3917.2845   -3491.6399   -3917.2845            0    3397.6579     17.29609    20.372509    21.101189    7435.3149    5166.1515     2751.422    2275.4003     -539.007   -1972.1334    666.70492   -3123.2099 
 4043000     252.1448   -3922.6953   -3490.5277   -3922.6953            0     4325.619    17.214362    20.276244    21.001481    7330.4114    5513.8187    5831.6165    1631.4218    520.96613    172.82154    999.21721   -3028.0908 
 4044000    261.46389   -3931.9488   -3483.8086   -3931.9488            0    5477.3138    17.199766    20.259053    20.983675    7311.7818    5960.8898    5350.4545     5120.597   -1261.3122    -1978.911   -762.29453   -2899.7362 
 4045000      242.471   -3949.3155   -3533.7285   -3949.3155            0    4445.7677    17.204229     20.26431    20.989119     7317.475    2988.4688    5741.8632    4606.9711   -221.10639    304.49624   -666.57877   -3059.2857 
 4046000    261.83667   -3921.0464   -3472.2673   -3921.0464            0    5227.5034    17.142707    20.191845    20.914063    7239.2542    5539.3831    4732.5651    5410.5619   -953.85334   -2558.7072    429.81396   -2920.3627 
 4047000    239.40412   -3896.3758   -3486.0454   -3896.3758            0    5240.0385    17.180177    20.235979    20.959776    7286.8278    5081.8014    5696.5182     4941.796   -1508.3624   -1861.9491    254.32138   -2929.1817 
 4048000    262.14723   -3936.8364    -3487.525   -3936.8364            0    3948.0837    17.287375    20.362244    21.090557    7424.0812    2235.8596    3467.8176    6140.5741     140.7632    1241.1403   -582.95289   -3060.0557 
 4049000    254.70586   -3919.6515   -3483.0944   -3919.6515            0    3351.8764    17.254643     20.32369    21.050624    7381.9912    4214.2435    2286.4794    3554.9063   -1055.7008    427.50346   -269.23364   -3122.2355 
 4050000     245.2665   -3922.0116   -3501.6332   -3922.0116            0    3940.5156    17.340061    20.424301    21.154833    7492.1664    4846.9442    5073.1876    1901.4151   -1119.5708    254.08832    544.68087   -3071.0705 
 4051000    262.61971   -3928.1707   -3478.0495   -3928.1707            0     4457.948    17.353428    20.440047    21.171142    7509.5076    3936.9966     5076.076    4360.7715    1409.7113   -342.98545    928.58486   -2989.8219 
 4052000    261.26993    -3958.745   -3510.9373    -3958.745            0    4023.3428    17.302239    20.379752    21.108691     7443.248    4121.7554    2667.8215    5280.4516    805.00264   -1241.9001    -3.538534   -3074.1949 
 4053000    244.94287   -3946.1272   -3526.3035   -3946.1272            0     3989.345    17.305778     20.38392    21.113008    7447.8162     2877.654     4573.342    4517.0391    801.43942   -1105.4792   -1392.8617   -3092.9858 
 4054000     253.5931   -3918.9545   -3484.3046   -3918.9545            0    4907.7326    17.296658    20.373179    21.101883    7436.0485    4413.5289    6859.6166    3450.0522    1558.2773   -720.51553    -1305.855    -2952.075 
 4055000    237.79065   -3901.6062   -3494.0411   -3901.6062            0    3721.7524    17.347529    20.433098    21.163945    7501.8514    2279.3384    3798.9648    5086.9539    1021.9848   -337.22424   -107.10521   -3086.8561 
 4056000    257.96742   -3898.2264   -3456.0791   -3898.2264            0     5779.423    17.266368    20.337501    21.064929    7397.0502    6781.4043    5127.2926    5429.5721   -1342.6442    829.27101    52.045862   -2832.6043 
 4057000     249.2995   -3893.0037   -3465.7129   -3893.0037            0    7687.8329    17.160338    20.212611    20.935572    7261.6127    7157.0263    7385.3347    8521.1377    276.08058   -997.27914    564.37893    -2651.547 
 4058000    249.00407    -3900.895   -3474.1105    -3900.895            0    4814.2273    17.195555    20.254092    20.978536    7306.4119    4048.9056    4548.2551    5845.5213   -924.88947   -492.90593    760.13271   -2961.1232 
 4059000    260.72474   -3943.1385   -3496.2652   -3943.1385            0    4617.5714    17.208313     20.26912    20.994102    7322.6876    4605.5835    3751.7482    5495.3825   -322.86224   -787.75144   -555.60154   -3003.1368 
 4060000    244.45351   -3965.4791   -3546.4941   -3965.4791            0    4597.7019    17.166167    20.219478    20.942684    7269.0158    4812.2107    4524.9176    4455.9775    -953.5824   -438.75594    1455.5036   -3059.0865 
 4061000    245.09032   -3936.5173   -3516.4408   -3936.5173            0    4087.4967    17.235064    20.300629    21.026738    7356.8906    4880.6318    4543.0443    2838.8139   -544.57306    2484.1981    179.21679   -3077.8823 
 4062000    251.49669   -3920.3729   -3489.3161   -3920.3729            0    3510.3924    17.261587    20.331869    21.059095    7390.9069    3026.7879    4330.3635    3174.0257     775.1606    1126.1959   -359.23185   -3110.9352 
 4063000    238.87921   -3867.7938    -3458.363   -3867.7938            0    5007.0777    17.236852    20.302735     21.02892    7359.1808    3700.5922    5727.4949    5593.1459    1601.6283   -1203.9834   -1827.3222   -2920.9728 
 4064000    244.17443   -3919.2423   -3500.7357   -3919.2423            0    5670.5288     17.15178    20.202531    20.925132    7250.7542    4784.6834    7727.3387    4499.5644      1697.67    -216.1487    1081.6569   -2901.1067 
 4065000    242.58194   -3956.1537   -3540.3766   -3956.1537            0    4455.3968    17.196048    20.254673    20.979139     7307.041    4258.1144    4864.2332    4243.8427   -994.93834   -341.14203   -672.03651   -3065.5841 
 4066000    253.65256   -3919.7422   -3484.9904   -3919.7422            0    5672.3479    17.225314    20.289145    21.014843    7344.4125     4784.166    6808.2055    5424.6722    1032.9231    293.07154     76.10853   -2877.4211 
 4067000    242.64921    -3945.311   -3529.4186    -3945.311            0    5727.0374    17.162995    20.215741    20.938814    7264.9865    4199.6882    7848.4874    5132.9367    798.66856   -1040.0164    2457.6533   -2922.6254 
 4068000    248.39175   -3925.6852   -3499.9503   -3925.6852            0     3922.416    17.240804     20.30739     21.03374    7364.2431    3415.0431    4805.8887    3546.3163   -996.48435   -1330.0318     -672.261    -3078.683 
 4069000     229.7582   -3921.4738   -3527.6761   -3921.4738            0    5024.0087    17.212144    20.273632    20.998776     7327.579    5766.8662    5092.8111    4212.3489    348.57518    98.553516   -1355.7837   -2990.7843 
 4070000    246.39745   -3904.5863   -3482.2695   -3904.5863            0    6160.3989    17.208423    20.269249    20.994236    7322.8275    4711.9593     7203.619    6565.6182    1515.4565    446.07676   -797.24581    -2824.364 
 4071000    251.86146   -3904.1727   -3472.4908   -3904.1727            0    3085.8153     17.21644    20.278692    21.004016    7333.0666    4203.3626     3204.643    1849.4404     1833.222    134.74778    675.88517   -3142.4775 
 4072000    262.78241   -3860.4183   -3410.0182   -3860.4183            0    4883.9037    17.241829    20.308597    21.034991    7365.5572    5850.0861    4332.4152    4469.2098   -1157.3931   -602.45489    904.75372   -2885.3937 
 4073000    244.61985   -3933.8474   -3514.5773   -3933.8474            0    4506.1755      17.2324    20.297491    21.023487    7353.4791    4850.7427    4103.1238      4564.66   -347.08498   -129.96331    1885.4288   -3031.3218 
 4074000    254.02627   -3918.9032   -3483.5109   -3918.9032            0    6630.6307    17.143534    20.192818    20.915071     7240.301    7329.2645    7042.4227     5520.205    710.43475    1495.6783   -260.15237   -2783.3669 
 4075000    254.72235   -3927.0159   -3490.4306   -3927.0159            0    3486.9754    17.264322    20.335091    21.062432    7394.4208    3380.9507     2555.812    4524.1633   -468.61374    457.14224   -288.86483    -3114.395 
 4076000    232.90298   -3881.8609   -3482.6732   -3881.8609            0    6689.2382    17.206167    20.266592    20.991483    7319.9476     6261.163    6367.7468     7438.805   -201.96806   -103.92739     157.8298   -2768.5708 
 4077000     241.7179   -3923.0728   -3508.7766   -3923.0728            0    3766.7379    17.255838    20.325098    21.052082     7383.525    1773.7953    6221.6848    3304.7337    95.618227    310.97498    672.04945   -3103.1699 
 4078000    257.03575   -3895.5239   -3454.9735   -3895.5239            0    4216.9492    17.328547    20.410739    21.140787     7477.252    4018.7247    2636.2467    5995.8763    -360.2433   -811.48768    40.114857   -2995.1234 
 4079000    254.00654   -3944.8971   -3509.5386   -3944.8971            0    4758.8261    17.269893    20.341653    21.069229    7401.5816    4983.5688    4967.2488    4325.6607    1377.1122   -1189.8027   -1247.7235   -2995.8496 
 4080000    255.42517   -3887.0416   -3449.2516   -3887.0416            0    3673.0895    17.303774     20.38156    21.110564    7445.2294    4165.1554    3230.8738    3623.2395   -517.19989    588.81759    540.55298   -3050.4237 
 4081000    251.96929   -3922.0758    -3490.209   -3922.0758            0    6712.9362    17.226052    20.290014    21.015744    7345.3564    6188.2933    6661.3922    7289.1232   -1017.4902   -1655.5487   -1387.8909   -2771.0892 
 4082000    250.47717   -3949.6913    -3520.382   -3949.6913            0    4663.5375    17.283533    20.357719     21.08587    7419.1335    5003.5986     6068.728    2918.2859     579.9569    1164.5575    658.89155   -3015.7851 
 4083000    245.03493   -3946.6815      -3526.7   -3946.6815            0    3516.0577    17.285401     20.35992    21.088149    7421.5395    3212.5018    4355.1914      2980.48   -1226.4115    -290.0105    721.31419   -3146.1376 
 4084000    262.28838   -3907.7254   -3458.1721   -3907.7254            0    4507.9302    17.288493    20.363561    21.091921    7425.5221    3942.6468    4634.8703    4946.2735    256.39058   -873.62926    260.48796    -2969.992 
 4085000    243.44018   -3910.2782   -3493.0301   -3910.2782            0    6677.0831    17.188467    20.245744     20.96989     7297.381    5456.1555    7182.4882    7392.6056    1299.9888   -2496.7579    519.15439   -2782.4227 
 4086000    238.72226   -3910.6749   -3501.5131   -3910.6749            0    4145.3629    17.231255    20.296143    21.022091    7352.0142    4365.9585    3788.5492     4281.581    1176.0566   -895.47476    627.38504   -3057.0408 
 4087000    246.93914   -3951.4606   -3528.2154   -3951.4606            0    4568.5133    17.352492    20.438943    21.169999    7508.2916    4687.1058    4017.1363    5001.2976    44.415597    428.08093   -739.19199   -3027.9598 
 4088000    268.88789   -3959.7946     -3498.93   -3959.7946            0     3749.624    17.309941    20.388823    21.118087    7453.1921    3694.1127    3495.1988    4059.5604   -822.23702    288.79045   -740.67729   -3091.3565 
 4089000    239.87792   -3968.3241   -3557.1816   -3968.3241            0    4501.9326    17.233064    20.298274    21.024298    7354.3301    4897.5022     4077.054    4531.2416     80.05874   -1489.5153   -932.76588   -3074.3252 
 4090000    256.33712   -3960.5746   -3521.2216   -3960.5746            0    4480.2691    17.248075    20.315954    21.042611    7373.5643    7759.6771    1813.0512    3868.0792   -457.59652     1210.363     1639.653   -3039.4319 
 4091000    240.80047   -3962.3899   -3549.6661   -3962.3899            0    3910.9396    17.281908    20.355805    21.083887    7417.0402     2937.364    5535.1508    3260.3039   -445.57711    1050.7534   -200.21882   -3126.6201 
 4092000     250.0096   -3917.7443   -3489.2364   -3917.7443            0     6242.231    17.155457    20.206862    20.929617    7255.4183    6982.4207    5343.6423    6400.6299   -59.618945    1389.9379    557.25352   -2828.7283 
 4093000    245.50777    -3972.915   -3552.1231    -3972.915            0    5041.7622    17.248451    20.316398    21.043071    7374.0474    7148.5756    4327.6242    3649.0867   -160.66691    51.905796    919.49408   -3009.9173 
 4094000    256.81435   -3975.6306   -3535.4596   -3975.6306            0    3696.5018    17.304898    20.382884    21.111935    7446.6799    1858.7117    3944.0046    5286.7891   -603.77339     797.5742   -675.42385   -3134.0114 
 4095000    234.40368   -3946.2012   -3544.4413   -3946.2012            0    5265.6443    17.339263    20.423362    21.153861    7491.1332    6404.8747     4611.127    4780.9313   -908.75794    491.44684   -730.82685    -2969.167 
 4096000    256.64004    -3949.236   -3509.3637    -3949.236            0    4214.4965    17.311004    20.390076    21.119384    7454.5653    5613.8391    3404.4457    3625.2047   -171.12313    596.99274     322.8428   -3051.1755 
 4097000    253.78651   -3956.7924    -3521.811   -3956.7924            0    4567.3031    17.327841    20.409907    21.139925    7476.3378     5613.194    5092.4472     2996.268   -912.26485   -500.19614   -699.95044   -3023.8164 
 4098000    243.26113   -3957.0259   -3540.0847   -3957.0259            0     3493.775    17.314256    20.393907    21.123352    7458.7679    3470.2184    2154.6471    4856.4596    888.16522    804.91865    1306.6969   -3160.0371 
 4099000     244.7467   -3913.6974   -3494.2099   -3913.6974            0    6280.1679    17.234297    20.299725    21.025802    7355.9078     6251.883    5315.4972    7273.1235   -294.61145     502.1625     237.3588   -2820.4838 
 4100000    239.96916   -3925.9771   -3514.6782   -3925.9771            0    5552.0969     17.32792    20.410001    21.140022    7476.4409     6379.459    5828.8044    4448.0273    1324.3424    510.91056    1434.6804   -2909.2986 
 4101000    228.34874   -3931.7833   -3540.4013   -3931.7833            0    5631.7714    17.288417    20.363471    21.091828    7425.4239    7077.7556    5916.9542    3900.6042   -1728.3486    65.660065    888.68463   -2930.5245 
 4102000    262.19124   -3927.5892   -3478.2024   -3927.5892            0    5407.7433    17.350917    20.437088    21.168078    7506.2475    4539.2392      5689.03    5994.9606   -492.41075    -422.4938    266.86455   -2886.2118 
 4103000    257.99561   -3933.4933   -3491.2977   -3933.4933            0    4124.0873     17.25098    20.319375    21.046155    7377.2903    4981.6395    3041.4786    4349.1438   -162.28188    461.11764    -165.8407   -3047.5863 
 4104000    254.27692   -3930.0213   -3494.1994   -3930.0213            0    5008.2359    17.269572    20.341274    21.068837    7401.1683    4759.3193    4387.9215    5877.4667    195.79145   -267.81157      353.225   -2953.6182 
 4105000    256.91675   -3923.3074   -3482.9609   -3923.3074            0    6228.7234    17.325024    20.406589    21.136488    7472.6923     6982.993    5471.1357    6232.0416    1.6325531    325.08813   -1050.5719    -2804.145 
 4106000    240.48575   -3935.0172   -3522.8328   -3935.0172            0    3692.6836    17.397403    20.491842     21.22479    7566.7402     4311.087    2915.2837      3851.68   -848.30702   -653.25295   -1398.6698   -3115.3336 
 4107000    248.40702   -3940.3778   -3514.6167   -3940.3778            0    3130.4497    17.395266    20.489326    21.222184    7563.9529    2872.4794    3079.3464    3439.5234    399.03505   -87.670387    1358.1846    -3169.289 
 4108000    238.35453   -3882.5937   -3474.0622   -3882.5937            0    3097.9753    17.356102    20.443196    21.174404     7512.979    1902.1887     3489.032    3902.7053   -581.05529   -69.450544     734.4493   -3134.6199 
 4109000    248.44364   -3917.3313   -3491.5074   -3917.3313            0    4188.7301    17.372431    20.462429    21.194325    7534.2039    4896.8161    4230.1744    3439.1997     1230.698    3.8550867   -1600.1281   -3031.2555 
 4110000    247.18108   -3914.2143   -3490.5544   -3914.2143            0    3394.2387    17.315112    20.394915    21.124396    7459.8743    2033.8054    3333.2119    4815.6988    612.13931    322.56076    1906.1792   -3121.2795 
 4111000    252.52971   -3909.3377   -3476.5104   -3909.3377            0    5292.8868    17.312478    20.391812    21.121182    7456.4698    3163.9721    8562.9247    4151.7635   -431.52524   -654.75355    475.15004   -2900.9356 
 4112000    252.31225   -3929.2788   -3496.8243   -3929.2788            0    5529.6492     17.33734    20.421096    21.151514    7488.6405    5346.9948    6712.8804    4529.0725    2250.4042   -338.94648    396.15843   -2892.9084 
 4113000    235.08225   -3910.4171   -3507.4942   -3910.4171            0      4921.86    17.327323    20.409298    21.139294    7475.6685    3568.1971    4917.4892    6279.8937   -400.42567   -221.38283   -337.51613   -2970.8886 
 4114000    269.23581   -3928.7052   -3467.2443   -3928.7052            0    5309.4322    17.328377    20.410539    21.140579    7477.0316    6435.1146    4642.1762    4851.0056   -1705.5967   -1038.9914    209.38542   -2888.2781 
 4115000    258.50307   -3899.7437   -3456.6783   -3899.7437            0    5650.1918    17.283291    20.357433    21.085574    7418.8209     6416.244    5099.4841    5434.8473   -1364.4072    1196.9349    -668.5519   -2845.3507 
 4116000    244.45218   -3928.5299   -3509.5472   -3928.5299            0    4502.4542    17.251713    20.320239    21.047049    7378.2309    5400.2901    4102.8109    4004.2617    351.55853    588.30315   -1239.0604   -3025.0654 
 4117000    246.55496   -3947.0401   -3524.4534   -3947.0401            0    4618.7484    17.282146    20.356085    21.084178    7417.3472    4308.4112    5086.6359    4461.1981   -501.95776   -646.08112   -441.84899    -3024.823 
 4118000     255.8507    -3940.059   -3501.5397    -3940.059            0    4717.5697    17.229317    20.293859    21.019726    7349.5334    5195.3604    3098.7097    5858.6391    1167.2744   -465.02865    -1530.418   -2995.8851 
 4119000     262.7886   -3925.7798   -3475.3691   -3925.7798            0     6699.796    17.221121    20.284205    21.009727    7339.0495    7281.6301    7229.5142    5588.2437   -1441.9672    797.16919   -609.18512   -2758.2732 
 4120000    242.66904   -3930.7606   -3514.8342   -3930.7606            0    4453.9158    17.273954    20.346437    21.074184    7406.8049    5540.2647    3297.8075    4523.6752    332.62201    1786.2765    823.33123   -3033.7193 
 4121000    244.72464   -3932.4481   -3512.9985   -3932.4481            0     5478.317    17.263431    20.334041    21.061346    7393.2762    3990.2708    6137.6279    6307.0522   -605.55111    13.791805   -316.41743    -2922.308 
 4122000    251.56117   -3883.4206   -3452.2533   -3883.4206            0    5871.3225    17.223783    20.287341    21.012975     7342.454    5925.3325    6724.1389     4964.496   -615.80264   -167.87935    213.55403   -2823.5394 
 4123000    238.82864   -3935.8451    -3526.501   -3935.8451            0    5840.9053    17.288552    20.363631    21.091993    7425.5983    7684.6833    5801.2821    4036.7504   -576.74698    223.36642    626.38632   -2893.9617 
 4124000     250.6003   -3895.9734   -3466.4531   -3895.9734            0    4143.7021    17.326815      20.4087    21.138674    7475.0109    2678.6797    7031.9183    2720.5083    332.44261   -1083.2713    107.53702   -3014.7259 
 4125000    264.14312   -3898.9231   -3446.1908   -3898.9231            0    6233.5506    17.199235    20.258427    20.983027    7311.1046     6104.108    6032.9008    6563.6431    535.03923    210.08903   -1709.7949   -2781.5387 
 4126000    245.43945    -3931.697   -3511.0222    -3931.697            0    4193.9727     17.30406    20.381897    21.110913    7445.5989    4254.6499    4725.2693     3601.999    498.53612    1198.5529    530.85968   -3055.6137 
 4127000     251.8855   -3915.6943   -3483.9712   -3915.6943            0    5659.0488    17.237203    20.303149    21.029348    7359.6305    5921.4862    5201.9304    5853.7297   -1194.1051   -216.67433    728.24311   -2876.5704 
 4128000    244.02713   -3917.0202    -3498.766   -3917.0202            0    6138.3924     17.22657    20.290625    21.016376    7346.0193    5597.7906    5962.9666    6854.4201    678.62115   -187.81616    383.17709   -2841.1345 
 4129000    248.95838   -3911.6505   -3484.9444   -3911.6505            0    6553.0559    17.258665    20.328428    21.055531    7387.1549    5272.8984    6816.8445    7569.4247    630.18875    871.85572    1189.0409   -2778.9569 
 4130000    235.15231   -3909.5516   -3506.5086   -3909.5516            0    4931.6156    17.220385    20.283338    21.008829    7338.1085    5200.1739    5719.1764    3875.4965    614.80303    690.27671   -1004.4004   -2978.7331 
 4131000    240.55834   -3932.3092   -3520.0004   -3932.3092            0    6033.6771    17.200959    20.260457     20.98513    7313.3028    5601.4205    7899.7526     4599.858    218.74829    -74.01486   -1637.2871   -2876.4664 
 4132000    271.77121   -3933.7848   -3467.9783   -3933.7848            0    5458.2723    17.236681    20.302534    21.028711    7358.9616    4358.5294    6069.5275    5946.7599    683.57081   -1956.6401    1238.9988   -2882.1806 
 4133000    257.79149   -3933.1358     -3491.29   -3933.1358            0    3378.8391    17.276254    20.349145    21.076989     7409.763    4393.9523    3720.1927    2022.3724    1072.5099   -361.53552   -868.05503   -3126.1598 
 4134000    245.52937   -3940.8818   -3520.0528   -3940.8818            0    5522.5235    17.265803    20.336835    21.064239    7396.3237    5841.7447    6197.6836    4528.1424   -1224.2693    111.94519    745.70544   -2924.3504 
 4135000    235.87018   -3925.3031   -3521.0297   -3925.3031            0    6975.9195    17.196138    20.254779    20.979248    7307.1558    8882.5679    5241.0301    6804.1604   -1086.8469   -1435.1149     1508.379   -2777.6243 
 4136000    255.47274   -3916.7089   -3478.8373   -3916.7089            0    5455.2774    17.241789     20.30855    21.034942    7365.5058    6047.1506    5029.4612    5289.2203    1487.1445    265.85196    248.83316   -2892.8404 
 4137000    246.54623   -3935.1937   -3512.6219   -3935.1937            0    3674.8054     17.24067    20.307232    21.033577    7364.0717    1893.0455    3842.8456     5288.525   -215.00506    473.55456   -37.482619   -3117.9572 
 4138000    260.77679   -3937.5924   -3490.6299   -3937.5924            0    4181.9945    17.268792    20.340356    21.067886     7400.166    4173.5105     3142.845     5229.628   -65.825266   -1311.8917   -1384.7357   -3039.2931 
 4139000    228.01883   -3950.6735    -3559.857   -3950.6735            0    4536.4724     17.28927    20.364477    21.092869    7426.5239    4045.7989    5157.9068    4405.7115    423.99758   -887.26896   -321.11296   -3068.5197 
 4140000    259.73659   -3960.9898   -3515.8102   -3960.9898            0    4529.4219    17.236841    20.302721    21.028905    7359.1657    5998.9458    1530.7744    6058.5454    1171.1587   -101.08686    516.07862    -3029.686 
 4141000     247.9688   -3969.9968   -3544.9868   -3969.9968            0    3612.4047    17.290431    20.365844    21.094285    7428.0196    2585.2195    3908.2257     4343.769   -242.89939   -1820.9305    150.44588   -3153.6548 
 4142000    246.30652    -3949.093   -3526.9321    -3949.093            0    6137.7253    17.257433    20.326977    21.054028     7385.573    6781.3476    7266.1158    4365.7124    493.89512   -19.038097   -280.37178   -2865.8315 
 4143000    240.62143   -3948.1955   -3535.7786   -3948.1955            0    4017.7034     17.31563    20.395525    21.125028    7460.5438    3226.6896    4791.1892    4035.2314    1562.4979   -623.19083   -721.29128   -3098.6349 
 4144000    236.56734   -3936.3952   -3530.9268   -3936.3952            0    4010.1463    17.300987    20.378278    21.107164    7441.6329    3375.9428    3822.6945    4831.8015    852.39832    77.604984    -289.0014   -3095.7113 
 4145000    256.58656   -3919.0534   -3479.2728   -3919.0534            0    4730.3301     17.28339    20.357551    21.085696    7418.9495    5037.0223    4973.7368    4180.2312   -217.46212   -266.54656    1120.2549   -2967.4616 
 4146000    246.63589   -3946.1284   -3523.4029   -3946.1284            0    4244.3032    17.294125    20.370194    21.098792     7432.781    4309.8322    3248.9531    5174.1241   -274.45965    655.13826   -735.40288   -3063.3226 
 4147000    234.25712   -3937.9311   -3536.4224   -3937.9311            0    4936.8474    17.291909    20.367585    21.096089    7429.9248    4694.0322    6092.1149    4024.3952    592.49434   -872.84357    1402.5291   -3001.4763 
 4148000    235.33716   -3927.1868    -3523.827   -3927.1868            0    3850.7449    17.288816    20.363941    21.092315    7425.9379    4305.9832    5171.7479    2074.5037     960.5777   -20.083478    196.75046   -3106.7925 
 4149000    257.96294   -3903.3118   -3461.1722   -3903.3118            0    6023.9987    17.236207    20.301975    21.028132    7358.3542    7098.2772    4420.4935    6553.2253     626.3813      1204.91   -923.74392   -2814.7125 
 4150000    255.66225    -3949.769   -3511.5726    -3949.769            0     5888.285     17.22382    20.287384     21.01302    7342.5007    6157.4292    6809.3976     4698.028   -456.89194     1884.584   -423.51983   -2881.0384 
 4151000    258.12695   -3892.2392   -3449.8185   -3892.2392            0    5234.2252    17.257323    20.326847    21.053894    7385.4315    4370.5763    6843.7524     4488.347   -2047.6834    121.74326   -381.34479   -2886.0456 
 4152000    233.25722    -3914.371   -3514.5761    -3914.371            0    4295.4611     17.29047     20.36589    21.094333    7428.0701    2549.7863    5860.4573    4476.1396   -892.40773     550.2829   -1576.3403   -3049.2455 
 4153000    244.22845   -3910.1711   -3491.5719   -3910.1711            0    2432.9862    17.343018    20.427785    21.158442    7496.0013     2207.599    1856.0113    3235.3482   -39.333361   -1069.8424   -125.66199   -3225.5942 
 4154000    235.64808   -3912.6427   -3508.7499   -3912.6427            0    5140.3462    17.198501    20.257563    20.982131    7310.1687    5153.5452    4190.2412     6077.252    17.781354   -2064.7216   -590.74764   -2960.7309 
 4155000    233.68363   -3898.5294   -3498.0036   -3898.5294            0    5333.4532    17.246952    20.314631    21.041241    7372.1238    6620.3734    5647.6485    3732.3377      809.158   -1492.0792   -54.551178   -2924.5781 
 4156000    231.11281    -3924.504   -3528.3845    -3924.504            0    2566.5169    17.313369    20.392862     21.12227    7457.6221    2086.6046    4227.7704    1385.1758   -470.84004   -470.08259    37.927244   -3249.2456 
 4157000    241.70755    -3928.903   -3514.6245    -3928.903            0    4766.6272    17.281387    20.355191    21.083252    7416.3699    4614.6416     4670.344    5014.8959     -34.5343   -489.99653     50.09776   -2999.0654 
 4158000    244.83303   -3936.8433   -3517.2078   -3936.8433            0    6151.5391    17.283548    20.357736    21.085888    7419.1519    7014.3681    5952.0596    5488.1895    730.40856    -1780.492    1516.4993   -2851.6069 
 4159000    250.22855   -3927.9043   -3499.0211   -3927.9043            0    6104.1982    17.166885    20.220323     20.94356    7269.9277    5712.9806    5641.5063    6958.1076    750.82788   -501.95475    540.21457    -2851.827 
 4160000    255.05697   -3917.7581   -3480.5992   -3917.7581            0    4733.5316    17.298244    20.375047    21.103817    7438.0938    5999.8117    4214.0289    3986.7542    210.85675   -1406.4308     574.0151     -2967.12 
 4161000    240.80711   -3945.7468   -3533.0117   -3945.7468            0    4753.5314     17.23926    20.305571    21.031857     7362.265    4726.0072    3909.5224    5625.0648     408.5503    333.28516    244.62294   -3022.6199 
 4162000    240.56608   -3916.0641   -3503.7421   -3916.0641            0    4529.9312    17.235126    20.300701    21.026813    7356.9695    6306.2667    3624.0343    3659.4925     764.0808   -432.14983    506.74814   -3017.7083 
 4163000    245.88679   -3913.2173   -3491.7758   -3913.2173            0    5439.8908    17.225835    20.289758    21.015478    7345.0782    5997.6907    5789.8776    4532.1039    715.21925   -182.85335     989.2858   -2909.0523 
 4164000    240.26969   -3908.5604   -3496.7464   -3908.5604            0    3113.6739    17.304322    20.382205    21.111232    7445.9367    2906.3732    2866.9392    3567.7094    882.37846    -548.1616   -1336.3189   -3158.6283 
 4165000    253.18604   -3940.6901   -3506.7378   -3940.6901            0    4568.0614    17.259062    20.328895    21.056015    7387.6641    3448.0307    5252.7373    5003.4161    533.53945   -56.204936   -143.55421   -3014.5681 
 4166000    256.96115   -3915.9421   -3475.5195   -3915.9421            0    5976.7037    17.166867    20.220302    20.943538    7269.9046    5193.6048    6521.5241    6214.9822    528.74709     591.4936    -167.8109   -2841.8449 
 4167000    242.79667   -3943.9712    -3527.826   -3943.9712            0    4703.2014    17.228134    20.292467    21.018284    7348.0201    4946.3765    5410.3503    3752.8774   -85.178089   -278.21045   -762.91049   -3023.8152 
 4168000    254.14006   -3897.2516   -3461.6642   -3897.2516            0    4696.3684    17.251841     20.32039    21.047205    7378.3952    5987.4425    3177.9202    4923.7426   -179.03841   -2761.8043   -137.51781   -2956.3053 
 4169000    250.67509   -3902.4041   -3472.7556   -3902.4041            0    4621.1663    17.266792    20.338001    21.065446    7397.5958    5783.7006    4560.7018    3519.0965   -527.16129   -1357.0695   -821.80808   -2974.1949 
 4170000    255.19832   -3935.4349   -3498.0337   -3935.4349            0     5198.343     17.22385     20.28742    21.013057    7342.5395    4175.5549    4933.2465    6486.2277   -109.00612    732.87056    205.33675   -2941.3775 
 4171000    260.24641   -3959.0917   -3513.0383   -3959.0917            0    4430.6536     17.26857    20.340094    21.067615    7399.8805    3851.1213    4293.8941    5146.9454    819.71376   -449.10224    303.34131   -3034.8836 
 4172000    243.69205   -3912.7487   -3495.0689   -3912.7487            0    6756.7948    17.209327    20.270314    20.995339    7323.9816    7200.5492    7082.7806    5987.0545   -912.19251    206.12123    445.80908    -2773.357 
 4173000    255.84738   -3948.5097    -3509.996   -3948.5097            0    4547.5442    17.297198    20.373814    21.102541    7436.7441    5566.1406    4000.8885    4075.6035   -1837.6107   -202.24627    2306.6398   -3016.7817 
 4174000    234.33703   -3911.0983   -3509.4527   -3911.0983            0    5009.0982    17.259908    20.329892    21.057048    7388.7514    4696.6765    5219.4908    5111.1273   -476.24389    739.61903   -209.97088   -2969.6855 
 4175000     254.3168   -3908.5961   -3472.7058   -3908.5961            0    5472.6174    17.157504    20.209273    20.932115    7258.0157    5725.1022    4374.2033    6318.5466    1734.7999     559.1149   -628.60779   -2893.4253 
 4176000    239.87082   -3934.8842   -3523.7538   -3934.8842            0    5642.0743    17.170112    20.224124    20.947497    7274.0284    4487.3585    4712.7016    7726.1627   -318.70023    -162.0057   -1202.2157   -2925.2186 
 4177000    246.56919    -3919.665   -3497.0539    -3919.665            0    5282.3916     17.17337    20.227962    20.951472    7278.1699    7362.6834    3247.8028    5236.6886   -1456.4586     610.9215    601.64615   -2936.3563 
 4178000    243.57576   -3915.7667   -3498.2862   -3915.7667            0    4133.0581     17.22485    20.288599    21.014277     7343.819    4855.6476    2056.7864    5486.7404   -191.55234    873.89763    245.86104   -3055.6271 
 4179000    261.02851   -3962.4562   -3515.0623   -3962.4562            0    4490.4823    17.229403    20.293961    21.019832    7349.6441    5451.0402    3474.5847     4545.822    337.81939    442.40636    233.34194   -3033.7409 
 4180000    243.34413   -3938.5529   -3521.4693   -3938.5529            0    2495.3921    17.297359    20.374004    21.102738    7436.9522     2551.113    3990.0457    945.01776    474.18146   -246.60956    9.6165192   -3250.8183 
 4181000    261.20652   -3930.3131   -3482.6141   -3930.3131            0    5832.5764    17.157417    20.209171    20.932009    7257.9061    5244.4953    5098.9015    7154.3324   -59.090256    288.13431    -63.65224    -2865.241 
 4182000    244.91602   -3866.9852   -3447.2076   -3866.9852            0    4361.6682    17.343259    20.428068    21.158735    7496.3131    3896.6512    5384.3262    3804.0273    132.21174   -681.76642   -159.38544   -2970.3637 
 4183000    250.44621   -3922.4521   -3493.1959   -3922.4521            0    6182.6257    17.154296    20.205495    20.928201    7253.9458      6731.73    6172.6329    5643.5142    261.08023    9.6660858   -838.37292   -2839.1275 
 4184000    240.13338   -3951.5613   -3539.9809   -3951.5613            0    5105.5528    17.223357    20.286839    21.012455    7341.9087    5180.8227    4515.1348    5620.7009   -470.57069   -1072.4208    770.27939   -2993.3079 
 4185000    248.42209   -3887.2022   -3461.4152   -3887.2022            0    5474.7319    17.236754    20.302619    21.028799    7359.0545    5698.4244    5250.2616    5475.5096   -1390.6839    47.851458   -562.50757   -2873.8437 
 4186000    246.09047   -3877.3945   -3455.6039   -3877.3945            0    6921.0271    17.199275    20.258474    20.983076    7311.1556    6867.4726    8240.7088    5654.9001    989.58554   -889.85885    73.389733   -2717.6445 
 4187000    248.03038    -3925.361   -3500.2455    -3925.361            0    5176.6566    17.264724    20.335564    21.062922     7394.937    3293.6446     7517.724    4718.6011    361.36874   -713.29477    1072.7512   -2941.9556 
 4188000    252.78554   -3887.5837    -3454.318   -3887.5837            0    6467.7755    17.221064    20.284139    21.009658    7338.9774    5303.9832     7153.609    6945.7345    220.92746   -1077.8414     51.86361   -2762.0625 
 4189000     235.4253   -3922.4789    -3518.968   -3922.4789            0    5350.7676    17.256935     20.32639    21.053421    7384.9337    4688.3334     3475.882    7888.0875    156.97646    109.66321   -1333.9296   -2942.6813 
 4190000    259.46285   -3896.9605     -3452.25   -3896.9605            0    3597.3255    17.313605    20.393139    21.122557    7457.9262    3713.2827    3282.6567    3796.0372   -189.40808    504.84014   -426.13173   -3060.9826 
 4191000    257.82324   -3927.5226   -3485.6224   -3927.5226            0    5462.7596    17.280275    20.353881    21.081895     7414.938    5228.2869    5945.5682    5214.4238    -242.8857   -1406.8782   -1258.9052   -2894.8836 
 4192000    250.50414   -3926.8188   -3497.4633   -3926.8188            0    5035.6316    17.254717    20.323777    21.050714    7382.0859    5323.4203    4480.4732    5303.0013    915.87283   -947.81239    1296.7597   -2955.3264 
 4193000    246.91017   -3925.2734   -3502.0778   -3925.2734            0    4423.4673    17.302673    20.380263    21.109221    7443.8084    5616.4101    3415.1746    4238.8174    1052.6585    141.65866   -294.48593   -3021.8648 
 4194000    248.16496   -3914.3811   -3489.0348   -3914.3811            0     5135.571        17.29    20.365336     21.09376    7427.4643    4214.2628    5621.9303    5570.5199   -853.34138   -588.05078     274.7285   -2932.7398 
 4195000    238.84174   -3931.7008   -3522.3342   -3931.7008            0    6239.7381    17.255987    20.325274    21.052264    7383.7168    6032.9382    6218.8276    6467.4484   -162.79301   -734.58469   -1981.1252   -2850.4147 
 4196000    256.01964   -3949.2083   -3510.3994   -3949.2083            0    5263.0615     17.23562    20.301284    21.027416    7357.6027    6113.2175    4422.3795    5253.5875    -538.3923    -265.0052    190.35119   -2945.6566 
 4197000    247.94692   -3932.3044   -3507.3319   -3932.3044            0    6338.4453    17.222741    20.286114    21.011704    7341.1212    6222.8354    4341.7857    8450.7147    -186.4879    -874.9659    611.36577   -2828.7206 
 4198000    239.40585   -3915.9459   -3505.6125   -3915.9459            0    4872.9638    17.278116    20.351339    21.079261    7412.1595    4187.8358    3984.0413    6447.0142    -972.5402   -1342.9491   -1407.1901   -2978.8512 
 4199000    265.44225   -3950.2344   -3495.2755   -3950.2344            0    6284.6532    17.246587    20.314201    21.040796     7371.656     7187.145    6321.5918    5345.2229     855.9373   -497.16783    893.12827   -2819.6247 
 4200000    244.50388   -3908.2373   -3489.1661   -3908.2373            0     6721.684    17.278197    20.351433     21.07936    7412.2632    5934.2218    8191.7766    6039.0534    -253.5001   -242.40008   -1617.6737   -2762.5503 
 4201000    250.28368   -3937.4262   -3508.4486   -3937.4262            0    4320.5338    17.320405    20.401149    21.130854    7466.7175    3501.1837    4807.9205    4652.4972    1324.5109    258.28814    414.82639   -3037.9666 
 4202000    254.06838   -3919.3137   -3483.8491   -3919.3137            0    4764.1443    17.291906    20.367581    21.096085    7429.9209    4290.4571    5276.1126    4725.8632   -1435.4024    7.5542584    177.70357   -2967.6171 
 4203000    246.24438   -3945.7172   -3523.6628   -3945.7172            0    3113.0596    17.349793    20.435764    21.166707    7504.7886    3649.5086     4582.162    1107.5082    2027.8894    238.98775    1445.2034   -3182.9395 
 4204000    255.46343   -3964.6127   -3526.7571   -3964.6127            0    4012.6487    17.330726    20.413306    21.143445    7480.0731    3864.6111    4342.9739    3830.3611   -1264.6968   -791.53736     -717.026   -3089.0205 
 4205000    241.64145   -3953.3387   -3539.1736   -3953.3387            0    4235.7091    17.315354    20.395199    21.124691    7460.1864    4704.5952    4299.0098    3703.5225   -1974.4669   -487.71124   -232.65405    -3078.332 
 4206000    245.35205    -3944.762    -3524.237    -3944.762            0    3244.4471    17.356791    20.444007    21.175245    7513.8738    3511.7317    3817.2223    2404.3872    1523.4601   -98.501929   -618.49883   -3168.7035 
 4207000    253.67714   -3945.3486   -3510.5547   -3945.3486            0    3002.8425    17.331339    20.414028    21.144193     7480.867     2665.153    2996.5874     3346.787    -490.6793    305.48709    771.58825   -3182.9422 
 4208000    259.52891   -3919.8492   -3475.0255   -3919.8492            0    5690.6683    17.232105    20.297143    21.023128    7353.1016    6696.2563    5175.7174    5200.0313    1008.7546    199.36904    -539.0109   -2864.7728 
 4209000    249.77413   -3945.1136   -3517.0093   -3945.1136            0    4270.9543    17.243678    20.310775    21.037247    7367.9264    4108.5651    4405.9116    4298.3863    902.72161   -1270.2272   -1025.4049   -3058.0797 
 4210000    254.39079   -3906.0902   -3470.0731   -3906.0902            0    5090.7296    17.271538     20.34359    21.071236    7403.6969    3628.7383     6631.178    5012.2725   -974.22858   -433.39921    2190.4707   -2920.3999 
 4211000    255.16316    -3956.392   -3519.0511    -3956.392            0    4780.1922    17.304422    20.382324    21.111355    7446.0665    6668.5276    5209.0528    2462.9962    455.61619   -340.67964    479.69188   -2999.9545 
 4212000     241.7529   -3918.7323   -3504.3761   -3918.7323            0    4000.3338    17.311165    20.390266    21.119581    7454.7739    3282.7523     5886.671     2831.578    1940.4988    833.99737   -291.87965   -3069.4588 
 4213000    265.20916   -3921.4215   -3466.8621   -3921.4215            0    5533.3047    17.246005    20.313516    21.040086    7370.9099    5230.7141    4338.0668    7031.1333    861.29767   -49.970276   -1347.4947   -2872.0475 
 4214000     245.8539    -3912.698   -3491.3129    -3912.698            0    6059.1392    17.251396    20.319865    21.046662    7377.8239    6159.2148     6207.957    5810.2457    999.62976   -401.52075    723.66153   -2839.3616 
 4215000    237.45274   -3963.3087   -3556.3228   -3963.3087            0    4093.3382    17.301785    20.379217    21.108137    7442.6621    3638.3943    2565.7761    6075.8443    -166.8145    465.75443   0.94320225   -3112.0172 
 4216000    245.03293   -3929.5214   -3509.5433   -3929.5214            0     4912.038    17.241489    20.308197    21.034577    7365.1216     5820.877    3995.1768    4920.0601   -1830.1321   -1644.3624    1064.4234   -2981.9279 
 4217000    240.70228   -3965.8489   -3553.2934   -3965.8489            0    3547.0266     17.36483    20.453476    21.185052    7524.3192    3968.2282    3854.3206    2818.5309   -463.26003   -407.66678     1408.268   -3164.0623 
 4218000    258.04507   -3949.9023   -3507.6219   -3949.9023            0    5197.7446    17.234074    20.299462     21.02553    7355.6223    6429.6667    4711.9372    4451.6299    898.60588    1203.7389   -675.71207    -2950.038 
 4219000    261.04904   -3934.6393   -3487.2102   -3934.6393            0    6276.9274      17.2099    20.270989    20.996037    7324.7129     6692.363    5534.5554    6603.8637    650.85328    1118.0847    721.85853   -2816.6873 
 4220000    236.86587   -3924.4094   -3518.4294   -3924.4094            0    5972.3368    17.184893    20.241534    20.965529    7292.8299    6239.0458     6805.325    4872.6396   -783.25992    1367.4316    1506.2329    -2883.221 
 4221000    246.03122   -3920.5175   -3498.8284   -3920.5175            0    3844.9628    17.336823    20.420488    21.150884    7487.9711    3817.9137    2984.6463    4732.3283   -3083.3736   -832.39123   -386.97911   -3078.9416 
 4222000    249.02861   -3936.4685    -3509.642   -3936.4685            0    3815.3945     17.27957    20.353051    21.081035    7414.0302    2419.2617    4190.6919    4836.2299   -1629.0001   -769.33784    572.52375   -3097.0986 
 4223000    238.83332   -3916.8183   -3507.4661   -3916.8183            0    4415.8689    17.254137    20.323094    21.050007    7381.3418    5593.1724    3798.2923    3856.1421   -383.81739    331.65322    671.60192   -3032.1009 
 4224000    243.36061   -3914.4041   -3497.2923   -3914.4041            0    4986.7508    17.259787    20.329749      21.0569    7388.5951    3338.2212    4425.5473     7196.484    162.36317   -187.73281    1047.4847   -2959.9446 
 4225000    249.49471   -3936.0437   -3508.4183   -3936.0437            0    6466.4567     17.19372    20.251931    20.976298    7304.0738      5023.57    7168.4824    7207.3177    282.50973    520.40152    693.36212   -2819.5957 
 4226000    235.67888   -3897.6655   -3493.7199   -3897.6655            0    2915.3765    17.333118    20.416124    21.146364    7483.1716     2788.845    2573.2767    3384.0078    381.29328   -1950.6009    187.16635   -3175.5521 
 4227000    251.85673   -3865.6743   -3434.0005   -3865.6743            0    6175.6791    17.269798    20.341541    21.069114    7401.4598    6255.3587    5941.5343    6330.1444    1412.5247   -562.97049    272.70555   -2767.3811 
 4228000    258.96398   -3918.7024    -3474.847   -3918.7024            0     7107.051    17.195091    20.253546    20.977971    7305.8213    6551.2317    6309.1295    8460.7918    143.25694    902.06931   -607.16383   -2717.6056 
 4229000    249.75887   -3903.6014   -3475.5233   -3903.6014            0    4310.9994    17.269544    20.341241    21.068803    7401.1324    3507.4765    6774.4494    2651.0722   -115.20571   -592.81873   -452.58721   -3010.2029 
 4230000    254.20481   -3897.2354    -3461.537   -3897.2354            0    4851.9532    17.266308     20.33743    21.064856    7396.9734    4755.3217    3789.7618    6010.7761   -26.994188   -484.33046   -508.55062   -2938.1216 
 4231000    258.06142    -3910.853   -3468.5445    -3910.853            0    5235.1503    17.179343    20.234996    20.958758     7285.766    5982.1099    3930.9959    5792.3452    229.62173    283.48049     681.8894   -2912.2814 
 4232000    248.08112   -3893.3564   -3468.1539   -3893.3564            0    3591.5815    17.206707    20.267228    20.992142    7320.6368    2133.0153    5179.7104    3462.0187   -244.79203   -302.59282   -1070.2041   -3084.7024 
 4233000    236.33637   -3888.1148   -3483.0424   -3888.1148            0    5311.6785    17.195174    20.253643    20.978072    7305.9265    5958.2541    3690.3867    6286.3945   -249.28516    -1042.675    1221.7485    -2917.086 
 4234000    246.50578   -3901.6671   -3479.1646   -3901.6671            0    4537.9379    17.225651    20.289541    21.015254     7344.843     5135.373    3754.2946    4724.1461   -932.31947     187.6147    111.12681   -2993.0743 
 4235000    246.29161   -3904.2521   -3482.1167   -3904.2521            0    6368.8046     17.17328    20.227855    20.951361     7278.055    6165.7037    3931.3834    9009.3266    1113.8733    743.65066   -1222.6767   -2806.1129 
 4236000    241.02597   -3902.1999   -3489.0896   -3902.1999            0    3805.2144    17.234002    20.299378    21.025443     7355.531    1896.5741    6262.8952    3256.1739    297.60513   -447.06681   -670.65581   -3080.8933 
 4237000    248.40578   -3900.6054   -3474.8464   -3900.6054            0    5520.9378    17.178456    20.233952    20.957677    7284.6383    4927.9402    4406.2488    7228.6243   -294.92159   -2244.9794   -852.20151   -2888.3076 
 4238000    246.78348    -3886.408   -3463.4296    -3886.408            0    3200.3592    17.254458    20.323472    21.050398    7381.7532    4716.9771     1941.659    2942.4416    1034.4622   -128.88328    538.42222   -3118.8939 
 4239000    239.54374   -3908.0225   -3497.4527   -3908.0225            0    5499.8904    17.219315    20.282079    21.007524    7336.7414    5963.6431    5129.5541     5406.474   -1546.2034   -1092.2157    -145.2165   -2908.9708 
 4240000     255.0171   -3927.3776    -3490.287   -3927.3776            0    5059.3766    17.216424    20.278673    21.003997    7333.0464    5728.4659     3659.868    5789.7957   -1063.0001   -1604.3669     328.7505   -2949.2122 
 4241000    240.76074   -3928.8542   -3516.1985   -3928.8542            0    6720.5035    17.168474    20.222195    20.945498    7271.9468    6546.2125    6215.7377    7399.5604    51.777388    1080.5762   -908.72199    -2803.463 
 4242000    247.41688   -3907.1639   -3483.0999   -3907.1639            0    4845.5014    17.267001    20.338246    21.065701    7397.8639    6084.7519    4482.5798    3969.1724    2014.2397   -395.65792    1795.2824   -2960.3175 
 4243000    267.31554   -3924.5597     -3466.39   -3924.5597            0    4746.3945    17.256273     20.32561    21.052613    7384.0837    5160.2318    4177.8177    4901.1339   -491.20471    63.025605    497.62266   -2955.2542 
 4244000    245.25439   -3886.4018   -3466.0442   -3886.4018            0    5629.2994    17.292041     20.36774    21.096249    7430.0944    7006.3857    5389.9372    4491.5753   -567.76293    91.262608    367.23657   -2856.0516 
 4245000    246.29524   -3858.0686    -3435.927   -3858.0686            0    5021.6972    17.192583    20.250591    20.974911     7302.624    5702.4574    5085.1284    4277.5056   -956.67469     -132.578    857.94844   -2901.1098 
 4246000    241.13918    -3901.833   -3488.5287    -3901.833            0    4462.9201    17.286994    20.361796    21.090093    7423.5915    5352.9045    4421.4842    3614.3715    1643.4232   -1057.7209    20.956091   -3005.3486 
 4247000    248.74152   -3915.5892   -3489.2547   -3915.5892            0    3759.3501    17.299904    20.377002    21.105843    7440.2359    3881.3713    4406.5338    2990.1453   -1712.4392   -52.656058    504.14268   -3081.3344 
 4248000     270.6695   -3889.8362   -3425.9179   -3889.8362            0    3801.7824    17.280122    20.353702    21.081709    7414.7417    3639.4573    3952.4374    3813.4524   -676.12002    940.65895   -933.53312   -3014.8069 
 4249000    253.63072    -3920.723   -3486.0086    -3920.723            0    6640.7787    17.209649    20.270693    20.995731    7324.3924    7320.1273    5097.6263    7504.5826   -963.77008    -67.28057   -146.18648    -2776.649 
 4250000    248.10049   -3884.6713   -3459.4356   -3884.6713            0    4432.3683     17.29831    20.375124    21.103898    7438.1791    3518.0226     5699.171    4079.9115   -1548.1701   -34.524527    50.422578   -2978.6202 
Loop time of 384.949 on 64 procs for 250000 steps with 864 atoms

Performance: 112.223 ns/day, 0.214 hours/ns, 649.436 timesteps/s
99.2% CPU use with 64 MPI tasks x 1 OpenMP threads

MPI task timing breakdown:
Section |  min time  |  avg time  |  max time  |%varavg| %total
---------------------------------------------------------------
Pair    | 20.717     | 25.542     | 31.366     |  48.6 |  6.64
Bond    | 0.27264    | 0.28116    | 0.30158    |   1.1 |  0.07
Kspace  | 164.08     | 172.98     | 180.13     |  26.6 | 44.94
Neigh   | 3.9134     | 4.6772     | 5.1984     |  14.4 |  1.22
Comm    | 80.701     | 87.703     | 96.55      |  33.3 | 22.78
Output  | 0.78732    | 0.78827    | 0.79574    |   0.1 |  0.20
Modify  | 84.187     | 87.15      | 91.642     |  20.6 | 22.64
Other   |            | 5.83       |            |       |  1.51

Nlocal:        13.5000 ave          20 max           8 min
Histogram: 3 1 7 7 16 19 5 4 0 2
Nghost:        2149.41 ave        2204 max        2098 min
Histogram: 3 3 10 5 13 12 6 7 3 2
Neighs:        4155.39 ave        6405 max        2322 min
Histogram: 2 4 7 14 17 5 6 5 3 1

Total # of neighbors = 265945
Ave neighs/atom = 307.80671
Ave special neighs/atom = 2.0000000
Neighbor list builds = 12513
Dangerous builds = 0

unfix		3
unfix		2
unfix		1

write_data	data.final.${pid}
write_data	data.final.0
System init for write_data ...
PPPM initialization ...
  extracting TIP4P info from pair style
  using 12-bit tables for long-range coulomb (../kspace.cpp:340)
  G vector (1/distance) = 0.37426763
  grid = 24 24 25
  stencil order = 5
  estimated absolute RMS force accuracy = 0.0030712153
  estimated relative force accuracy = 9.2488738e-06
  using double precision FFTW3
  3d grid and FFT values/proc = 2730 288
Last active /omp style is kspace_style pppm/tip4p/omp
WARNING: Not all mixed pair coeffs generated from mixing. Use write_data with 'pair ij' option to store all pair coeffs. (../write_data.cpp:312)

write_restart   restart.lmp.${pid}
write_restart   restart.lmp.0
System init for write_restart ...
PPPM initialization ...
  extracting TIP4P info from pair style
  using 12-bit tables for long-range coulomb (../kspace.cpp:340)
  G vector (1/distance) = 0.37426763
  grid = 24 24 25
  stencil order = 5
  estimated absolute RMS force accuracy = 0.0030712153
  estimated relative force accuracy = 9.2488738e-06
  using double precision FFTW3
  3d grid and FFT values/proc = 2730 288
Last active /omp style is kspace_style pppm/tip4p/omp
Total wall time: 0:06:25
