LAMMPS data file via write_data, version 30 Jul 2021, timestep = 9500000

1008 atoms
2 atom types
672 bonds
1 bond types
336 angles
1 angle types

-3.1646508112072773 14.774649810761485 xlo xhi
-0.1634492526565019 22.743448252654545 ylo yhi
-0.02837291004190945 19.258370910039396 zlo zhi
-0.4250917389361912 -6.657818255341404 0.021300611383109687 xy xz yz

Masses

1 1.008
2 15.999

Pair Coeffs # lj/cut/tip4p/long/omp

1 0 0
2 0.21084 3.1668

Bond Coeffs # harmonic/omp

1 450 0.9572

Angle Coeffs # harmonic/omp

1 55 104.52

Atoms # full

21 7 1 0.5897 1.3138764817126534 2.214503191627955 1.0142036707441904 0 0 0
55 19 2 -1.1794 -0.711662913019727 4.172478699702619 3.8652654109832585 0 0 0
56 19 1 0.5897 -1.512610184480442 3.8166465994018215 3.4806099579324714 0 0 0
57 19 1 0.5897 -0.08401494662811881 4.18595489794757 3.142914466268547 0 0 0
121 41 2 -1.1794 -2.4072058559001217 2.524007571243651 2.5067087548008278 1 0 0
122 41 1 0.5897 -2.1382919191149137 2.1673067523557434 1.660279503282136 1 0 0
86 29 1 0.5897 -2.2303603384212787 1.8148517630643644 4.133253160279798 1 0 0
31 11 2 -1.1794 1.3254882090196247 1.2079359912706957 2.4249700686255347 0 0 0
32 11 1 0.5897 1.136606080359429 1.5120697774971785 3.3125641735513818 0 0 0
123 41 1 0.5897 -3.340601397910666 2.708807229624597 2.4035660344093603 1 0 0
46 16 2 -1.1794 2.0893392009515885 4.442084598882984 2.5747311990289283 0 0 0
70 24 2 -1.1794 3.7918856859676007 0.2645509545683409 1.2795754364726528 0 0 0
482 161 1 0.5897 -0.8076782793586266 0.027624137808316518 0.8908972055072728 1 1 0
527 176 1 0.5897 4.056621607277167 1.9244779822289164 0.5374205570388613 0 0 1
18 6 1 0.5897 5.1841133253715 4.09890254697917 0.23049945344035722 0 0 0
602 201 1 0.5897 -0.7284901902146101 5.125902894545875 0.5837146396859754 1 0 1
19 7 2 -1.1794 1.0501610597326012 2.6617969246263757 0.2102315950810959 0 0 0
33 11 1 0.5897 0.8485797679374674 0.3816516128341645 2.347751415981718 0 0 0
158 53 1 0.5897 -4.213176997494354 4.238627126786076 4.210625502234543 1 0 0
54 18 1 0.5897 3.253492577041408 3.272213804585169 3.292654401743772 0 0 0
52 18 2 -1.1794 3.9021711264925756 2.724294888008305 3.734296909047844 0 0 0
47 16 1 0.5897 1.9663719721663986 4.900373224149395 1.743572980127563 0 0 0
71 24 1 0.5897 3.0479076175014086 0.5708034462282144 1.7979125413962365 0 0 0
48 16 1 0.5897 2.1025085721228 5.137362714127432 3.2323991652018416 0 0 0
157 53 2 -1.1794 -3.651031225527597 4.861274469409362 4.671545332277929 1 0 0
603 201 1 0.5897 -0.33334593437279425 3.7139074905739187 0.20725249605500384 1 0 1
101 34 1 0.5897 -2.927897172904371 4.669694855380053 -0.0019329047676025016 1 0 0
528 176 1 0.5897 3.1936692648676797 3.0362400233307483 -0.020076542823193738 0 0 1
601 201 2 -1.1794 -1.0734574940271413 4.320687448966212 0.19799551395747295 1 0 1
163 55 2 -1.1794 -2.200790671159741 1.2828565824676288 0.021542019416772862 1 0 0
53 18 1 0.5897 4.6256325164718115 2.659332751377353 3.1111428389460594 0 0 0
72 24 1 0.5897 4.406909647549481 -0.08368225195669252 1.9249570692027018 0 0 0
78 26 1 0.5897 0.34243282567786215 2.8210197135838517 4.687724335679142 0 0 0
134 45 1 0.5897 -2.465980535524121 2.5933299818721864 6.167030691743606 1 0 0
135 45 1 0.5897 -1.863405278051924 3.76016854456102 6.920099681463808 1 0 0
159 53 1 0.5897 -3.197377588484512 4.333923806865851 5.32891022579915 1 0 0
34 12 2 -1.1794 0.17050967066546807 1.3910136078686681 7.404464495832703 0 0 0
35 12 1 0.5897 0.3720644830285207 1.873545117161076 8.20610759802354 0 0 0
36 12 1 0.5897 -0.7237271130797431 1.0749986344590998 7.532907384152404 0 0 0
124 42 2 -1.1794 -5.174400359694099 2.164623744978103 7.500549180439301 1 0 0
69 23 1 0.5897 -2.5253691564905956 1.1796547916584506 8.873247220915239 0 0 0
67 23 2 -1.1794 -2.2131213149160285 0.4256916904114909 8.373124554922141 0 0 0
58 20 2 -1.1794 2.302511766771782 4.405066767762532 6.295670500202007 0 0 0
59 20 1 0.5897 1.960543966003395 3.72598090610587 5.714263490353482 0 0 0
77 26 1 0.5897 0.7963903050247674 1.9702825700758093 5.854584178632385 0 0 0
44 15 1 0.5897 -0.6821776104645885 5.284385586714044 8.172350272751505 0 0 0
126 42 1 0.5897 -4.287775129376533 2.522848620586485 7.460692552880736 1 0 0
45 15 1 0.5897 0.45261976171795393 4.806980203132136 7.291711895250235 0 0 0
133 45 2 -1.1794 -2.697373033701077 3.328985140543869 6.733921217835615 1 0 0
606 202 1 0.5897 -6.01986695600516 4.361197816292265 9.418508082946701 1 0 0
5 2 1 0.5897 3.286929850170771 0.1524495859734628 5.478713246630054 0 0 0
60 20 1 0.5897 2.7709860649989624 3.9236369350449722 6.97742349079934 0 0 0
76 26 2 -1.1794 1.1125258249305148 2.38472783257224 5.051937442006384 0 0 0
401 134 1 0.5897 2.4880759676030966 0.024936237125837257 8.932179359793487 0 1 0
669 223 1 0.5897 -5.495279144037633 1.3263413621045546 9.038994496918496 1 0 0
43 15 2 -1.1794 -0.4987564101185775 4.909497702216244 7.31105947038834 0 0 0
98 33 1 0.5897 -3.9507653964976024 5.0386257464008715 8.31441252413851 1 0 0
97 33 2 -1.1794 -3.834280123594013 4.697428382831418 9.200983404354028 1 0 0
68 23 1 0.5897 -3.008330066708596 -0.0518903648438241 8.13723410116047 0 0 0
402 134 1 0.5897 1.397673700724317 -0.018604189842126 7.8830925480074985 0 1 0
87 29 1 0.5897 -3.2351827880375064 1.053976014346492 4.971510274886809 1 0 0
6 2 1 0.5897 3.8737122429480415 1.4817700049445146 5.054311967817106 0 0 0
85 29 2 -1.1794 -2.3569947884587408 1.433348369939767 5.0017996078643465 1 0 0
576 192 1 0.5897 0.024352079380028258 0.635442374026678 12.174934430450811 0 0 0
627 209 1 0.5897 -6.9152376815958085 2.6806553651262894 12.224259345354389 1 0 0
560 187 1 0.5897 -4.805171432105304 3.4531444674429155 12.561682066873777 0 0 0
520 174 2 -1.1794 1.7220152592489253 4.993042717726891 10.447705855737263 0 0 0
552 184 1 0.5897 -2.5314780917350435 4.651870520667026 12.410452775109967 0 0 0
561 187 1 0.5897 -4.053564622064303 3.4557702515338837 13.875647173426941 0 0 0
23 8 1 0.5897 0.6133973746179824 2.1961186735282476 10.506309168365057 0 0 0
557 186 1 0.5897 0.08274279793345585 2.9476076604336816 13.535789557717486 0 0 0
535 179 2 -1.1794 -1.634469230559625 1.2272423602456484 12.611153164172363 0 0 0
536 179 1 0.5897 -1.8789061105091394 1.6966432571505448 13.408611986283773 0 0 0
537 179 1 0.5897 -2.0025525588966095 1.752834522278969 11.901013970173919 0 0 0
523 175 2 -1.1794 -2.4491115566743766 2.5572418933028516 10.071916588718134 0 0 0
625 209 2 -1.1794 -6.021691460527558 2.3667328759255164 12.08638578330475 1 0 0
556 186 2 -1.1794 0.45903801604958083 3.693482053103889 13.068771880569388 0 0 0
667 223 2 -1.1794 -5.483177030075064 0.7613501243464361 9.811419392941984 1 0 0
668 223 1 0.5897 -5.838027386438506 1.3068623545896443 10.513218283392318 1 0 0
558 186 1 0.5897 -0.29821663167055146 4.201826622521165 12.778614327563812 0 0 0
559 187 2 -1.1794 -4.224075757787336 3.9902128509218002 13.10020155944509 0 0 0
575 192 1 0.5897 1.3931351687865954 0.009134902991028065 12.015189544328852 0 0 0
99 33 1 0.5897 -3.860982766636907 5.472590166649956 9.761821549539535 1 0 0
626 209 1 0.5897 -5.89454128583676 1.7003341029820438 12.76148067368061 1 0 0
550 184 2 -1.1794 -1.7238902224846493 5.154639073975845 12.305263245275249 0 0 0
574 192 2 -1.1794 0.7224120729208448 0.4949765173230386 11.535462600688819 0 0 0
524 175 1 0.5897 -2.9415333336193923 3.30871027378657 9.74192174262584 0 0 0
662 221 1 0.5897 -7.4564687342010325 4.328445476900102 14.139805110776175 1 0 0
589 197 2 -1.1794 -5.5770401156830065 0.6057784829162678 14.406798274214562 1 0 0
24 8 1 0.5897 0.7846051588921563 3.6643858291243907 10.179944696858371 0 0 0
525 175 1 0.5897 -1.531823688359145 2.8199686766020564 9.997336158524075 0 0 0
22 8 2 -1.1794 0.41140051988768356 2.8516515534242983 9.838842022867878 0 0 0
986 329 1 0.5897 -4.310963257008993 -0.08452316002348013 11.081187294618397 1 1 0
663 221 1 0.5897 -6.678769087599848 5.507577689157529 13.59546311986609 1 0 0
661 221 2 -1.1794 -6.839318416548117 5.012699861058097 14.398769345206578 1 0 0
522 174 1 0.5897 1.3650575000182688 5.531546208361303 9.74156721681205 0 0 0
591 197 1 0.5897 -4.866877263754025 -0.0358257209036795 14.401317291816818 1 0 0
630 210 1 0.5897 -8.497270488075419 1.8934762300660175 16.13116723445395 1 0 0
572 191 1 0.5897 -6.337517231677134 -0.13320017166248918 17.474547083803817 0 0 0
582 194 1 0.5897 -2.1184243573337147 3.007605833613154 15.339249963466298 0 0 0
165 55 1 0.5897 -9.422976026189474 0.684846239378171 18.845595450423684 1 0 -1
581 194 1 0.5897 -2.9585150785682064 1.7758742970093346 15.601267109051017 0 0 0
526 176 2 -1.1794 -2.572518407009892 2.710149417393287 19.248873550819148 0 0 0
639 213 1 0.5897 -5.74906004496245 3.700180783088572 15.38278510953863 1 0 0
590 197 1 0.5897 -5.304559206682482 1.2599057218822864 15.050224169591305 1 0 0
538 180 2 -1.1794 -3.114533055607467 0.944256703625135 17.18662744594883 0 0 0
539 180 1 0.5897 -2.8290812140302943 1.5012527735672645 17.910773202433205 0 0 0
547 183 2 -1.1794 -3.884873781135502 4.974290314852989 17.043788116778458 0 0 0
540 180 1 0.5897 -4.05423152097145 0.8300137390736197 17.327669192674133 0 0 0
638 213 1 0.5897 -6.411821855669127 2.8000367434469413 16.403459582108667 1 0 0
549 183 1 0.5897 -4.339290661567269 4.195660198177813 16.722237699403337 0 0 0
562 188 2 -1.1794 -1.342455442884705 4.267854197671425 16.485248549137136 0 0 0
571 191 2 -1.1794 -5.596367847479339 0.20939967652456787 17.973959730282196 0 0 0
564 188 1 0.5897 -2.2609016370871498 4.514565259331403 16.59281701669395 0 0 0
637 213 2 -1.1794 -5.563957607238237 2.9977211416967804 16.0059519753945 1 0 0
164 55 1 0.5897 -8.358089952586031 1.7359822458642753 18.6162192509469 1 0 -1
628 210 2 -1.1794 -8.161033480563308 2.5312725100731304 16.760692083565655 1 0 0
563 188 1 0.5897 -0.9491158564935276 5.005012891133557 16.01843131186045 0 0 0
20 7 1 0.5897 -5.505692974086974 2.0235328081634925 18.810938633534555 0 0 -1
593 198 1 0.5897 -7.656750847203304 0.5102804624859043 14.598350740228817 1 0 0
508 170 2 -1.1794 0.4372305951688453 1.1940662302417593 14.988543630765763 0 0 0
580 194 2 -1.1794 -2.8085519552673004 2.46647043343308 14.95581221864103 0 0 0
629 210 1 0.5897 -8.819688034181159 3.225579914093464 16.773958322179915 1 0 0
84 28 1 0.5897 -4.0433291800887945 5.477313913370745 18.834020404609564 0 0 -1
614 205 1 0.5897 -7.144354070539453 5.5491742010031135 17.298123627209634 1 0 0
289 97 2 -1.1794 -2.7766738607893977 10.144643315376708 2.2705692649196116 1 0 0
255 85 1 0.5897 -2.6174909359104985 9.070374967743163 3.814952508425963 1 0 0
146 49 1 0.5897 -1.2226125112222521 6.389512879705669 2.1440613558685926 1 0 0
147 49 1 0.5897 -1.0501813658914263 7.287140747263793 0.9374857500961316 1 0 0
332 111 1 0.5897 -2.510905768554582 9.15534618862184 0.6925090491551054 1 0 0
145 49 2 -1.1794 -0.5731543319621806 6.6814404603203315 1.5045957149894789 1 0 0
112 38 2 -1.1794 -3.3590233080574827 6.415742951607908 2.381249062106068 1 0 0
290 97 1 0.5897 -2.166469916628354 10.85095545776097 2.4825006792119098 1 0 0
291 97 1 0.5897 -3.6430268611805494 10.523906591559852 2.4175352418283986 1 0 0
188 63 1 0.5897 0.8906767791344805 10.091843360436824 0.9735958957077757 0 0 0
200 67 1 0.5897 0.3120442781906383 8.241345650080335 1.9745820926111133 0 0 0
221 74 1 0.5897 4.482390982853375 10.16154420405718 2.8265008200969546 0 0 0
224 75 1 0.5897 -0.39574754365291653 11.217718699397103 3.731222230700649 0 0 0
10 4 2 -1.1794 1.9076880515296546 6.4739695014295915 4.516736624705148 0 0 0
220 74 2 -1.1794 3.6968986589969948 10.550915894168249 3.210401601443441 0 0 0
222 74 1 0.5897 3.2601861251759914 10.983296541896816 2.4766682850703967 0 0 0
114 38 1 0.5897 -3.5232860786482543 5.7984025934714545 1.668501117979115 1 0 0
240 80 1 0.5897 3.3038995397281647 7.158824884797664 1.1481255134100379 0 0 0
199 67 2 -1.1794 0.9892006624584493 8.837486280104757 2.2942386935531225 0 0 0
201 67 1 0.5897 1.8137209673110863 8.411427010782521 2.060480189767776 0 0 0
83 28 1 0.5897 1.7095303519693106 6.549009086922427 0.07436795017955936 0 0 0
239 80 1 0.5897 3.630118337643694 8.603070370825336 0.8329766514372241 0 0 0
238 80 2 -1.1794 3.7123039448663757 7.9409317976946685 1.519155463101862 0 0 0
245 82 1 0.5897 0.8435806494575271 9.648485934182956 3.91554079449674 0 0 0
113 38 1 0.5897 -3.4481874846580753 5.8921654361797655 3.1774173792441887 1 0 0
187 63 2 -1.1794 0.9009047332764721 10.549661634063915 0.13320754348859926 0 0 0
174 58 1 0.5897 3.538779789899695 9.184443729169553 4.487608404084598 0 0 0
331 111 2 -1.1794 -2.1394936836522565 8.508181816813384 0.09312353143604407 1 0 0
9 3 1 0.5897 -1.0029213111705841 5.804973261180866 4.7437586937250735 0 0 0
253 85 2 -1.1794 -2.7065870227517923 8.7208043598173 4.701422336942455 1 0 0
244 82 2 -1.1794 0.6516433143851699 10.107183906355655 4.733331429054984 0 0 0
12 4 1 0.5897 0.9833232567098946 6.693673272586555 4.631965293931547 0 0 0
82 28 2 -1.1794 2.3641019459474366 5.9085352099422135 0.35257076792173625 0 0 0
254 85 1 0.5897 -2.1233335226965657 7.962153380094756 4.719998671323797 1 0 0
191 64 1 0.5897 0.07470491954616465 9.945433502792982 8.610841177494127 0 0 0
172 58 2 -1.1794 3.7629891868424075 8.482897939946108 5.098838147024498 0 0 0
110 37 1 0.5897 -4.135835838652593 6.151567520257499 5.884579957813454 1 0 0
109 37 2 -1.1794 -4.220878538091204 6.493168573199436 6.7745715239730195 1 0 0
293 98 1 0.5897 -4.410865554463156 10.277393485588204 7.089618707387296 1 0 0
837 279 1 0.5897 -6.1098488709069 8.151405848519332 9.101931158216335 1 0 0
292 98 2 -1.1794 -5.325018953656853 10.041139944560873 7.246191840282581 1 0 0
11 4 1 0.5897 2.1264481609767616 5.94609675503953 5.284535186740103 0 0 0
246 82 1 0.5897 0.4248323049988061 9.411955002201603 5.350749542422852 0 0 0
294 98 1 0.5897 -5.369721147561538 9.865052097039094 8.185854462422409 1 0 0
301 101 2 -1.1794 -2.6623597413582227 10.736688920331169 6.718415585742958 1 0 0
64 22 2 -1.1794 1.934147256637436 6.986154490554798 8.267501925223986 0 0 0
7 3 2 -1.1794 -0.8797208442210995 6.74265355741974 4.891231487461075 0 0 0
202 68 2 -1.1794 0.08592482123471212 8.477945955915146 6.9527818538076085 0 0 0
203 68 1 0.5897 -0.7969353616061303 8.314583650764122 7.284198980722437 0 0 0
204 68 1 0.5897 0.65254385516922 7.9368077930928695 7.502463638848317 0 0 0
8 3 1 0.5897 -0.7051563518929513 6.817171211137873 5.829310679023883 0 0 0
235 79 2 -1.1794 -2.385656464244359 7.833788013851772 8.125308891998804 0 0 0
236 79 1 0.5897 -3.0479127336860343 7.482606286818589 7.530187573934124 0 0 0
237 79 1 0.5897 -2.8252579364672314 8.555542283935255 8.574603594728629 0 0 0
302 101 1 0.5897 -2.5536786717124156 9.940501530453538 6.198442855001782 1 0 0
111 37 1 0.5897 -5.161680325787692 6.623279765540304 6.892720208352268 1 0 0
588 196 1 0.5897 -1.5085570741673533 6.714867683277788 9.285763599982511 0 0 0
66 22 1 0.5897 2.621257049640133 6.610159449432783 7.717516696794399 0 0 0
303 101 1 0.5897 -1.7731480859242903 11.071591245246509 6.833333907593227 1 0 0
228 76 1 0.5897 1.6639597299128495 11.17506162963785 5.930764139658334 0 0 0
65 22 1 0.5897 2.406555856982452 7.4787116875911765 8.938577126515929 0 0 0
190 64 2 -1.1794 0.012839494590552114 10.19821836881674 9.531854403818379 0 0 0
835 279 2 -1.1794 -5.4841262341223596 8.708813349237095 9.564418548793828 1 0 0
173 58 1 0.5897 3.1284980189185845 7.7907969784627165 4.913010528213956 0 0 0
257 86 1 0.5897 -4.548404725753333 8.598345922682451 5.011364889337963 1 0 0
192 64 1 0.5897 0.615857493568928 10.936366359958312 9.619229876847546 0 0 0
750 250 1 0.5897 -3.5135716804333734 10.41352226999544 14.010090971126765 0 0 0
794 265 1 0.5897 -5.538245604680902 10.381770218298831 12.165551272932614 1 0 0
836 279 1 0.5897 -4.863393023164348 8.096480777009461 9.959128492758555 1 0 0
742 248 2 -1.1794 0.40070594630994094 7.963948890805103 11.429317136769754 0 0 0
678 226 1 0.5897 0.06313552119880583 9.28092053309552 13.996758475460606 0 0 0
513 171 1 0.5897 -4.051878443412546 5.621719081755167 13.988255786465013 0 0 0
693 231 1 0.5897 -2.673506175301342 9.4540798426397 10.89202099627906 0 0 0
649 217 2 -1.1794 -4.020562258728188 6.920935924493111 10.860777858473176 1 0 0
650 217 1 0.5897 -3.4321714159827406 7.3756361348299135 11.463407428419092 1 0 0
651 217 1 0.5897 -4.797719630607605 6.727163770080924 11.38462601700758 1 0 0
795 265 1 0.5897 -6.0991389340979865 9.290547746437356 11.278805503099937 1 0 0
744 248 1 0.5897 -0.10621273430444811 7.48996290987067 10.770163152130213 0 0 0
793 265 2 -1.1794 -6.287560800053406 9.793876454997251 12.070756692638785 1 0 0
726 242 1 0.5897 -0.10927877046525136 11.08890006712264 12.47829929543916 0 0 0
759 253 1 0.5897 -5.825256495799674 8.76924489409959 13.733651357969839 1 0 0
703 235 2 -1.1794 -2.1388714674069336 8.158205647263385 12.417600706994964 0 0 0
704 235 1 0.5897 -1.1972015010828647 8.04256690729506 12.543706264914436 0 0 0
705 235 1 0.5897 -2.385992187563179 8.827364078322926 13.055742919487505 0 0 0
743 248 1 0.5897 0.3080151603389454 8.885173169630034 11.186736661193532 0 0 0
616 206 2 -1.1794 -6.726007031161627 6.266262444241302 11.938300137716247 1 0 0
724 242 2 -1.1794 0.5668424979734059 10.587712686313196 12.93406175100977 0 0 0
691 231 2 -1.1794 -2.6259803809830307 9.977074058662602 10.091899373775943 0 0 0
618 206 1 0.5897 -6.893703748039366 5.71533949083476 11.17380420586474 1 0 0
586 196 2 -1.1794 -0.8539642969116539 6.217136257247382 9.775473411754975 0 0 0
692 231 1 0.5897 -1.6932304914521832 10.159834385249583 9.979765670275823 0 0 0
551 184 1 0.5897 -1.7279866298271465 5.771389900327508 13.037172403612544 0 0 0
748 250 2 -1.1794 -2.8136018284774442 9.833013912135696 14.30858429598934 0 0 0
587 196 1 0.5897 -1.3469417389949228 5.805484411510303 10.485022211415348 0 0 0
617 206 1 0.5897 -7.294492974450941 7.026428709201751 11.81565945223227 1 0 0
654 218 1 0.5897 -9.541322321089494 7.544974241973632 18.109719719443326 1 0 0
695 232 1 0.5897 -3.0756730904372223 9.966712425532704 18.319966279127822 0 0 0
741 247 1 0.5897 -6.034214834376481 8.90165755065123 18.537445885871183 0 0 0
333 111 1 0.5897 -8.525222123171343 9.038188987397973 18.61622813254948 1 0 -1
740 247 1 0.5897 -6.381833903815956 7.695215792830047 17.691652054872353 0 0 0
568 190 2 -1.1794 -1.5536772897538178 6.987795949472326 17.833503247342033 0 0 0
805 269 2 -1.1794 -5.847137566354258 10.783297327525064 15.760106174124772 1 0 0
615 205 1 0.5897 -7.232716818725903 6.079297793417616 15.883048680912584 1 0 0
569 190 1 0.5897 -1.5668439132001017 6.136859467677115 18.27146826639356 0 0 0
512 171 1 0.5897 -4.7631327255286084 6.820859501572299 14.57791184899332 0 0 0
797 266 1 0.5897 -7.265735313775135 10.33176791057362 16.796722003263213 1 0 0
749 250 1 0.5897 -3.2058258758169105 9.331997947121119 15.023504174587964 0 0 0
758 253 1 0.5897 -5.821781811057017 9.03851525706624 15.22321789578908 1 0 0
613 205 2 -1.1794 -7.328759601826434 6.343971947664942 16.797773228804797 1 0 0
796 266 2 -1.1794 -8.09700770641292 9.913321611510286 17.02007361632354 1 0 0
706 236 2 -1.1794 -3.330385627245353 8.83260393076081 16.785591154152456 0 0 0
707 236 1 0.5897 -4.088441725803958 8.423408051026092 17.202581517969943 0 0 0
708 236 1 0.5897 -2.622344790728113 8.198913462419148 16.900281818566786 0 0 0
739 247 2 -1.1794 -5.69983099881818 8.047794997060574 18.263196544665966 0 0 0
511 171 2 -1.1794 -3.9624934658404936 6.302191848981828 14.655395166947898 0 0 0
798 266 1 0.5897 -8.431110821328492 9.582902180288613 16.186258044523665 1 0 0
757 253 2 -1.1794 -5.9153486436957525 8.334537877549122 14.581515039785346 1 0 0
731 244 1 0.5897 -1.7212149108766583 11.040289967958872 15.261524524277958 0 0 0
694 232 2 -1.1794 -2.9542028724164773 10.231560251016521 19.231625236469334 0 0 0
676 226 2 -1.1794 0.1030112984510092 8.588731843082197 14.656524084800784 0 0 0
570 190 1 0.5897 -0.8208591411209003 6.930858430143899 17.22060026058175 0 0 0
515 172 1 0.5897 -2.1067043981897564 6.588836815959313 14.668946256663991 0 0 0
516 172 1 0.5897 -0.7023880089567784 7.149894594107475 14.601658228864695 0 0 0
514 172 2 -1.1794 -1.1858857080903222 6.330060414577591 14.702750059112393 0 0 0
677 226 1 0.5897 0.18578747195307344 9.054741558702899 15.488422865618126 0 0 0
762 254 1 0.5897 -7.831288150225623 8.393002298250753 14.565292467343918 1 0 0
548 183 1 0.5897 -4.0871969282690745 5.653177398621124 16.400186074663733 0 0 0
189 63 1 0.5897 -4.832061827036746 10.603880341885263 19.175952304147806 0 0 -1
696 232 1 0.5897 -2.5024505629266693 11.073728723332547 19.178787788238747 0 0 0
280 94 2 -1.1794 -3.410200161449484 13.586853878435672 2.697943605870008 1 0 0
281 94 1 0.5897 -3.4749882046435236 13.402142437993257 3.6347731102271834 1 0 0
282 94 1 0.5897 -2.532484549206489 13.951540346066942 2.5854688308716876 1 0 0
313 105 2 -1.1794 -1.153968316865348 14.719499688157738 1.6377156144481877 1 0 0
315 105 1 0.5897 -0.8260210519090592 14.010204087567285 1.085061115017436 1 0 0
243 81 1 0.5897 4.019339723673639 12.14146468929828 4.014316118779508 0 0 0
178 60 2 -1.1794 1.9090724979098486 13.93686891036802 4.715851543387324 0 0 0
500 167 1 0.5897 -1.9718583903918756 16.171576422135395 0.5392006814074417 1 0 0
368 123 1 0.5897 1.913690507345267 16.449263814383986 2.2527044414831052 0 0 0
180 60 1 0.5897 1.9952276469495995 13.465061759392956 3.88758683923602 0 0 0
407 136 1 0.5897 4.0460837169815544 15.112742457424352 1.8427423520571486 0 0 0
223 75 2 -1.1794 -0.6640231393502756 11.933808085079818 3.155636489381191 0 0 0
225 75 1 0.5897 -1.0122849961098304 12.600183661725778 3.747852995187033 0 0 0
314 105 1 0.5897 -0.40013787229345477 15.296359202970443 1.7604608574539418 1 0 0
214 72 2 -1.1794 1.9047673624885597 12.579693339559112 2.306412615002005 0 0 0
367 123 2 -1.1794 0.9647341043422228 16.496323030075544 2.3677683764848876 0 0 0
252 84 1 0.5897 2.5158008532770753 14.521465520753196 0.4576871258935024 0 0 0
406 136 2 -1.1794 3.343490945688453 15.72198876408821 1.616435214418435 0 0 0
408 136 1 0.5897 3.7639247526855453 16.37694228051253 1.0594154486831924 0 0 0
216 72 1 0.5897 1.0478996844530917 12.20888249726868 2.516779685527647 0 0 0
215 72 1 0.5897 1.874589774684015 12.73303132110382 1.36221194121835 0 0 0
423 141 1 0.5897 -3.0795245741339414 16.684339110745412 4.120906188077881 1 0 0
184 62 2 -1.1794 5.23168977984475 12.353184110028327 0.16352038638345204 0 0 0
499 167 2 -1.1794 -2.7403290166159042 16.70854634796126 0.3464479458657885 1 0 0
369 123 1 0.5897 0.8466932601622874 16.933508485091973 3.2109393040645937 0 0 0
269 90 1 0.5897 -3.5295250510148963 13.031973942781624 0.9055535986073087 1 0 0
404 135 1 0.5897 -1.84723024345752 15.992871204969955 7.897433619899737 0 0 0
176 59 1 0.5897 -1.468892907008054 14.86369630370164 5.125737780926374 0 0 0
179 60 1 0.5897 2.0845089338304366 13.277407058632667 5.38694990797815 0 0 0
327 109 1 0.5897 -4.458042874898988 13.208550533854128 5.864748034828019 1 0 0
340 114 2 -1.1794 3.254900582907756 16.26127223890792 5.215760044237785 0 0 0
211 71 2 -1.1794 -0.46071799293960414 12.412512358044294 7.325192678380307 0 0 0
690 230 1 0.5897 1.6966799344893406 13.117898492137202 9.421422053877423 0 0 0
213 71 1 0.5897 -0.6465019297844754 13.06654599751379 6.651575473075603 0 0 0
212 71 1 0.5897 -0.7006829653509459 12.839945326817489 8.147223970404145 0 0 0
233 78 1 0.5897 2.4339158334833524 14.370302046807303 7.503570722621237 0 0 0
232 78 2 -1.1794 1.883715099302215 14.502673206114055 8.27538551517993 0 0 0
318 106 1 0.5897 -6.555496675671508 15.16565823433611 9.235389502067642 1 0 0
234 78 1 0.5897 1.117862779295546 14.973031077492214 7.946317634923075 0 0 0
370 124 2 -1.1794 -0.27048530510998336 16.274380993724577 7.160680523978437 0 0 0
226 76 2 -1.1794 2.0905796400896914 11.683546886511534 6.620365396348949 0 0 0
277 93 2 -1.1794 -4.571149580593169 14.015482143363311 7.452879848047127 1 0 0
278 93 1 0.5897 -3.9194021462364645 14.698205866036844 7.611768126901141 1 0 0
265 89 2 -1.1794 -4.14660104730657 12.292558885213879 9.592146548112073 1 0 0
405 135 1 0.5897 -2.871281883825767 16.554292295636113 8.860411191474197 0 0 0
403 135 2 -1.1794 -2.6431010089447726 15.761101228021058 8.375785260355135 0 0 0
279 93 1 0.5897 -5.409656818927397 14.434827236131756 7.645320953073808 1 0 0
267 89 1 0.5897 -4.110194245490924 12.684623683157469 8.719827855968585 1 0 0
227 76 1 0.5897 1.3682912200844015 12.067859279681603 7.116915191428023 0 0 0
341 114 1 0.5897 2.827451341028013 15.407035262095565 5.154814999746289 0 0 0
326 109 1 0.5897 -3.5886551557586444 11.99162618786131 5.630694568115075 1 0 0
756 252 1 0.5897 -1.7878686702547388 14.451176734978004 9.241167041183209 0 0 0
372 124 1 0.5897 -0.1440302437563501 16.660184203360036 6.29400434973733 0 0 0
325 109 2 -1.1794 -4.201098354787579 12.580388682256872 5.189872831046021 1 0 0
175 59 2 -1.1794 -1.0491548669721125 14.003564243398003 5.115978421442419 0 0 0
177 59 1 0.5897 -0.1189632673635832 14.191926729431726 4.9924360571049675 0 0 0
266 89 1 0.5897 -3.5405022662593435 11.55309993873698 9.548429426684761 1 0 0
425 142 1 0.5897 -4.636078879741787 15.812847419415844 5.424823110817948 1 0 0
422 141 1 0.5897 -2.4197984723785675 16.859966754261603 5.471959358578533 1 0 0
421 141 2 -1.1794 -2.873309737476677 16.215098493368114 4.9291688485554435 1 0 0
371 124 1 0.5897 0.01212464684027914 16.95602001641692 7.770297822966244 0 0 0
754 252 2 -1.1794 -1.0414145019783394 13.924948202032812 9.527424375077034 0 0 0
925 309 2 -1.1794 -5.983258333472078 16.018838969287543 14.09020790305798 1 0 0
831 277 1 0.5897 -7.731554296805014 12.068129623955217 13.891559236989147 1 0 0
912 304 1 0.5897 1.0167524542903088 15.429878219868765 11.318650358505481 0 0 0
718 240 2 -1.1794 -1.6007201177942436 12.297316675006112 11.874944594376531 0 0 0
1005 335 1 0.5897 -4.677080957777947 16.11102196836292 10.089733569230582 1 0 0
720 240 1 0.5897 -1.3695954683758682 12.88500376026275 12.59419511452082 0 0 0
755 252 1 0.5897 -0.430076591020375 14.55929239506263 9.9016105651428 0 0 0
871 291 2 -1.1794 -2.305916310123819 16.381389849579673 12.30855634288125 0 0 0
684 228 1 0.5897 -0.4278539170029205 14.551540032578254 14.398264342554095 0 0 0
784 262 2 -1.1794 -6.445637662613482 14.025558293836358 11.954455979853595 1 0 0
729 243 1 0.5897 -4.3871417191847755 12.18335859074441 13.141627360904762 0 0 0
911 304 1 0.5897 -0.37991969661062797 15.984289258626788 11.5009657311763 0 0 0
910 304 2 -1.1794 0.31679258939843136 15.886449663610293 10.85215525506388 0 0 0
680 227 1 0.5897 -2.9280336552787487 14.305996895737033 14.041379552084821 0 0 0
773 258 1 0.5897 -6.996881153449573 12.827960763413559 10.725647133571483 1 0 0
719 240 1 0.5897 -1.4947743000608393 12.829681036761643 11.086686452130603 0 0 0
786 262 1 0.5897 -6.69835409579558 13.529268835404595 12.732792355124852 1 0 0
817 273 2 -1.1794 -3.8159397663622023 14.375758135314308 11.189374215081317 1 0 0
818 273 1 0.5897 -4.699033543240011 14.36634726561181 11.558183303572294 1 0 0
819 273 1 0.5897 -3.7472551385155635 13.550064517371728 10.710175583176875 1 0 0
873 291 1 0.5897 -2.8742848495859983 15.680891547313141 11.98855142175248 0 0 0
728 243 1 0.5897 -3.6445268052984603 11.608431327228857 11.9545119998676 0 0 0
785 262 1 0.5897 -7.139860604654001 14.675868150643401 11.848569363089071 1 0 0
727 243 2 -1.1794 -4.350691351471999 11.415728786440928 12.571063306616116 0 0 0
829 277 2 -1.1794 -6.939979527339485 12.524544233842994 14.176510908247664 1 0 0
682 228 2 -1.1794 -1.0550149635562756 13.863108211348774 14.177263846125575 0 0 0
1003 335 2 -1.1794 -5.539210589851493 16.501969815337056 9.948593108139308 1 0 0
688 230 2 -1.1794 1.79857880404803 12.357750580783108 9.994002057713542 0 0 0
917 306 1 0.5897 -2.8064658509245586 16.97413497217765 13.786102695312707 0 0 0
926 309 1 0.5897 -5.215671314219113 15.44743460969096 14.107836025167567 1 0 0
679 227 2 -1.1794 -3.830776833542455 14.256367885855079 14.355320945693352 0 0 0
774 258 1 0.5897 -5.904990218392313 12.304077514727778 9.817597133892919 1 0 0
846 282 1 0.5897 0.10109878617596557 16.748633814143048 14.054435924589159 0 0 0
872 291 1 0.5897 -2.3015962374658914 17.02809813827127 11.603030302121956 0 0 0
930 310 1 0.5897 -7.90482869656547 15.797512825518657 14.365286122976475 1 0 0
875 292 1 0.5897 -3.387875664169539 16.617873975198155 15.970187379298062 0 0 0
769 257 2 -1.1794 -7.410684231175306 12.623686886918884 19.13505280532627 1 0 0
717 239 1 0.5897 -3.052259209539007 12.433051014102912 16.68119332666795 0 0 0
737 246 1 0.5897 -1.2036566114958598 15.22235572540567 18.486160653837825 0 0 0
830 277 1 0.5897 -7.219993017160466 13.042497858223017 14.931063501468035 1 0 0
681 227 1 0.5897 -3.7680783939998905 13.801630256259172 15.195115369023743 0 0 0
730 244 2 -1.1794 -1.525770453681777 11.750439558983901 15.872765651530283 0 0 0
738 246 1 0.5897 -0.8297400765710616 14.528720428162144 17.193710917391638 0 0 0
715 239 2 -1.1794 -3.981503744494958 12.65971952754701 16.71449402034733 0 0 0
716 239 1 0.5897 -4.0998201938271706 13.061205069217424 17.575208873981722 0 0 0
874 292 2 -1.1794 -3.5272403147484344 16.32177109237416 16.869548642755703 0 0 0
907 303 2 -1.1794 -6.1300089355132545 15.737456464750212 17.688066101779704 0 0 0
783 261 1 0.5897 -8.602580117563125 14.112406644085889 16.652063729515653 1 0 0
876 292 1 0.5897 -2.8330912107218484 15.680553422976423 17.021404461284146 0 0 0
736 246 2 -1.1794 -1.5538780741442038 14.643905013360595 17.808762666478806 0 0 0
909 303 1 0.5897 -5.320882097153049 15.813517367638438 17.182623266243596 0 0 0
781 261 2 -1.1794 -7.7404899705144805 13.723675553213203 16.504835015748903 1 0 0
782 261 1 0.5897 -7.490213110632565 13.36530907842672 17.3562692554054 1 0 0
965 322 1 0.5897 -8.767939542112096 16.92147249338813 16.301337072599733 1 0 0
908 303 1 0.5897 -6.695240073917398 15.179669082407106 17.153719967488193 0 0 0
927 309 1 0.5897 -5.7803505940748625 16.71272054291031 14.717494415524833 1 0 0