LAMMPS data file via write_data, version 30 Jul 2021, timestep = 31500000

864 atoms
2 atom types
576 bonds
1 bond types
288 angles
1 angle types

0.7153853265598276 17.49218707344086 xlo xhi
1.934160690022578 21.695017109974415 ylo yhi
0.872768427469369 21.340427372512835 zlo zhi

Masses

1 1.00794
2 15.9994

Pair Coeffs # lj/cut/tip4p/long/omp

1 0 0
2 0.21084 3.1668

Bond Coeffs # harmonic/omp

1 450 0.9572

Angle Coeffs # harmonic/omp

1 55 104.52

Atoms # full

102 1 1 0.5897 2.6143097189322106 2.777199800441399 4.8593671510147445 0 -6 -3
101 1 1 0.5897 1.9581442437183427 2.500909839988046 3.5233453103081542 0 -6 -3
100 1 2 -1.1794 2.089343573524207 3.190588970270199 4.174003955791335 0 -6 -3
347 1 1 0.5897 4.879264186122813 2.350931240856701 2.682444011572305 -2 2 -2
166 1 2 -1.1794 2.842115866176819 5.225535218504115 2.504900099539449 -1 -4 0
168 1 1 0.5897 2.5887655574525885 4.611620298449502 3.1942285203636187 -1 -4 0
44 1 1 0.5897 4.549113773608074 4.726611665293843 4.8166373448783695 -3 5 0
372 1 1 0.5897 4.117521090865502 6.766343003981003 2.60663950656299 2 10 -1
167 1 1 0.5897 2.0868336933600737 5.806015123607695 2.4110008390767748 -1 -4 0
163 1 2 -1.1794 4.290793535150671 3.2276476056346612 1.2411258515512575 -3 1 4
861 1 1 0.5897 2.9083797456307705 2.2654505514927834 1.500161545013825 -6 -3 -1
164 1 1 0.5897 3.7845460151277535 4.015297128699736 1.440001165478575 -3 1 4
552 1 1 0.5897 0.9547041251934645 3.0036810321249114 0.9112472840188951 2 7 -5
677 1 1 0.5897 4.458822471988176 2.992405713753639 8.557194213460491 0 2 -5
306 1 1 0.5897 1.3169966978944063 2.572645776306401 7.261174934522266 4 2 -3
182 1 1 0.5897 1.9763272193278156 5.422723244134884 10.089396311105729 -3 2 1
793 1 2 -1.1794 1.7464671581262508 4.2948554716335785 7.068075006419763 -1 -1 5
795 1 1 0.5897 2.2011496151547236 4.510850369071177 7.882225521178117 -1 -1 5
183 1 1 0.5897 1.883957187166846 3.9181328520736605 9.949621988231218 -4 2 1
48 1 1 0.5897 2.7858719438821673 5.690819759897626 6.182130219240616 8 0 -1
47 1 1 0.5897 4.100948850551502 5.844412056619313 6.916201643343309 8 0 -1
181 1 2 -1.1794 2.44125296350004 4.665651075475163 9.733122478879782 -4 2 1
678 1 1 0.5897 4.353555958434305 2.8593964798727938 7.0528279261343485 0 2 -5
558 1 1 0.5897 4.354289823247418 4.609987655099181 10.541271790929505 2 -8 1
700 1 2 -1.1794 4.605366991026161 1.9582044337598985 9.970994891652651 3 3 0
794 1 1 0.5897 0.8835207704063919 4.698510716308636 7.160771047278839 -1 -1 5
676 1 2 -1.1794 4.785573448503573 3.367516527364785 7.739431331950156 0 2 -5
46 1 2 -1.1794 3.591107350383425 6.208261454543737 6.1924060254214295 8 0 -1
854 1 1 0.5897 1.6813508085663447 3.7076788802840444 12.864975557464327 -1 0 0
108 1 1 0.5897 4.1667453483089805 5.455494307491346 15.787436537757273 2 1 3
74 1 1 0.5897 2.5290338809593402 5.557337972621319 14.288866703405485 -9 -1 -1
456 1 1 0.5897 3.8230662323961573 3.1782100636768353 14.610613879050575 -5 -3 2
855 1 1 0.5897 1.1384475429523946 3.963874554559769 14.25474561813946 -1 0 0
853 1 2 -1.1794 1.106377612235321 4.293932136822473 13.35683456447831 -1 0 0
455 1 1 0.5897 4.24447080463132 2.2251420411840273 15.708757763603035 -5 -3 2
73 1 2 -1.1794 2.918306722167589 6.360476364803695 14.634775083687716 -9 -1 -1
454 1 2 -1.1794 3.4770919809939738 2.6605940415777685 15.337651384192243 -5 -3 2
75 1 1 0.5897 2.2306784108167426 6.745894992435279 15.177766290648139 -9 -1 -1
84 1 1 0.5897 4.85219938911579 3.8722903827744606 12.497753956405646 4 -11 -4
82 1 2 -1.1794 4.896017798239798 3.9931091307238478 13.446312090346273 4 -11 -4
568 1 2 -1.1794 2.7711939332562068 1.9595684042730923 12.291894286925341 4 -4 0
165 1 1 0.5897 4.560624950989663 3.3395990586165336 20.797266341124015 -3 1 3
841 1 2 -1.1794 2.362357590882439 4.2608616408298134 19.18974901420762 -7 0 1
618 1 1 0.5897 1.2938269070360038 3.7889671817768926 16.947093594016927 7 1 -2
842 1 1 0.5897 2.149747728873206 5.180133362037196 19.02868043478346 -7 0 1
107 1 1 0.5897 3.937734142902944 4.107710353073337 16.43773144905745 2 1 3
81 1 1 0.5897 4.113580595834556 3.774961738661794 19.016811913759085 0 3 -3
106 1 2 -1.1794 4.225081208274769 5.000770235850988 16.6276953688783 2 1 3
843 1 1 0.5897 1.7547697726904974 3.9911309288136207 19.878446732817707 -7 0 1
247 1 2 -1.1794 2.3334441315165373 10.911501860296731 5.903766252951944 -8 2 -3
174 1 1 0.5897 4.6500871937050405 9.874074655955681 4.374487617294831 2 -3 2
537 1 1 0.5897 1.9404821833795978 9.44913507855739 3.359893220251028 7 6 -1
290 1 1 0.5897 1.8289817018428345 8.251061050713828 1.603591917135315 -5 -9 -8
756 1 1 0.5897 2.479252238976604 11.72350187388925 3.945056274443797 -5 -4 -7
173 1 1 0.5897 4.084757628289543 8.885542594632788 3.3769646760845453 2 -3 2
489 1 1 0.5897 4.146820132855174 10.677555987676028 2.1967851970057874 5 -7 5
172 1 2 -1.1794 3.921142641373926 9.743777485308765 3.7679568842508067 2 -3 2
437 1 1 0.5897 1.197170412934596 7.8911311910438355 4.893269503760221 0 5 1
436 1 2 -1.1794 0.9594596726330513 7.2443985269566555 5.557699862644326 0 5 1
535 1 2 -1.1794 1.1168051463550066 8.969017218566993 3.2747692319285515 7 6 -1
289 1 2 -1.1794 2.495592269723355 8.159253096787449 0.9228373634582703 -5 -9 -8
358 1 2 -1.1794 0.9101989441928113 11.71723427359641 1.1020764133846177 11 0 2
360 1 1 0.5897 1.4907006356856902 11.687882508367796 1.8625864299355313 11 0 2
487 1 2 -1.1794 4.683112335422274 11.02108933695153 1.482225272556851 5 -7 5
370 1 2 -1.1794 4.832398054236688 7.348726031242492 2.863522153641605 2 10 -1
326 1 1 0.5897 3.6319932072500203 8.1121640457801 6.536582851058558 6 -7 -3
500 1 1 0.5897 3.333600344899282 9.471499996759754 8.90082295830073 0 1 -4
35 1 1 0.5897 3.3882953455961746 7.471817907999883 10.162492506089883 -3 2 1
499 1 2 -1.1794 3.138022094394948 10.394942158665911 9.059588208652496 0 1 -4
501 1 1 0.5897 2.32604766765511 10.38460005773665 9.566336606764741 0 1 -4
317 1 1 0.5897 1.3606438788180446 7.64478328218102 8.796173285554586 -4 -9 -2
34 1 2 -1.1794 3.1788318453865956 7.55234398090764 9.231959228969902 -3 2 1
248 1 1 0.5897 1.7305454778970788 10.799589987343964 6.638750080590702 -8 2 -3
376 1 2 -1.1794 1.0490659982270134 10.578189078601794 10.844169254679878 2 6 2
36 1 1 0.5897 3.8770082588485484 7.072477183451481 8.786426945087861 -3 2 1
325 1 2 -1.1794 4.087058721158112 8.931739206820707 6.730052457600667 6 -7 -3
249 1 1 0.5897 3.0280145503337486 10.272589342453017 6.063686049991645 -8 2 -3
377 1 1 0.5897 0.7627519181260425 11.40678269375642 10.459821039037028 2 6 2
94 1 2 -1.1794 2.2716001016413734 9.630274526741932 14.051587878200454 -8 2 5
656 1 1 0.5897 1.2639625505772951 8.535911395976647 13.239571251694835 -3 1 2
96 1 1 0.5897 2.4327673183491454 10.460749729396083 13.603771096947922 -8 2 5
461 1 1 0.5897 1.8559135768763315 10.125976006897945 15.659006193972582 2 -2 -1
264 1 1 0.5897 4.103367715483575 8.197712730122122 12.026466666222875 -1 -1 9
95 1 1 0.5897 3.129727565667641 9.207965732988692 14.090195260501252 -7 2 5
262 1 2 -1.1794 3.7741824356440787 7.2994151971784165 12.056566809679996 -1 -1 9
598 1 2 -1.1794 4.621336963877221 11.500215939542164 15.533601149659223 -1 -5 -9
378 1 1 0.5897 1.6966073116167295 10.830144334513864 11.502532485407155 2 6 2
600 1 1 0.5897 4.592325131858068 10.655861348224866 15.083675370178707 -1 -5 -9
263 1 1 0.5897 3.4158056474274385 7.204604450467986 12.939054440746036 -1 -1 9
851 1 1 0.5897 4.70539766774398 8.429267651050267 15.791172832919907 -8 -4 -4
850 1 2 -1.1794 4.750386516236267 8.829578093279828 14.922880428279592 -8 -4 -4
681 1 1 0.5897 0.7472353263246134 6.902894454577536 11.394246303443522 -7 -3 -1
625 1 2 -1.1794 2.7760045642404334 11.712103047800772 12.64907274392686 -5 -1 -3
223 1 2 -1.1794 3.3461034192836507 8.031988108503974 17.494221694305693 0 -2 -9
324 1 1 0.5897 1.9776411087624504 10.900799291064454 20.34235808661169 12 -2 0
224 1 1 0.5897 3.8253948710299674 8.324632314250543 18.269380839232007 0 -2 -9
322 1 2 -1.1794 2.341407074378387 10.278597870387586 19.712463837034534 12 -2 0
201 1 1 0.5897 4.146476898291065 7.561934709756502 20.813514263040396 6 -4 -2
323 1 1 0.5897 1.5794177535161689 9.813372122475238 19.367290199262094 12 -2 0
291 1 1 0.5897 2.4519608066050522 8.979861857779127 20.899677521286932 -5 -9 -9
675 1 1 0.5897 1.6445140599194192 7.3245161134097865 19.975425369526725 -2 -9 -2
462 1 1 0.5897 2.3052575524067707 9.6629570409218 17.028520963767114 2 -2 -1
460 1 2 -1.1794 1.7414464768603284 10.302124229826013 16.592857838978535 2 -2 -1
329 1 1 0.5897 4.168327108657667 10.9795026600058 18.914615880484916 2 8 -2
674 1 1 0.5897 1.9169981650280252 7.335075076743349 18.48630986472724 -2 -9 -2
599 1 1 0.5897 4.546740726729665 11.280057651363705 16.46214075096674 -1 -5 -9
225 1 1 0.5897 3.6159809503470735 7.121435455660261 17.374763745414192 0 -2 -9
673 1 2 -1.1794 1.357983494551878 6.9321999195476085 19.15068867237025 -2 -9 -2
199 1 2 -1.1794 4.784020418618809 7.438965576740947 20.110209478407022 6 -4 -2
328 1 2 -1.1794 4.75824421184831 10.712427877597989 18.20972304900596 2 8 -2
138 1 1 0.5897 4.544921454932404 14.650704928186206 1.9592743719198686 6 -12 -2
136 1 2 -1.1794 4.533674119436171 14.126986818363502 2.7603994377624526 6 -12 -2
754 1 2 -1.1794 2.4411586542445987 12.246280247188396 3.144116180232536 -5 -4 -7
137 1 1 0.5897 4.1896299952817 14.718955439533035 3.42928914528869 6 -12 -2
834 1 1 0.5897 4.51799656617227 16.300633114780577 5.183774755172082 -3 -12 5
833 1 1 0.5897 3.1379604236664553 15.735845170035986 5.445257610867465 -3 -12 5
755 1 1 0.5897 3.2114330626540615 12.812624649279122 3.1903580257597595 -5 -4 -7
158 1 1 0.5897 2.352877414036035 15.506297995564685 1.1042975704469444 4 4 0
832 1 2 -1.1794 3.755855064184248 15.928507097973275 4.740064083521286 -3 -12 5
714 1 1 0.5897 1.2244828229340101 13.571987230751095 2.9919644341629676 -8 -1 4
320 1 1 0.5897 2.644818742838019 12.231215979003812 8.873412009714622 5 1 -3
602 1 1 0.5897 3.327073805763038 13.66665307106319 6.677953231822297 3 3 -5
692 1 1 0.5897 3.777843451013295 16.30442394367622 8.780567268961828 1 2 1
691 1 2 -1.1794 4.046223524094625 15.672506283733943 8.113583958106938 1 2 1
693 1 1 0.5897 4.846697340965795 16.04218483378885 7.741032138088018 1 2 1
1 1 2 -1.1794 1.2992156307124665 15.375876292055283 6.261192915529998 -4 -9 4
309 1 1 0.5897 1.7046347225729324 14.055566246971766 10.113560068011454 4 11 -3
321 1 1 0.5897 1.2755973703034136 12.583856129775983 8.332280508033236 5 1 -3
2 1 1 0.5897 1.3162204863484401 15.722495292406437 7.153262289926448 -4 -9 4
864 1 1 0.5897 1.2144797089757193 16.146783562229373 9.105833111982271 8 -7 5
319 1 2 -1.1794 2.093210283410964 12.97706483427129 8.637458511016701 5 1 -3
5 1 1 0.5897 4.887908868332215 14.533527508861528 9.217297012239477 4 1 1
307 1 2 -1.1794 1.6171557503902267 14.88105892291309 10.590131286153895 4 11 -3
104 1 1 0.5897 3.1606118911403955 16.68082514616215 10.851596409237363 -5 -3 7
603 1 1 0.5897 3.344478435613841 12.288454776494195 6.051772628046873 3 3 -4
601 1 2 -1.1794 3.851919539730858 13.09759834160117 6.114988841364193 3 3 -4
390 1 1 0.5897 2.587602184979663 15.216358595694713 13.442140707715188 -4 8 7
271 1 2 -1.1794 2.127056435987779 13.691237122811572 14.658967874734413 -2 3 0
273 1 1 0.5897 2.8478240223181706 13.245612382379788 15.104074569040916 -2 3 0
205 1 2 -1.1794 4.592498221426018 15.108920189715283 16.16483615642258 -8 2 -5
388 1 2 -1.1794 3.223203252560143 15.27667139553977 12.728991168441413 -4 8 7
389 1 1 0.5897 3.994749198278602 14.813636342439773 13.055373169347853 -4 8 6
308 1 1 0.5897 2.3054257067608037 14.848683778575811 11.254564072210274 4 11 -3
626 1 1 0.5897 2.60520612784327 12.406184278351786 13.285693132701185 -5 -1 -3
272 1 1 0.5897 1.338921612774786 13.254211875986336 14.981574634136479 -2 3 0
209 1 1 0.5897 1.8882615982949489 16.487233428621522 16.01826209976434 1 -2 3
627 1 1 0.5897 3.6761111906603 11.865879789288842 12.362073021995439 -5 -1 -3
206 1 1 0.5897 3.8328487517259435 15.504746025267911 15.73767420726759 -8 2 -5
65 1 1 0.5897 4.282321985854289 16.71080059637063 13.090774944423568 3 -3 -9
690 1 1 0.5897 3.8966453017854916 13.621679570947569 20.35353068882594 -2 2 5
689 1 1 0.5897 4.000742249728072 12.151707910036082 20.700231641011072 -2 2 5
279 1 1 0.5897 2.2307590767392136 12.77432868583305 18.923882504930937 2 5 0
423 1 1 0.5897 1.4904017966871845 14.69614638354712 17.746976996607735 -6 -2 7
688 1 2 -1.1794 3.8540614710876793 12.747636515351251 19.965665025220588 -2 2 5
157 1 2 -1.1794 2.0418509084775653 15.089230666702468 20.76849522616316 4 4 -1
159 1 1 0.5897 1.5108585467210602 14.352358734256038 21.07062652874403 4 4 -1
421 1 2 -1.1794 1.0145715948001541 15.395847949454762 17.299512961428448 -6 -2 7
277 1 2 -1.1794 1.8257094863349044 12.783590244177843 18.056656059641668 2 5 0
99 1 1 0.5897 2.3102634698580475 16.392855777027357 19.431160165244947 9 -12 5
278 1 1 0.5897 1.961249395203097 11.898238132721412 17.71903164443939 2 5 0
171 1 1 0.5897 1.1358228428540755 19.95898012382949 4.393341615150661 -4 6 -6
141 1 1 0.5897 2.3792264608018563 18.240437680404213 5.338281040906637 -5 -2 0
162 1 1 0.5897 1.2589751718365647 17.389442022524506 2.340995419387766 5 13 3
140 1 1 0.5897 3.537045756634093 18.667451810314084 4.461384165013222 -5 -2 0
276 1 1 0.5897 3.2296444611872723 17.700423574419244 1.7042145498832832 2 -5 -4
860 1 1 0.5897 2.5001929248612433 20.600779945224446 1.1950729121249861 -6 -4 -1
859 1 2 -1.1794 2.159439242286213 21.430899748904537 1.5282309239264822 -6 -4 -1
139 1 2 -1.1794 2.6148218948176436 18.851320202474902 4.640050953323945 -5 -2 0
458 1 1 0.5897 4.01878655979496 20.493886453143126 5.920629127235008 2 2 -4
275 1 1 0.5897 3.2191055071349144 16.82143777624695 2.936735858341361 2 -5 -4
274 1 2 -1.1794 2.8710154082420423 16.881890614153424 2.047136518033101 2 -5 -4
459 1 1 0.5897 2.93851258670893 21.286622980511666 6.6253273944021664 2 2 -4
258 1 1 0.5897 1.2124838592774143 19.486694002999364 10.314348642461221 2 -2 0
103 1 2 -1.1794 3.573440303535144 17.32500389912358 10.276436275776351 -5 -3 7
226 1 2 -1.1794 2.33975582030714 18.543593655785116 7.409275681289724 -3 -2 -5
227 1 1 0.5897 2.0400075373747955 19.42750590498985 7.196953277241721 -3 -2 -5
228 1 1 0.5897 3.279508546497938 18.639532378061745 7.5637925536660315 -3 -2 -5
256 1 2 -1.1794 1.8047336117600743 19.545577921009595 11.064028828661556 2 -2 0
105 1 1 0.5897 2.9296056615676083 18.029591713573893 10.20407082462692 -5 -3 7
863 1 1 0.5897 1.3672570385326817 17.20276437644179 8.03187023607694 8 -7 5
304 1 2 -1.1794 1.4061113488020252 21.415408726233927 7.516864695785165 4 1 -3
305 1 1 0.5897 1.0292494325949821 21.373382611851248 8.395743899408963 4 1 -3
457 1 2 -1.1794 3.7261273865789915 21.38918475437712 6.091113179720088 2 2 -4
669 1 1 0.5897 4.670337797403441 20.27911119312229 8.78005329232576 -5 -5 -4
701 1 1 0.5897 4.010066447871843 21.471168896902928 10.678372740786347 3 2 0
570 1 1 0.5897 3.4630541195794065 21.310574419949248 12.811092046204546 4 -5 0
210 1 1 0.5897 2.7540729116269635 17.727591566362694 15.957180661414773 1 -2 3
569 1 1 0.5897 2.2733479087182973 20.985868836666192 11.932992005056974 4 -5 0
257 1 1 0.5897 1.4820527137806407 18.885206006235748 11.677263933068733 2 -2 0
431 1 1 0.5897 1.463441589924776 20.412309708148186 14.0381036453108 -5 0 -3
187 1 2 -1.1794 4.777953375580651 20.135465522785744 13.704200242860049 -4 3 6
430 1 2 -1.1794 1.5668159416225893 20.348464181564026 14.987550142213005 -5 0 -3
189 1 1 0.5897 4.744150568158211 19.217507634615473 13.435100980457273 -4 3 6
566 1 1 0.5897 1.6196334073636525 17.651119145862843 13.977721826938668 3 10 -12
836 1 1 0.5897 3.070386544874171 19.782070863964037 15.958955823208587 3 7 1
188 1 1 0.5897 4.699337003805832 20.109056263910496 14.657786690156943 -4 3 6
432 1 1 0.5897 1.8270641539804984 21.228279028745824 15.260324961835611 -5 0 -3
64 1 2 -1.1794 4.854137788158087 17.469299791965604 13.208801851295478 3 -3 -9
208 1 2 -1.1794 2.547350760794658 16.924476939053584 15.479167620734739 1 -2 3
565 1 2 -1.1794 1.155744185150728 17.978693472429015 13.207191846001162 3 10 -12
435 1 1 0.5897 2.5245232910098663 21.128645653476838 18.979196291172947 2 7 0
231 1 1 0.5897 3.165260533491856 18.70395011097873 20.45748767393608 -3 7 2
837 1 1 0.5897 3.8815561262940097 19.91746935727256 17.230062070457173 3 7 1
98 1 1 0.5897 1.8493073226122414 17.548891916258633 18.569217299023343 9 -12 5
444 1 1 0.5897 0.8726696901681972 19.603618191125562 17.737426883050233 3 6 -3
433 1 2 -1.1794 3.4104125970755983 20.8680701595244 18.727128853777792 2 7 0
97 1 2 -1.1794 2.5379536664416396 17.288222914738025 19.18079574278039 9 -12 5
660 1 1 0.5897 4.327975942355052 17.04006341050005 18.677786117011102 3 -1 2
434 1 1 0.5897 3.967922456512762 21.202070965169654 19.429881487323804 2 7 0
52 1 2 -1.1794 0.7930579052972593 20.98730160727871 18.88423933864871 -5 -1 4
442 1 2 -1.1794 0.7651864150801817 18.700920886498373 17.437705145629316 3 6 -3
230 1 1 0.5897 4.40218247161569 19.292047178497654 21.102468479556876 -3 7 2
229 1 2 -1.1794 3.4664353310410005 19.152391352467838 21.24768267554363 -3 7 2
835 1 2 -1.1794 3.8562544565280903 19.451612676635378 16.39422535327027 3 7 1
337 1 2 -1.1794 6.959908508108942 5.527723355125138 2.6051869657741182 6 5 -1
338 1 1 0.5897 6.250026707604214 5.11462314145626 3.096738913178083 6 5 -1
339 1 1 0.5897 7.717570928997464 5.475005946477811 3.187750605737006 6 5 -1
238 1 2 -1.1794 7.377199192942624 3.0455063442236243 1.0497705710719616 -7 -7 7
240 1 1 0.5897 7.297141507319253 3.7281199372113427 1.7159815835860757 -7 -7 7
343 1 2 -1.1794 7.9686346314474745 2.208827320460443 4.160281399255156 2 1 2
45 1 1 0.5897 5.854918810712964 4.425926261494443 5.5211118793142395 -3 5 0
43 1 2 -1.1794 5.377429706313118 4.259289898633908 4.7084365443937 -3 5 0
344 1 1 0.5897 7.9184135079807945 2.2699470470427627 5.114193205132787 2 1 2
345 1 1 0.5897 7.123569770513667 2.5377698624955136 3.8539066099979737 2 1 2
239 1 1 0.5897 6.489285673555072 2.7021178462419235 0.9501346026708665 -7 -7 7
371 1 1 0.5897 5.627648410665322 6.870498729552634 2.6288263376359398 2 10 -1
348 1 1 0.5897 5.299562543879391 2.516923866730238 4.127306582027517 -2 2 -2
357 1 1 0.5897 8.78774318447863 4.071414612346798 6.566706018535398 -1 2 2
115 1 2 -1.1794 8.662620309072441 3.576289378610263 9.130589215149975 -5 -10 1
746 1 1 0.5897 6.53117382775002 5.476478730780056 7.3501503985835885 3 4 -8
117 1 1 0.5897 8.01189871554742 3.0806157858397305 8.633495011853308 -5 -10 1
349 1 2 -1.1794 7.133577663202782 2.265082509993022 6.803892467763019 -12 -3 1
57 1 1 0.5897 5.58498716962854 5.680070414272608 9.310956964994134 -1 -8 1
351 1 1 0.5897 6.336069654734565 2.601878276745664 7.212249356531241 -12 -3 1
745 1 2 -1.1794 7.109940631420682 5.189189704434085 6.643964984068254 3 4 -8
55 1 2 -1.1794 5.6018264122982355 6.294306214091498 8.577018490329003 -1 -8 1
23 1 1 0.5897 8.96200554992394 5.479919178466863 9.311384973244733 -6 0 3
747 1 1 0.5897 7.214984348852363 5.962741785789391 6.090080689992583 3 4 -8
702 1 1 0.5897 5.4655037790486185 2.0090388592461275 10.387906415654774 3 3 0
556 1 2 -1.1794 5.216425231251355 4.864360325922616 10.870268401004418 2 -8 1
282 1 1 0.5897 8.37946491072018 4.022768380075006 11.057012961186505 2 0 6
24 1 1 0.5897 8.79597558500581 6.828479142967069 9.978993477071262 -6 0 3
280 1 2 -1.1794 8.575367855470972 4.615376525339284 11.782722800169113 2 0 6
17 1 1 0.5897 8.342814760913086 6.480126603086737 11.86882891559197 0 7 2
471 1 1 0.5897 5.849790908710537 5.8494095699354105 13.594353235627473 3 1 2
237 1 1 0.5897 6.974189678440921 6.060888292291432 15.339774831945702 -7 -8 3
235 1 2 -1.1794 7.730420113229106 5.75683049874437 15.841641883062897 -7 -8 3
83 1 1 0.5897 5.7624119061817 3.667234920936703 13.689978407578502 4 -11 -4
425 1 1 0.5897 7.644673458852521 4.151806323189053 14.885253855918094 1 -6 5
424 1 2 -1.1794 7.61321159640255 3.5148230124368087 14.171482036243745 1 -6 5
426 1 1 0.5897 7.886924170857754 4.007565659980033 13.397858695807855 1 -7 5
469 1 2 -1.1794 6.124622577327768 6.747611175320523 13.77870537781249 3 1 2
563 1 1 0.5897 9.037279396352211 6.756558467706889 14.850173116482368 -1 5 8
557 1 1 0.5897 5.050554890289106 5.643831565025877 11.400487632689085 2 -8 1
634 1 2 -1.1794 8.292696156062838 3.1991604132545346 17.5154606959004 -6 3 1
503 1 1 0.5897 6.738734010459136 6.056809346736117 19.21256771490706 -10 2 7
502 1 2 -1.1794 6.637720611561038 5.534140013787569 18.41707054584605 -10 2 7
636 1 1 0.5897 7.702251198682717 3.7881937873135367 17.985165403378907 -6 3 1
236 1 1 0.5897 7.381320045334202 5.572325067405721 16.713593275540774 -7 -8 3
252 1 1 0.5897 8.612259616130324 3.9895688602179575 20.57060757189334 0 -2 6
38 1 1 0.5897 8.584994943883881 6.119715129173724 20.468157211959557 -2 2 -5
504 1 1 0.5897 5.758310831391451 5.1622308310510885 18.484335877973336 -10 2 7
635 1 1 0.5897 8.682084489755077 2.6542085078647073 18.199296493716346 -6 3 1
698 1 1 0.5897 6.79894458536373 2.3210934964209717 17.117322820018863 3 -1 -10
79 1 2 -1.1794 5.011771162245962 3.4989267825356487 19.199200718417615 0 3 -3
80 1 1 0.5897 5.174209075646555 2.786666500116855 18.58073342014756 0 3 -3
397 1 2 -1.1794 6.411203648029894 7.630487488606452 5.358868090081708 4 3 -3
398 1 1 0.5897 5.675247616251677 7.082498859007122 5.0863188401105415 4 3 -3
399 1 1 0.5897 6.803439474279149 7.930683264535316 4.53896698883282 4 3 -3
29 1 1 0.5897 8.046435459278523 9.059810816572327 2.4990661944751076 -13 4 5
622 1 2 -1.1794 6.173442088519346 10.50186150721795 5.212440705897169 5 6 6
624 1 1 0.5897 6.8147525853252295 9.91791874711388 4.807542809395657 5 6 6
623 1 1 0.5897 6.250063117488805 11.319922846264864 4.72134910918648 5 6 6
28 1 2 -1.1794 7.881163548721628 8.447410606152538 3.215905915225442 -13 4 5
30 1 1 0.5897 8.747040019093415 8.266976562622421 3.5818362630955782 -13 4 5
488 1 1 0.5897 5.443106318396037 11.407793579429821 1.9170586215754801 5 -7 5
270 1 1 0.5897 9.064908804190766 11.52058785673275 5.2503389713687465 -1 4 4
39 1 1 0.5897 7.703169792781047 6.929930867915691 0.926666565162706 -2 2 -4
69 1 1 0.5897 6.750181183704964 8.606052273192876 8.907669223778601 4 2 -7
682 1 2 -1.1794 7.9698431916663335 8.3774376115176 7.588199604893688 11 2 -7
14 1 1 0.5897 6.254487048159897 11.093427006766078 7.139220032233084 0 -4 0
683 1 1 0.5897 7.490977647056297 7.90901156675082 6.904477396508037 11 2 -7
67 1 2 -1.1794 6.4051751853913945 8.619969305811935 9.800413351843815 4 2 -7
215 1 1 0.5897 8.668726866090736 9.80831899911281 7.006119787921743 -2 0 1
684 1 1 0.5897 8.543284113662008 7.716155440382068 7.975600233091443 11 2 -7
56 1 1 0.5897 5.7321755745906495 7.150871216161887 8.983867813176749 -1 -8 1
327 1 1 0.5897 4.944654457888018 8.833513874208954 6.316396405445041 6 -7 -3
375 1 1 0.5897 8.411035468089782 11.384388977661263 9.868633125234771 11 11 5
68 1 1 0.5897 7.158724412567768 8.4104430897258 10.352202380547288 4 2 -7
13 1 2 -1.1794 5.775776910707751 11.431509466964155 7.896033762686385 0 -4 0
150 1 1 0.5897 5.390469194257883 9.423625017311736 10.936691521269527 -5 0 5
374 1 1 0.5897 7.0379785331135905 11.482452348922546 9.238492181289494 11 11 5
15 1 1 0.5897 4.96374434154893 10.924987422785419 7.9121982034389635 0 -4 0
593 1 1 0.5897 5.358110954265809 11.479297726645514 11.765985882051801 6 -4 -8
470 1 1 0.5897 6.801592599262599 6.9299806681228615 13.12703793395697 3 1 2
440 1 1 0.5897 7.260705356802932 11.483952108696393 13.243989059756162 1 1 1
382 1 2 -1.1794 7.969737213226268 9.815734320192728 15.859334075760792 -6 -1 -1
441 1 1 0.5897 7.18453821435017 10.371215803880759 14.267658649168721 1 1 1
439 1 2 -1.1794 7.066547693611598 10.551078090615476 13.334953273150536 1 1 1
149 1 1 0.5897 5.635075230222525 9.819902179242554 12.377171611440065 -5 0 5
18 1 1 0.5897 8.482390742534701 7.6691799062329835 12.79539046542365 0 7 2
852 1 1 0.5897 5.236064354944524 8.198035884858095 14.392326371676612 -8 -4 -4
16 1 2 -1.1794 8.03594922843687 7.377166393580952 12.0006440166386 0 7 2
148 1 2 -1.1794 4.934598351621107 9.644658194087102 11.748812846362256 -5 0 5
242 1 1 0.5897 8.783105091623069 10.449399792417744 13.001792064771976 -6 -6 -3
383 1 1 0.5897 8.770265942650628 10.242893898145034 16.164221087357433 -6 -1 -1
611 1 1 0.5897 8.350573706708971 9.751263916522698 20.750506573885538 3 2 -4
37 1 2 -1.1794 8.133398789159779 6.960636520653185 20.539828616628924 -2 2 -5
313 1 2 -1.1794 6.665132416169999 9.562032347853991 20.182370050294175 0 0 -6
496 1 2 -1.1794 7.265620057753585 8.08173447848046 17.95395868108161 0 7 0
497 1 1 0.5897 7.535819882361328 8.164028453685674 18.86852202500095 0 7 0
314 1 1 0.5897 6.377570595384516 9.830039346984133 19.309624042729588 0 0 -6
200 1 1 0.5897 5.336650457208357 8.219602426423208 20.14806114778169 6 -4 -2
498 1 1 0.5897 6.891330150850908 7.202908430858198 17.892446984319832 0 7 -1
363 1 1 0.5897 8.758639414051139 11.251872871114061 18.613996017309226 0 -2 -1
384 1 1 0.5897 7.6954717523031535 9.267278335923846 16.59433847251824 -6 -1 -1
507 1 1 0.5897 9.06696822593243 7.30421646051132 18.07713386040451 0 3 -2
315 1 1 0.5897 6.173419976091368 10.124849564941847 20.780417369959466 0 0 -6
330 1 1 0.5897 5.401601333336494 11.419026361662333 18.154554989250457 2 8 -2
195 1 1 0.5897 6.802383836369233 14.78306422432738 4.489275149617077 5 -1 6
520 1 2 -1.1794 6.4227301526700735 13.35732126061923 5.392888642230262 4 2 -6
193 1 2 -1.1794 7.235392953388219 15.203447413892517 3.7463079717846206 5 -1 6
705 1 1 0.5897 6.621546688795475 13.181276528118486 3.035785683564752 7 -6 1
703 1 2 -1.1794 6.988831982918703 12.386272273174358 2.649420005076271 7 -6 1
396 1 1 0.5897 8.76549521645081 14.65757643818236 2.6305707911397773 3 1 2
380 1 1 0.5897 6.402622026974186 16.512286416315426 2.6032294744388027 5 6 -1
704 1 1 0.5897 7.7796876692427395 12.214330325126326 3.160483615365921 7 -6 1
194 1 1 0.5897 7.628539393790969 15.994907663085865 4.114124318589458 5 -1 6
521 1 1 0.5897 5.48069916597058 13.360300183195253 5.562517495382684 4 2 -6
268 1 2 -1.1794 9.070142272414785 11.97159704245917 4.40608213355817 -1 4 4
395 1 1 0.5897 8.858066209747621 15.186666892041922 1.2151326248576932 3 1 3
758 1 1 0.5897 7.224578400409987 12.966449173196404 1.042413393236636 0 1 1
381 1 1 0.5897 5.516052929137669 16.592359359761563 1.3787070949054623 5 6 -1
340 1 2 -1.1794 8.694092997281537 15.817422469796465 6.609463563007296 3 7 0
522 1 1 0.5897 6.822841446246528 13.316035541564366 6.261463204063565 4 2 -6
541 1 2 -1.1794 7.373350693260713 15.466273014228255 9.775392933460905 -7 3 -3
542 1 1 0.5897 6.779255457529195 16.21115200856577 9.68362460325862 -7 3 -3
342 1 1 0.5897 8.836685252654107 16.349288081069133 7.3924373186809795 3 7 0
608 1 1 0.5897 8.288560325996922 12.9941861482199 8.38812074936006 3 3 4
607 1 2 -1.1794 8.564571635640117 13.167550237388259 7.48811068196792 3 3 4
609 1 1 0.5897 8.732716624129525 12.301161621141034 7.117559966394667 3 3 4
4 1 2 -1.1794 5.213129583832879 13.76565207968017 9.68722166524062 4 1 1
341 1 1 0.5897 8.721296709219988 14.914070147339398 6.924793938540364 3 7 0
6 1 1 0.5897 5.1457263658802335 13.050679294559632 9.054382302805156 4 1 1
543 1 1 0.5897 6.811150755423456 14.69761705203786 9.67890826822367 -7 3 -3
845 1 1 0.5897 7.11828951246745 16.231220926276368 6.823788480565493 2 2 5
594 1 1 0.5897 5.0420936953072255 12.777150799736713 11.053543074673094 6 -4 -8
373 1 2 -1.1794 7.617848935701573 11.920170938816113 9.86172049984694 11 11 5
844 1 2 -1.1794 6.234332711226633 16.58414303041221 6.925171330750997 2 2 5
407 1 1 0.5897 8.19493012761666 16.390667679567315 12.930778813251383 -5 -2 5
416 1 1 0.5897 7.908513536699096 12.795525581879689 11.547357241174801 -4 -1 -3
408 1 1 0.5897 7.579071857724508 16.020175418827268 11.598382530556577 -5 -2 5
478 1 2 -1.1794 7.185904106123862 12.703019200302636 15.493156009699405 -7 9 -5
265 1 2 -1.1794 7.51274952564249 15.688445624464272 15.614440024419439 -3 1 -1
415 1 2 -1.1794 8.191874572987189 13.05021750893229 12.425473965729209 -4 -1 -3
406 1 2 -1.1794 7.574570074084381 15.784398029516938 12.52606479785199 -5 -2 5
828 1 1 0.5897 6.035116521065714 15.039783419427508 13.177038549280223 2 -1 -2
827 1 1 0.5897 5.519665251324426 13.625887252101624 13.012617382372632 2 -1 -2
826 1 2 -1.1794 5.5486767080768145 14.353533069048119 13.63382045491744 2 -1 -2
479 1 1 0.5897 6.36232823987262 12.242589132730949 15.654253238162605 -7 9 -5
417 1 1 0.5897 7.953311376084359 13.974516533738857 12.495954508254199 -4 -1 -3
480 1 1 0.5897 6.929412111448847 13.495963463565513 15.022347502764399 -7 9 -5
266 1 1 0.5897 7.0156858768478845 16.505931772480746 15.584722576841706 -3 1 -1
592 1 2 -1.1794 5.090295587420439 12.384395445439727 11.925106425200104 6 -4 -8
585 1 1 0.5897 8.957718404752942 12.51298255669561 15.774805292551275 3 -5 6
207 1 1 0.5897 5.044172329701442 14.638962206328207 15.463872695240426 -8 2 -5
721 1 2 -1.1794 5.69794513001719 13.455485952602295 18.060149368444698 0 -7 -1
125 1 1 0.5897 7.237305235280107 14.473200712164324 18.528553486100883 2 3 1
124 1 2 -1.1794 7.824484933339126 15.22347153970557 18.43620445758495 2 3 1
816 1 1 0.5897 5.740335559663686 14.745439937871511 20.55001594652981 -8 8 2
757 1 2 -1.1794 6.952926713392626 13.303413775341948 20.656335381090642 0 1 0
759 1 1 0.5897 7.324665757180817 12.686803145709922 20.025615175251858 0 1 0
267 1 1 0.5897 7.346634041313665 15.33827698004989 16.48965380751382 -3 1 -1
126 1 1 0.5897 7.761854473370895 15.681781843447567 19.274221186943656 2 3 1
145 1 2 -1.1794 7.935430322157519 16.657730218792935 20.756993044992115 3 6 -3
723 1 1 0.5897 5.199873418196809 14.054498310235221 17.503971245601768 0 -7 -1
814 1 2 -1.1794 5.038440366910502 15.393991578874866 20.495908598953193 -8 8 2
815 1 1 0.5897 5.312685005365266 15.986593376687553 19.796038952137472 -8 8 2
659 1 1 0.5897 5.005647817000544 16.283450355395324 17.555182016799797 3 -1 2