LAMMPS data file via write_data, version 30 Jul 2021, timestep = 4500000

864 atoms
2 atom types
576 bonds
1 bond types
288 angles
1 angle types

0.04476491976669372 18.162807480236484 xlo xhi
0.06149619223119629 23.56768160777111 ylo yhi
0.16304349909691673 22.05015230090458 zlo zhi

Masses

1 1.00794
2 15.9994

Atoms # full

707 1 1 0.5897 2.982424421552905 1.6183309361152256 4.300217236583069 0 0 0
706 1 2 -1.1794 3.0652045803623844 1.5887411400779872 3.347010925225843 0 0 0
30 1 1 0.5897 5.226401125886981 3.7457640654898134 2.945518847613491 0 0 0
708 1 1 0.5897 2.3171393086092724 2.0919577766882833 3.02539712975556 0 0 0
29 1 1 0.5897 4.376385825932691 2.4953507718185324 2.8679599534926843 0 0 0
28 1 2 -1.1794 5.164367963721299 2.898759234732275 2.5038032706094127 0 0 0
846 1 1 0.5897 7.499674964870224 1.7581623278845373 5.130916769434138 0 0 0
495 1 1 0.5897 7.990502634389176 2.157098933088255 3.094926928216561 0 0 0
136 1 2 -1.1794 5.043138011627703 5.4770016931911085 3.2336521445256916 0 0 0
494 1 1 0.5897 6.490614186171693 1.9851235120780293 2.982476156996614 0 0 0
493 1 2 -1.1794 7.257208557101456 1.655840417254099 3.4517006166943265 0 0 0
597 1 1 0.5897 0.48648132850000414 5.504073459648552 3.726997874513655 0 0 0
1 1 2 -1.1794 0.9363532633075916 2.8042761866511094 2.2466780846229457 0 0 0
20 1 1 0.5897 0.6237063354846343 2.969686051922863 0.41201387585755234 0 0 0
668 1 1 0.5897 5.175230518294345 3.005567672428836 0.7777280756847902 0 0 0
595 1 2 -1.1794 0.47824278791856695 5.366286745448218 2.7797332695270383 0 0 0
137 1 1 0.5897 5.095266784791563 5.609231522012937 4.180291490936169 0 0 0
181 1 2 -1.1794 0.46233534329607917 5.495061332575546 5.45160998801423 0 0 0
3 1 1 0.5897 0.7548558985070679 3.742878074931119 2.2968835561446768 0 0 0
2 1 1 0.5897 0.08828286554282272 2.387296986630069 2.398931305645733 0 0 0
176 1 1 0.5897 8.861078255115636 2.407499696653425 9.636391217562732 0 0 0
785 1 1 0.5897 0.6411799288434774 3.1202428389124206 7.3618035184250745 0 0 0
784 1 2 -1.1794 0.6302694819002282 2.9512617655331157 6.41965054423618 0 0 0
844 1 2 -1.1794 7.693690361732603 1.8612221538706715 6.062609659349959 0 0 0
674 1 1 0.5897 3.5689402551108658 2.0310324772142785 10.095338457209811 0 0 0
356 1 1 0.5897 7.469763790524226 0.2543425943561284 10.251958783626517 0 0 0
488 1 1 0.5897 2.3338262665804566 2.3897916780606914 6.080026085529765 0 0 0
845 1 1 0.5897 7.655394844306332 0.9722153185677938 6.415502402839068 0 0 0
35 1 1 0.5897 0.7394053523281648 4.1244371116918686 9.413726067517048 0 0 0
84 1 1 0.5897 6.2150436578278825 2.5937008083990643 6.738495918178252 0 0 0
355 1 2 -1.1794 7.6077447487018 1.2004952656694208 10.297926356025846 0 0 0
274 1 2 -1.1794 5.233525487826179 2.559492491418639 9.603731261189472 0 0 0
678 1 1 0.5897 4.995180699207884 4.408544435152456 9.96030632346027 0 0 0
675 1 1 0.5897 2.428753777349281 1.0352283462105434 10.114933060799384 0 0 0
36 1 1 0.5897 1.401280298199398 2.7733558368264037 9.582852361603013 0 0 0
673 1 2 -1.1794 2.7168996111571393 1.8637693648208133 10.498189027591971 0 0 0
686 1 1 0.5897 5.450595199651936 4.658587960766117 6.422303301034086 0 0 0
82 1 2 -1.1794 5.4453139408395455 3.064172886785633 7.058541218383828 0 0 0
276 1 1 0.5897 5.951305761053941 1.9763808014933233 9.850796349280273 0 0 0
83 1 1 0.5897 4.715018266128829 2.6957431395907943 6.561315888737074 0 0 0
275 1 1 0.5897 5.320765246934429 2.65919873522371 8.655697013379633 0 0 0
183 1 1 0.5897 0.34437634308673626 4.6563213271346875 5.897657063849026 0 0 0
676 1 2 -1.1794 4.96448101218453 5.328239723382711 10.2240485328563 0 0 0
34 1 2 -1.1794 0.6527160497315903 3.2030650578642654 9.169002358775257 0 0 0
677 1 1 0.5897 5.807962667361675 5.685765308425724 9.946623856567168 0 0 0
489 1 1 0.5897 3.0489008819366976 1.0675177550057489 6.260082599214046 0 0 0
487 1 2 -1.1794 3.1726793067900303 1.955554988282411 5.924799436133803 0 0 0
687 1 1 0.5897 4.614448000377151 5.909371923163349 6.25340683856941 0 0 0
685 1 2 -1.1794 5.4469081116031886 5.514571950291174 5.9937845298723476 0 0 0
528 1 1 0.5897 8.242930895121212 5.903415124502358 9.826787085033317 0 0 0
166 1 2 -1.1794 3.154678667474005 2.1502680608749443 13.122494757884303 0 0 0
167 1 1 0.5897 2.8983227843358956 1.9479265446958922 12.22268688540661 0 0 0
457 1 2 -1.1794 5.089560329944903 3.3124580290923213 14.321638500016949 0 0 0
458 1 1 0.5897 5.9452383725640905 2.989447493090113 14.039285838981325 0 0 0
459 1 1 0.5897 4.4627795364500535 2.848007665005189 13.766919671166532 0 0 0
762 1 1 0.5897 4.962667112410233 4.850740170275413 13.54944306444593 0 0 0
468 1 1 0.5897 0.8534128595694758 3.55914613312542 15.140732640203726 0 0 0
168 1 1 0.5897 2.3688285601461785 2.5289446478233324 13.516572979478909 0 0 0
594 1 1 0.5897 8.2024389163858 2.2569700992441537 13.304628345017788 0 0 0
365 1 1 0.5897 0.7722720292738002 4.694829370435331 13.208832874499272 0 0 0
593 1 1 0.5897 7.389433359541746 0.9799154666953394 13.289142597971884 0 0 0
592 1 2 -1.1794 7.3529992673635185 1.9035604312396839 13.040373068132821 0 0 0
466 1 2 -1.1794 0.9426281542404352 3.219935498940651 14.250057657014365 0 0 0
71 1 1 0.5897 5.053497841172057 3.3010769177198087 16.19414570891812 0 0 0
851 1 1 0.5897 9.030927960116006 5.50827780161356 13.132947384918774 0 0 0
760 1 2 -1.1794 4.963565662147644 5.689056524096368 13.087282037636529 0 0 0
761 1 1 0.5897 4.799769443716397 5.459046172528537 12.172630431328269 0 0 0
364 1 2 -1.1794 0.6604633388503046 5.549972161427339 12.793394718207695 0 0 0
737 1 1 0.5897 3.041943630263732 0.350189957758318 13.440490271611766 0 1 0
357 1 1 0.5897 7.695582705263584 1.3850722759577963 11.23309430097634 0 0 0
467 1 1 0.5897 0.07550419663652498 2.8753828098860956 14.036474874173692 0 0 0
754 1 2 -1.1794 7.368529537047189 1.6914424833791715 17.678318120087937 0 0 0
291 1 1 0.5897 2.0078353788381786 2.0972725761698054 17.443371731037125 0 0 0
667 1 2 -1.1794 5.274322054137611 3.0696959072650443 21.714895110783516 0 0 0
755 1 1 0.5897 7.361792155728235 1.7899953686702166 18.63045554908033 0 0 0
278 1 1 0.5897 5.2302925981490445 4.827498004504507 17.81343595154552 0 0 0
290 1 1 0.5897 2.8315634579783433 0.8449913318188216 17.230428692626134 0 0 0
289 1 2 -1.1794 2.785497610367787 1.6393998843968367 17.762529546365712 0 0 0
41 1 1 0.5897 6.580021931868213 2.364054761112957 20.88577816027088 0 0 0
143 1 1 0.5897 4.975812777292973 4.765270979795954 20.92828350597282 0 0 0
569 1 1 0.5897 2.2031330021843623 2.405640075799038 20.658028257368024 0 0 0
142 1 2 -1.1794 4.626857366009592 5.5567457698708935 20.51826387004008 0 0 0
570 1 1 0.5897 2.9240785210564195 1.8123891340394638 19.466236743268368 0 0 0
40 1 2 -1.1794 7.366500707012272 1.9832325417108727 20.495033712959604 0 0 0
360 1 1 0.5897 8.79991947725702 2.9094330936801573 21.198417284224732 0 0 0
19 1 2 -1.1794 0.6947027627457496 2.9832210784448985 21.344608272053854 0 0 0
42 1 1 0.5897 7.497584096968502 1.1628210646202783 20.970510241914795 0 0 0
568 1 2 -1.1794 3.029509309848038 1.997599888976872 20.399459750176277 0 0 0
21 1 1 0.5897 0.5559905815581322 3.89998297301235 21.106597000518065 0 0 0
669 1 1 0.5897 4.413493811319404 2.836212141854173 21.3674819105552 0 0 0
134 1 1 0.5897 0.7323192212852417 4.22343111965601 17.38012324752671 0 0 0
72 1 1 0.5897 4.404430613271477 2.684043616468551 17.414854941891818 0 0 0
756 1 1 0.5897 6.619068006653278 2.2059000712855332 17.37847895599655 0 0 0
646 1 2 -1.1794 0.4618861977108095 5.567222185494786 20.607177224673073 0 0 0
133 1 2 -1.1794 0.6297866550432614 3.32422630219257 17.068259740828793 0 0 0
70 1 2 -1.1794 5.1718471662485115 3.184112354711266 17.1368282758472 0 0 0
648 1 1 0.5897 0.5680787032684219 5.638812434517758 19.658531719336125 0 0 0
277 1 2 -1.1794 5.416626791064429 5.764844332079367 17.868449575415397 0 0 0
144 1 1 0.5897 4.929600442539606 5.510671641909662 19.611326789559975 0 0 0
81 1 1 0.5897 3.1756120435184916 0.30164210594260865 21.271876744145693 0 1 0
599 1 1 0.5897 8.90345496183122 2.3113068802628045 17.128257996312364 0 0 0
711 1 1 0.5897 8.965315290448673 5.790721152542321 17.16463708133186 0 0 0
217 1 2 -1.1794 5.221581402651884 10.87215504742382 2.036490195737339 0 0 0
123 1 1 0.5897 2.9446786426795106 8.745357691573844 3.0819580770141055 0 0 0
121 1 2 -1.1794 3.0811082221041852 9.665561335109699 3.307664386897096 0 0 0
122 1 1 0.5897 3.1900250242787203 9.665801715377356 4.258699024116356 0 0 0
44 1 1 0.5897 1.3679214141595553 10.350958677024092 2.844281813878791 0 0 0
218 1 1 0.5897 5.988615647482873 10.38203596363945 2.332643272227707 0 0 0
773 1 1 0.5897 8.776564016199183 10.763735894112179 2.3608784345324363 0 0 0
219 1 1 0.5897 4.483519947458816 10.453191169458334 2.479205364617694 0 0 0
396 1 1 0.5897 1.0101124361808251 11.149478399311379 0.30202484377561345 0 0 0
415 1 2 -1.1794 7.461491880616462 6.747094801476688 1.8701616635021405 0 0 0
43 1 2 -1.1794 0.7771804787475853 10.93205793204648 2.365080261024277 0 0 0
254 1 1 0.5897 2.5912672382598347 7.145856767991872 1.5444175751226639 0 0 0
416 1 1 0.5897 6.704882151152602 6.297625888864563 2.246703125974905 0 0 0
66 1 1 0.5897 7.450879640454791 9.583009399651568 3.9284792255876075 0 0 0
65 1 1 0.5897 7.5856497253353075 8.641840596232012 2.750258268942277 0 0 0
64 1 2 -1.1794 7.573100141522097 9.57125246247395 2.9791379790201313 0 0 0
417 1 1 0.5897 8.213282963726835 6.386416311803076 2.3402981400331826 0 0 0
253 1 2 -1.1794 2.7463523931217493 6.915401395385657 2.460483864851503 0 0 0
255 1 1 0.5897 2.0413597215752235 6.305220729649917 2.677127892251711 0 0 0
45 1 1 0.5897 0.965568415736366 11.804423618864664 2.711248082460124 0 0 0
138 1 1 0.5897 4.346234071029282 6.067239653057684 2.9468977903637295 0 0 0
14 1 1 0.5897 0.8483749581630413 11.652608898348756 9.959626411248543 0 0 0
552 1 1 0.5897 1.007027073890284 11.799925755146848 6.857615904707681 0 0 0
12 1 1 0.5897 2.6094724668392755 7.546509714452226 6.050415011295812 0 0 0
551 1 1 0.5897 0.8976929210647724 10.740035686603495 7.933212059163465 0 0 0
526 1 2 -1.1794 7.491664229003302 6.460108080307532 9.621969289157834 0 0 0
550 1 2 -1.1794 0.931693345636425 10.853949097362023 6.983360542267811 0 0 0
145 1 2 -1.1794 7.361833095047845 7.313012265788289 7.043303080668898 0 0 0
11 1 1 0.5897 1.9597738811802388 6.180705318404769 6.118372002921073 0 0 0
794 1 1 0.5897 2.2461341312524676 9.849281539076298 6.290455617033091 0 0 0
165 1 1 0.5897 8.974786133005747 6.583522152161082 6.350514681688155 0 0 0
650 1 1 0.5897 3.127451307090132 7.219140488003085 8.181395836500501 0 0 0
651 1 1 0.5897 3.9713232571193537 6.704961134490783 9.328374054987854 0 0 0
527 1 1 0.5897 7.6421412080294875 7.260801913798693 10.124537441723964 0 0 0
15 1 1 0.5897 1.603533667102771 10.341076924460243 10.000903777491207 0 0 0
582 1 1 0.5897 5.202962425329861 10.982377636019777 8.440485103490369 0 0 0
820 1 2 -1.1794 7.350728429515335 9.221241180075046 10.396104344200387 0 0 0
581 1 1 0.5897 6.018986648090523 10.401283070511965 9.575602466277601 0 0 0
147 1 1 0.5897 7.46463887469663 7.170870645812021 7.984340111103331 0 0 0
649 1 2 -1.1794 3.204195593272639 7.243918266922817 9.13524436171055 0 0 0
13 1 2 -1.1794 0.7738879620530384 10.728366728386968 9.72171360511774 0 0 0
713 1 1 0.5897 8.040732525545632 10.177188855295334 6.131717923832585 0 0 0
258 1 1 0.5897 3.865028743160031 10.059220479816275 10.150916577756814 0 0 0
114 1 1 0.5897 1.5378963397515457 6.449681936314575 9.575749194767505 0 0 0
257 1 1 0.5897 3.1230603339972007 8.741646233008465 10.225802504959976 0 0 0
822 1 1 0.5897 8.147602542885924 9.548838790056179 9.97901667186013 0 0 0
580 1 2 -1.1794 5.2520048863095345 10.945023043221209 9.395744525063144 0 0 0
578 1 1 0.5897 5.785988271319129 10.486575499994649 6.265169423015843 0 0 0
577 1 2 -1.1794 5.102283745579433 10.933801404882896 6.763977117383404 0 0 0
146 1 1 0.5897 6.737751968967453 6.642239508010851 6.766033490127359 0 0 0
10 1 2 -1.1794 2.7915797921808845 6.631370220107524 6.264196773344553 0 0 0
795 1 1 0.5897 3.753690896829112 9.962293060446077 6.370179571307741 0 0 0
256 1 2 -1.1794 3.1472182463560086 9.619525557240452 10.606691394442233 0 0 0
714 1 1 0.5897 7.212239437245931 8.912811024848342 6.215911181747071 0 0 0
793 1 2 -1.1794 3.0533024010615404 9.406700779390473 6.028064895480414 0 0 0
712 1 2 -1.1794 7.269510279558916 9.751220729616985 5.757497250642658 0 0 0
579 1 1 0.5897 4.856309279247574 11.680548190510844 6.217849716791029 0 0 0
112 1 2 -1.1794 0.7144459871402256 6.069064325764794 9.881221588042433 0 0 0
113 1 1 0.5897 0.8383996785047634 5.953440988939915 10.823352510216276 0 0 0
259 1 2 -1.1794 1.0844885839907557 10.947258650696597 13.816242138704977 0 0 0
225 1 1 0.5897 2.9050758947576005 7.0187587737308625 15.830229382098835 0 0 0
332 1 1 0.5897 3.046037973505117 7.931985923352121 13.809024649406203 0 0 0
797 1 1 0.5897 3.4670310593945866 9.74165603663615 12.267570349497236 0 0 0
796 1 2 -1.1794 3.477655076970143 9.695292179257157 13.22364025867623 0 0 0
798 1 1 0.5897 2.660809841239263 10.115214110215629 13.493362010420276 0 0 0
722 1 1 0.5897 5.006165130296897 10.380748390607044 13.838720307281386 0 0 0
827 1 1 0.5897 6.742324213156198 6.450521479316886 13.271937645331615 0 0 0
723 1 1 0.5897 5.6115618350051655 10.791003016269142 15.1643429851625 0 0 0
828 1 1 0.5897 7.642393196266861 6.7602256322447 14.449225984077415 0 0 0
721 1 2 -1.1794 5.769453356509151 10.814227257530987 14.22049565500095 0 0 0
331 1 2 -1.1794 2.708362688409422 7.071533453479336 14.057859893179264 0 0 0
333 1 1 0.5897 3.3992755625692412 6.459798185379857 13.803515885943176 0 0 0
826 1 2 -1.1794 7.648449451533383 6.6613998924308895 13.497108297667303 0 0 0
475 1 2 -1.1794 7.903079137445122 9.466997889221176 13.109324928507556 0 0 0
476 1 1 0.5897 7.097106587358039 9.856112724363365 13.448812297167452 0 0 0
477 1 1 0.5897 7.865383244448496 8.552839196748007 13.390842023669231 0 0 0
366 1 1 0.5897 1.3834780423699509 6.077833726254644 13.1324090233219 0 0 0
520 1 2 -1.1794 7.601147556928705 6.99466498962029 16.551895908367804 0 0 0
261 1 1 0.5897 0.9815949242941335 10.977878116777358 14.767456376523423 0 0 0
260 1 1 0.5897 0.25981571927046415 10.580574297805676 13.497301671273664 0 0 0
445 1 2 -1.1794 0.5408110164418456 11.097311445790995 16.505807260705566 0 0 0
821 1 1 0.5897 7.501753621698638 9.345668472867613 11.33319460558044 0 0 0
224 1 1 0.5897 2.8744867978710165 7.842785271025177 17.099953952945924 0 0 0
141 1 1 0.5897 7.289376875906759 8.845601232151258 20.398298335853106 0 0 0
279 1 1 0.5897 4.681028669766941 6.182473974393394 17.420401546405557 0 0 0
161 1 1 0.5897 6.240893944722167 6.649801403804824 20.722056992751853 0 0 0
361 1 2 -1.1794 5.279044295635032 11.035484093437722 20.94931834338235 0 0 0
462 1 1 0.5897 8.774354825729896 6.190965415708104 20.334061911241896 0 0 0
4 1 2 -1.1794 2.4035160724023523 7.340463325073336 21.492568835689767 0 0 0
680 1 1 0.5897 4.315754516379851 10.4760298838073 17.11739873826616 0 0 0
140 1 1 0.5897 6.718876522089107 10.24617443032737 20.469300061566948 0 0 0
627 1 1 0.5897 1.8796013741552242 10.109243778986274 17.133712747297686 0 0 0
690 1 1 0.5897 2.208576182815817 10.370306440757254 20.61248309050383 0 0 0
625 1 2 -1.1794 2.649802471473745 9.636542466622542 17.449318908023038 0 0 0
688 1 2 -1.1794 2.865515456387202 9.813292155279353 20.194822400332335 0 0 0
160 1 2 -1.1794 7.130839475603014 7.001418743014971 20.74679386557829 0 0 0
246 1 1 0.5897 9.043308078947721 10.500171750486983 17.174944674588986 0 0 0
689 1 1 0.5897 3.685284242906574 10.298861300515311 20.286755685691965 0 0 0
647 1 1 0.5897 1.165874887163915 6.105645720665687 20.968795451088972 0 0 0
626 1 1 0.5897 2.68476811428476 9.832649564613808 18.385616163747144 0 0 0
139 1 2 -1.1794 7.478256160519521 9.752973356605755 20.158862913086637 0 0 0
6 1 1 0.5897 2.574447098966134 8.167865889873962 21.042551468547686 0 0 0
9 1 1 0.5897 6.655757779369247 9.959213287505627 17.284356345967247 0 0 0
8 1 1 0.5897 7.594393287140493 9.64289168476977 18.42931097420174 0 0 0
7 1 2 -1.1794 7.484344274542124 9.524349561392397 17.48582896067061 0 0 0
521 1 1 0.5897 6.943555615700213 6.613327630284879 17.133656029301903 0 0 0
223 1 2 -1.1794 3.032526031798347 6.9556478942903865 16.776854470746997 0 0 0
522 1 1 0.5897 7.62162362360654 7.922106785988726 16.788078274676465 0 0 0
5 1 1 0.5897 3.148544161674631 6.784593287604314 21.26409004279128 0 0 0
287 1 1 0.5897 8.92909205143622 10.54782270607573 20.82085903352671 0 0 0
394 1 2 -1.1794 1.026136470278753 11.276696338739972 21.24051112424685 0 0 0
395 1 1 0.5897 0.16132550209087607 10.991554111050851 20.945486204593088 0 0 0
679 1 2 -1.1794 5.1760323102114905 10.819779295581164 16.876554784803155 0 0 0
572 1 1 0.5897 1.513909569805694 6.264092655436836 17.554208203743798 0 0 0
681 1 1 0.5897 5.106579694945095 11.763459849790664 17.021482915138876 0 0 0
571 1 2 -1.1794 0.693632315260753 5.989305833084427 17.963953967215268 0 0 0
162 1 1 0.5897 7.375375854042383 6.9707149525284295 21.671772688933643 0 0 0
363 1 1 0.5897 5.101292361871648 10.856595038343032 21.872753125775176 0 0 0
174 1 1 0.5897 5.3751203359905295 12.556856008769348 2.6789074041500265 0 0 0
173 1 1 0.5897 4.83800472275955 13.97230486254591 2.6666305092835985 0 0 0
172 1 2 -1.1794 5.622629819283167 13.462125869851185 2.8674830495620207 0 0 0
373 1 2 -1.1794 1.2320699967451914 13.439665148363977 3.4234351126401577 0 0 0
558 1 1 0.5897 3.009434203070638 15.060646879833993 1.3071593352430206 0 0 0
556 1 2 -1.1794 3.3290823807415024 14.846936670859561 2.1837878108332016 0 0 0
557 1 1 0.5897 2.5957224493188567 14.397352018706448 2.60369870728019 0 0 0
478 1 2 -1.1794 7.597454920514159 15.33354850166389 1.852091602899776 0 0 0
479 1 1 0.5897 8.381530351869236 14.894385610543072 2.1817046731946315 0 0 0
293 1 1 0.5897 3.466735608996911 16.70952846524014 2.75165686787883 0 0 0
374 1 1 0.5897 0.9198665749341208 13.311173201870972 4.319162431249302 0 0 0
449 1 1 0.5897 7.561084788581176 17.022431452625057 2.699419219985573 0 0 0
480 1 1 0.5897 6.877353508853507 14.74960235060386 2.0902817722389924 0 0 0
200 1 1 0.5897 5.327228870696599 13.386769449444323 4.630918717702436 0 0 0
292 1 2 -1.1794 3.2960603149216365 17.648389605746935 2.827517012252451 0 0 0
375 1 1 0.5897 0.4749583892574926 13.78872212755895 2.953104944080159 0 0 0
238 1 2 -1.1794 2.930443898091083 17.66626008940624 5.553456847169992 0 0 0
199 1 2 -1.1794 5.059909025325763 13.512452124300475 5.541453051709918 0 0 0
59 1 1 0.5897 8.864019032832472 13.723137773559586 10.393322413419499 0 0 0
519 1 1 0.5897 7.669596466896883 14.802763296003343 6.432272290706804 0 0 0
766 1 2 -1.1794 0.7459340312018092 13.486729819858208 10.116250068837292 0 0 0
456 1 1 0.5897 5.1446639404120855 12.784138015584077 9.850368582389489 0 0 0
811 1 2 -1.1794 3.06874219879599 14.922046898681874 9.325048861073965 0 0 0
184 1 2 -1.1794 7.431953326599365 17.578667109583762 10.547883542385907 0 0 0
813 1 1 0.5897 2.3388032273251813 14.342238505775107 9.542485827147495 0 0 0
17 1 1 0.5897 3.0069374129436044 15.1304133153031 7.680457330023819 0 0 0
384 1 1 0.5897 2.548375598331134 16.722962184960195 9.793950678208926 0 0 0
454 1 2 -1.1794 5.189138147577847 13.604483848243442 10.341682001273364 0 0 0
377 1 1 0.5897 6.763676107218151 14.438994323326686 9.855811876123406 0 0 0
518 1 1 0.5897 6.693733514277195 15.959836764055659 6.402048859833009 0 0 0
18 1 1 0.5897 3.6660391202545055 14.62953659384373 6.412870844687959 0 0 0
812 1 1 0.5897 3.83119183950328 14.511107754276377 9.732550155895751 0 0 0
655 1 2 -1.1794 0.6672260966525598 13.336946675814483 6.151578872350828 0 0 0
376 1 2 -1.1794 7.578251200333653 14.93307968610636 9.763002791921867 0 0 0
16 1 2 -1.1794 2.877000145247282 15.06585095444054 6.7342722583859835 0 0 0
517 1 2 -1.1794 6.875756033963157 15.134616060149575 6.851734903493562 0 0 0
186 1 1 0.5897 7.723752842577302 16.725540353786606 10.226401854680198 0 0 0
378 1 1 0.5897 7.5853991239133896 15.214420161778248 8.848054894792103 0 0 0
239 1 1 0.5897 2.889240194895363 16.848466519882834 6.049287235581472 0 0 0
656 1 1 0.5897 1.2665641041511713 14.072301382350282 6.279551535283168 0 0 0
382 1 2 -1.1794 2.4059821454965857 17.646423490956995 10.001975606286132 0 0 0
201 1 1 0.5897 5.8278275868286205 13.894395418610978 5.966516134942331 0 0 0
767 1 1 0.5897 0.779141937949764 13.482532694927185 11.072926794916558 0 0 0
637 1 2 -1.1794 0.7972749787657445 13.440886641468358 12.931387445052536 0 0 0
232 1 2 -1.1794 3.216295588367617 14.769144134816667 13.66695739421438 0 0 0
234 1 1 0.5897 3.260533374986023 14.915436148750413 14.611926589608059 0 0 0
606 1 1 0.5897 3.051165066990806 16.46201002230169 12.90979171100091 0 0 0
427 1 2 -1.1794 5.263955256628845 13.225589810607215 12.943782341694007 0 0 0
233 1 1 0.5897 3.92301554539313 14.149199115160028 13.486723106558161 0 0 0
639 1 1 0.5897 1.4979737438085463 13.874234097017016 13.418762041686003 0 0 0
429 1 1 0.5897 5.912746030224659 13.896045459559181 13.157882989650597 0 0 0
638 1 1 0.5897 0.8938425684230407 12.513017761292957 13.146116189007687 0 0 0
297 1 1 0.5897 8.394864751379242 14.334242413293623 13.401888903802885 0 0 0
428 1 1 0.5897 5.639558691696312 12.411947184396492 13.280285976027402 0 0 0
295 1 2 -1.1794 7.596994411493366 14.808442060085714 13.635965893020519 0 0 0
270 1 1 0.5897 7.532226737774437 16.75379888439327 13.415227335673585 0 0 0
296 1 1 0.5897 7.548200290785575 14.740107177009097 14.589524553430886 0 0 0
455 1 1 0.5897 5.11566682495698 13.339395219441986 11.25855419771374 0 0 0
268 1 2 -1.1794 7.482483069081296 17.686389326986546 13.20511048082269 0 0 0
604 1 2 -1.1794 3.1645487758074924 17.38660321489308 12.689322876057556 0 0 0
605 1 1 0.5897 2.8759614986724373 17.453414215664317 11.77906120097987 0 0 0
823 1 2 -1.1794 3.2589410311904645 15.092827242981599 16.449438075359517 0 0 0
49 1 2 -1.1794 7.46217016896143 14.994355003398642 16.523073505454164 0 0 0
317 1 1 0.5897 7.7041843390915075 15.090594423030256 22.03388522647529 0 0 -1
446 1 1 0.5897 0.689062413764974 11.923522792344357 16.965945210204467 0 0 0
451 1 2 -1.1794 0.6573926623459214 13.727579384543565 20.109972447086783 0 0 0
53 1 1 0.5897 1.047248550206107 13.781910646571204 18.33688256582647 0 0 0
665 1 1 0.5897 2.2601618643189925 14.400245901813419 20.861582444181266 0 0 0
664 1 2 -1.1794 2.8995589184944612 14.938632637833553 21.328046354881785 0 0 0
125 1 1 0.5897 5.2791736610719635 13.662932498752832 18.402167904743834 0 0 0
52 1 2 -1.1794 0.9557440102381886 13.699927684309225 17.387503675308672 0 0 0
684 1 1 0.5897 4.688107843589964 14.036837108090912 20.97347876359153 0 0 0
452 1 1 0.5897 0.6903382271777004 12.990709271128965 20.720129626282898 0 0 0
666 1 1 0.5897 2.7957542385691134 15.813346568217714 20.953286200147353 0 0 0
126 1 1 0.5897 6.186030650050567 13.940287557203972 17.22203714754223 0 0 0
54 1 1 0.5897 0.07015190880977594 14.013321041636848 17.20381450769966 0 0 0
318 1 1 0.5897 7.609907884137102 15.756435391558654 20.677452558614185 0 0 0
362 1 1 0.5897 5.333965075243 11.989673726581735 20.89596034223763 0 0 0
157 1 2 -1.1794 7.599466692781276 17.402537221253212 20.160670755606503 0 0 0
683 1 1 0.5897 6.138372649936291 13.970467135499128 20.544291623113253 0 0 0
825 1 1 0.5897 2.478387018531888 14.597735649183356 16.698183784555475 0 0 0
682 1 2 -1.1794 5.277828020656285 13.591593328907939 20.36497552022233 0 0 0
124 1 2 -1.1794 5.328125008858755 13.581896916501877 17.449615028655764 0 0 0
584 1 1 0.5897 3.0880582416726847 16.63041141593493 17.41842917296659 0 0 0
316 1 2 -1.1794 7.666086897900132 14.897855672356911 21.096996820322538 0 0 0
824 1 1 0.5897 3.9908931052624506 14.534484007567471 16.71166911436117 0 0 0
715 1 2 -1.1794 3.019062974381093 17.664970936323055 20.46338552329464 0 0 0
50 1 1 0.5897 7.503910327513311 15.864976288731038 16.918845593544276 0 0 0
610 1 2 -1.1794 7.255740749927508 17.583157248349814 17.359056508566546 0 0 0
51 1 1 0.5897 8.197921136023854 14.519464292103482 16.909635117718437 0 0 0
159 1 1 0.5897 7.4550169749187845 17.454464502563525 19.215810505968335 0 0 0
583 1 2 -1.1794 2.9182950657411446 17.498574301431056 17.784221642500732 0 0 0
267 1 1 0.5897 5.936873181598514 21.667434295892175 3.156140587895239 0 0 0
696 1 1 0.5897 1.0331884069762263 22.088899387268018 2.882905882997646 0 0 0
266 1 1 0.5897 4.4301268059075865 21.604779940850918 3.2890105841179227 0 0 0
265 1 2 -1.1794 5.234728493594568 21.182276208433528 3.5896016757495715 0 0 0
345 1 1 0.5897 0.6637473749667961 19.12421161971668 1.2478365709005035 0 0 0
228 1 1 0.5897 5.467702171505924 19.762033097804625 2.6322138328356646 0 0 0
249 1 1 0.5897 5.114652498761165 21.51134975804512 5.23393437067654 0 0 0
413 1 1 0.5897 0.506879163146906 21.575837096882527 4.868428278910852 0 0 0
344 1 1 0.5897 1.4882848309401249 18.71662275699736 2.4503628922694176 0 0 0
226 1 2 -1.1794 5.417609265231579 19.09293015172447 1.9494848044721438 0 0 0
187 1 2 -1.1794 2.867304183347055 22.4822998642979 2.5484736764988205 0 0 0
695 1 1 0.5897 0.30168591907724074 20.764464448189873 2.8294689960038046 0 0 0
343 1 2 -1.1794 0.6865432938954155 19.177531982141417 2.203327360872886 0 0 0
818 1 1 0.5897 8.272484718320893 22.11507796119338 2.5414832679082076 0 0 0
294 1 1 0.5897 3.1970775936824634 17.799134280841063 3.7676217679798043 0 0 0
189 1 1 0.5897 3.0336075385690147 22.682699862622638 1.6273319309189034 0 0 0
817 1 2 -1.1794 7.456150315592418 22.540029246573955 2.2782800159366703 0 0 0
227 1 1 0.5897 4.755184524151194 18.47786125166184 2.26438057473472 0 0 0
694 1 2 -1.1794 0.2246562429810463 21.658944294284908 3.161589782625566 0 0 0
819 1 1 0.5897 7.439934090422789 23.35765839512223 2.775836709529424 0 -1 0
188 1 1 0.5897 2.893794187630475 23.3324690457908 2.9876162554963637 0 0 0
498 1 1 0.5897 7.619169824627081 22.72263514964764 0.36295321078566134 0 0 0
308 1 1 0.5897 7.285897052972619 17.794438511274073 4.889521389321655 0 0 0
450 1 1 0.5897 6.71825146817218 18.27277240565139 2.8348643647565153 0 0 0
321 1 1 0.5897 8.971948046680682 18.617021144851645 2.2294829113899968 0 0 0
448 1 2 -1.1794 7.509265397779051 17.852831258172873 3.1727991396310893 0 0 0
555 1 1 0.5897 4.5642636460382535 20.64978971984497 10.225885965460492 0 0 0
702 1 1 0.5897 1.9710771794929933 22.573472473995473 6.41101908920891 0 0 0
87 1 1 0.5897 8.3171404357782 21.864515585399385 9.982044383563482 0 0 0
412 1 2 -1.1794 0.5607336887390957 21.59727245678714 5.823917038968974 0 0 0
101 1 1 0.5897 5.762644460125754 18.23029601473813 10.025010083210573 0 0 0
85 1 2 -1.1794 7.465203753183684 22.16840053332482 9.6688009148449 0 0 0
32 1 1 0.5897 8.302341630031549 21.761736399758625 6.643639242631622 0 0 0
387 1 1 0.5897 4.618839667431888 19.885330001698936 6.741640955305583 0 0 0
39 1 1 0.5897 3.1860870510955284 22.145295631540783 9.917940765792348 0 0 0
33 1 1 0.5897 6.810910647610855 22.021350098086337 6.6547966606642515 0 0 0
700 1 2 -1.1794 2.738524428993708 22.983809458412445 6.809673480407958 0 0 0
240 1 1 0.5897 3.442553110487166 18.256562572420442 6.106262340888743 0 0 0
553 1 2 -1.1794 4.708179835317834 21.581771902995865 10.390325962195107 0 0 0
102 1 1 0.5897 5.05496771355888 18.847164766756645 8.837268994123002 0 0 0
248 1 1 0.5897 4.263461148722572 22.288638413417765 6.2154334343490145 0 0 0
385 1 2 -1.1794 4.70574035846366 18.9794744479518 7.038649445627749 0 0 0
386 1 1 0.5897 5.478679395331559 18.64973401679296 6.5802928014950375 0 0 0
38 1 1 0.5897 1.6946693098631387 21.902294358270357 10.010128301680671 0 0 0
247 1 2 -1.1794 5.01463840998222 21.697277818512756 6.167609163915935 0 0 0
31 1 2 -1.1794 7.646673179303816 22.39677533718035 6.931935463097581 0 0 0
414 1 1 0.5897 0.6860276226710534 20.682835207865402 6.077808684178558 0 0 0
37 1 2 -1.1794 2.34007472125927 22.54646370713681 9.718964517365743 0 0 0
341 1 1 0.5897 1.3686769135953343 18.519783835289502 6.251846277454758 0 0 0
554 1 1 0.5897 5.534529514753876 21.778533819298012 9.94907786578877 0 0 0
86 1 1 0.5897 7.6055692913683695 22.362659267177612 8.742044077679367 0 0 0
342 1 1 0.5897 0.4342198621515112 18.860512776606726 7.39321892159585 0 0 0
701 1 1 0.5897 2.57125930221347 22.941780861561096 7.751270142620547 0 0 0
100 1 2 -1.1794 5.004731781228471 18.765592112142013 9.789739149379997 0 0 0
94 1 2 -1.1794 0.37750137341568835 20.87688249686711 10.646417896172165 0 0 0
404 1 1 0.5897 0.8212559601013618 18.136415023523835 9.32726088392911 0 0 0
307 1 2 -1.1794 7.040017083454339 17.901380521992245 5.808458100683522 0 0 0
185 1 1 0.5897 8.0892497921444 18.194738992812848 10.224319553044728 0 0 0
340 1 2 -1.1794 0.525204803716548 18.930056012409036 6.4428340686417 0 0 0
383 1 1 0.5897 3.2400981418732107 18.069659496639776 9.798578677585292 0 0 0
309 1 1 0.5897 7.871100907409686 18.02830903891947 6.266094366158508 0 0 0
379 1 2 -1.1794 0.6642856011142092 21.327784909359718 13.448040645306461 0 0 0
88 1 2 -1.1794 5.217627367151061 21.60557841201968 13.031347369000674 0 0 0
381 1 1 0.5897 1.4314633251540483 21.89419528215785 13.530967307985668 0 0 0
90 1 1 0.5897 5.055037318006956 20.69004033541683 13.258728305506715 0 0 0
763 1 2 -1.1794 5.06439690207595 19.019486718752688 13.744944497856064 0 0 0
738 1 1 0.5897 3.778349960468344 22.537390436478564 13.541061332852728 0 0 0
89 1 1 0.5897 5.0499849378903034 21.65250328549903 12.090058387069982 0 0 0
350 1 1 0.5897 2.8443641761742104 22.92790203903073 15.594759807231336 0 0 0
504 1 1 0.5897 1.0948279635440352 18.61594338423217 15.056059444905744 0 0 0
765 1 1 0.5897 5.879272117923969 18.565919550427424 13.529292067577936 0 0 0
788 1 1 0.5897 7.398608162069313 22.89459619563056 14.579986231255184 0 0 0
764 1 1 0.5897 4.375017882571386 18.448724806390544 13.40544393227178 0 0 0
474 1 1 0.5897 4.907782069889536 19.25284759031562 15.581842879013378 0 0 0
787 1 2 -1.1794 7.5112763490996075 22.67823069744066 13.654341593730274 0 0 0