LAMMPS data file via write_data, version 30 Jul 2021, timestep = 750000

864 atoms
2 atom types
576 bonds
1 bond types
288 angles
1 angle types

0.29558688043247017 17.911985519569235 xlo xhi
1.439693571400868 22.189484228600605 ylo yhi
0.36061530371602757 21.85258049628183 zlo zhi

Masses

1 1.00794
2 15.9994

Pair Coeffs # lj/cut/tip4p/long/omp

1 0 0
2 0.21084 3.1668

Bond Coeffs # harmonic/omp

1 450 0.9572

Angle Coeffs # harmonic/omp

1 55 104.52

Atoms # full

671 1 1 0.5897 2.65218897584706 4.401019940656215 0.8675224276784811 6 2 0
367 1 2 -1.1794 6.360784660504753 4.7798722520059425 3.5653582186715487 4 6 -1
172 1 2 -1.1794 1.4073527439182447 5.543371244829148 0.7677674983899978 3 2 -1
731 1 1 0.5897 1.6418381445736663 3.7631818828475487 5.09378204201716 0 1 -5
374 1 1 0.5897 8.264743106583806 4.931661463006823 4.128670632911933 4 4 0
852 1 1 0.5897 5.622390525364555 1.8807724252230105 1.7494392067311448 -7 1 -3
162 1 1 0.5897 7.41439137917374 3.1506031994891766 1.3989117088624596 3 7 2
174 1 1 0.5897 1.3543943961945313 6.387787877675772 1.2156168101221736 3 2 -1
592 1 2 -1.1794 4.6389050529995615 1.6443104757959077 5.335390449402774 -1 0 -2
161 1 1 0.5897 6.172711506205191 3.9756741574203787 1.663239048375366 3 7 2
160 1 2 -1.1794 6.634565105824334 3.5035398459570297 0.9702740524605399 3 7 2
670 1 2 -1.1794 3.388279509729335 3.8294938380328536 1.08648519975796 6 2 0
634 1 2 -1.1794 8.113002171982766 1.9346885017591922 5.0583704095110535 -8 1 2
754 1 2 -1.1794 3.046168453453234 3.573973425921601 3.9058804438773147 -3 -1 -4
840 1 1 0.5897 4.4046092333424856 5.356590555633945 1.138771596537957 -3 -2 -3
368 1 1 0.5897 5.698233159010955 5.274558127859933 3.082923648502682 4 6 -1
755 1 1 0.5897 3.4242035144342586 2.833634774255586 4.380674063146161 -3 -1 -4
838 1 2 -1.1794 4.999683709462796 6.032022017846356 1.4644907153873075 -3 -2 -3
173 1 1 0.5897 0.9150330607090753 4.943255757703129 1.3280315297005378 3 2 -1
52 1 2 -1.1794 8.845953186971348 2.453978231499095 2.2000171214202844 -5 -1 3
756 1 1 0.5897 3.435942670926927 4.346269911685466 4.315842980683557 -3 -1 -4
369 1 1 0.5897 5.950075045901191 4.587501289534227 4.408411935730334 4 6 -2
672 1 1 0.5897 3.3220462281082113 3.704931918512929 2.0333284424310163 6 2 0
692 1 1 0.5897 8.905154613571435 4.761880077515196 1.1783530025387763 1 1 4
730 1 2 -1.1794 0.7712983114980394 3.878712399311247 5.474871323963315 0 1 -5
373 1 2 -1.1794 9.066117215713572 5.372020205288225 4.412072044459858 4 4 0
593 1 1 0.5897 5.223287099210688 1.5786946347783806 4.580006229007077 -1 0 -2
394 1 2 -1.1794 3.826003606760612 6.095527820636139 4.821293973933738 2 1 5
54 1 1 0.5897 9.08957866762246 2.4439929892336014 3.1257467407120916 -5 -1 3
636 1 1 0.5897 9.039984809100854 2.0094949398887145 5.285409594641024 -8 1 2
396 1 1 0.5897 4.062183122136508 5.616683907107045 5.615884518013583 2 1 4
65 1 1 0.5897 0.3460776100768541 5.412180724410076 4.758334095103862 4 -1 -4
643 1 2 -1.1794 0.34455663959095867 3.9960836712959846 8.262467979171284 4 -3 0
841 1 2 -1.1794 8.540660080436155 3.7425724802568396 10.125128061701181 -3 2 1
63 1 1 0.5897 4.591288764976216 4.1758922526914155 8.260778682805622 -2 0 4
843 1 1 0.5897 7.815588854844389 3.125639136483426 10.22555716920598 -3 2 1
464 1 1 0.5897 7.064830294435577 2.029952128677226 6.615177798719315 6 2 -2
61 1 2 -1.1794 4.232582643444282 4.051450151807037 9.1395647817913 -2 0 4
820 1 2 -1.1794 1.6757610674657661 6.6081767464734495 8.69095854270373 2 0 5
459 1 1 0.5897 7.614976898783861 6.395236697041916 7.7385397109564344 -1 0 -2
553 1 2 -1.1794 8.65522625794949 4.491290372585991 7.451657193687939 -5 -6 3
801 1 1 0.5897 5.639551957638437 2.6431493718498693 9.977636337565615 -1 0 3
62 1 1 0.5897 3.5535631307637745 3.385660595379994 9.029584352395034 -2 0 4
644 1 1 0.5897 0.5473041591108052 3.828409168315736 7.342036869047596 4 -3 0
555 1 1 0.5897 8.448547637139255 4.230131491688493 8.349163799770833 -5 -6 3
338 1 1 0.5897 4.986091500777122 5.043867145634053 10.599402352728992 -3 1 2
103 1 2 -1.1794 5.495906275552745 4.453444829139786 6.446559999959676 3 0 6
864 1 1 0.5897 1.9677176141451906 2.490962939705841 10.584070509750946 0 -1 1
105 1 1 0.5897 5.739442163335416 3.5286529578773522 6.489995407345535 3 0 6
104 1 1 0.5897 6.26006375236865 4.919097980692275 6.786708146745329 3 0 6
463 1 2 -1.1794 6.487898735865089 1.8456005790879224 7.356513230187532 6 2 -2
645 1 1 0.5897 0.7386299825808809 4.84956858909207 8.443406005270248 4 -3 0
287 1 1 0.5897 1.8846170304566714 1.6241087769236762 8.304155191564863 3 2 1
286 1 2 -1.1794 2.8022700827192755 1.8533116128473925 8.451782265587289 3 2 1
799 1 2 -1.1794 6.2278691522411815 2.3355408917438454 10.66732921569023 -1 0 3
465 1 1 0.5897 5.701273022356474 1.469977660907773 6.960854521336638 6 2 -2
356 1 1 0.5897 7.927600673842231 4.760869300865734 11.702674427431408 1 -1 4
230 1 1 0.5897 1.3920662662385055 3.2300190716001405 14.040259907496369 3 4 1
231 1 1 0.5897 1.6378825418875673 2.2968263536773996 12.873593056122557 3 4 1
357 1 1 0.5897 6.712597063358358 5.137269383327589 12.523945351484087 1 -1 4
337 1 2 -1.1794 5.237455875564747 5.458010928859837 11.425064041293956 -3 1 2
675 1 1 0.5897 4.610525378217037 4.329033358981868 15.126417365647786 -3 -2 -3
229 1 2 -1.1794 1.336856436424949 2.3098040258538868 13.78224798174476 3 4 1
724 1 2 -1.1794 2.5632065134421613 5.850841359374433 12.08295352051893 2 -4 3
210 1 1 0.5897 0.3208923727404702 4.629361945321973 15.443589227492033 0 -3 2
428 1 1 0.5897 8.272822083835816 4.204197907228043 13.959134721756545 2 1 -2
208 1 2 -1.1794 1.1245548651014123 4.748747873739573 14.937341844806301 0 -3 2
800 1 1 0.5897 5.70355561015953 2.378992910763875 11.467092992661193 -1 0 3
674 1 1 0.5897 4.271498963258796 2.9596249863731234 14.576750284500418 -3 -2 -3
673 1 2 -1.1794 4.397249458997317 3.4360376104716037 15.397501407890303 -3 -2 -3
429 1 1 0.5897 8.755551452409117 2.7979636829409866 14.245253565392993 2 1 -2
326 1 1 0.5897 3.2973829104189094 6.047421306077688 14.059069226690754 0 -1 -1
358 1 2 -1.1794 4.606853587847116 2.0967861811489894 13.076150861533735 3 1 -5
726 1 1 0.5897 3.421657290028982 5.607751637063477 11.735991324751785 2 -4 3
734 1 1 0.5897 0.7335753439104586 6.368193348678152 13.780703840520605 0 0 -2
862 1 2 -1.1794 2.3516738906086783 1.93159447042822 11.259437782951883 0 -1 1
355 1 2 -1.1794 7.663071694200901 5.2446523165070325 12.485242046779131 1 -1 4
725 1 1 0.5897 1.9479461673182648 5.279217315692429 11.623392011728365 2 -4 3
360 1 1 0.5897 3.880399088971251 2.1834692597745873 12.458755914343666 3 1 -5
427 1 2 -1.1794 8.876543794413223 3.709062746222843 14.513020276922287 2 1 -2
124 1 2 -1.1794 0.4793146977483612 4.369248476188474 11.172134350646948 0 1 3
325 1 2 -1.1794 3.859394164351234 6.293164501059598 14.794034171405555 0 -1 -1
209 1 1 0.5897 1.8147081868647956 4.822928245068953 15.596593349769982 0 -3 2
707 1 1 0.5897 1.637870073641815 1.7691750496836234 15.567579298789092 -1 -2 -7
498 1 1 0.5897 5.565784673024096 2.3371266121783885 15.901260831998306 0 1 1
497 1 1 0.5897 6.750951162780556 1.68366174004994 15.222501899785373 0 1 2
496 1 2 -1.1794 6.298889402344091 1.7434759983334878 16.064221307630024 0 1 2
339 1 1 0.5897 5.385346242410323 6.376110409604186 11.197812233307772 -3 1 2
237 1 1 0.5897 3.672771023028724 6.196788827553903 16.747668127541072 1 -2 -4
714 1 1 0.5897 6.8268180223760995 4.274136950775562 19.347857006652195 -6 0 3
712 1 2 -1.1794 6.866721977905612 4.888463427762231 20.080949594663224 -6 0 3
453 1 1 0.5897 4.102758929925223 3.0046339842611696 21.019920113293967 -1 0 4
452 1 1 0.5897 3.689901596376353 2.8621287759624887 19.570224082469544 -1 0 4
296 1 1 0.5897 0.7761262323939389 3.2433971838710844 19.173478646591715 0 4 0
687 1 1 0.5897 2.345823737581166 2.9338339442285672 17.731394834383117 8 -6 -4
50 1 1 0.5897 6.044352330215421 6.583985467731136 19.81126216865837 8 2 -1
546 1 1 0.5897 7.5007005333866275 3.1037115462645666 17.08230600293543 -5 4 3
451 1 2 -1.1794 4.392478455587534 2.642768461997277 20.18234179052162 -1 0 4
544 1 2 -1.1794 7.781627552218395 3.4682276367704414 17.92173700423181 -5 4 3
602 1 1 0.5897 5.6999051083017935 1.5390097125982931 19.19218729003077 2 5 -3
685 1 2 -1.1794 2.471121537062 3.4424927386447997 18.532639476291646 8 -6 -4
449 1 1 0.5897 0.4749021163999122 5.907651920452308 20.772595994926103 5 -1 -5
686 1 1 0.5897 2.972329984208885 4.209139853238987 18.254325341811082 8 -6 -4
12 1 1 0.5897 0.5082212128667387 1.7378528959942217 20.362376447233583 -3 1 4
713 1 1 0.5897 6.712128666851521 4.347902332591731 20.855764628411723 -6 0 3
414 1 1 0.5897 8.985312258799436 3.4895744819523298 19.489538988173756 2 -2 3
545 1 1 0.5897 8.375125945708238 4.1817288311876055 17.687006145157312 -5 4 3
235 1 2 -1.1794 3.559363975609036 5.943976453468825 17.663990700683332 1 -2 -4
741 1 1 0.5897 8.54456667600416 6.19494745762023 16.8034842030463 -1 -1 2
740 1 1 0.5897 8.933918372724202 6.389750516092382 18.25359080237621 -1 -1 2
236 1 1 0.5897 2.6638610195798385 6.207308299092683 17.876574687409306 1 -2 -4
51 1 1 0.5897 4.748691715827316 6.586699879188342 19.02792981300585 8 2 -1
706 1 2 -1.1794 1.7715223008492114 1.638865019769362 16.50649862849151 -1 -2 -7
839 1 1 0.5897 4.535422974024542 6.855082357573402 1.3113330260250118 -3 -2 -3
37 1 2 -1.1794 8.805126496183554 7.762037435637231 5.576910825220236 -1 1 -3
30 1 1 0.5897 1.7958733692885878 10.140563451982372 3.8476933922105645 -7 0 5
289 1 2 -1.1794 7.403449502745688 7.349818266134165 0.9205555127126549 -7 -5 -6
22 1 2 -1.1794 1.798956679055863 11.734621394751287 1.3269993421892832 -3 3 2
182 1 1 0.5897 4.165615684101518 9.26171742412591 4.009680311915317 -2 2 -2
29 1 1 0.5897 2.624199201379687 10.318019163875565 2.5928040246239226 -7 0 5
226 1 2 -1.1794 0.8870949540893786 7.774830799940329 2.3382712480399963 2 -3 0
524 1 1 0.5897 7.26474603578623 11.088141434843285 4.365754760097329 2 0 3
152 1 1 0.5897 5.605577244090592 9.930977415206756 2.6446562454172726 1 0 0
151 1 2 -1.1794 5.540684716397883 10.235448890045308 1.7393910927888947 1 0 1
227 1 1 0.5897 1.4216792226227943 8.52744251294952 2.5916709730928362 2 -3 0
291 1 1 0.5897 6.575929818027347 6.920895126264648 1.139047523156857 -7 -5 -6
363 1 1 0.5897 8.245177635374956 8.252451419336762 2.411003371689237 4 -2 -2
523 1 2 -1.1794 7.9236845277202175 11.187961948674769 3.678536758858992 2 0 3
181 1 2 -1.1794 4.976191255257923 8.82292141393396 4.2682321672522985 -3 2 -2
153 1 1 0.5897 4.899189262244304 9.651149939554719 1.335045943208367 1 0 1
362 1 1 0.5897 8.432489011614337 9.666718131056879 2.9181634738132587 4 -2 -2
183 1 1 0.5897 5.3666956590497215 9.404901884990153 4.9203266834087955 -3 2 -2
28 1 2 -1.1794 2.475103201703852 9.716885437776849 3.3227527757802933 -7 0 5
395 1 1 0.5897 3.942876783502835 7.017044847715023 5.052758385849245 2 1 5
361 1 2 -1.1794 8.831846187766073 8.796853702016701 2.936235669423865 4 -2 -2
23 1 1 0.5897 2.332234111734356 11.580552184523631 0.5470605335715485 -3 3 2
228 1 1 0.5897 0.8209673013480824 7.248246744215035 3.1350080753870326 2 -3 0
290 1 1 0.5897 8.069620238017 6.6807988611020575 1.07886297590038 -7 -5 -6
38 1 1 0.5897 8.644075891149802 8.261553542635166 4.776304998893332 -1 1 -3
39 1 1 0.5897 9.050018422445447 6.888986076682327 5.269898771842854 -1 1 -3
16 1 2 -1.1794 9.05717370497473 8.99157417595983 8.24141763962945 -3 3 3
432 1 1 0.5897 0.996516351129107 7.336456274919977 10.388427484430414 -6 -1 -3
7 1 2 -1.1794 8.745159746542303 7.43426800846226 10.5641595997836 3 0 0
616 1 2 -1.1794 6.30796843477255 10.604694028863255 6.022266449990974 -2 2 0
761 1 1 0.5897 2.6001803661828644 10.10403267883762 8.293401411236793 2 -3 -1
218 1 1 0.5897 6.221458936399801 9.382551058132817 8.992335506425631 4 1 -2
119 1 1 0.5897 3.9805695352242396 8.523212526810205 7.351357565217184 4 -3 -1
219 1 1 0.5897 7.6395591247227 9.786631891511462 8.648622589712337 4 1 -2
118 1 2 -1.1794 4.272460291224112 7.679013655277657 7.695695633139696 4 -3 -1
814 1 2 -1.1794 1.613900560596344 10.458843127357214 10.040519220681782 -3 7 -3
760 1 2 -1.1794 3.1058791086952686 10.016656804888829 7.485212849948684 2 -3 -1
217 1 2 -1.1794 6.744777051180518 10.124512701643173 8.688815447038039 4 1 -2
514 1 2 -1.1794 5.420976870524726 7.9013968742703105 10.140776572743533 -4 -3 -1
145 1 2 -1.1794 0.6214672457857016 8.396366209778911 6.772630838439854 0 2 -3
762 1 1 0.5897 3.3173720935935753 10.91642519420806 7.235993314975783 2 -3 -1
617 1 1 0.5897 6.37977112563477 10.393074094391398 6.953127071732612 -2 2 0
309 1 1 0.5897 6.5483858298282325 11.530614692561151 9.860537306347195 0 4 -2
516 1 1 0.5897 5.142985536441062 8.654835188739396 10.661806788399929 -4 -3 -1
618 1 1 0.5897 5.614638990681391 11.263340777083895 5.978642664958398 -2 2 0
515 1 1 0.5897 4.755234747196839 7.823453491008305 9.457304093044355 -4 -3 -1
815 1 1 0.5897 2.469407984512256 10.740257480075496 10.365153128921298 -3 7 -3
457 1 2 -1.1794 7.009977235612451 6.968916802132031 7.268135952473052 -1 0 -2
816 1 1 0.5897 1.4949317016841162 9.582188162647293 10.406234900019408 -3 7 -3
120 1 1 0.5897 5.0845238841990525 7.494954389932937 7.223345036292477 4 -3 -1
17 1 1 0.5897 8.688677449361075 8.571837201872526 7.463952728882782 -3 3 3
458 1 1 0.5897 7.497293500181025 7.2474826381699105 6.492676505473632 -1 0 -2
68 1 1 0.5897 4.911975294879446 10.97661156390527 10.619616721016943 4 -2 -4
147 1 1 0.5897 1.0457989329869466 9.2473721804681 6.662265170044415 0 2 -3
822 1 1 0.5897 1.1880043614110551 7.181947577339917 8.099923870039104 2 0 5
18 1 1 0.5897 9.002013432699977 8.322799322579122 8.924145688944662 -3 3 3
430 1 2 -1.1794 0.5397181942431899 7.956922581984577 10.956584797178731 -6 -1 -3
67 1 2 -1.1794 4.290548503241023 10.342455409581973 10.97751494241089 4 -2 -4
821 1 1 0.5897 2.594219679045307 6.755590709517362 8.464846869730241 2 0 5
435 1 1 0.5897 3.0498730935190785 8.270277785769379 15.061109029564676 0 3 -2
431 1 1 0.5897 0.8000149942695136 7.706944572216034 11.843264371321059 -6 -1 -3
46 1 2 -1.1794 3.8147501721974075 11.103019518147232 13.627364836740957 3 -2 -1
419 1 1 0.5897 8.418637176426115 7.517161195578886 15.488670539531402 -7 -2 5
433 1 2 -1.1794 2.7730100140152234 9.101143150144726 15.447669763471433 0 3 -2
221 1 1 0.5897 1.073418000492237 9.910412166997087 15.230127184441468 2 -3 3
582 1 1 0.5897 6.134308072984288 8.452896364705895 13.306745668584963 -1 -2 -1
327 1 1 0.5897 4.597203140233226 6.749914189094172 14.389727230149841 0 -1 -1
418 1 2 -1.1794 7.561322604436737 7.5352806732836575 15.914234156569055 -7 -2 5
581 1 1 0.5897 6.402291227004259 7.592327690543878 14.523289265946703 -1 -2 -1
854 1 1 0.5897 7.730106339507148 9.172701870349448 11.584300821060728 -3 1 1
47 1 1 0.5897 4.607545033522783 11.496497367974591 13.992148836601409 3 -2 -1
220 1 2 -1.1794 0.49835722737416066 10.61974755999501 14.942781922222766 2 -3 3
580 1 2 -1.1794 5.836301373897337 7.660857522450746 13.754278546576296 -1 -2 -1
184 1 2 -1.1794 8.625343019202248 11.279395376877465 15.711334434498822 0 5 3
48 1 1 0.5897 3.4734070619943025 10.553013394071543 14.332655728267115 3 -2 -1
69 1 1 0.5897 4.2577054139869155 10.540572521120364 11.913508887084143 4 -2 -4
853 1 2 -1.1794 7.2854374333205545 9.627361075832978 12.299823923414063 -3 1 1
776 1 1 0.5897 8.947842976505797 10.342172454360352 12.915357415503143 4 -3 0
855 1 1 0.5897 6.743907635757918 10.286559846226956 11.865523605887736 -3 1 1
434 1 1 0.5897 3.0930374884806464 9.064892851148413 16.34915914993264 0 3 -2
186 1 1 0.5897 7.792464557093946 11.635206796039544 15.401284453522718 0 5 3
222 1 1 0.5897 0.36188020007571814 11.150873684211005 15.72744375144668 2 -3 3
8 1 1 0.5897 8.183989491709564 6.953255082203753 11.172546634369631 3 0 0
454 1 2 -1.1794 3.9477033133952464 8.306939490207524 21.620039293594477 2 -2 0
128 1 1 0.5897 0.4980979085678241 6.69333611170381 18.854139517676394 -1 1 -5
493 1 2 -1.1794 7.385565854973516 10.10196931341962 20.982197563001346 -1 -2 -1
127 1 2 -1.1794 1.1711676011899592 7.088984418426228 18.300174770661066 -1 1 -5
383 1 1 0.5897 3.3591695355174824 11.563680620257974 20.267857215236724 -8 -2 -2
138 1 1 0.5897 1.8631678748818281 8.842886052049776 19.44300220157423 7 -7 0
336 1 1 0.5897 4.697910604139963 8.898066126736008 18.37225949518502 6 0 2
137 1 1 0.5897 1.5712769680896022 10.279934004038475 19.81989820044699 7 -7 0
334 1 2 -1.1794 4.223234375715007 9.442604848180173 17.74410722777523 6 0 2
455 1 1 0.5897 3.2028884991508177 8.671125344690983 21.14146606572123 2 -2 0
507 1 1 0.5897 7.649521346886177 9.927258172461018 18.93614377444522 2 1 -3
420 1 1 0.5897 7.680952672937649 8.109637876499574 16.670683829265645 -7 -2 5
505 1 2 -1.1794 8.008168009529161 9.75127957792307 18.06618796352576 2 1 -3
562 1 2 -1.1794 8.607390569760055 7.28997206517105 19.80876942394811 1 1 3
330 1 1 0.5897 9.027123361935052 10.575443710315978 21.587344039751073 3 5 0
136 1 2 -1.1794 1.7450114919382382 9.418220505419303 20.198949276866397 7 -7 0
49 1 2 -1.1794 5.308656319470967 7.145625030810496 19.566869397344394 8 2 -1
456 1 1 0.5897 4.517142359526874 7.946920784191213 20.93993486625106 2 -2 0
335 1 1 0.5897 4.750530744110671 10.238097679493228 17.669474296542 6 0 2
382 1 2 -1.1794 3.9829385624077824 11.43509794678082 20.982563479881417 -8 -2 -2
564 1 1 0.5897 8.062631494905528 6.966770314956472 20.5265509980827 1 1 3
494 1 1 0.5897 6.764291139808198 10.247940978989915 21.695727927680252 -1 -2 -1
495 1 1 0.5897 7.543294897065769 9.157796175170002 20.990682065894298 -1 -2 -1
506 1 1 0.5897 8.840765434292145 9.30988024361865 18.234614219766005 2 1 -3
129 1 1 0.5897 0.6983959823019348 7.384326054300852 17.52191600310229 -1 1 -5
384 1 1 0.5897 4.84008783825599 11.582121554905887 20.582422301635166 -8 -2 -2
185 1 1 0.5897 8.405803695003135 10.83207845864678 16.528740832489838 0 5 3
437 1 1 0.5897 5.7026758521239564 16.93806023181758 3.9808961352971415 -2 4 1
436 1 2 -1.1794 5.654431117851948 16.09626561006675 3.5275951503134517 -2 4 1
284 1 1 0.5897 6.000858164418562 13.731879437667693 2.3735553914501675 6 -1 -2
526 1 2 -1.1794 2.7535801426661854 16.095353648774935 4.452465962800684 -1 -5 0
24 1 1 0.5897 1.6157365060186148 12.674082410912835 1.3107271437887174 -3 3 2
527 1 1 0.5897 2.0153545771143495 16.704618999386614 4.436838923834045 -1 -5 0
285 1 1 0.5897 7.131746257218435 14.46438580439508 3.0641290327872994 6 -1 -2
150 1 1 0.5897 3.74669350239759 13.310107946737629 2.4206795049755234 -5 -1 2
149 1 1 0.5897 4.317771867808746 12.759152771278336 1.1311888078131447 -5 -1 2
281 1 1 0.5897 3.8053639591656836 12.69717265058142 5.151006670384605 -3 0 3
528 1 1 0.5897 3.123846886874402 16.18941430743228 5.330238580393407 -1 -5 0
438 1 1 0.5897 4.7398118321448655 15.827924328469175 3.6163764640900924 -2 4 1
40 1 2 -1.1794 1.1304068809822514 14.590647052602499 1.1343536644421293 0 -1 4
283 1 2 -1.1794 6.921136113607249 13.642132738623316 2.621456406705283 6 -1 -2
26 1 1 0.5897 8.423051964441267 15.398350142415088 5.583446925292464 -2 5 6
365 1 1 0.5897 2.619682127804053 14.23368212221089 4.0505014796832 2 4 3
324 1 1 0.5897 3.5646677256854566 16.51364774164686 0.6958167340838047 6 -1 -2
323 1 1 0.5897 3.930747521412592 15.049697852836239 0.81918369012048 6 -1 -2
364 1 2 -1.1794 2.7155331038016826 13.295296037526619 3.887147421340774 2 4 3
89 1 1 0.5897 7.800191559282591 13.409243810399705 1.099191440472945 7 -2 4
366 1 1 0.5897 1.8292729620681891 12.944455596073075 3.9759680339448256 2 4 3
148 1 2 -1.1794 4.347043299249094 13.523897516571658 1.7063173512250867 -5 -1 2
42 1 1 0.5897 0.5933176467793022 15.208859069456025 0.6385847632865154 0 -1 4
41 1 1 0.5897 2.032149408392589 14.847575958859386 0.9412532440248527 0 -1 4
244 1 2 -1.1794 9.038657294813989 15.458619989797064 3.8323775542763903 -5 3 -1
525 1 1 0.5897 7.576765319014207 11.876951297619485 3.111651461572424 2 0 3
833 1 1 0.5897 1.3613284542847257 12.787737978966655 8.369832420211894 2 -2 1
347 1 1 0.5897 7.705544296673558 11.900622395456642 6.436559828974182 -4 3 -2
585 1 1 0.5897 0.49273660966358424 15.288260969377314 7.852737037918687 2 -5 2
487 1 2 -1.1794 4.141297541201158 16.72913384893568 6.820566222614372 2 -6 2
599 1 1 0.5897 5.372552433535589 14.118138234616946 8.069332484102848 0 -4 -4
280 1 2 -1.1794 4.257136571014274 12.337635076779145 5.914584610247747 -3 0 3
832 1 2 -1.1794 1.427795568734791 13.646767358956785 8.78714686930957 2 -2 1
834 1 1 0.5897 0.932924177461137 13.556839989396542 9.601682533431656 2 -2 1
489 1 1 0.5897 4.720534533476531 15.969112105889359 6.763383755958664 2 -6 2
826 1 2 -1.1794 3.9604474206350764 12.836419621367861 9.474988482573016 0 1 3
348 1 1 0.5897 8.005178841405847 13.366554142189008 6.66839034895127 -4 3 -2
828 1 1 0.5897 3.1088222304822017 13.206224636626242 9.241758091522259 0 1 3
276 1 1 0.5897 7.535065905523217 15.333403003506188 9.515734196206315 -1 2 -3
584 1 1 0.5897 0.490208075237649 16.801939428109687 7.818374028657569 2 -5 2
274 1 2 -1.1794 7.528439589423944 14.378186985112496 9.45289238629632 -1 2 -3
598 1 2 -1.1794 5.526207742340947 14.41402846255958 7.171955460366955 0 -4 -4
632 1 1 0.5897 3.5127889438711253 16.326173274186118 10.847961240959402 5 4 4
827 1 1 0.5897 4.096898763846175 13.102824073549336 10.38430940546244 0 1 3
307 1 2 -1.1794 6.551523130314408 11.9702029618377 10.71092896988628 0 4 -2
308 1 1 0.5897 6.81014670774263 12.870758209814335 10.514639747830469 0 4 -2
600 1 1 0.5897 6.452701785134657 14.654224785481222 7.153748019396336 0 -4 -4
282 1 1 0.5897 4.7869206508938404 13.063767964813639 6.2439432704553814 -3 0 3
25 1 2 -1.1794 8.302161765255981 15.446233815494638 6.531890009718938 -2 5 6
346 1 2 -1.1794 8.388072065305009 12.493107930527142 6.752066842729698 -4 3 -2
275 1 1 0.5897 8.44892180859714 14.138358754586012 9.345108802115485 -1 2 -3
293 1 1 0.5897 3.868733207859538 16.681256621889652 8.744145342334203 -2 -1 2
651 1 1 0.5897 7.076359667887644 16.954700361557542 11.029376500801973 1 -1 -1
650 1 1 0.5897 6.1088369072508515 16.996927514316567 9.865505605122728 1 -1 -1
704 1 1 0.5897 6.242992490642627 15.275188597335385 14.526157137300913 3 -1 -2
703 1 2 -1.1794 6.219201992156055 14.703102055981692 13.758935415446587 3 -1 -2
311 1 1 0.5897 2.0988815974571526 15.901795439997782 14.640279906916652 0 2 2
662 1 1 0.5897 1.3869916707517593 13.756455652726995 14.601106220188692 -2 -5 0
579 1 1 0.5897 3.7191739668325114 16.863181780481483 13.187310951105761 1 1 -2
312 1 1 0.5897 2.187060198601703 15.11564639077446 15.93123581281154 0 2 2
719 1 1 0.5897 0.8495640492952191 13.052816258549242 12.042641552043099 5 4 0
658 1 2 -1.1794 4.022966409637757 13.495823423119287 12.215108603298207 1 -1 2
788 1 1 0.5897 0.5279275465305748 16.560695978735048 16.399297718446896 3 -2 5
705 1 1 0.5897 7.111734868813863 14.365199474269934 13.683682373196561 3 -1 -2
660 1 1 0.5897 3.6395447498929094 12.963562945290994 12.912321995814716 1 -1 2
518 1 1 0.5897 1.1750176400459154 15.893611801757757 11.793514970976592 -1 -2 -4
663 1 1 0.5897 1.1827454125761592 12.355008264699235 14.065770953856179 -2 -5 0
310 1 2 -1.1794 1.5638029821508854 15.561428941864737 15.357416639791253 0 2 2
633 1 1 0.5897 3.385888512684357 15.17267967627946 11.820458541633986 5 4 4
421 1 2 -1.1794 6.807864772003439 16.661314031328125 15.849256219000747 -4 1 4
631 1 2 -1.1794 3.117235553326996 16.081417658344982 11.684661473750403 5 4 4
565 1 2 -1.1794 8.955524809181375 13.778442989651843 13.036430174077033 -1 5 -6
300 1 1 0.5897 5.764313938986283 12.223914263060957 15.674378381051415 -4 -1 1
661 1 2 -1.1794 1.2381671732320338 13.270085531572045 13.790112391734803 -2 -5 0
659 1 1 0.5897 4.9628233000066215 13.322422437667514 12.270052286718814 1 -1 2
299 1 1 0.5897 6.165227408464257 13.106539487327064 14.511365697970612 -4 -1 1
298 1 2 -1.1794 6.05653660053021 12.189440815415157 14.76342766284417 -4 -1 1
156 1 1 0.5897 5.820751861185703 16.875831986559234 13.025162253826247 4 2 -5
58 1 2 -1.1794 3.0373008126636525 14.38991469253212 17.40875165894069 4 -1 -3
490 1 2 -1.1794 4.731082561448023 16.11583305953762 18.953697873314542 -1 2 3
611 1 1 0.5897 1.6577521389814958 15.747634508600289 19.939471334731767 3 2 -1
59 1 1 0.5897 3.8026139572357716 14.878153851168403 17.71261235323302 4 -1 -3
171 1 1 0.5897 7.820681299179114 14.635116250258502 18.45728780403213 -4 4 -3
169 1 2 -1.1794 7.5226709737189426 15.543331037099433 18.509719357838513 -4 4 -3
548 1 1 0.5897 1.1816515955879954 13.118868147018127 19.483900755675798 5 0 5
60 1 1 0.5897 2.3995024835750787 14.47818717251414 18.11715567866566 4 -1 -3
610 1 2 -1.1794 1.1881240409998717 14.971602054105478 19.633457324735996 3 2 -1
90 1 1 0.5897 8.902647392062741 13.039131912570097 21.62163775966191 7 -2 3
492 1 1 0.5897 4.507773607646956 16.30713577955138 19.86471794555639 -1 2 3
85 1 2 -1.1794 5.98354132199226 13.158015896784276 19.73963270228722 -1 5 1
223 1 2 -1.1794 8.217803070056984 16.15198194424995 21.146112195436903 2 0 -7
491 1 1 0.5897 5.674802018627004 15.955656095524883 18.966447340839828 -1 2 3
211 1 2 -1.1794 4.828543451772325 12.390996659597677 17.599850933503138 3 2 2
547 1 2 -1.1794 1.1706200244020106 12.161784691894677 19.500888016381015 5 0 5
224 1 1 0.5897 8.132955824441474 15.291209530427496 21.556535970616682 2 0 -7
212 1 1 0.5897 5.275264268203491 12.721195020271802 18.379490385004097 3 2 2
86 1 1 0.5897 5.451953424838987 13.824481677095967 20.17516626620243 -1 5 1
170 1 1 0.5897 7.852195848024487 15.85578795189085 19.352461076850613 -4 4 -3
88 1 2 -1.1794 8.05519305496529 13.481609622198702 21.671285966144538 7 -2 3
180 1 1 0.5897 0.47198536092806886 11.965544065345846 17.712539330496405 -6 1 -1
213 1 1 0.5897 4.076772777860499 12.973260651797636 17.48929437809882 3 2 2
87 1 1 0.5897 6.849543839421112 13.243235062019659 20.13863389473993 -1 5 1
549 1 1 0.5897 0.47836438246113533 11.940755080876162 20.124062051372636 5 0 5
322 1 2 -1.1794 3.7452574582737435 15.731875179351949 21.66563491737589 6 -1 -3
683 1 1 0.5897 8.90663947357854 16.715616381300222 18.28692574156586 5 0 -4
422 1 1 0.5897 7.060216331846536 16.26253916468929 16.682149160739197 -4 1 4
225 1 1 0.5897 7.593534897308764 16.704657769284218 21.616512932907877 2 0 -7
72 1 1 0.5897 1.256694108165918 21.325413439879775 2.265883599018778 5 1 -5
70 1 2 -1.1794 0.3468436146087635 21.62133857097993 2.2338017396619105 5 1 -5
13 1 2 -1.1794 3.076272639788944 20.32222512563743 4.445505509018848 -1 -4 -3
318 1 1 0.5897 3.762240467283679 21.096027447027943 1.7796513968604601 -3 -5 1
499 1 2 -1.1794 7.831655009969019 19.92240008947426 2.007569611037537 0 -2 -2
166 1 2 -1.1794 6.369936779857092 17.588871754795775 1.2494703211881104 -2 0 4
500 1 1 0.5897 8.252429400289126 20.325817624983188 1.2482039374438585 0 -2 -2
594 1 1 0.5897 4.010876176258815 21.681608742356097 5.215587443369105 -1 -1 -2
790 1 2 -1.1794 7.728279066109876 20.07575146617561 4.9324478438553205 2 5 0
696 1 1 0.5897 6.0387540012543806 18.973982326465645 5.097711526667016 2 -3 0
792 1 1 0.5897 8.116416167950899 20.107603323672336 4.057932234018489 2 5 0
379 1 2 -1.1794 3.0812450289213267 17.70861444348735 2.003500206397641 8 4 1
817 1 2 -1.1794 0.9958968299878315 18.30290989828883 4.32461571405621 2 -1 1
694 1 2 -1.1794 5.226544214610529 18.512038903951236 4.889490780753398 2 -3 0
501 1 1 0.5897 7.309779464119079 19.208196691747524 1.6415366343900941 0 -2 -2
317 1 1 0.5897 3.281896328430588 19.661114805347452 1.728213310993242 -3 -5 0
316 1 2 -1.1794 2.967690891452515 20.56248151618656 1.8005285947791396 -3 -5 1
14 1 1 0.5897 3.00441696152874 20.473451007885373 3.502958843990823 -1 -4 -3
851 1 1 0.5897 6.229485324638208 21.374811191368153 2.338588934432055 -7 0 -3
791 1 1 0.5897 8.429988688024716 19.74699200384122 5.494596108772105 2 5 0
381 1 1 0.5897 3.190635017334097 17.49987542946377 2.9313396380769885 8 4 1
850 1 2 -1.1794 5.398247099023887 21.839196885163545 2.239377483378771 -7 0 -3
635 1 1 0.5897 7.94524868621023 21.74213238601206 5.041783422779818 -8 0 2
380 1 1 0.5897 2.151981641686351 17.920076921923275 1.9130103952440392 8 4 1
695 1 1 0.5897 4.591387301473836 19.207900322321223 4.7198195435153805 2 -3 0
818 1 1 0.5897 0.9533774311303654 18.425255021997977 5.273108698294973 2 -1 1
167 1 1 0.5897 5.6087285796587505 17.935175490574863 0.7835329240278878 -2 0 4
700 1 2 -1.1794 0.5940145041199989 17.64628525925449 0.9681787963684166 4 1 2
15 1 1 0.5897 2.2733763583149176 19.8543247831039 4.675404806362774 -1 -4 -3
168 1 1 0.5897 6.00191609876518 17.143264699927258 2.012641427655397 -2 0 4
386 1 1 0.5897 8.986085715891956 18.598449602326276 2.7010598664072694 -5 0 2
232 1 2 -1.1794 8.576964571727824 21.30331015000379 8.733436507194403 -3 0 0
19 1 2 -1.1794 5.92637377047393 20.31339132778472 10.291959875404343 -4 -3 1
744 1 1 0.5897 8.951627040148942 19.692320491287383 9.707595046139245 -2 0 1
679 1 2 -1.1794 1.5074713415085021 19.161070342314595 6.9565890698414075 -6 -5 0
234 1 1 0.5897 7.888284896679061 21.742395651046685 8.234076248591645 -3 0 0
256 1 2 -1.1794 3.5552800859745326 19.816860407244782 8.969402418969926 -1 -1 -1
825 1 1 0.5897 1.0149019144728895 19.360016681922694 10.482111855334608 -2 3 2
681 1 1 0.5897 0.8805125316575221 19.734621394444595 7.397480830438694 -6 -5 0
20 1 1 0.5897 6.34521625905064 21.1724377060878 10.236906488545463 -4 -3 0
257 1 1 0.5897 4.338655727134361 20.153424849362295 9.404721195318825 -1 -1 -1
680 1 1 0.5897 2.338534361206643 19.32653981059152 7.401979837033594 -6 -5 0
258 1 1 0.5897 2.9180932600803438 19.70457778107683 9.674994454902576 -1 -1 -1
742 1 2 -1.1794 8.911007330572076 19.117090307805768 10.471717706634063 -2 0 1
288 1 1 0.5897 3.2455100155437395 21.761477595205697 8.559646740007368 3 1 1
678 1 1 0.5897 7.436985627979551 17.85386268613565 8.262981735286361 3 1 -2
823 1 2 -1.1794 1.2562923877566612 20.151296669702035 10.963798240598484 -2 3 2
743 1 1 0.5897 8.161892264968458 18.545625497404693 10.30237070461449 -2 0 1