LAMMPS (30 Jul 2021)
Processor partition = 1
  using 2 OpenMP thread(s) per MPI task
using multi-threaded neighbor list subroutines
variable        pid world 0 1
variable        phase world IceIh IceIII

shell cd ${phase}
shell cd IceIII
include Restart.lmp
echo both
log log.lammps
#include		in.partitions
include		in.temp
variable        temperature equal 127.72
variable	tempDamp equal 100.0
include		in.pressure
variable        pressure equal 1954.4
variable        pressureDamp equal 1000.0 # This is 1 ps
include		in.seed
variable        seed equal 745823

units		real
atom_style	full

read_restart	restart.lmp.${pid}
read_restart	restart.lmp.1
Reading restart file ...
  restart file = 30 Jul 2021, LAMMPS = 30 Jul 2021
  restoring atom style full from restart
  orthogonal box = (-0.058662638 0.024626184 -0.051144043) to (20.058664 19.975375 20.751142)
  4 by 2 by 4 MPI processor grid
  restoring pair style lj/cut/tip4p/long/omp from restart
  restoring bond style harmonic/omp from restart
  restoring angle style harmonic/omp from restart
  972 atoms
  648 bonds
  324 angles
Finding 1-2 1-3 1-4 neighbors ...
  special bond factors lj:    0        0        0       
  special bond factors coul:  0        0        0       
     2 = max # of 1-2 neighbors
     1 = max # of 1-3 neighbors
     1 = max # of 1-4 neighbors
     2 = max # of special neighbors
  special bonds CPU = 0.003 seconds
  read_restart CPU = 0.009 seconds
include 	in.setup
variable	out_freq equal 1000
variable	out_freq2 equal 10000
variable	out_freq3 equal 1000

timestep	2.0

neigh_modify    delay 7 every 1

include		in.tip4p
# This is TIP4P/Ice

# create groups ###
group ox type 2
324 atoms in group ox
group hy type 1
648 atoms in group hy

# set charges - beside manually ###
set group ox charge -1.1794
Setting atom values ...
  324 settings made for charge
set group hy charge 0.5897
Setting atom values ...
  648 settings made for charge

# ### TIP3P Potential Parameters ###
pair_style lj/cut/tip4p/long/omp 2 1 1 1 0.1577 8.5
pair_coeff 1 1*2 0.000 0.000
pair_coeff 2 2 0.21084 3.1668
bond_style  harmonic
bond_coeff  1 450 0.9572
angle_style harmonic
angle_coeff 1 55 104.52
kspace_style pppm/tip4p/omp 1.0e-5
pair_modify tail yes

thermo          ${out_freq}
thermo          1000
thermo_style    custom step temp pe etotal epair emol press lx ly lz vol pxx pyy pzz pxy pxz pyz enthalpy

restart 	${out_freq3} restart.lmp.${pid} restart2.lmp.${pid}
restart 	1000 restart.lmp.${pid} restart2.lmp.${pid}
restart 	1000 restart.lmp.1 restart2.lmp.${pid}
restart 	1000 restart.lmp.1 restart2.lmp.1


include         in.dump
dump            myDump all atom ${out_freq2} dump.water.${pid}
dump            myDump all atom 10000 dump.water.${pid}
dump            myDump all atom 10000 dump.water.1
dump            myDump2 all dcd ${out_freq2} dump.dcd
dump            myDump2 all dcd 10000 dump.dcd
dump_modify     myDump append yes
dump_modify     myDump2 append yes


variable natoms 	equal  "count(all)"                        # NUMBER ATOMS
variable H      	equal  "enthalpy/v_natoms"                 # ENTHALPY-per-atom
variable Vol      	equal  "vol/v_natoms"                 # volume-per-atom
fix AVG all 		ave/time ${out_freq} 1 ${out_freq} v_Vol v_H file vol_enthalpy.dat
fix AVG all 		ave/time 1000 1 ${out_freq} v_Vol v_H file vol_enthalpy.dat
fix AVG all 		ave/time 1000 1 1000 v_Vol v_H file vol_enthalpy.dat


timer           timeout 02:55:00 every 1000
New timer settings: style=normal  mode=nosync  timeout=02:55:00

fix 		1 all shake 1e-6 200 0 b 1 a 1
Finding SHAKE clusters ...
       0 = # of size 2 clusters
       0 = # of size 3 clusters
       0 = # of size 4 clusters
     324 = # of frozen angles
  find clusters CPU = 0.000 seconds
fix             2 all nph aniso ${pressure} ${pressure} ${pressureDamp}
fix             2 all nph aniso 1954.4 ${pressure} ${pressureDamp}
fix             2 all nph aniso 1954.4 1954.4 ${pressureDamp}
fix             2 all nph aniso 1954.4 1954.4 1000
fix             3 all temp/csvr ${temperature} ${temperature} ${tempDamp} ${seed}
fix             3 all temp/csvr 127.72 ${temperature} ${tempDamp} ${seed}
fix             3 all temp/csvr 127.72 127.72 ${tempDamp} ${seed}
fix             3 all temp/csvr 127.72 127.72 100 ${seed}
fix             3 all temp/csvr 127.72 127.72 100 745823


run             250000
PPPM initialization ...
  extracting TIP4P info from pair style
  using 12-bit tables for long-range coulomb (../kspace.cpp:340)
  G vector (1/distance) = 0.37229076
  grid = 24 24 25
  stencil order = 5
  estimated absolute RMS force accuracy = 0.0034223901
  estimated relative force accuracy = 1.0306426e-05
  using double precision FFTW3
  3d grid and FFT values/proc = 3458 576
Last active /omp style is kspace_style pppm/tip4p/omp
Neighbor list info ...
  update every 1 steps, delay 7 steps, check yes
  max neighbors/atom: 2000, page size: 100000
  master list distance cutoff = 10.8154
  ghost atom cutoff = 10.8154
  binsize = 5.4077, bins = 4 4 4
  1 neighbor lists, perpetual/occasional/extra = 1 0 0
  (1) pair lj/cut/tip4p/long/omp, perpetual
      attributes: half, newton on, omp
      pair build: half/bin/newton/omp
      stencil: half/bin/3d
      bin: standard
Setting up Verlet run ...
  Unit style    : real
  Current step  : 25000000
  Time step     : 2
  Walltime left : 2:54:59.93
Per MPI rank memory allocation (min/avg/max) = 10.19 | 10.19 | 10.21 Mbytes
Step Temp PotEng TotEng E_pair E_mol Press Lx Ly Lz Volume Pxx Pyy Pzz Pxy Pxz Pyz Enthalpy 
25000000    137.34342   -4983.2219   -4718.3435   -4983.2219            0    1926.0084    20.117326    19.950749    20.802286    8349.1165    1366.7554    1853.6742    2557.5956   -521.30674    1144.0558    388.58737   -4483.8264 
25001000    124.66452   -4992.3174   -4751.8914   -4992.3174            0    2088.0676    20.060373    20.016371    20.798679    8351.4158    2340.0822     2100.689    1823.4316    58.139964    666.56588    656.53742   -4497.5714 
25002000    129.91898   -4997.4951   -4746.9354   -4997.4951            0    1146.4726    19.978321    20.161422    20.720307    8345.9608    1854.2911   -88.422734    1673.5495   -651.83246   -283.91849    513.84494   -4607.3899 
25003000    121.28306   -4984.9057   -4751.0011   -4984.9057            0    1796.2184     20.02904    19.990737    20.950817    8388.6079    3069.0664    1440.3677    879.22115    422.08055    1050.7835    486.47406   -4531.2531 
25004000    124.16581   -5005.3067   -4765.8425   -5005.3067            0    1243.3559    20.051323    19.988114    20.901212    8376.9579    517.90157    1614.6464    1597.5198     457.0441    514.62663   -850.72061   -4613.9425 
25005000    121.32234   -4980.2485   -4746.2681   -4980.2485            0    1364.8251    20.081377    20.029599    20.820398    8374.4206    859.47144    1129.2264    2105.7774    119.08167    -315.1636    1345.1706   -4579.5789 
25006000    127.67656   -4982.1159   -4735.8809   -4982.1159            0    2979.0004    19.883494    20.048356    20.760926    8275.9563    4001.8672    2074.2693    2860.8646   -347.03655    390.78153    1.8968926   -4376.3265 
25007000    128.17552   -4992.4833    -4745.286   -4992.4833            0    1103.4592    20.050832    20.018131    20.845006    8366.7724    472.34082    1160.5746    1677.4621    387.46942    930.51772     138.1522   -4610.6411 
25008000    131.18655   -4997.7364   -4744.7321   -4997.7364            0    1761.2769    20.010865    19.947099    20.948343    8361.7132    1911.9939    1674.6452    1697.1917    158.20423    1026.0528    880.30579   -4529.9497 
25009000    136.37397   -4993.8432   -4730.8346   -4993.8432            0    1092.6735     20.06372    20.021974    20.740097    8331.6137     254.3713    1426.8857    1596.7635   -614.88314   -474.90251   -319.86394    -4598.066 
25010000      137.931   -5007.5376   -4741.5261   -5007.5376            0    1904.1593    19.956505    20.061721    20.761426    8312.0826     2675.756    909.89552    2126.8262   -48.736813    471.62696   -799.44922   -4510.6978 
25011000    126.52169      -4989.5   -4745.4923      -4989.5            0    3061.8248    19.722899    20.025291    20.906402    8257.1253    4189.3657    2790.1466     2205.962    366.37051    356.48435    998.83102   -4376.7821 
25012000    130.38303     -4973.66   -4722.2054     -4973.66            0    1838.3333    19.827127    19.969998     20.97765    8306.0516    911.95926    2890.3244    1712.7163   -389.80469     1209.475     223.0231   -4499.5184 
25013000    129.71219   -4978.6594   -4728.4985   -4978.6594            0    1202.9382    20.025217    20.101317    20.862179    8397.7203    2266.6178     274.5301    1067.6667   -285.70882    635.77679   -24.273172   -4581.1721 
25014000    131.97639   -5006.1022   -4751.5747   -5006.1022            0    2389.5026    19.939821    20.033404    20.669171    8256.5587    3788.2453    1079.5649    2300.6976    8.0048094   -124.21384    643.12857   -4463.8464 
25015000    128.51729   -5000.3017   -4752.4453   -5000.3017            0    2003.2088    19.951406    20.074401    20.735833    8304.9609     2188.022    1836.9887    1984.6157    -437.9792    796.14881    195.95332    -4509.818 
25016000    131.45177   -4999.7522   -4746.2364   -4999.7522            0    2477.3015    20.000569     19.91242    20.764825    8269.7936    2583.0809    2869.8897    1978.9339    126.21652   -1073.4318    259.53524   -4447.4579 
25017000    127.67445   -4993.6326   -4747.4017   -4993.6326            0    1855.1991    19.914625     19.86959    20.975072    8299.7401    77.959805    3976.9078    1510.7296     116.4404    506.36125   -77.735213   -4522.8425 
25018000     125.3976   -5001.1256   -4759.2858   -5001.1256            0    1149.7199    19.940418    20.024085    20.732666    8278.3175    1385.8135    1081.7674    981.57881   -303.19108   -74.282152    720.97661   -4620.4793 
25019000     121.5653    -4982.414   -4747.9651    -4982.414            0    905.62997    19.915075     20.06172    20.826324     8320.755    1056.0107    232.71709    1428.1622    59.634849     965.0247    331.17566   -4638.0672 
25020000     126.9592   -4992.6516   -4747.8001   -4992.6516            0    2705.6793    19.893415    20.011677    20.801913     8281.254    4796.6099    1265.8108    2054.6173   -232.07674    177.45099    333.91381   -4421.0255 
25021000    121.77646     -4995.86   -4761.0039     -4995.86            0    1609.2216    19.975891    19.954906    20.750601     8271.543    1790.1176    818.99376    2218.5533   -444.56203   -264.12144    2.5491825   -4566.8803 
25022000    130.02946    -4992.823   -4742.0503    -4992.823            0    2044.8315    19.972629    19.916802    20.928853     8325.307    1873.0196    3012.6818    1248.7933    42.696989   -717.57485    18.074002   -4493.7749 
25023000    122.14402   -4998.9775   -4763.4125   -4998.9775            0    1546.3327    19.906812    20.102098    20.830683    8335.7873    2253.3962    1283.3642    1102.2379    406.04529   -469.71134   -313.72534   -4575.4265 
25024000    130.60505   -4973.5254   -4721.6426   -4973.5254            0    1981.6337    19.965546    20.071157    20.737469    8310.1593    1998.2129    1763.3692    2183.3189   -207.81881    261.11874    176.21017   -4481.4782 
25025000    135.11446   -4992.2212   -4731.6416   -4992.2212            0    1825.7856    19.966166    20.091033    20.713878    8309.1841    1889.8727     2004.237    1583.2472   -134.79582    150.01541    884.87488   -4510.3912 
25026000    132.71014   -4988.5013   -4732.5587   -4988.5013            0    2451.7827    19.944152    19.848227    20.966194     8299.595    2908.7274    3298.9635    1147.6573    -165.5016    893.40857   -350.47326   -4435.7922 
25027000    132.48269   -4983.9819   -4728.4779   -4983.9819            0    2084.7504    19.998446    19.969967    20.788504    8302.2697    1911.5395    1387.4842    2955.2276   -27.962613    371.10448    465.00939   -4476.0561 
25028000    126.23061   -4994.3803   -4750.9339   -4994.3803            0    2512.7008    20.085737    20.062736    20.549768    8281.0395    2797.2068    1764.2747    2976.6209    289.57624    320.91796    130.01962   -4447.4739 
25029000    128.21048   -4991.1778   -4743.9131   -4991.1778            0    1673.4939    20.084204    20.034256    20.708203    8332.4026     1825.282    1644.1984    1551.0013   -1.2792998     1212.721   -136.87799   -4540.5509 
25030000    132.01275   -4991.1815   -4736.5838   -4991.1815            0    1558.7741    19.952327    19.965067    20.928352    8336.7995    1287.6373    2153.5813    1235.1037    -427.6563    640.63289    310.97289   -4547.0623 
25031000    128.71953   -4980.2752   -4732.0288   -4980.2752            0    2092.0867    20.036995    20.007976    20.864389    8364.5274    3574.5157    683.05914    2018.6853   -33.643205    579.63973   -245.20836   -4476.8192 
25032000    127.89776   -4984.6591   -4737.9975   -4984.6591            0    622.86264     19.89202    20.033612    20.992514    8365.7063    1770.3366    -206.4304    304.68174   -445.75317    839.49764     534.0525    -4662.005 
25033000    129.42857   -4994.7814   -4745.1675   -4994.7814            0    1863.5147      20.0138    19.916717    20.895182    8329.0115    3077.3077    1432.0351    1081.2011    -264.4459   -409.79027     219.7063   -4518.8063 
25034000    126.00454   -5000.6361   -4757.6258   -5000.6361            0    1334.8097    19.999052    19.923036    20.892004    8324.2479    996.51324    1677.7504    1330.1656    18.551881   -326.61365   -653.44969   -4595.5791 
25035000    124.21721   -5010.2329   -4770.6695   -5010.2329            0    1649.3775    19.993521    20.005355    20.793062    8316.7567    2285.6984    773.94796    1888.4861    213.62973    -589.2329   -1057.7559   -4570.6143 
25036000    127.98658   -5006.6189    -4759.786   -5006.6189            0    728.94637    20.132368    20.004029    20.698452     8335.856    834.76752   -225.62236     1577.694    81.219982   -79.203366    268.72011   -4671.1681 
25037000    129.13738   -4994.5646   -4745.5123   -4994.5646            0    3300.1054     19.97976    19.925804    20.805611    8282.9794    5035.0048    1936.5732    2928.7383    269.06176    1089.3008   -927.06069   -4346.8636 
25038000    132.78891   -4993.0717   -4736.9772   -4993.0717            0    2347.2532    19.892658    19.922263    20.986079    8316.9252    2969.1697    2999.1423    1073.4477   -118.31606    641.38563    350.12603   -4452.2699 
25039000    125.78053   -5001.2236   -4758.6453   -5001.2236            0    1035.4282    20.139871    19.966512     20.81212    8369.0318    487.12623    1284.1794     1334.979   -662.38585   -46.964413    233.44928   -4632.2674 
25040000    124.62873    -4988.119    -4747.762    -4988.119            0    1909.6593    20.033694    20.086002    20.673276    8318.8604    2431.2657    755.60549    2542.1067   -367.52377    87.934601   -158.25713   -4516.0782 
25041000     127.1069   -4989.4558   -4744.3195   -4989.4558            0    926.63539    19.975693    20.073403    20.799125    8340.0355    1892.5979   -870.92748    1758.2358   -552.02596    152.70521   -807.62382    -4631.612 
25042000    126.19338   -4994.8187   -4751.4441   -4994.8187            0     2123.835    19.870269     20.09555     20.85857    8328.9102    3574.2378    1497.2255    1300.0418   -584.90552    806.10653   -320.17576   -4493.4648 
25043000    130.78781   -4992.5139   -4740.2786   -4992.5139            0      831.273     19.88208    19.916622    21.149577    8374.8914    809.49098    1463.7323     220.5957    130.52827    86.666755    458.03649   -4638.7476 
25044000    127.48029   -5007.9725    -4762.116   -5007.9725            0    1638.7256    19.897986    20.060605    20.814265    8308.3395    2600.3733    1740.1809    575.62274  -0.79799979    260.69655     164.6841   -4563.5539 
25045000    125.78667   -5007.3842    -4764.794   -5007.3842            0    3371.7487    20.040154    20.044862    20.575767    8265.3293    2784.4106    3148.8275    4182.0078   -345.01203    337.60436   -734.65548   -4358.3589 
25046000     121.3512   -4990.0769   -4756.0409   -4990.0769            0    1960.7539    19.987336    20.015972    20.882834    8354.5112    2776.7234    1324.3304    1781.2078   -603.92194    124.13023   -315.02404   -4517.1388 
25047000    124.02459   -4991.3535   -4752.1616   -4991.3535            0    1041.9828    20.070586     19.93712    21.000797    8403.4625    913.20294    2145.3394    67.406175   -100.58863    377.06209     -648.515   -4624.4605 
25048000    123.20865   -4997.5774   -4759.9591   -4997.5774            0    2554.5046    20.057588    19.863666    20.845969     8305.393    2238.4331    3187.0086    2238.0723   -85.001358    1140.4751   -732.25499   -4450.5431 
25049000    126.37365   -4985.7092    -4741.987   -4985.7092            0    2805.0242    20.058924    19.914492    20.803259    8310.1379    2455.6724    3846.7473    2112.6528    564.92694    372.86352   -89.817626   -4402.0326 
25050000      126.591   -5005.5415   -4761.4001   -5005.5415            0    2330.7488    19.957425    20.164614    20.759037     8354.137    2467.6243    2084.3058    2440.3163    6.0374409   -159.27527    99.538129   -4477.4298 
25051000    135.57695   -4975.3662   -4713.8947   -4975.3662            0    1737.6558    19.992782    19.947517    20.834175    8308.8015    921.50486    2493.1809    1798.2816   -384.29252    -288.1809    547.40874   -4503.3336 
25052000    124.63435   -5000.6891   -4760.3212   -5000.6891            0    1575.5483    19.934343    20.020176    20.936593    8355.5652    2386.7445    1195.6667    1144.2337    152.37503   -118.95713   -875.20677   -4568.3291 
25053000    125.88658    -5007.086   -4764.3032    -5007.086            0    2525.1878    19.909716    19.920757    20.895904    8287.6629    2687.3987    2919.3202    1968.8444    209.91706    607.15503   -242.33838   -4459.0912 
25054000    134.08146   -4993.8421   -4735.2547   -4993.8421            0    1109.0323     20.06073    19.959715     20.88239    8361.4439   -270.36488    1745.6997    1851.7621   -581.37722    325.40595    48.133871   -4600.0159 
25055000    129.45947   -4992.8943   -4743.2208   -4992.8943            0    2598.2139    19.927366    20.069268    20.698774    8278.0119    2885.5051    1394.3605     3514.776    169.13781     1127.049   -166.99241   -4429.5481 
25056000     134.3939   -4984.1923   -4725.0023   -4984.1923            0    1942.8339    19.932454    20.107909    20.703251    8297.8627    2308.6343      1061.15    2458.7173    25.539971    468.08751     861.5063   -4489.8887 
25057000     120.5725   -4994.6975   -4762.1633   -4994.6975            0    2658.0108    19.994052    19.933353    20.860403    8313.8824    1494.6612    3429.4433    3049.9278   -313.99057    593.50809    235.15399   -4439.8809 
25058000    127.13339    -4994.792   -4749.6046    -4994.792            0    1881.5672    19.886937    19.975034    20.902311    8303.2812    2940.2911     1728.903    975.50754     33.32103   -91.849589    193.67177   -4521.7565 
25059000    125.23655   -4994.7211   -4753.1918   -4994.7211            0    2350.8634    20.018239    20.021418    20.773852    8326.0253    2131.9617    2478.6584      2441.97   -458.62404    877.40977    363.00036   -4467.7346 
25060000    130.87974   -5001.6504   -4749.2378   -5001.6504            0    932.81011    20.172504    19.892098    20.785086     8340.503   -262.30657    2378.8599      681.877   -91.472445    1134.5478    836.17549   -4635.7729 
25061000    128.89986   -4988.6885   -4740.0942   -4988.6885            0    3088.4929     19.97711    19.897222    20.799106    8267.4159    3241.4133    3337.3478    2686.7176   -217.58113   -582.58852    32.503805   -4367.7092 
25062000    134.42383   -4985.0638   -4725.8161   -4985.0638            0    1191.5661     20.10139    19.939476    20.831669    8349.5663    1017.2548    1615.8058    941.63769   -491.66325    409.50185    55.835333   -4580.7193 
25063000    131.83437   -4988.9048   -4734.6512   -4988.9048            0    1804.5287    19.898166    20.031437    20.966018    8356.8214    1592.1406    2223.6003    1597.8453   -564.99693    64.420664   -49.698832    -4514.723 
25064000    124.14641   -4986.9581   -4747.5313   -4986.9581            0    2804.2698    20.011865    19.933091    20.828154    8308.3156    1344.7243    3532.6297    3535.4554   -103.36701    300.59994    76.619514   -4407.7428 
25065000    127.40668   -4996.3436   -4750.6291   -4996.3436            0    2083.9592    19.999248     20.08284    20.718147    8321.2719    2482.2821    1177.5009    2592.0944    93.002298    1181.1802   -417.60477   -4497.7257 
25066000    131.40404   -4977.3029   -4723.8791   -4977.3029            0    2763.4157     20.04188    20.033953     20.67069     8299.656    3074.7205    2342.2539    2873.2727   -133.61653   -221.02889   -72.478313   -4389.3898 
25067000    130.80323   -5005.8753   -4753.6103   -5005.8753            0    1426.5061    19.910774    19.899181    20.977768    8311.5616    3313.8719    713.89301    251.75329    182.94387   -72.594234    289.99258   -4580.6955 
25068000    125.23348   -4988.4988   -4746.9755   -4988.4988            0    2780.8566    19.983783    19.934232     20.83372    8299.3493    2334.9143    2979.7802    3027.8753    397.77785   -402.28024   -102.96467   -4410.3876 
25069000    124.79468   -5009.6911    -4769.014   -5009.6911            0    2474.8194    20.042627    20.079737    20.644052    8308.2125    3350.1637    1553.5598    2520.7347   -713.09046    448.16812    310.29204   -4469.1482 
25070000    130.73663   -4990.2034   -4738.0668   -4990.2034            0    2189.5376    20.043079    19.828158    20.831509    8278.8027    1463.5716    2327.6378    2777.4034   -29.256653   -63.636765   -132.01844   -4473.7068 
25071000    124.38189   -4984.8336   -4744.9527   -4984.8336            0    1924.4242    19.964135    20.053079      20.9246    8377.0042    1698.2904     2378.353    1696.6291    254.74336    931.85959   -750.06218   -4509.8458 
25072000    132.45081   -4976.4136   -4720.9711   -4976.4136            0    1854.5771     19.95578    19.939979    20.966709    8343.0275    3229.3308    769.27321    1565.1275   -33.693058    873.60583    969.86727   -4495.3163 
25073000    125.30593   -5009.6667   -4768.0036   -5009.6667            0    2057.2016    20.048719    19.920895    20.835303    8321.3789    1213.7876    3335.6969    1622.1203    67.006348    198.57272   -846.14065   -4518.3442 
25074000    123.63373    -4997.956    -4759.518    -4997.956            0    525.09174    20.109133    19.968896    20.822293    8361.3415    799.18671    193.49743    582.59108    -343.1022   -87.979983    567.10487   -4695.4874 
25075000    125.35948   -4992.9078   -4751.1415   -4992.9078            0     2028.917    19.975834    19.901309    20.842061    8285.6618    1790.4368    3032.8781    1263.4361   -20.753869   -222.11118   -353.04731   -4505.9714 
25076000    127.56137   -4991.7762   -4745.7634   -4991.7762            0    2167.0131    19.952524    19.880702    20.935582    8304.5211    1817.0431    4277.9413    406.05497   -397.91708    -441.5439   -692.40101   -4483.3101 
25077000    123.44862   -5002.7664   -4764.6853   -5002.7664            0     3149.215    19.857372    19.830234    20.981557    8262.0402    3531.6029    3483.5847    2432.4573   -336.21818    151.93852    1136.1799   -4385.2258 
25078000     129.4652   -4980.8876    -4731.203   -4980.8876            0    1529.0722    20.104265    20.038836    20.758113    8362.7392     316.1583    2148.1275    2122.9308   -252.56207   -391.21439    598.96615   -4544.7144 
25079000    120.03778   -4986.3332   -4754.8302   -4986.3332            0     1669.868    20.059586    19.929411    20.684691    8269.2375    699.46862    1616.6188    2693.5168   -105.16685    540.48208   -187.52006   -4553.4469 
25080000     129.0089   -4986.5551   -4737.7506   -4986.5551            0    2664.6619     19.96384    19.953354    20.878479    8316.8493    3023.9167    1952.4677    3017.6013   -12.615615   -353.80209   -127.19453   -4414.5465 
25081000    126.47716   -4983.8799   -4739.9581   -4983.8799            0    2289.7157    20.040021    19.898822    20.871571    8323.0146    1688.8593    3342.7183    1837.5695    286.26727    441.10715   -375.52386   -4462.0264 
25082000    125.35427   -4999.8224   -4758.0661   -4999.8224            0     2225.838     20.07721    19.902247    20.686916     8266.111    1776.5067    2330.6986    2570.3086   -92.831365   -166.29647   -941.60564   -4489.7353 
25083000    129.00753   -4987.5388    -4738.737   -4987.5388            0    1781.7974    20.165507    19.992928    20.671243    8333.9739    1424.8783    1607.9039      2312.61   -49.062646   -773.55282    517.40949   -4522.1729 
25084000     128.4407    -4975.577   -4727.8683    -4975.577            0    913.47172    19.909797     20.05096    20.952422    8364.4282    2084.1451    8.5740597    647.69597   -74.215652    696.96605    -316.5299    -4616.437 
25085000    122.54444   -4995.1497   -4758.8125   -4995.1497            0    2003.7303    19.929983    19.979846    20.931572    8334.9099    2121.8503    1420.4063    2468.9341    264.36717   -1228.9488   -496.77729   -4515.2468 
25086000    127.89954   -4999.9025   -4753.2375   -4999.9025            0    1999.9547    20.038226    19.982111    20.712998    8293.6099    2989.4078    842.14894    2168.3073    147.08021    728.18963     244.3322   -4511.3354 
25087000    123.37136   -4992.9763   -4755.0442   -4992.9763            0     1917.566    20.179197     19.93999    20.720726    8337.4602    652.72197    2523.3551    2576.6209   -114.60658   -491.11987    183.20164    -4521.881 
25088000    136.24799   -5010.6493   -4747.8836   -5010.6493            0    1679.3431     19.93949    20.036529    21.000351    8390.0219    2795.7429      380.168    1862.1184    353.80285    599.51513   -443.79355   -4542.3994 
25089000    124.39264   -5013.9465   -4774.0448   -5013.9465            0    1780.9717    20.040895    19.941116    20.909697    8356.3055    1141.8248    2367.0117    1834.0786   -31.426184    992.67975   -909.12031   -4557.0011 
25090000    127.09524   -4997.4455   -4752.3316   -4997.4455            0    2433.4407    20.089125    19.986869    20.732678    8324.5581    1820.4667    2634.7814    2845.0741   -117.91076   -561.24444   -379.66881   -4456.8994 
25091000    128.45018    -4999.969    -4752.242    -4999.969            0    2124.3815    19.873321    19.837762    20.987832    8274.2893    3848.6747    878.78032    1645.6897   -482.87702   -287.39533    71.125959   -4495.8886 
25092000    126.29372   -4996.4025   -4752.8345   -4996.4025            0     1263.955    19.941005    20.024221    20.907374     8348.379    1157.0132    1713.9399    920.91178    -120.2411   -13.082964   -671.94969   -4598.9448 
25093000    128.43793    -4979.439   -4731.7356    -4979.439            0    2398.2881    19.999914    20.063488     20.55563    8248.3176    2037.3516    2656.5105    2501.0022    524.49679   -411.64242    939.99611   -4443.2378 
25094000    127.47189   -4995.4764   -4749.6361   -4995.4764            0    1409.7103    20.002483    19.969586    20.822024    8317.1765    1401.6218    1995.3062    832.20289    294.86232    639.97653    414.72392   -4578.6418 
25095000    120.40527   -4997.2213   -4765.0096   -4997.2213            0    3484.5939    19.871595    19.845023    21.028669    8292.7032    5409.4818    3653.5294    1390.7704    172.44826   -379.01291   -358.33688   -4343.5808 
25096000    126.92965   -4988.2462   -4743.4517   -4988.2462            0    857.72554    20.164733    19.958033    20.757719    8353.9111   -540.10808    1749.5897    1363.6949   -262.03295   -468.85334     529.3351   -4638.9522 
25097000    128.37312   -4995.9719   -4748.3935   -4995.9719            0    2225.4644     20.04712    20.077505    20.603657    8292.8926    3470.9928    738.81158    2466.5888    -2.100183    217.41862   -409.33759   -4479.2384 
25098000    125.20447   -4989.7573     -4748.29   -4989.7573            0    1745.3557    20.098045    19.967358    20.725156    8317.1057    730.51372    1805.7983     2699.755    589.71359    540.79631   -62.246821   -4536.5845 
25099000    124.87123   -4991.4975   -4750.6728   -4991.4975            0    1953.8706    19.965103    20.006402    20.902861     8349.227    1338.7853    2478.9776    2043.8488   -440.82063   -108.83396    821.76659   -4512.7599 
25100000    129.54292   -4998.9319   -4749.0975   -4998.9319            0    2406.9538    19.983484    19.920296    20.778564     8271.467    1727.6468    3652.6918    1840.5227    355.27708      1012.05   -695.36257   -4458.7446 
25101000    125.95396   -5011.4151   -4768.5023   -5011.4151            0    1701.4396    20.129312    19.886086    20.709924    8290.0423     1676.765    1374.2698    2053.2841    -23.33803   -19.608148     344.6935   -4562.7952 
25102000     131.0907   -4995.9256   -4743.1061   -4995.9256            0    3063.0981    20.002367    20.018918    20.719079    8296.4524    2388.6044    3497.5354    3303.1543    432.49539     939.7535     41.31199   -4372.4858 
25103000    128.37623   -4984.7764    -4737.192   -4984.7764            0    1944.5069    20.122251    19.851801    20.793202    8306.1134    1057.5947    2599.9009    2176.0252   -144.69068    437.09172   -803.66526    -4501.642 
25104000    130.25561   -4994.6179   -4743.4089   -4994.6179            0    1453.5337    19.904757    19.899648     21.03489    8331.8706    1819.5435    1598.1806    942.87704    67.065517   -557.18789   -171.39178   -4566.7875 
25105000    135.13778   -4985.3104   -4724.6858   -4985.3104            0    2699.4816    20.051111     19.89705    20.844289     8315.995    2283.0038    2645.0629    3170.3782   -82.538083    129.00516    969.47025    -4397.292 
25106000    125.31517   -5004.3509   -4762.6701   -5004.3509            0    1924.7963    20.054208    19.923638    20.782004    8303.5075    1314.9158    1824.7099    2634.7632     181.5538   -761.51434    471.26174   -4529.5808 
25107000    126.59547   -4989.0499   -4744.8999   -4989.0499            0    1064.3467    20.028148    19.866976    20.917483    8323.0402    659.31902     1549.635    984.08618   -243.08689    -364.1109    81.778597   -4615.7063 
25108000    129.51342   -4990.9989   -4741.2213   -4990.9989            0    2258.6831    19.969994    19.908759    20.969938    8337.1815    1021.5876    3044.3268     2710.135   -59.555895   -347.76061    243.25262   -4466.5898 
25109000     127.8475   -4994.7202   -4748.1556   -4994.7202            0     1909.534    19.991636    19.982383    20.808331    8312.5231    1522.6045    2342.6904     1863.307   -179.87229    436.84346   -167.13946   -4516.6635 
25110000    130.75862   -4989.0403   -4736.8613   -4989.0403            0    633.99262     20.01397    20.091272    20.885657      8398.25    2081.5778   -933.66625    754.06631   -141.46724   -649.39856    1214.8262     -4659.21 
25111000    125.91063   -4975.9919   -4733.1626   -4975.9919            0     2052.229    19.879774     20.05287      21.0819    8404.2261    3106.9054    968.99065    2080.7911   -687.47653    1319.1586    18.825488    -4481.627 
25112000    129.93932    -4988.906   -4738.3071    -4988.906            0    2001.4671    19.951642    20.000841    20.901013    8340.5416    2402.1646    2548.0303    1054.2065   -107.01675    371.70861   -43.145263   -4494.8522 
25113000    121.92017   -4993.3821   -4758.2488   -4993.3821            0     2300.155    19.918919    20.078719     20.73653    8293.4999    1714.5433    2694.6179    2491.3037    474.08073    226.62231    66.422166     -4480.04 
25114000    132.05214   -4997.5369   -4742.8632   -4997.5369            0    2102.4485    19.977459    20.013548    20.733008    8289.4675    2117.1838    2581.9263    1608.2354   -282.44983   -581.54278    132.18854   -4488.6911 
25115000    126.87145   -4993.4113   -4748.7291   -4993.4113            0    1799.5006    19.981305    19.979611    20.844389    8321.4694    1618.0325    1676.9764    2103.4928   -78.684448   -350.93153    161.09715   -4530.3415 
25116000    124.64919   -5003.9367   -4763.5402   -5003.9367            0    1370.8787    20.045668    19.942317    20.917927    8362.0889    1613.2989    2079.3679    419.96925     314.5131   -716.99126    270.26113   -4596.3582 
25117000    124.09017   -5000.3169   -4760.9986   -5000.3169            0    4054.7043    19.951316     19.77249    20.760073     8189.583    3492.7853    4480.0317    4191.2959   -527.01839    382.79442    509.35755   -4276.7182 
25118000    124.19453   -4994.1437   -4754.6241   -4994.1437            0    2086.6266    20.129121    20.002269     20.60836    8297.5047    1019.7478    2265.7204    2974.4116   -116.45803    687.46218    554.18422   -4502.1202 
25119000    120.14725   -4993.2872   -4761.5732   -4993.2872            0    1724.2268    19.921123    20.076548    20.895159    8356.9645     1745.028    1419.8139    2007.8386   -504.24464    543.22218     1020.475   -4551.4283 
25120000    122.08387   -4977.7188   -4742.2698   -4977.7188            0    2711.5318    19.996312    19.885956    20.908566    8314.2028    1341.4545    3822.4759     2970.665   -365.45016    940.83779   -582.07294   -4413.4854 
25121000    125.77924   -5007.6402   -4765.0643   -5007.6402            0    2696.8602     20.09929    19.888856    20.713001    8280.0611    2586.4594    3110.8313    2393.2899   -379.13626    448.45783     106.9638   -4439.4018 
25122000    127.41614   -4981.4859   -4735.7532   -4981.4859            0    1531.9009     20.09045    19.956759    20.874314    8369.3535    1139.0796    942.52471    2514.0983   -214.83656      307.066    84.522191   -4548.7718 
25123000    127.53571   -4992.6396   -4746.6763   -4992.6396            0    2685.2576    20.019589    19.955137    20.828648    8320.9124    1888.9122    3204.3936    2962.4671   -374.92104   -454.84348      546.491    -4420.815 
25124000    127.85084   -4994.2152   -4747.6441   -4994.2152            0    2096.4612    19.878481     20.11728     20.67021     8266.037    1984.1437    2331.6177    1973.6222   -267.35912    1160.3967    417.43448   -4494.9122 
25125000    130.90525    -4988.418   -4735.9562    -4988.418            0    2661.1039    19.904943    19.946968    20.849477    8278.1444     2572.806    3531.2999    1879.2057    652.65728    487.86167    204.76123   -4414.6858 
25126000     122.0898    -5003.752   -4768.2916    -5003.752            0    1701.6584    19.899411    19.929831    20.984246     8322.182    3413.7663    873.61471    817.59421   -266.81036   -661.49165   -642.49736   -4561.7604 
25127000    126.55866   -4997.3525   -4753.2735   -4997.3525            0    2440.5055    20.063713    20.038535    20.817841    8369.7588    2078.1074    2660.7443    2582.6648   -440.83474    -379.2566   -788.77649   -4455.3748 
25128000    123.13067   -4991.9288   -4754.4609   -4991.9288            0    1634.4284    20.020889    20.023455    20.765971    8324.8154    2615.9738    658.86855    1628.4427   -398.66235   -318.96948   -135.07994   -4556.0268 
25129000    132.93134   -4989.8358   -4733.4666   -4989.8358            0    1886.2251    20.107749    19.961088    20.763152    8333.7592     1531.541    2107.0926    2020.0416    77.821453    -433.1264   -966.71324   -4504.2161 
25130000    119.25113   -5000.6218   -4770.6359   -5000.6218            0    2409.8751    19.998904    19.950278    20.851539    8319.4244    2978.3344    2306.9129    1944.3778   -348.44341    608.68891    412.29053   -4478.2451 
25131000    127.30341   -5014.9316   -4769.4163   -5014.9316            0    1701.3278    19.870926    19.982825       20.894    8296.5318    2138.3012    238.15513     2727.527   -44.714529    615.46754    278.61895   -4563.5618 
25132000    129.50555   -4981.8885   -4732.1262   -4981.8885            0    1997.8926    20.042584    19.863791    20.932709     8333.766    1634.1433    2935.9037    1423.6309   -326.99755    333.20864   -750.03182   -4489.3034 
25133000    129.42466   -4984.0748   -4734.4684   -4984.0748            0     2941.803    20.145298    19.870653    20.787673    8321.3105     2936.836    2791.4702    3097.1029   -570.93584   -539.14349   -51.024281   -4377.4578 
25134000    122.77848   -4994.8203   -4758.0317   -4994.8203            0    1946.9685    20.247757    19.868558    20.719972    8335.5152    -820.6366    4047.7077    2613.8343    337.79459   -61.489016   -1608.2656   -4521.3486 
25135000    126.66105   -4991.7534   -4747.4769   -4991.7534            0    1326.5224    19.982126    19.985889    20.774997    8296.7143    2504.4578   -98.295401    1573.4049    440.98864   -687.96845    903.70942   -4586.9689 
25136000    124.74349   -4984.8911   -4744.3128   -4984.8911            0    1444.1659    20.009783    19.985557    20.898673    8357.5186     1815.193    1489.0264    1028.2781   -154.75725    468.35861    67.963081   -4568.2895 
25137000    124.63109   -4997.5496   -4757.1881   -4997.5496            0    867.33632    20.172273    19.853741    20.863791    8355.8456    455.63202    2190.4779    -44.10093    -312.3354   -221.05823   -418.50714   -4651.4933 
25138000    126.80231   -4998.5108   -4753.9619   -4998.5108            0    2131.5584     19.97531    20.053891    20.786685    8326.7862    2415.6456    2003.2662    1975.7635   -343.99511    920.70484    1023.9346   -4495.1105 
25139000    124.68757   -5008.6714    -4768.201   -5008.6714            0    2688.5417    19.928039    19.881995    20.897294    8279.6995    2976.2453    3035.4723    2053.9074    341.09969    752.31965    103.91923   -4443.5571 
25140000     134.0883   -5001.8984   -4743.2978   -5001.8984            0    1540.5818    19.974323    19.922802    21.067063    8383.5218    2298.4791    1379.6669    943.59942   -556.23557    83.676174   -913.04433   -4554.9385 
25141000    126.68938   -4992.1366   -4747.8055   -4992.1366            0    1669.1843    20.031444    19.920277    20.761648    8284.5606    1398.9291    1291.4021    2317.2217   -100.79405    325.40907      479.926   -4546.1316 
25142000    125.96776   -4991.8417   -4748.9023   -4991.8417            0    1762.9639    20.231122    19.770857    20.847571    8338.7493    871.20776    1980.4776    2437.2064   -64.768228    775.05754    153.55734   -4534.5045 
25143000    121.37095   -4988.3938   -4754.3197   -4988.3938            0    2163.5271    20.096628    19.984913    20.649596    8293.4843    1829.0565    1126.5818    3534.9431   -264.74341   -129.87393     257.7359   -4492.6368 
25144000    125.80258   -4989.1497   -4746.5288   -4989.1497            0    2339.4066    20.139319    19.909198    20.711108    8304.2783     953.6607    3135.6078    2928.9512   -465.40845    738.87285    229.26163   -4463.2047 
25145000    130.29918   -4997.1294   -4745.8364   -4997.1294            0    2766.1463    19.883501    19.826293    21.016306    8284.9667    3460.0225     2817.671    2020.7454    106.68236    904.09855    154.45168   -4411.6092 
25146000    119.48996    -4986.683   -4756.2366    -4986.683            0    2319.6969    19.984722    19.915856    20.870946    8306.9045    3915.6743    1829.0479    1214.3683   -283.76491   -528.73116    -751.8279   -4475.2107 
25147000     124.9311   -5005.3249   -4764.3848   -5005.3249            0    806.88963    20.048705    19.922747    20.856424    8330.5831   -201.92696    1589.4962    1033.0996    163.95099    1429.1319    55.620951   -4666.3533 
25148000    127.50726   -5002.6461   -4756.7377   -5002.6461            0    2957.2058    19.957281    19.982109    20.733796    8268.4006     2175.825    3403.7306    3292.0617   -224.17736    492.18906   -159.50048   -4400.1396 
25149000    130.86438   -4990.1428   -4737.7598   -4990.1428            0    2020.2604    20.036901    20.131622    20.553671    8290.8436    1913.8702    1017.4823    3129.4288   -528.73993   -288.42659   -321.64202   -4493.4831 
25150000    130.71436   -5004.6942   -4752.6006   -5004.6942            0    1940.3152     19.98277    19.991396    20.849097    8328.8694    2240.5169    1432.3395     2148.089    -99.14096   -81.979892   -479.90846   -4516.9143 
25151000    134.09998   -4991.3998   -4732.7767   -4991.3998            0    946.28464    20.023356    19.916511    21.024067    8384.3013    1790.1325    1134.4138   -85.692417   -106.94135    817.54097    54.110602   -4617.0684 
25152000    133.10765   -4993.5223    -4736.813   -4993.5223            0    3026.5858    20.032229    19.847947    20.731394    8242.7736    2718.5589    3928.0091    2433.1892   -250.57807   -771.32988    147.04692   -4372.9799 
25153000    126.04232   -4994.5134   -4751.4302   -4994.5134            0    2532.4796    20.095908    19.996183    20.679043    8309.6968    2893.9977    2221.2647    2482.1763    52.177679     554.4684    49.791885    -4444.523 
25154000    127.73914   -4995.9105   -4749.5548   -4995.9105            0    3305.4051    19.944707     19.98449    20.910667    8334.6739    3463.0394    2854.8009    3598.3751   -262.87781   -579.67214   -619.91091    -4347.774 
25155000    127.31176   -4996.8152   -4751.2838   -4996.8152            0    2245.1787    19.881487    19.984377    20.997608    8342.7513    3163.6527    2047.1355    1524.7479   -83.378502   -357.51893    252.34857   -4478.1118 
25156000    122.96199   -4996.6505   -4759.5079   -4996.6505            0    2523.8116    19.965785    19.961542    20.793813    8287.3299    3229.4037    1562.9586    2779.0724    348.00748    144.98472   -28.208464   -4454.4745 
25157000    135.39722   -5003.1939    -4742.069   -5003.1939            0    2522.7239    19.975542     20.06634    20.702827     8298.439    3582.0771    870.33883    3115.7558    1.8829057    145.28667     455.5066   -4436.7583 
25158000    121.43229    -4998.574   -4764.3816    -4998.574            0     1547.821    19.918363      20.0589    20.768695    8297.9336    3302.7078     750.7508    590.00439   -51.555699    216.53714   -315.11538   -4577.0692 
25159000    126.75195   -5003.6015   -4759.1497   -5003.6015            0    2511.4888    19.970857    20.007838    20.798811    8310.6572    2806.4841    2595.2612     2132.721   -94.285977    81.683086   -739.20834   -4454.7513 
25160000    128.26091   -4992.6872   -4745.3252   -4992.6872            0    964.32405    19.967213     19.94908    21.055868    8387.1319    2133.1784    721.98618    37.807544   -221.27317    -921.1386    453.19703   -4627.3713 
25161000    128.21058   -5005.3253   -4758.0604   -5005.3253            0    1177.9066    19.979761     20.04636    20.771321    8319.3604    889.15517     1479.137    1165.4277   -23.631797     269.7956    364.54967   -4615.1458 
25162000    132.71922   -5002.7306   -4746.7704   -5002.7306            0    580.49959    19.978764    19.984548     20.89487    8342.6231    747.41176   -2.0471677    996.13417    71.669774   -1131.1978    -563.2241   -4676.1418 
25163000    130.43927   -4995.4989   -4743.9358   -4995.4989            0     2390.186    19.905447    20.033382    20.906166    8336.8234     2575.372    1640.2775    2954.9085    293.16645    795.73652    340.43104   -4453.3273 
25164000    122.77503   -4992.6868   -4755.9049   -4992.6868            0    1744.5763    19.887923    20.103896    20.831357     8328.892    1661.9419     2341.285    1230.5019    106.76487   -81.348424   -376.93676   -4543.9941 
25165000    130.32653   -5000.9864   -4749.6408   -5000.9864            0    2170.4369    19.989854    20.048883    20.699851     8295.967    1130.2977    2247.9323    3133.0806    409.74794    748.51547    731.63412   -4487.0436 
25166000    130.51189   -4992.6794   -4740.9763   -4992.6794            0    1756.8513    19.991409    20.040999    20.793943    8331.0473    3003.7458    346.85748    1919.9507   -51.376517    420.98094    346.74271   -4527.5192 
25167000    126.51787   -4991.2269   -4747.2266   -4991.2269            0    656.93456    20.010942    19.984231    20.965202    8384.0528    1212.2049    134.78893     623.8098   -27.913553     179.2516    246.79363   -4666.9013 
25168000    129.80269   -4981.7478   -4731.4124   -4981.7478            0    2421.9136    20.009191    20.046333    20.728946    8314.6062    3447.2513    1863.9333    1954.5561   -69.997294    23.763877    -1187.308   -4437.7312 
25169000    131.95404   -4986.1894   -4731.7049   -4986.1894            0    2798.3928    19.991893     20.01755    20.732975     8297.103    2321.4177    3160.4002    2913.3605   -461.14366    671.22582   -606.26647   -4393.0861 
25170000    125.84256   -4992.6747   -4749.9768   -4992.6747            0    1723.2984    20.058246     19.93922    20.881717    8351.5544    1764.9061    1256.9376    2148.0514   -226.42188     816.8175    -782.7525    -4540.081 
25171000    128.92798    -4985.955   -4737.3065    -4985.955            0     2856.742    19.895906     19.89154    21.023438    8320.2401    3743.6728    2731.9035    2094.6497     170.0563   -1188.4306    543.81934   -4390.6633 
25172000    133.78914   -5011.6765   -4753.6528   -5011.6765            0    1221.9229    19.975828    20.145944    20.710677    8334.6372    2275.8854   -249.32846    1639.2117   -159.64799    519.53488    183.41952   -4605.1255 
25173000     119.7853   -4994.3774   -4763.3614   -4994.3774            0    2707.5208    19.945477    20.032217    20.841113     8327.111    3996.5126    1682.5727     2443.477    142.12962   -289.15806   -832.55253   -4434.5536 
25174000    129.87392   -4999.1828     -4748.71   -4999.1828            0    1380.9284    20.098008    20.006677    20.738644    8338.8918    1328.4162    1218.9063    1595.4627    8.6206569    772.67344    345.08095   -4580.7695 
25175000    127.06938   -4994.5146   -4749.4506   -4994.5146            0    3190.1446    20.059629    19.872714    20.662852    8237.0243    1639.0281    3392.6677     4538.738   -228.36277    140.58275   -955.07444   -4366.2232 
25176000    121.91344   -4991.3187   -4756.1984   -4991.3187            0    2370.1128    20.024256    20.004935    20.707808    8295.2155    2879.5768     2074.567    2156.1947    564.64574   -330.51474    235.42599   -4469.4688 
25177000    126.23977   -4991.2204   -4747.7564   -4991.2204            0    2217.0967    20.047237    19.851075    20.951186    8337.7172    1648.3668    3312.4912    1690.4322   -177.90283   -111.53599   -529.78336   -4478.1639 
25178000    127.90463   -4996.1329   -4749.4581   -4996.1329            0     1202.335    19.980289    20.063338    20.785702    8332.3909    1857.9127    255.83104    1493.2613    182.28036    739.83982     214.2807   -4603.3511 
25179000    127.43214   -4979.8149   -4734.0513   -4979.8149            0    2125.0627    19.827613    20.069609    20.889349    8312.5498    4084.1553    563.11892    1727.9138   -531.79324   -509.27044    464.33191   -4476.4299 
25180000    132.88197   -4994.8331    -4738.559   -4994.8331            0    2465.0674    20.048515    20.017573    20.592924    8264.4062    1495.0648    2295.8602    3604.2773    319.98276    1043.6176   -266.29167   -4441.4497 
25181000      125.909    -4996.585   -4753.7589    -4996.585            0    2006.9006    20.083781    19.933049    20.827671    8337.9621    219.82555    4045.6459    1755.2305   -45.620048    535.77165   -241.84902   -4509.7185 
25182000    128.93226   -4998.6403   -4749.9836   -4998.6403            0    2102.3474    20.062022      19.9505    20.798428    8324.5162    2302.7766    1418.5133    2585.7522   -929.62147    187.38531   -509.12232   -4494.7491 
25183000    124.16894   -5003.2999   -4763.8297   -5003.2999            0    935.44255    19.955375    20.038301    20.879536    8349.1382    1565.0278     736.3119    504.98795   -191.02266    553.38397    -703.3689   -4649.9268 
25184000    119.17713   -4992.5421    -4762.699   -4992.5421            0     1580.814    20.012192    20.047877    20.786003    8339.3851    2215.8987    638.02793    1888.5153   -650.93727    876.41915   -20.172091   -4570.4382 
25185000    126.63114   -4979.6879   -4735.4691   -4979.6879            0    2027.3456    19.981683    20.085583    20.785671    8342.1992    2118.4172    1987.1986    1976.4209   -267.24156     757.8945    691.89508   -4488.8173 
25186000    131.56643   -4989.7041   -4735.9672   -4989.7041            0    2430.1541    20.063626    19.869763    20.979687    8363.7516     1093.535    3201.4573      2995.47   -49.065136   -394.31408    1157.0903   -4439.5449 
25187000    124.60954   -4997.3681   -4757.0481   -4997.3681            0    710.30367    20.104401     19.96509    20.840748    8365.1878    969.85901    498.87982     662.1722    30.575336    782.87122    204.03317   -4670.3927 
25188000    130.25464   -4992.9161    -4741.709   -4992.9161            0    2163.8822    19.975206    20.058219    20.637417    8268.7332    1814.5374     1447.658    3229.4511    139.37331    5.7938914   -873.74654   -4480.7643 
25189000    123.41033    -5000.887   -4762.8798    -5000.887            0    2290.7327    20.003183    20.138032    20.613758    8303.7313    2495.7523    1520.4128    2856.0331    284.75237    1284.4877    556.65831   -4485.4689 
25190000    137.54778   -4992.3161   -4727.0436   -4992.3161            0      3412.68    19.897723    19.862749    20.843469    8237.8283    4096.6831    3643.2759     2498.081    172.03798    896.95383   -834.23033   -4317.0433 
25191000     127.7867   -4992.9109   -4746.4635   -4992.9109            0     268.3111    20.003025    20.184202    20.784833    8391.7742   -393.56863     454.7355    743.76644   -207.80951    1041.9084   -537.54844   -4713.6261 
25192000    131.80586    -4995.034   -4740.8353    -4995.034            0    1937.6685    20.038784    19.933947    20.909557    8352.3657    2877.5268    1482.4039    1453.0749    512.10629   -1234.6739   -107.10414   -4504.8066 
25193000    130.69762   -4998.9657   -4746.9044   -4998.9657            0     1214.232    20.237043    19.871604    20.954397    8426.6535    856.85708    1301.7237    1484.1153    136.62088    136.13805   -342.36146   -4597.6824 
25194000     127.2484   -4985.0824   -4739.6732   -4985.0824            0    1371.8046    20.038314     20.05397    20.766517    8344.9778    1036.2392    1258.3423    1820.8322   -157.71441    1119.7592    221.86818   -4572.7205 
25195000    127.27626   -4988.6096   -4743.1466   -4988.6096            0    3434.2278    19.816202     19.91434    20.959649    8271.2344    4367.8277    2382.4207     3552.435   -224.19491   -130.16572     467.0237   -4328.8844 
25196000    128.13175   -5000.6748    -4753.562   -5000.6748            0    1143.6344    20.066967    19.956086     20.87879    8361.0806   -331.38431    2354.9371    1407.3503   -109.38781   -353.33928   -133.97983   -4614.1097 
25197000    125.34593   -4984.4406   -4742.7004   -4984.4406            0    1989.0665    20.017997    19.961115    20.733859    8284.8671    2029.5429    1888.4989    2049.1577   -258.15695    120.67981   -105.66855   -4502.3689 
25198000    132.84478   -5002.4204   -4746.2181   -5002.4204            0    1492.4702    19.976004    20.093104    20.694666    8306.4234    1723.3016    1109.4119    1644.6972   -88.605932   -55.691847    128.30353   -4565.4192 
25199000     129.3732    -4985.674   -4736.1669    -4985.674            0    1775.8763    19.893816    19.905444    21.017749    8322.9288    786.08183    3367.2973    1174.2498   -166.79873      310.204    370.50539   -4520.6086 
25200000    126.18593    -4996.489   -4753.1288    -4996.489            0     2900.422    19.966445    19.939802     20.87573    8311.1912    3500.9315    2779.4842    2420.8502     74.99522    282.17065    -952.0065   -4401.5681 
25201000    123.57348   -4990.8336   -4752.5118   -4990.8336            0    2687.6527     19.99468    20.079765    20.649185    8290.4098    4198.9823     516.9123    3347.0634    -485.8878   -581.35863    945.11566   -4427.5554 
25202000    128.54318   -4997.7353    -4749.829   -4997.7353            0    1786.8558    20.105455    20.011605    20.758917    8352.1933    1839.8924    828.18258    2692.4923     337.5005    66.940877    321.81136   -4532.1753 
25203000    121.36326   -4994.2093     -4760.15   -4994.2093            0    1924.3978    20.019915    19.925231    20.831846    8309.8531    1891.6275    2990.8548    890.71115    260.87989    116.63589   -781.43425   -4526.9309 
25204000    127.07308   -5005.2922    -4760.221   -5005.2922            0    1526.6771    19.910814    19.926863    20.981765    8324.7262    1738.9973     2009.654    831.38007   -667.33978    716.80518    374.08944   -4574.8708 
25205000    126.61506   -5008.3116   -4764.1238   -5008.3116            0     3097.112    20.020196    19.824533    20.909656    8298.8552      3525.94    3589.8523    2175.5435    83.975274    156.22899   -332.01327   -4389.2794 
25206000    123.41915   -4998.3237   -4760.2995   -4998.3237            0     3168.723    20.017966    19.928458    20.683864     8251.356    4460.4741    1944.4996    3101.1952   -137.20768    579.17575    333.99957   -4378.9831 
25207000    129.57109   -5000.1587     -4750.27   -5000.1587            0    1484.4677    20.076353     20.00588    20.769306    8341.8905    813.19642    2193.1598    1447.0467     107.0708    152.75417    872.02892   -4569.6727 
25208000    129.76212   -4993.3593   -4743.1022   -4993.3593            0    2168.9632     19.97095    19.946971    20.811161    8290.3332    1493.7284    2735.9453    2277.2158   -91.431113    333.27161   -424.07561   -4480.8615 
25209000    129.06456   -5001.3727   -4752.4608   -5001.3727            0    2214.0401    19.883083    20.010317    20.915302    8321.5042    2719.1739    1871.9948    2050.9515   -800.02575    948.11244    1261.1165   -4483.7636 
25210000    130.20042   -4983.7337   -4732.6312   -4983.7337            0    2399.2109     20.05245     19.93292    20.897896    8352.9703    3315.0564    1527.1911    2355.3852    182.69075    1206.5529    -219.8409   -4440.3605 
25211000    126.68307   -4990.8659    -4746.547   -4990.8659            0    1530.3671    20.164368    20.000257    20.616967    8314.6687    547.27428    1251.6227    2792.2042    213.23313   -178.98354    1049.2824   -4560.9733 
25212000     124.6232   -4986.2648   -4745.9184   -4986.2648            0    2963.4007    19.922038    19.905637    20.693921     8206.399    2112.5057    3734.5096    3043.1868    200.86358   -589.25892   -343.87485    -4391.253 
25213000    127.40493   -4982.9749   -4737.2637   -4982.9749            0    724.80377     19.99949    19.966655    20.927825    8356.9602    1185.3733   -97.313193    1086.3512   -4.8252631     286.1271   -762.35227   -4648.9263 
25214000    126.81693   -4987.8198   -4743.2427   -4987.8198            0    1505.3605    20.164012    19.879875    20.877828    8369.0451    1957.8357    1817.2021    741.04376    372.19096   -848.53962    367.51797   -4559.5075 
25215000    121.35249   -5003.8875    -4769.849   -5003.8875            0    1886.5212    19.990681    19.916427    20.722486    8250.5113    2264.0123    2422.6053     972.9461   -296.58065    3.6164705   -515.70433   -4542.8529 
25216000    121.40383   -4991.6422   -4757.5047   -4991.6422            0     3033.999    20.078519    19.965887    20.618251    8265.5566    2306.3441    2484.1158    4311.5372    -248.0731    489.11516   -830.20615   -4391.7724 
25217000     122.0822   -5005.0845   -4769.6387   -5005.0845            0    1195.6081    19.919301    20.093211    20.937587    8380.1169    1019.5827    1662.7381    904.50355   -458.98331   -613.18417   -215.51655    -4623.517 
25218000    124.56683   -4976.5935   -4736.3559   -4976.5935            0    2361.0648    19.934684    19.918328    20.926316    8309.1197    1559.3984    2980.8025    2542.9935    370.29623    348.43037    491.59733   -4450.2421 
25219000    131.92568   -4997.2022   -4742.7724   -4997.2022            0    1225.8388     20.06269    20.033787    20.698508    8319.3854    1580.9201    886.85865    1209.7377    60.154212   -1.8636001    309.49856   -4594.0417 
25220000    126.18809   -5006.3757   -4763.0113   -5006.3757            0     1967.273    20.029491    19.986148    20.810843    8330.8381    1912.7582    2256.2855    1732.7751    237.65186    82.659165    1068.1992   -4523.9941 
25221000    125.42154   -4995.8848   -4753.9988   -4995.8848            0     1830.033    20.138904    19.918981     20.82485    8353.8146    713.05786    2094.6203    2682.4209   -24.727618    502.23899    -81.65314   -4531.0426 
25222000    125.47098    -5004.396   -4762.4147    -5004.396            0    1573.6804    20.115069    20.034732    20.668747    8329.5055    279.08476    3118.9365    1323.0199   -384.55205    592.21564   -1010.4336   -4571.2482 
25223000    131.39276   -5010.5983   -4757.1963   -5010.5983            0    1148.6223    19.954854     20.05445    20.934472    8377.6325    1365.3969    864.58741    1215.8825    166.35008    200.41557    282.02124   -4616.8586 
25224000    125.55729   -4990.6967   -4748.5489   -4990.6967            0    1456.2107    19.897371    20.041149    20.810524    8298.5331    1311.0611    1510.3664    1547.2047   -183.08988    1102.1949   -62.650307   -4572.3101 
25225000    124.32922   -4998.0692   -4758.2898   -4998.0692            0    3781.5813    19.850963    19.929391    20.842043    8245.4791    4032.3874     4121.181    3191.1756   -233.10165   -923.76147     220.5307   -4303.5477 
25226000    127.68296   -4996.7503    -4750.503   -4996.7503            0    2061.9244    19.972737    20.170547    20.697818    8338.3445    2018.9638    2695.5729    1471.2364   -112.95837    3.5389861   -29.341076   -4499.7602 
25227000    130.55964    -4969.932   -4718.1367    -4969.932            0     2007.084    19.950565     20.03302    20.820589    8321.3661    1816.4988    1517.7422     2687.011   -290.43096    447.24587   -560.57331   -4474.5599 
25228000     133.0963   -4991.2658   -4734.5784   -4991.2658            0    711.68111    20.085038    19.884095    20.869825    8334.8402    358.97529    1994.4603    -218.3923   -238.44506   -190.63776    1035.0183   -4648.0699 
25229000    131.18003    -4995.081   -4742.0893    -4995.081            0    1840.3081    20.186162    19.915996    20.670436     8310.084    1129.4387    1543.9791    2847.5065   -147.93751    273.79485   -137.64957   -4519.0549 
25230000    130.05381   -4984.4778   -4733.6581   -4984.4778            0    981.63238    20.081698    19.986591    20.878585    8379.9269      1580.78    79.493881    1284.6232    211.03381   -103.18019   -635.88282   -4613.6902 
25231000    130.17233    -4989.395   -4738.3467    -4989.395            0    1638.2665    20.105382     19.92867    20.927092    8384.9314    805.63928    2678.7376    1430.4227   -255.00034   -38.892165    294.79565   -4538.0103 
25232000    129.91068    -4995.318   -4744.7743    -4995.318            0    2822.2442    19.981304    19.893096    20.793076    8265.0396    2859.8936     2429.181    3177.6578   -130.25935     927.4181    499.94878   -4404.5891 
25233000    128.65903   -5000.4863   -4752.3565   -5000.4863            0    3223.1533    19.989177    19.881856    20.714086    8232.2321    3463.2745    3033.6456    3172.5398    57.766822    124.49752   -416.71915   -4365.3891 
25234000    131.57579   -4989.8104   -4736.0554   -4989.8104            0    2230.2409    20.020824    19.793363    20.975432    8312.1323    995.74134    3876.6851    1818.2964   -2.0832674    389.15155    524.67747   -4465.6968 
25235000    124.16757   -4999.9033   -4760.4357   -4999.9033            0    2011.6838    19.987639    19.945396     20.82725    8303.0202    2639.8464     1926.536     1468.669    -394.4661    511.12335    394.79545   -4516.8388 
25236000    125.73651   -4999.9421   -4757.4487   -4999.9421            0    1440.9353    19.992992    19.919497    20.848564    8302.9475    2115.4908    544.14921     1663.166   -532.41151    1011.9162   -726.44492   -4582.9659 
25237000    131.64117   -5003.6977   -4749.8166   -5003.6977            0    1228.0675    20.015524    20.122787    20.778523    8368.9271    835.88646    1354.4205    1493.8957    93.752662    618.78965   -30.059552   -4599.9283 
25238000    134.81094   -5001.5425   -4741.5483   -5001.5425            0    2561.6977    19.982385    20.029983    20.758051    8308.3439    1728.3827    2691.5337    3265.1767   -162.64464   -221.79319   -1.0034476   -4431.1508 
25239000    124.67081   -4992.4592    -4752.021   -4992.4592            0     2147.545    19.918505    19.887815     20.93536      8293.24    2588.1393     2878.502    975.99376   -326.53023   -186.34976    237.11816   -4492.2789 
25240000    126.58691   -4991.4487   -4747.3152   -4991.4487            0    1764.3822    20.065231    19.960613    20.873919    8360.3033    721.20455    2351.6731    2220.2691    99.770086   -9.6151802    776.65942   -4532.1904 
25241000    121.48176   -4996.7377   -4762.4499   -4996.7377            0     956.6349    20.206727    19.942146      20.8398    8397.7204    327.96179    600.18007    1941.7629     86.32658    398.92887    -233.9739   -4645.2888 
25242000    128.00099   -4995.6127    -4748.752   -4995.6127            0    2392.6384    20.152658     19.95206    20.649182    8302.7684    924.20935    2588.3885    3665.3174   -194.66176   -13.770686    26.307831   -4459.0337 
25243000    127.53552   -4983.3248   -4737.3619   -4983.3248            0    2793.7535    19.970674    19.928163    20.854461    8299.6341    3753.4741    2672.4797    1955.3067    433.60376   -339.22954   -74.969893   -4399.2013 
25244000    129.69713   -4987.6913   -4737.5595   -4987.6913            0     1324.422     19.92606    20.107296    20.772355    8322.6348    2743.5424   -1261.5532    2491.2768   -329.39085     413.1782    276.04199    -4576.805 
25245000    133.83049   -4984.5031   -4726.3997   -4984.5031            0     2297.899    20.062881    19.953672    20.805787     8329.142    2289.2511    1841.7374    2762.7085   -292.96891   -605.60251   -454.13217   -4447.2694 
25246000    132.97523   -4997.1845   -4740.7305   -4997.1845            0    1889.1422    19.936509    20.040075    20.831245     8322.689    1725.9868    2205.4728     1735.967    18.173119   -692.23538    259.25982   -4511.4305 
25247000    125.01148   -4989.7707   -4748.6755   -4989.7707            0    1729.8211    19.830778    20.001599    20.859702    8273.9438    2014.3086     1553.838    1621.3165   -575.87201   -41.111044    -124.2112   -4539.9433 
25248000    129.69294   -4985.6148    -4735.491   -4985.6148            0    2050.3733    19.890737    20.168371    20.716634    8310.7627    2692.3932     835.8238    2622.9028   -501.50313   -207.22004   -557.87375   -4486.9777 
25249000    122.20007   -4995.2503   -4759.5772   -4995.2503            0    1518.0183    20.068802     20.10173    20.650976    8330.9681    837.35746     1630.258    2086.4393   -132.12359   -313.80273     553.8942   -4575.1401 
25250000    130.44336   -4980.3863   -4728.8153   -4980.3863            0    1958.5926    20.079194     19.94917    20.788304    8327.0303    1500.5155    1997.9743     2377.288   -296.83127    -468.6743    289.17071   -4490.9615 
Loop time of 343.168 on 64 procs for 250000 steps with 972 atoms

Performance: 125.886 ns/day, 0.191 hours/ns, 728.506 timesteps/s
195.6% CPU use with 32 MPI tasks x 2 OpenMP threads

MPI task timing breakdown:
Section |  min time  |  avg time  |  max time  |%varavg| %total
---------------------------------------------------------------
Pair    | 26.401     | 34.148     | 42.893     |  75.2 |  9.95
Bond    | 0.99642    | 1.1668     | 1.4524     |  10.0 |  0.34
Kspace  | 148.67     | 158.2      | 170.74     |  40.6 | 46.10
Neigh   | 0.8039     | 0.86094    | 0.98623    |   5.6 |  0.25
Comm    | 59.145     | 65.985     | 69.293     |  29.4 | 19.23
Output  | 0.50434    | 0.50462    | 0.50704    |   0.1 |  0.15
Modify  | 68.162     | 69.857     | 73.058     |  13.4 | 20.36
Other   |            | 12.45      |            |       |  3.63

Nlocal:        30.3750 ave          38 max          22 min
Histogram: 1 1 2 5 3 8 4 6 1 1
Nghost:        2617.44 ave        2638 max        2593 min
Histogram: 2 2 3 3 2 6 2 6 4 2
Neighs:        9463.59 ave       13236 max        6744 min
Histogram: 2 2 5 7 4 7 3 0 1 1

Total # of neighbors = 302835
Ave neighs/atom = 311.55864
Ave special neighs/atom = 2.0000000
Neighbor list builds = 2821
Dangerous builds = 0

unfix		3
unfix		2
unfix		1

write_data	data.final.${pid}
write_data	data.final.1
System init for write_data ...
PPPM initialization ...
  extracting TIP4P info from pair style
  using 12-bit tables for long-range coulomb (../kspace.cpp:340)
  G vector (1/distance) = 0.37236582
  grid = 24 24 25
  stencil order = 5
  estimated absolute RMS force accuracy = 0.0034130896
  estimated relative force accuracy = 1.0278418e-05
  using double precision FFTW3
  3d grid and FFT values/proc = 3458 576
Last active /omp style is kspace_style pppm/tip4p/omp
WARNING: Not all mixed pair coeffs generated from mixing. Use write_data with 'pair ij' option to store all pair coeffs. (../write_data.cpp:312)

write_restart   restart.lmp.${pid}
write_restart   restart.lmp.1
System init for write_restart ...
PPPM initialization ...
  extracting TIP4P info from pair style
  using 12-bit tables for long-range coulomb (../kspace.cpp:340)
  G vector (1/distance) = 0.37236582
  grid = 24 24 25
  stencil order = 5
  estimated absolute RMS force accuracy = 0.0034130896
  estimated relative force accuracy = 1.0278418e-05
  using double precision FFTW3
  3d grid and FFT values/proc = 3458 576
Last active /omp style is kspace_style pppm/tip4p/omp
Total wall time: 0:05:43
