LAMMPS data file via write_data, version 30 Jul 2021, timestep = 1000000

1008 atoms
2 atom types
672 bonds
1 bond types
336 angles
1 angle types

-3.2226957291909066 14.832694728745114 xlo xhi
-0.012060759283166078 22.592059759280502 ylo yhi
-0.19011853166984416 19.42011653167078 zlo zhi
-0.15218294888934528 -6.662273868496078 0.10274337402542956 xy xz yz

Masses

1 1.008
2 15.999

Pair Coeffs # lj/cut/tip4p/long/omp

1 0 0
2 0.21084 3.1668

Bond Coeffs # harmonic/omp

1 450 0.9572

Angle Coeffs # harmonic/omp

1 55 104.52

Atoms # full

21 7 1 0.5897 1.2095804948323865 2.3133803001348263 0.8503214663915197 0 0 0
31 11 2 -1.1794 0.9740912038483973 1.2154180881210104 2.3001855437458545 0 0 0
32 11 1 0.5897 0.7111097471324186 1.4960821267047855 3.176763473455363 0 0 0
55 19 2 -1.1794 -0.7857403577599449 4.730295383602038 3.18391900514173 0 0 0
56 19 1 0.5897 -1.3825117799422912 4.280618374648533 2.5855204153684097 0 0 0
57 19 1 0.5897 0.0021309369846274073 4.8879563017823875 2.6636511007777135 0 0 0
86 29 1 0.5897 -2.5384052499332785 1.7344962597998623 3.763197643801949 1 0 0
121 41 2 -1.1794 -2.4653323195818233 2.8721558672157497 2.2931120897621438 1 0 0
122 41 1 0.5897 -2.336773647211002 2.304622507597176 1.5330359390447994 1 0 0
46 16 2 -1.1794 1.8600947316333283 5.186101704250418 2.512516921489377 0 0 0
158 53 1 0.5897 -4.400046917379491 4.777845270850028 4.116793360892287 1 0 0
123 41 1 0.5897 -3.3949101201132343 3.0993157138572873 2.2684208470776004 1 0 0
33 11 1 0.5897 0.3919925291712598 0.4828749078972723 2.0979547483342285 0 0 0
602 201 1 0.5897 -0.35258021025394326 5.596592675035796 0.4236272122907998 1 0 1
16 6 2 -1.1794 5.287903713238396 5.178522528454755 -0.13317196990975944 0 0 0
78 26 1 0.5897 -0.24607803573955866 3.3065968587020658 4.426899200761603 0 0 0
53 18 1 0.5897 4.220471402615072 3.0134767060778103 2.7584121521715717 0 0 0
70 24 2 -1.1794 3.8760364007707864 0.7374039312277494 1.3479596911082252 0 0 0
52 18 2 -1.1794 3.590536747998981 3.1777422572632776 3.4601731198400296 0 0 0
19 7 2 -1.1794 1.2355480397060195 2.8055976881454483 0.029726250638002882 0 0 0
601 201 2 -1.1794 -0.664331600384338 4.753386825732681 0.09476214189131754 1 0 1
527 176 1 0.5897 3.8677480333663024 2.0429320546964216 -0.06102329272827711 0 0 1
157 53 2 -1.1794 -3.9142435265828976 5.377071866828184 4.683655916344706 1 0 0
71 24 1 0.5897 3.167808890914353 0.8039284147159184 1.988468013982795 0 0 0
54 18 1 0.5897 2.9048714119878953 3.7040624792675434 3.048804052771177 0 0 0
18 6 1 0.5897 4.798620485038679 4.355952533488679 -0.14998408473489297 0 0 0
47 16 1 0.5897 2.01473046036683 5.5589448827038535 1.6445305004734723 0 0 0
603 201 1 0.5897 0.11755809116042348 4.201736688914654 0.06960012702941326 1 0 1
6 2 1 0.5897 3.49774882252214 1.7029961452723723 4.602577601337994 0 0 0
163 55 2 -1.1794 -2.3523467811537797 1.4015762614715541 -0.014270639989528738 1 0 0
482 161 1 0.5897 -1.278730250464334 0.001661245812386282 0.8431220815482332 1 1 0
85 29 2 -1.1794 -2.6299855898422684 1.157363387364959 4.521382786892719 1 0 0
87 29 1 0.5897 -3.5730673140198896 1.0141830708443174 4.601428568202997 1 0 0
76 26 2 -1.1794 0.4267003294382885 2.685059327173095 4.705095031297228 0 0 0
101 34 1 0.5897 -2.3455525860907236 4.533683795865483 -0.11893893492901092 1 0 0
134 45 1 0.5897 -2.4029348547007796 2.947675354140398 5.572613103237062 1 0 0
135 45 1 0.5897 -1.9296806664917598 3.7081011652678666 6.793323711783152 1 0 0
400 134 2 -1.1794 2.0819990004411375 0.22277295728703791 7.7582104651960275 0 1 0
34 12 2 -1.1794 -0.368996469578335 1.5938816929385375 7.292490608935082 0 0 0
35 12 1 0.5897 -0.15573805645462135 2.08212446863305 8.08781121455288 0 0 0
36 12 1 0.5897 -1.262367943125697 1.2811464720369865 7.43506342330455 0 0 0
522 174 1 0.5897 2.1556477524401343 5.372771216857636 9.119223775819373 0 0 0
5 2 1 0.5897 3.13393720812601 0.2649240263237344 4.905253184210875 0 0 0
402 134 1 0.5897 1.3021101852782344 0.7538445840270593 7.596734794345199 0 1 0
58 20 2 -1.1794 2.176229993935343 4.24825493814725 5.978697771580024 0 0 0
59 20 1 0.5897 1.6527681805768895 3.607370750278245 5.497392064906447 0 0 0
98 33 1 0.5897 -4.160584665612054 5.053474931117875 9.015223367571355 1 0 0
44 15 1 0.5897 -0.2758710305498231 5.072303615230653 8.018750519334889 0 0 0
126 42 1 0.5897 -4.161999806552597 2.90984356997655 7.301439216334985 1 0 0
69 23 1 0.5897 -3.116386951038125 1.1507310051634283 8.74612942408473 0 0 0
133 45 2 -1.1794 -2.6703082240159195 3.6265216574451373 6.192269069741731 1 0 0
43 15 2 -1.1794 -0.2732026899159483 4.830571076714513 7.092502467393762 0 0 0
60 20 1 0.5897 2.9111203770231144 3.7441359565917054 6.32823349258873 0 0 0
77 26 1 0.5897 0.06060368659010118 2.26829284513035 5.485204020112226 0 0 0
669 223 1 0.5897 -5.347492111107661 2.000424179435691 9.080347196081618 1 0 0
159 53 1 0.5897 -3.4145559357212 4.804691572242463 5.265946478662136 1 0 0
45 15 1 0.5897 0.6069173771305914 4.487990887371427 6.93650052761038 0 0 0
124 42 2 -1.1794 -5.036683087508671 2.5472075972901145 7.441976782430775 1 0 0
4 2 2 -1.1794 3.7268274666825754 0.9678407556268706 5.171260029756674 0 0 0
67 23 2 -1.1794 -2.7643007302465463 0.5191101584922962 8.118933305466193 0 0 0
401 134 1 0.5897 2.467875933790923 0.5974610688132143 8.550137430624472 0 1 0
90 30 1 0.5897 -5.132986256742395 1.5899379073820503 5.939586621761782 1 0 0
125 42 1 0.5897 -5.629771582497675 3.199614093407638 7.069200906024819 1 0 0
606 202 1 0.5897 -6.291645969214606 4.566823759154037 9.474518060973349 1 0 0
589 197 2 -1.1794 -5.84696240960826 0.8363960822346843 14.506691319544498 1 0 0
551 184 1 0.5897 -1.5354133727355999 5.269707589382977 12.946437365473248 0 0 0
550 184 2 -1.1794 -1.674653005938425 4.640189275904885 12.238855011530012 0 0 0
552 184 1 0.5897 -2.578113630023794 4.34553484951659 12.354022307447071 0 0 0
23 8 1 0.5897 0.5902482562374409 1.8389209448462396 10.360657460974235 0 0 0
520 174 2 -1.1794 2.3432866527968246 4.784193391243642 9.850461636854343 0 0 0
627 209 1 0.5897 -6.849276272877441 2.7520767907142636 12.293499215417865 1 0 0
574 192 2 -1.1794 0.1899135658002047 0.3210174207093127 11.268260698153846 0 0 0
535 179 2 -1.1794 -2.4215958238725204 1.006263804148178 12.434024163556206 0 0 0
536 179 1 0.5897 -2.677903326172861 1.4773725554723165 13.226915295535436 0 0 0
537 179 1 0.5897 -2.5355930582148867 1.643419370341813 11.728808626753823 0 0 0
576 192 1 0.5897 -0.5724440891724214 0.6586432435421021 11.738439560559874 0 0 0
625 209 2 -1.1794 -5.92724716762398 2.5195493867747456 12.183418444321214 1 0 0
668 223 1 0.5897 -5.856262028769664 1.8611802168769729 10.499457152168631 1 0 0
556 186 2 -1.1794 0.8003488693312573 3.601361479858995 13.35333737707154 0 0 0
561 187 1 0.5897 -3.690247755309982 3.5522850785851285 13.902782212006619 0 0 0
558 186 1 0.5897 -0.034849499105820136 3.932301521375448 13.02276774080932 0 0 0
559 187 2 -1.1794 -4.091036593129381 4.205677951313548 13.329365953519074 0 0 0
560 187 1 0.5897 -4.743585048893463 3.716885449014977 12.82767604200356 0 0 0
662 221 1 0.5897 -7.811528902610085 4.138431688860602 14.111516485275184 1 0 0
626 209 1 0.5897 -5.741827373406274 1.9231366917255988 12.908848996982243 1 0 0
557 186 1 0.5897 0.5597800803544661 2.8768337503334225 13.930803459109807 0 0 0
99 33 1 0.5897 -4.13448660705952 5.3765154130130295 10.494150062882031 1 0 0
524 175 1 0.5897 -3.042880005610663 3.2639423847127653 10.150243329388264 0 0 0
97 33 2 -1.1794 -4.1261632185197366 4.642899789472271 9.879282278697723 1 0 0
523 175 2 -1.1794 -2.5358097215378876 2.455499919366168 10.224998558804467 0 0 0
618 206 1 0.5897 -6.775951813622428 5.574136453472183 11.404815379446651 1 0 0
22 8 2 -1.1794 0.5564182132490996 2.525023741412914 9.694016165091952 0 0 0
24 8 1 0.5897 1.098232780632097 3.2303436311401446 10.047954001025731 0 0 0
525 175 1 0.5897 -1.627876283212219 2.728595560384754 10.093153374431814 0 0 0
663 221 1 0.5897 -6.8887427439028235 5.302681858630845 13.819892974162652 1 0 0
587 196 1 0.5897 -1.3457872399464117 5.5465329896825 10.602069260526429 0 0 0
667 223 2 -1.1794 -5.682885545491253 1.356863062005782 9.704521975416682 1 0 0
548 183 1 0.5897 -4.028383856423785 5.6032876763454 16.521957272983663 0 0 0
628 210 2 -1.1794 -8.437387371267985 2.6652178341883785 17.285886182494025 1 0 0
20 7 1 0.5897 -5.668159748882048 2.2695525279251654 18.96912888166107 0 0 -1
563 188 1 0.5897 -1.0946836459583276 4.824419361002781 15.674503488944612 0 0 0
581 194 1 0.5897 -3.167402962180856 1.720595911622072 15.324183373887536 0 0 0
571 191 2 -1.1794 -6.048862885160183 0.7475296618431511 18.05470087520205 0 0 0
639 213 1 0.5897 -6.08929210939875 3.5977255903673186 15.378530416161986 1 0 0
582 194 1 0.5897 -1.9900484639888552 2.6634373144377883 15.193975062630495 0 0 0
538 180 2 -1.1794 -3.447570462277235 1.0559196379087115 16.966317210919378 0 0 0
539 180 1 0.5897 -3.101718907091416 1.7071229620287387 17.57681234102943 0 0 0
540 180 1 0.5897 -4.381379530307108 1.00707093093078 17.17102618298904 0 0 0
508 170 2 -1.1794 0.2304308687959855 1.3019532913403375 14.830859047537807 0 0 0
638 213 1 0.5897 -6.495864635717682 3.0087282104371647 16.712647108884603 1 0 0
549 183 1 0.5897 -4.538045140923658 4.19974157051639 16.771589089873572 0 0 0
562 188 2 -1.1794 -1.2824040245308277 4.114393176901816 16.288437500932538 0 0 0
547 183 2 -1.1794 -3.913281768903518 4.847454213990942 17.097943620752375 0 0 0
564 188 1 0.5897 -2.1190192383799147 4.3558226589873525 16.686008764528673 0 0 0
637 213 2 -1.1794 -5.742482804973488 3.1213945201358233 16.132997715459858 1 0 0
590 197 1 0.5897 -5.706843290899274 1.5589952132315053 15.118708392776883 1 0 0
164 55 1 0.5897 -8.677298550362824 1.9741073861225915 18.83321019005578 1 0 -1
593 198 1 0.5897 -7.70496580616461 0.8022711411416585 14.764645598846624 1 0 0
630 210 1 0.5897 -8.417027915656362 2.0485257593614334 16.55402152340966 1 0 0
629 210 1 0.5897 -8.952567588740663 3.404371210900527 16.962524078880158 1 0 0
572 191 1 0.5897 -6.651529397493928 0.18330435681730015 17.57008148938914 0 0 0
580 194 2 -1.1794 -2.7875073946817146 2.381746577257044 14.745533869005289 0 0 0
526 176 2 -1.1794 -2.7513331289745384 2.948575602633156 19.029875730550934 0 0 0
510 170 1 0.5897 0.11121164847514553 1.5666649638865464 15.743040009338573 0 0 0
614 205 1 0.5897 -7.243365737785053 5.5933258639492935 17.941160722962117 1 0 0
573 191 1 0.5897 -5.698094732806942 0.18622417646793343 18.746271573580813 0 0 0
615 205 1 0.5897 -7.238944170173939 5.4610843996390885 16.432928837270346 1 0 0
165 55 1 0.5897 -9.635999069361482 0.8728231645714204 19.233354121952033 1 0 -1
528 176 1 0.5897 -3.6440255868507814 3.2937354377116885 19.04688670768153 0 0 0
661 221 2 -1.1794 -7.204978739313758 4.747595246368263 14.532703718037773 1 0 0
591 197 1 0.5897 -5.205456250232607 0.17479903837584848 14.765698442782018 1 0 0
145 49 2 -1.1794 -0.45141992600642933 7.203859554507289 1.2853291383543588 1 0 0
147 49 1 0.5897 -0.7775979161018971 7.767184782405968 0.5834479519331623 1 0 0
289 97 2 -1.1794 -2.6519360948752215 9.916833685712279 2.2489038041642506 1 0 0
332 111 1 0.5897 -2.274614610819447 9.067952133987331 0.6311954122650248 1 0 0
255 85 1 0.5897 -2.7603712943380065 8.921118196341512 3.6625918395893815 1 0 0
146 49 1 0.5897 -1.2351226128385315 6.949151286189722 1.7723764091145464 1 0 0
112 38 2 -1.1794 -3.1165218844719904 6.407679854848504 2.078013724119154 1 0 0
291 97 1 0.5897 -3.5281659532734158 10.21024413621082 2.498757083943642 1 0 0
9 3 1 0.5897 -0.9715569257080388 6.225817626659471 4.372744006769459 0 0 0
290 97 1 0.5897 -2.07147536474276 10.62101642488972 2.537972027167383 1 0 0
220 74 2 -1.1794 3.5111981690693517 11.154665189563763 3.4092782541631728 0 0 0
239 80 1 0.5897 3.716325528482118 8.997966221471248 1.1809928745971185 0 0 0
188 63 1 0.5897 0.4957029188953901 10.100073721220783 0.9311719702880108 0 0 0
200 67 1 0.5897 0.47805389313551583 8.377609475576113 2.2596286986385437 0 0 0
113 38 1 0.5897 -3.4284607957890936 6.023804671701962 2.8975426181214163 1 0 0
48 16 1 0.5897 1.8046223257587952 5.944979306919292 3.093330844505614 0 0 0
189 63 1 0.5897 1.6172606433994865 10.68088257148158 0.09646318774323503 0 0 0
240 80 1 0.5897 3.3804863458138747 7.522131676348806 1.2150348314891453 0 0 0
238 80 2 -1.1794 3.747399020651353 8.22748365497554 1.7481741802039674 0 0 0
199 67 2 -1.1794 1.044638211717709 9.051801885643766 2.6349041947402307 0 0 0
245 82 1 0.5897 0.7949696439630642 9.762828031215259 4.363825881103943 0 0 0
201 67 1 0.5897 1.9279789297189485 8.800523957239395 2.3649778651988504 0 0 0
694 232 2 -1.1794 3.5723375505376964 10.409431698744037 -0.05279523436428493 0 0 1
114 38 1 0.5897 -3.0934218123239985 5.6744893830496865 1.463015559763282 1 0 0
221 74 1 0.5897 4.300770531045842 10.979552741967046 2.8972679236548435 0 0 0
174 58 1 0.5897 3.392420551450357 9.371732394064942 4.476859898172816 0 0 0
82 28 2 -1.1794 2.418580496565351 6.43277951660523 0.056629423940241286 0 0 0
187 63 2 -1.1794 0.6630393058721862 10.625836168107393 0.14894881155138895 0 0 0
254 85 1 0.5897 -2.262040653316287 7.942961839713598 4.7052156491179 1 0 0
253 85 2 -1.1794 -2.790588971083552 8.734194158890961 4.600940539265571 1 0 0
109 37 2 -1.1794 -4.506497337041993 6.000622830099022 7.390532695119706 1 0 0
11 4 1 0.5897 2.1398767078428262 5.951997433615569 5.201246528073052 0 0 0
110 37 1 0.5897 -4.342842691628773 5.764461145311294 6.477408339204694 1 0 0
64 22 2 -1.1794 1.910677490651148 6.866228280837913 8.057720145557314 0 0 0
244 82 2 -1.1794 0.6389637183352743 10.384146135958348 5.07512932549647 0 0 0
8 3 1 0.5897 -0.7384544182782795 6.285355422087221 5.867555217646958 0 0 0
246 82 1 0.5897 0.3906160528696767 9.837820738089837 5.82088731982356 0 0 0
65 22 1 0.5897 2.270578803660097 7.488380376028214 8.68997540341988 0 0 0
292 98 2 -1.1794 -4.969199536721771 10.534721268958064 7.282424748740503 1 0 0
294 98 1 0.5897 -5.138631205284437 10.08932773194586 8.112619637111784 1 0 0
293 98 1 0.5897 -4.035747952473426 10.745210755759985 7.309218704158281 1 0 0
191 64 1 0.5897 0.5873853326638563 9.564080980211845 9.229724744593536 0 0 0
10 4 2 -1.1794 1.9322538653181782 6.797834708255465 4.804077628784819 0 0 0
202 68 2 -1.1794 0.31768227207150046 8.924105094574013 7.514677185799748 0 0 0
203 68 1 0.5897 -0.4660094080806543 8.451389459428942 7.795093687590423 0 0 0
204 68 1 0.5897 0.9764287236562073 8.241643544181981 7.385972840699712 0 0 0
301 101 2 -1.1794 -2.26689570284986 10.572861204037405 6.923219451100339 1 0 0
235 79 2 -1.1794 -2.201461837292192 7.805741116853282 8.249414109222368 0 0 0
236 79 1 0.5897 -3.0129692898941327 7.38352405409806 7.967295647359922 0 0 0
237 79 1 0.5897 -2.481827121076309 8.463822014742284 8.885517020469097 0 0 0
302 101 1 0.5897 -2.2741447068179226 9.885862470410908 6.256649404631478 1 0 0
7 3 2 -1.1794 -0.7905621421834708 6.836979434809961 5.0869614685851205 0 0 0
111 37 1 0.5897 -5.393483769972206 6.360584181128207 7.389973939105639 1 0 0
837 279 1 0.5897 -6.365471469886621 8.052863337397383 8.949107744974771 1 0 0
173 58 1 0.5897 3.2888408518565715 7.927193169900259 4.917925076618617 0 0 0
257 86 1 0.5897 -4.796971401606272 8.569171622788954 4.875679851603373 1 0 0
66 22 1 0.5897 2.593433286528371 6.777908748457107 7.392655622191429 0 0 0
588 196 1 0.5897 -1.5699317597546862 6.334247433388358 9.328702689490715 0 0 0
12 4 1 0.5897 0.977717333857564 6.855513163909304 4.847407986071973 0 0 0
172 58 2 -1.1794 3.83253018269113 8.70964934022484 5.010037992541036 0 0 0
303 101 1 0.5897 -1.3384320319793317 10.737193524942688 7.088531162975415 1 0 0
835 279 2 -1.1794 -5.94408148927964 8.820277153838504 9.336180212682676 1 0 0
192 64 1 0.5897 0.9100924469014675 10.76191939365682 10.097622117177679 0 0 0
724 242 2 -1.1794 0.7334873740125687 10.752305934511352 13.119475948434594 0 0 0
794 265 1 0.5897 -5.358973023896647 11.014672274816775 12.418869806997247 1 0 0
836 279 1 0.5897 -5.255365391046974 8.45979717161522 9.894869854749393 1 0 0
742 248 2 -1.1794 0.2887322169205868 7.591088792499051 11.41532640109549 0 0 0
691 231 2 -1.1794 -2.4045054139594857 10.052667688558772 10.11280721833476 0 0 0
678 226 1 0.5897 0.6537864191442075 9.21372337863166 14.151865544835305 0 0 0
616 206 2 -1.1794 -6.644873980682951 6.172506331177072 12.14043977160026 1 0 0
649 217 2 -1.1794 -4.301529087741926 7.169669125816533 10.971795911916876 1 0 0
650 217 1 0.5897 -3.605143433754919 7.588721190170674 11.477639701764156 1 0 0
651 217 1 0.5897 -4.964852445909356 6.938755174439666 11.622145089258234 1 0 0
795 265 1 0.5897 -6.032114569188344 10.375199936857795 11.222893603370395 1 0 0
744 248 1 0.5897 0.00814146585795239 6.942518338303047 10.769559003690329 0 0 0
793 265 2 -1.1794 -5.9551400727215045 10.30666293755366 12.174615079867534 1 0 0
759 253 1 0.5897 -5.703205943418084 9.24687574553258 13.694007940681274 1 0 0
693 231 1 0.5897 -2.3836115657093537 9.638006224844746 10.97533414793061 0 0 0
703 235 2 -1.1794 -2.370640058824984 8.427817713736024 12.30094256022197 0 0 0
704 235 1 0.5897 -1.4991856770612975 8.078804240602867 12.113821254592214 0 0 0
705 235 1 0.5897 -2.284504138990199 8.840116996344266 13.16057479289738 0 0 0
743 248 1 0.5897 0.38094805432481893 8.402533041637133 10.915980931887685 0 0 0
617 206 1 0.5897 -7.31051670781801 6.8498518667007495 12.020274286114592 1 0 0
750 250 1 0.5897 -3.133348493281848 10.79832426368162 14.392544269885848 0 0 0
692 231 1 0.5897 -1.4879614752298034 10.081531466974676 9.838203041787938 0 0 0
513 171 1 0.5897 -4.369989274761863 5.856588809205447 14.200577748137587 0 0 0
726 242 1 0.5897 0.03902468515851609 11.188348144482655 12.625543485753036 0 0 0
190 64 2 -1.1794 0.36621777170665215 9.974839201633328 10.06560108643586 0 0 0
586 196 2 -1.1794 -0.9048780021892671 5.835041113585002 9.802917084086602 0 0 0
725 242 1 0.5897 0.9295592040727705 11.352506185121058 13.83898532511643 0 0 0
514 172 2 -1.1794 -1.31837625828667 6.258988134019997 14.511254100871827 0 0 0
515 172 1 0.5897 -2.2516718578563983 6.45900799107939 14.438549105617394 0 0 0
84 28 1 0.5897 -3.83503770458435 5.937735974631627 19.04082499178594 0 0 -1
333 111 1 0.5897 -8.539081647476745 9.719221267988653 18.887564609250937 1 0 -1
741 247 1 0.5897 -6.145586132222043 9.030614760913185 18.371754460819503 0 0 0
512 171 1 0.5897 -4.9022275759395555 7.178233219300178 14.71240433694836 0 0 0
740 247 1 0.5897 -6.383973792789588 7.707210426202799 17.676130190889374 0 0 0
805 269 2 -1.1794 -5.754838144616731 11.023650191301087 16.36086796551954 1 0 0
568 190 2 -1.1794 -1.4767148958566798 7.4747005490434155 17.979210091864317 0 0 0
569 190 1 0.5897 -1.5988183426813078 6.649911960245637 18.449421425730335 0 0 0
676 226 2 -1.1794 0.5703020875569189 8.466780339736031 14.744630893764143 0 0 0
797 266 1 0.5897 -7.412126979526195 10.880488199303018 17.20371913291536 1 0 0
749 250 1 0.5897 -2.8703046355556348 9.632250844941492 15.321598672060354 0 0 0
695 232 1 0.5897 -3.115085606852646 10.213828275393192 18.648190625669116 0 0 0
83 28 1 0.5897 -4.70998650174528 7.170508795169327 19.123075058058696 0 0 -1
762 254 1 0.5897 -7.563649703527672 8.635529196854202 15.288671596774805 1 0 0
796 266 2 -1.1794 -8.288079615020589 10.643862601011646 17.50870015066983 1 0 0
706 236 2 -1.1794 -3.5017894297458456 9.277116673661057 17.192838829317772 0 0 0
707 236 1 0.5897 -4.267360964887372 8.73918997585986 17.394945069720606 0 0 0
708 236 1 0.5897 -2.7550470244660916 8.744301772524782 17.466414785985755 0 0 0
653 218 1 0.5897 -9.136824582411968 6.89134097066441 17.315295277817967 1 0 0
798 266 1 0.5897 -8.573752812556904 9.955694536735733 16.907703398652863 1 0 0
739 247 2 -1.1794 -5.695953374565773 8.238781625074193 18.076680643215767 0 0 0
613 205 2 -1.1794 -7.310887177868873 6.106693682811691 17.136030377863563 1 0 0
748 250 2 -1.1794 -2.4740467001185475 10.140577423894479 14.613886305745986 0 0 0
758 253 1 0.5897 -5.292065790409545 9.5000928068525 15.129000353717661 1 0 0
511 171 2 -1.1794 -4.283542041661689 6.47878343837047 14.92289398192066 0 0 0
731 244 1 0.5897 -1.568187454247262 11.350746247492255 15.639431529314088 0 0 0
570 190 1 0.5897 -0.7239795637678128 7.316902658609744 17.40933223743057 0 0 0
757 253 2 -1.1794 -5.637067152913827 8.821267776986067 14.548885129112298 1 0 0
331 111 2 -1.1794 -8.706148679659556 8.899548811891844 19.352851923626147 1 0 -1
760 254 2 -1.1794 -8.480512179425112 8.73284573356898 15.545950359340127 1 0 0
516 172 1 0.5897 -0.8936005043363568 7.114558780759698 14.573225963065545 0 0 0
281 94 1 0.5897 -3.7114832394222583 13.491865472196807 3.664916582363184 1 0 0
282 94 1 0.5897 -2.8618535028869383 14.092417536749014 2.5651770017218665 1 0 0
280 94 2 -1.1794 -3.723336193215843 13.710339883676577 2.7330269653485453 1 0 0
369 123 1 0.5897 1.2631148558502625 16.54465489420631 3.323096522368367 0 0 0
184 62 2 -1.1794 5.400329001560593 12.72935590604717 0.060852362923256575 0 0 0
252 84 1 0.5897 2.9954427300488344 14.02188111073238 0.3220496964088475 0 0 0
499 167 2 -1.1794 -2.4524141117375344 16.007417370119175 -0.04827989373789576 1 0 0
250 84 2 -1.1794 2.4480969829336114 13.290534198952729 0.035882339309500216 0 0 0
214 72 2 -1.1794 1.393822486775334 12.975982144911132 2.4915603311164873 0 0 0
313 105 2 -1.1794 -1.2683035385403183 14.529283918319463 1.8595679614028566 1 0 0
315 105 1 0.5897 -0.8810704169136061 13.892753062131137 1.2585997314218729 1 0 0
225 75 1 0.5897 -1.363660717365132 12.473495185806897 4.00919942341147 0 0 0
314 105 1 0.5897 -0.5180033694186705 14.951879435860283 2.2777665865716163 1 0 0
500 167 1 0.5897 -1.8199278694868735 15.609251970588375 0.5499009187663415 1 0 0
368 123 1 0.5897 1.8989509399895343 15.773958988513659 2.1856448742097294 0 0 0
367 123 2 -1.1794 1.1309125885664564 16.300689924862517 2.40690209642966 0 0 0
216 72 1 0.5897 0.45877213886706425 12.815060673632566 2.618496510374902 0 0 0
406 136 2 -1.1794 3.5547427756551997 15.571128179033687 1.2113929281308498 0 0 0
215 72 1 0.5897 1.4950034692241072 13.067831149870736 1.544101506765385 0 0 0
407 136 1 0.5897 4.416861381383516 15.486883019309433 1.6189286542332777 0 0 0
223 75 2 -1.1794 -1.0916521190157558 11.953211398592835 3.253146875759138 0 0 0
408 136 1 0.5897 3.598246211354125 16.394929147299102 0.725852410162243 0 0 0
180 60 1 0.5897 1.9636974430783933 13.756206858928907 3.9429997454699413 0 0 0
423 141 1 0.5897 -2.2324512888770744 16.250254830424975 4.008148594350073 1 0 0
340 114 2 -1.1794 4.0851858826433425 16.027930586680093 4.353123128071828 0 0 0
341 114 1 0.5897 3.36068612909365 15.493468085511635 4.6783041494395174 0 0 0
771 257 1 0.5897 -0.3018212945413974 12.08676877999396 0.10249898693264758 1 0 1
268 90 2 -1.1794 -3.3469473592222414 12.20809717193997 0.1227887368414754 1 0 0
269 90 1 0.5897 -3.5842081641125487 12.4595469400611 1.015420111580996 1 0 0
306 102 1 0.5897 -4.618322295384721 11.696189240731414 3.8063282798201805 1 0 0
222 74 1 0.5897 2.9834105131509006 11.724067454565898 2.8492915376389853 0 0 0
696 232 1 0.5897 3.909168241781848 11.304039748532002 -0.10295648461306087 0 0 1
224 75 1 0.5897 -0.46833512022278967 11.320036844402932 3.609363039833684 0 0 0
770 257 1 0.5897 -1.7137309835530063 12.56327237862283 -0.16508327643152818 1 0 1
769 257 2 -1.1794 -0.80657433696613 12.866667092189756 -0.1283252330665735 1 0 1
404 135 1 0.5897 -1.666633976860382 15.822891493938336 7.766176067594158 0 0 0
179 60 1 0.5897 2.1805332788776646 13.28030069851981 5.363840019780403 0 0 0
370 124 2 -1.1794 0.02086304717558951 16.026564911975484 7.052323524072973 0 0 0
326 109 1 0.5897 -3.2494712505030154 11.766437089203734 5.305687168082208 1 0 0
176 59 1 0.5897 -1.122663466815562 14.262662410010929 5.343240990500217 0 0 0
211 71 2 -1.1794 -0.18412317116926058 12.230281847180395 7.845086122671146 0 0 0
212 71 1 0.5897 -0.41600724181190385 12.76343504042616 8.605465923766298 0 0 0
213 71 1 0.5897 -0.4453229704317141 12.760011016158261 7.091747089838011 0 0 0
226 76 2 -1.1794 2.4673378999259814 11.986025756612225 6.575952386697539 0 0 0
372 124 1 0.5897 0.23114816001867933 16.42627951427802 6.208330474988948 0 0 0
232 78 2 -1.1794 2.1070882494454963 14.297981510136939 8.322504172036899 0 0 0
233 78 1 0.5897 2.913768588709499 14.21808518184298 7.813425714143396 0 0 0
234 78 1 0.5897 1.5052338555322091 14.769152875292523 7.746165415174817 0 0 0
1004 335 1 0.5897 -5.768137507241423 16.60250704356881 9.126293056424968 1 0 0
327 109 1 0.5897 -3.864583189371541 12.97925866775231 5.971015551042388 1 0 0
277 93 2 -1.1794 -4.449566774861754 13.672160787640498 7.671942841878834 1 0 0
278 93 1 0.5897 -3.9600291905490037 14.484185578200522 7.803465753069152 1 0 0
462 154 1 0.5897 -4.912294324728705 16.79353504102882 6.886125094071095 1 0 0
424 142 2 -1.1794 -4.997687581777305 15.977959928800795 5.176118985622046 1 0 0
403 135 2 -1.1794 -2.5071867952725038 15.663063570393275 8.195375229423615 0 0 0
405 135 1 0.5897 -2.605004091726673 16.390459447067073 8.809880068199572 0 0 0
267 89 1 0.5897 -4.118253002345218 12.477471878392862 9.075537317341299 1 0 0
325 109 2 -1.1794 -3.7982451028742474 12.530379517366743 5.12813138310211 1 0 0
422 141 1 0.5897 -2.231350948136538 16.766830096688004 5.431316761056637 1 0 0
227 76 1 0.5897 1.8166603273534019 12.474402513710404 7.080257516088508 0 0 0
279 93 1 0.5897 -5.352460206167146 13.956529121395612 7.529592596286278 1 0 0
175 59 2 -1.1794 -0.5470333374220742 13.50078726481558 5.410258847669307 0 0 0
756 252 1 0.5897 -1.7163160059380753 14.696265953898527 9.340707253377273 0 0 0
371 124 1 0.5897 0.2039849649380927 16.71209899854697 7.69487629153795 0 0 0
177 59 1 0.5897 0.2936235487942582 13.804227233930643 5.067456184419158 0 0 0
178 60 2 -1.1794 2.1021331944682133 14.074446234077634 4.83516891870016 0 0 0
421 141 2 -1.1794 -2.1918039130449936 15.959088639602285 4.919158934017306 1 0 0
425 142 1 0.5897 -4.103654462129487 15.653026050744947 5.069217374539494 1 0 0
228 76 1 0.5897 1.950803240710071 11.428457621797724 5.993945846028437 0 0 0
690 230 1 0.5897 1.3817846390467974 12.881093485349886 9.840600253575758 0 0 0
688 230 2 -1.1794 1.8265745349338216 12.313507285878178 10.470155278332728 0 0 0
265 89 2 -1.1794 -4.208794795854249 12.052815485539764 9.928646746866056 1 0 0
718 240 2 -1.1794 -1.3835908578258431 12.257915242495901 12.030057945079133 0 0 0
719 240 1 0.5897 -1.437445690869172 12.708704447115332 11.187296920284899 0 0 0
720 240 1 0.5897 -1.0754224569369448 12.927276002131933 12.641104575371267 0 0 0
727 243 2 -1.1794 -3.9933897845451436 11.770223571111082 13.35578516758346 0 0 0
754 252 2 -1.1794 -1.255765275269059 14.011122086222754 9.825285181271262 0 0 0
728 243 1 0.5897 -3.2388509336065336 11.731307246220481 12.768085420776634 0 0 0
871 291 2 -1.1794 -2.344757755206351 16.533395142550695 12.26808439744931 0 0 0
729 243 1 0.5897 -4.017934164148786 12.67916479456319 13.654934634228214 0 0 0
911 304 1 0.5897 -0.5855267306189313 16.12191921327202 11.839828584184135 0 0 0
910 304 2 -1.1794 0.14080963129006596 15.892963413321818 11.259928828709333 0 0 0
912 304 1 0.5897 0.7231280086209253 15.361549339452592 11.80296624762701 0 0 0
784 262 2 -1.1794 -6.613945955338592 14.22660932005258 12.140941065922032 1 0 0
1005 335 1 0.5897 -5.387852862188113 15.811471826381915 10.359935574435509 1 0 0
786 262 1 0.5897 -6.81533908544279 13.898682047443339 13.017427095599857 1 0 0
817 273 2 -1.1794 -4.094627990026682 14.421636853430138 11.412894815060813 1 0 0
818 273 1 0.5897 -4.7994458400908355 14.394978323010863 12.060022363941972 1 0 0
819 273 1 0.5897 -4.240747887084865 13.649053807175077 10.866937829653217 1 0 0
873 291 1 0.5897 -2.8679429977079387 15.731893963664053 12.281082547259421 0 0 0
930 310 1 0.5897 -7.349397553726514 16.236374858616617 14.184181823810338 1 0 0
831 277 1 0.5897 -7.642762724468577 11.983984365912761 13.974957310609758 1 0 0
755 252 1 0.5897 -0.62596115321023 14.48394640602477 10.369531536405091 0 0 0
682 228 2 -1.1794 -0.8825149236421606 13.94095842499915 14.152320485696258 0 0 0
846 282 1 0.5897 0.25066683641220955 16.874294230579824 14.390793028357887 0 0 0
773 258 1 0.5897 -7.026998032511537 12.535653463322026 10.783456077476934 1 0 0
925 309 2 -1.1794 -5.621267130808484 16.258249323531583 14.294346211422017 1 0 0
926 309 1 0.5897 -4.907669693640614 15.636802207620999 14.438910476424931 1 0 0
684 228 1 0.5897 -0.36434259961798965 14.744980641802913 14.115524571490923 0 0 0
680 227 1 0.5897 -2.733288769064621 14.399292832101153 14.290338365929594 0 0 0
1003 335 2 -1.1794 -6.134064607845891 16.225975244796594 9.926676420507167 1 0 0
774 258 1 0.5897 -5.967527693535421 12.074313214367107 9.805381590434575 1 0 0
785 262 1 0.5897 -7.412689869617783 14.675092084558788 11.863025766199266 1 0 0
679 227 2 -1.1794 -3.6642566402598877 14.299757898669997 14.489540099087282 0 0 0
829 277 2 -1.1794 -7.014945852513984 12.59865745666827 14.354987326068862 1 0 0
266 89 1 0.5897 -3.5579904411406087 11.350959584545516 9.917684357214812 1 0 0
927 309 1 0.5897 -5.428105906170154 16.9868644777353 14.884403899074904 1 0 0
732 244 1 0.5897 -0.39812467106897387 11.67070186778609 16.545533339453172 0 0 0
783 261 1 0.5897 -8.78459673854945 14.113640983845738 16.745548725067373 1 0 0
965 322 1 0.5897 -7.873241080494223 16.942518268634295 16.58429448479778 1 0 0
730 244 2 -1.1794 -1.1931720227188078 12.051762914826957 16.172615739017957 0 0 0
681 227 1 0.5897 -3.6841984719038567 13.993763559288972 15.396356460344867 0 0 0
844 282 2 -1.1794 0.47641162314956986 16.181831925721887 15.011971904850093 0 0 0
874 292 2 -1.1794 -3.3057001680872284 15.98894498076088 17.05480825265513 0 0 0
715 239 2 -1.1794 -3.672266902580012 12.871082841778275 16.968855535604163 0 0 0
716 239 1 0.5897 -3.601773110303303 13.027328778604566 17.910671047783843 0 0 0
717 239 1 0.5897 -2.8054817831097987 12.556158640879982 16.71236648858141 0 0 0
875 292 1 0.5897 -3.136662645079185 16.531793108726312 16.2847175857597 0 0 0