#include		in.partitions
include		in.temp
variable        temperature equal 25.22
variable	tempDamp equal 100.0
include		in.pressure
variable        pressure equal 2182.9
variable        pressureDamp equal 1000.0 # This is 1 ps
include		in.seed
variable        seed equal 745823

units		real
atom_style	full

read_restart	restart.lmp.${pid}
read_restart	restart.lmp.1
Reading restart file ...
  restart file = 30 Jul 2021, LAMMPS = 30 Jul 2021
  restoring atom style full from restart
  orthogonal box = (0.051941360 0.046550967 0.026415624) to (19.948060 19.953450 20.673582)
  2 by 4 by 4 MPI processor grid
  restoring pair style lj/cut/tip4p/long/omp from restart
  restoring bond style harmonic/omp from restart
  restoring angle style harmonic/omp from restart
  972 atoms
  648 bonds
  324 angles
Finding 1-2 1-3 1-4 neighbors ...
  special bond factors lj:    0        0        0       
  special bond factors coul:  0        0        0       
     2 = max # of 1-2 neighbors
     1 = max # of 1-3 neighbors
     1 = max # of 1-4 neighbors
     2 = max # of special neighbors
  special bonds CPU = 0.002 seconds
  read_restart CPU = 0.008 seconds
include 	in.setup
variable	out_freq equal 1000
variable	out_freq2 equal 10000
variable	out_freq3 equal 1000

timestep	2.0

neigh_modify    delay 7 every 1

include		in.tip4p
# This is TIP4P/Ice

# create groups ###
group ox type 2
324 atoms in group ox
group hy type 1
648 atoms in group hy

# set charges - beside manually ###
set group ox charge -1.1794
Setting atom values ...
  324 settings made for charge
set group hy charge 0.5897
Setting atom values ...
  648 settings made for charge

# ### TIP3P Potential Parameters ###
pair_style lj/cut/tip4p/long/omp 2 1 1 1 0.1577 8.5
pair_coeff 1 1*2 0.000 0.000
pair_coeff 2 2 0.21084 3.1668
bond_style  harmonic
bond_coeff  1 450 0.9572
angle_style harmonic
angle_coeff 1 55 104.52
kspace_style pppm/tip4p/omp 1.0e-5
pair_modify tail yes

thermo          ${out_freq}
thermo          1000
thermo_style    custom step temp pe etotal epair emol press lx ly lz vol pxx pyy pzz pxy pxz pyz enthalpy

restart 	${out_freq3} restart.lmp.${pid} restart2.lmp.${pid}
restart 	1000 restart.lmp.${pid} restart2.lmp.${pid}
restart 	1000 restart.lmp.1 restart2.lmp.${pid}
restart 	1000 restart.lmp.1 restart2.lmp.1


include         in.dump
dump            myDump all atom ${out_freq2} dump.water.${pid}
dump            myDump all atom 10000 dump.water.${pid}
dump            myDump all atom 10000 dump.water.1
dump            myDump2 all dcd ${out_freq2} dump.dcd
dump            myDump2 all dcd 10000 dump.dcd
dump_modify     myDump append yes
dump_modify     myDump2 append yes


variable natoms 	equal  "count(all)"                        # NUMBER ATOMS
variable H      	equal  "enthalpy/v_natoms"                 # ENTHALPY-per-atom
variable Vol      	equal  "vol/v_natoms"                 # volume-per-atom
fix AVG all 		ave/time ${out_freq} 1 ${out_freq} v_Vol v_H file vol_enthalpy.dat
fix AVG all 		ave/time 1000 1 ${out_freq} v_Vol v_H file vol_enthalpy.dat
fix AVG all 		ave/time 1000 1 1000 v_Vol v_H file vol_enthalpy.dat


timer           timeout 02:55:00 every 1000
New timer settings: style=normal  mode=nosync  timeout=02:55:00

fix 		1 all shake 1e-6 200 0 b 1 a 1
       0 = # of size 2 clusters
       0 = # of size 3 clusters
       0 = # of size 4 clusters
     324 = # of frozen angles
  find clusters CPU = 0.001 seconds
fix             2 all nph aniso ${pressure} ${pressure} ${pressureDamp}
fix             2 all nph aniso 2182.9 ${pressure} ${pressureDamp}
fix             2 all nph aniso 2182.9 2182.9 ${pressureDamp}
fix             2 all nph aniso 2182.9 2182.9 1000
fix             3 all temp/csvr ${temperature} ${temperature} ${tempDamp} ${seed}
fix             3 all temp/csvr 25.22 ${temperature} ${tempDamp} ${seed}
fix             3 all temp/csvr 25.22 25.22 ${tempDamp} ${seed}
fix             3 all temp/csvr 25.22 25.22 100 ${seed}
fix             3 all temp/csvr 25.22 25.22 100 745823


run             250000
PPPM initialization ...
  extracting TIP4P info from pair style
  using 12-bit tables for long-range coulomb (../kspace.cpp:340)
  G vector (1/distance) = 0.37167003
  grid = 24 24 24
  stencil order = 5
  estimated absolute RMS force accuracy = 0.0035757503
  estimated relative force accuracy = 1.0768266e-05
  using double precision FFTW3
  3d grid and FFT values/proc = 3211 432
Last active /omp style is kspace_style pppm/tip4p/omp
Neighbor list info ...
  update every 1 steps, delay 7 steps, check yes
  max neighbors/atom: 2000, page size: 100000
  master list distance cutoff = 10.8154
  ghost atom cutoff = 10.8154
  binsize = 5.4077, bins = 4 4 4
  1 neighbor lists, perpetual/occasional/extra = 1 0 0
  (1) pair lj/cut/tip4p/long/omp, perpetual
      attributes: half, newton on, omp
      pair build: half/bin/newton/omp
      stencil: half/bin/3d
      bin: standard
Per MPI rank memory allocation (min/avg/max) = 10.18 | 10.19 | 10.19 Mbytes
Step Temp PotEng TotEng E_pair E_mol Press Lx Ly Lz Volume Pxx Pyy Pzz Pxy Pxz Pyz Enthalpy 
45500000    28.805975   -5195.8614   -5140.3067   -5195.8614            0    1924.0833    19.896118    19.906899    20.647167    8177.7237    2134.5332    1639.4126    1998.3042     37.64337   -212.55455    352.33294   -4910.8334 
45501000    26.201467   -5204.5674   -5154.0356   -5204.5674            0    2440.8143    19.933768    19.858028     20.57559    8144.7509    2594.3808     2319.079     2408.983   -95.890984    4.3592703     231.5367   -4864.1088 
45502000    24.738495   -5202.4943    -5154.784   -5202.4943            0    2102.0115    19.954924     19.83323    20.607836    8155.9754    1998.8747    2383.0072    1924.1526   -240.18866    320.11777    121.21953    -4904.757 
45503000      24.6491   -5202.9542   -5155.4163   -5202.9542            0    2937.8821    19.870245    19.816328    20.640387    8127.2615    3389.8089    3057.3497    2366.4876   -124.07992    -45.85703   -36.119786   -4807.1957 
45504000    24.266069   -5204.5627   -5157.7635   -5204.5627            0    2006.7858    19.949389    19.910077    20.557619    8165.3603    1481.8383    2046.9652    2491.5541   -136.12009   -625.92843    183.06598   -4918.7886 
45505000    24.859844   -5200.7796   -5152.8353   -5200.7796            0    2758.3043    19.893655    19.829557     20.60964    8130.1392    3044.0055     2454.526    2776.3813    204.37048    480.51268    382.70647   -4825.7839 
45506000     25.61531   -5202.7297   -5153.3284   -5202.7297            0    1592.2519    19.899078    19.873647    20.686344    8180.7713    1301.2208    1841.7031    1633.8319   -125.82758    338.27285    83.228148   -4963.3598 
45507000    24.675333   -5202.8948   -5155.3063   -5202.8948            0    2028.7852    19.883637    19.868232     20.68341    8171.0376     1996.601    2293.5794    1796.1753    57.273413     287.7083   -123.53296   -4913.5437 
45508000    25.574099   -5202.4155   -5153.0937   -5202.4155            0    2024.3324    19.874608    19.843266    20.685114    8157.7359     1691.697    2773.7671     1607.533    15.768584    578.72102   -92.300936   -4912.2544 
45509000    26.225014   -5201.6169   -5151.0398   -5201.6169            0    2292.3555    19.911641    19.836959    20.611339    8141.1989    1627.4714    2872.4746    2377.1206   -296.99359    117.58461   -578.08773   -4878.8661 
45510000    25.908259   -5202.9894   -5153.0231   -5202.9894            0    2588.6016    19.911643    19.893503    20.551315    8140.6293    2284.7039    2945.9154    2535.1855   -144.84637      369.276   -57.720534   -4845.6973 
45511000    23.864499    -5199.183   -5153.1583    -5199.183            0    1898.8522    19.896127    19.823356    20.670954    8152.7902    1561.2716    1870.5279    2264.7572   -126.39995   -210.19981    191.27236   -4927.3846 
45512000    26.152033   -5201.6423   -5151.2059   -5201.6423            0    2194.5475    19.873577    19.900394    20.619586    8154.8817     2111.418    2666.5222    1805.7022   -207.86683    202.02203    391.49257   -4890.2071 
45513000    26.817992   -5201.1004   -5149.3797   -5201.1004            0    2169.6291    19.929493    19.865648    20.565291    8142.0517     1741.822    2209.2153      2557.85   -376.23116    521.11528    84.259294   -4891.7504 
45514000     25.18648    -5203.442   -5154.8677    -5203.442            0    2288.2777    19.893461    19.894894    20.577305    8144.0511    2250.9903    1894.6771    2719.1658   -347.31746    164.58285    473.25033    -4883.083 
45515000    24.487691   -5201.0167   -5153.7901   -5201.0167            0    2227.9693    19.852443    19.922015    20.617782    8154.3465    3135.3845    1654.5649    1893.9587   -117.48065    40.559612    191.06311   -4888.8338 
45516000    26.017731   -5204.6812   -5154.5038   -5204.6812            0    2490.8243    19.832097    19.895734    20.645565     8146.206    3033.8796    2064.2237    2374.3696   -321.86643    286.56392   -159.46345   -4858.5838 
45517000    25.823479   -5202.9506   -5153.1478   -5202.9506            0    2538.2637    19.903984    19.818189    20.653745    8147.0955    2196.3096    2627.7261    2790.7553   -62.639127    612.10749     -152.741   -4851.5589 
45518000    23.909434   -5204.3117   -5158.2003   -5204.3117            0    1890.4889    19.954198    19.849221    20.663121    8184.1516     2026.779    1806.0139    1838.6737   -88.329017    214.78247   -438.00933   -4932.5564 
45519000    24.861969   -5201.3249   -5153.3765   -5201.3249            0    2491.6124    19.917454    19.889384    20.575136    8150.7558    1835.6155    3173.6043    2465.6175   -258.49306    74.676095   -122.92442   -4857.1975 
45520000    25.185706   -5202.3311   -5153.7584   -5202.3311            0    2226.0184     19.94129    19.839694    20.551363     8130.717    2228.1083    1895.2436    2554.7032   -247.41912    23.692059   -170.70541   -4889.8012 
45521000    24.505919   -5203.9045   -5156.6427   -5203.9045            0     1999.671    19.858251    19.885855    20.635554    8148.9451    2497.9885    1517.1655    1983.8591   -144.64626    542.98534    246.68127   -4918.9938 
45522000    24.580261   -5202.0103   -5154.6052   -5202.0103            0    2305.3893    19.981006    19.847906    20.590825    8165.9325    1956.8023     2277.457    2681.9085   -275.61339    -172.1334   -21.614949   -4880.0523 
45523000    23.997969   -5201.5496   -5155.2675   -5201.5496            0    1898.0029    19.915358    19.880973    20.617057    8163.0496    1748.1856    1942.6985    2003.1246   -178.31934    58.309233    339.72043   -4929.3108 
45524000    26.134099   -5201.3669   -5150.9651   -5201.3669            0    1870.9097    19.938498    19.863912    20.658284    8181.8493    1759.5731     1903.122    1950.0339    9.2449891    143.15462   -30.702475   -4927.7209 
45525000    26.563327   -5202.2697   -5151.0401   -5202.2697            0    2698.7788     19.87508    19.890446    20.609267    8147.3418     2357.159    2973.7421    2765.4353   -69.800439    106.33419   -362.37126   -4830.3695 
45526000    26.519157    -5201.738   -5150.5936    -5201.738            0    2299.6271    19.883723    19.907164    20.566683    8140.8801     1958.808     2306.463    2633.6104   -28.063664    31.335864   -432.79427   -4877.5672 
45527000    25.874876   -5201.8704   -5151.9686   -5201.8704            0    1916.5297    19.875698    19.901317    20.664453    8173.8777    1809.5008    2349.2082    1590.8803   -234.83262    250.09838   -362.12685   -4923.5036 
45528000    25.269812   -5204.7216   -5155.9866   -5204.7216            0    2261.4787    19.882688    19.896426    20.622531    8158.1588    1278.3988    2897.8956    2608.1417   -271.70432    71.944507    59.461649   -4886.9195 
45529000    26.049007   -5204.1747    -5153.937   -5204.1747            0    2116.4505    19.890484    19.831425    20.689743    8161.2065    2140.0881    2257.7415    1951.5219    157.82288    239.95964   -319.39779   -4902.0311 
45530000    25.786389   -5201.7346   -5152.0033   -5201.7346            0    2045.2972    19.891282     19.77668    20.736004    8157.2022    1803.2215    2626.7513    1705.9187   -117.77386    431.08188   -91.782054   -4908.6857 
45531000    25.814014   -5201.8415    -5152.057   -5201.8415            0    2386.1353    19.875531    19.872735    20.643561    8153.8176    1614.9956     3026.696    2516.7142   -15.945163    520.77958    98.331874   -4868.3096 
45532000    25.092388   -5201.5708    -5153.178   -5201.5708            0    2049.3127    19.916192    19.842662    20.647531    8159.7032    2334.2639    1835.9515    1977.7225   -370.22486  -0.89232153     -172.119   -4909.3079 
45533000    25.818105    -5203.152   -5153.3596    -5203.152            0    2509.4173    19.882967    19.817394    20.652336    8137.6106    2882.3076     2159.525    2486.4193    29.492856    10.744779    140.46546   -4855.5452 
45534000    24.082518   -5200.8679   -5154.4228   -5200.8679            0    2180.7436    19.893385    19.825313    20.689464    8159.7712     1831.949    2524.0254    2186.2563    93.957969   -385.22267   -246.45853   -4894.9102 
45535000    24.996148   -5208.7265   -5160.5193   -5208.7265            0    1900.6124    19.891968    19.889446    20.581054    8142.6927    1829.9323    2363.6401     1508.265   -115.62377    424.31639    261.08979   -4934.8162 
45536000    24.509957   -5204.6596   -5157.3901   -5204.6596            0    2434.1064    19.949198    19.800813    20.619464    8144.9015    2411.1024    2310.9915    2580.2252    8.2624733   -94.232009    47.726369   -4868.2547 
45537000    24.871893   -5202.6951   -5154.7276   -5202.6951            0     2461.034    19.906144    19.867037    20.609071    8150.3947    2529.0241    2506.9105    2347.1675   -75.568641    238.55478   -58.560704   -4862.1964 
45538000    25.607909   -5200.8978   -5151.5108   -5200.8978            0    2616.4023    19.920505    19.825006    20.610653    8139.6441    2541.2808    2306.1679    3001.7583    -159.0187     497.2019   -341.14099    -4840.922 
45539000    25.743478   -5206.3259   -5156.6775   -5206.3259            0    1866.7766    19.979164    19.854008    20.597284    8170.2523    1755.5194    2093.0235     1751.787   -86.265502    364.94825     136.2195   -4934.2422 
45540000    26.106964   -5204.6555    -5154.306   -5204.6555            0    2506.1308    19.953256    19.861694    20.569079    8151.6381    2288.1655    2526.8405    2703.3864    122.28508    293.94795    146.15458   -4856.3689 
45541000    24.325131   -5199.4172   -5152.5042   -5199.4172            0     2360.129     19.97771    19.852366    20.544192    8147.9254    2330.6806    2103.9422    2645.7643   -190.70455    363.48838    4.7203984   -4872.0521 
45542000    25.092527   -5204.1901    -5155.797   -5204.1901            0     2099.724    19.864989    19.875683    20.634334    8147.0589    1873.9809    2161.4531    2263.7382    197.32295    440.22551   -77.402105   -4906.3151 
45543000     26.00037   -5204.6669    -5154.523   -5204.6669            0    1703.2475    19.865758    19.898492    20.702113    8183.5172    1798.1789    1570.5327    1741.0308   -138.10256    148.77622   -235.40288   -4951.2435 
45544000    24.612739   -5205.1885   -5157.7208   -5205.1885            0    1993.3481     19.92583    19.858836     20.60647    8154.0586    2277.1388    1832.6187    1870.2868   -264.85989    168.66141   -15.240619   -4920.6746 
45545000     24.46606   -5204.3837   -5157.1989   -5204.3837            0    2175.5288    19.912618    19.862349    20.623062    8156.6551    1891.7742    2264.2266    2370.5858   -2.8269011    75.249771   -50.092699   -4898.4057 
45546000    25.465508   -5204.9617   -5155.8493   -5204.9617            0    2195.5319    19.923395    19.838963    20.602018    8143.1431    1801.4617    2563.7681    2221.3658   -105.96166    250.91198   -1.7490799   -4895.1093 
45547000    25.630579   -5204.1638   -5154.7331   -5204.1638            0    2515.6524    19.890131      19.7928     20.72198     8157.858    2238.7343    3135.4415    2172.7814   -332.54585    653.41634    351.56897   -4855.4359 
45548000    23.430115   -5203.5413   -5158.3543   -5203.5413            0    1725.6116    19.879463    19.892959    20.655259    8168.3567    1417.8601    1997.9514    1761.0233    68.738602    304.54598    632.16235   -4952.7872 
45549000    26.246087   -5204.9251   -5154.3073   -5204.9251            0    1919.7141    19.911318     19.90318    20.593857    8161.3156    2040.5774    1670.2005    2048.3643   -93.879192   -230.83635    73.014743   -4925.8145 
45550000    23.957947   -5203.5172   -5157.3123   -5203.5172            0    2053.3419    19.877351     19.89761    20.664095     8172.893    1980.3538    2311.7775    1867.8944    99.889602    292.30148    456.14924   -4912.5677 
45551000    27.805367   -5200.1506   -5146.5256   -5200.1506            0    2361.9664    19.899384    19.766796    20.700116    8142.3299    2230.1047    3064.5426     1791.252   -8.9374829    252.78802    105.49984   -4866.0479 
45552000    24.377268   -5204.3376    -5157.324   -5204.3376            0    2358.1323    19.809429    19.850894    20.733563    8153.1598    2810.5649    2389.2313    1874.6008   -2.3958869    132.01529    344.64388   -4876.9292 
45553000    24.458101    -5205.025   -5157.8555    -5205.025            0    1946.5363    19.857896     19.91181    20.658386    8168.4633    2599.0992    1528.8897    1711.6202   -208.16824    157.76924    129.37696   -4925.9672 
45554000    25.572238   -5201.5591   -5152.2409   -5201.5591            0    2178.2825    19.844673    19.927735    20.675336    8176.2555    1571.4101    2642.1027    2321.3347   -339.13376   -154.89723   -149.43748   -4892.4975 
45555000    26.480507   -5202.7494   -5151.6795   -5202.7494            0    2518.6468    19.873655     19.84698    20.627651    8136.2066    2560.0726    2519.6569    2476.2108   -328.58149    373.49666   -241.55933   -4852.8213 
45556000    26.321507   -5201.6769   -5150.9136   -5201.6769            0    2522.6799    19.930648    19.849274    20.601557    8150.1589    2134.9513    2419.0895    3013.9989    68.294735    76.832996    255.70968   -4851.0636 
45557000    23.858026   -5204.3711   -5158.3589   -5204.3711            0    2020.4999    19.882458    19.872933    20.732978    8192.0713    2056.5257    2087.3754    1917.5987   -59.893146   -136.71673   -9.6338935   -4916.9638 
45558000     24.79791   -5204.1399   -5156.3151   -5204.1399            0    1800.5834    19.950676    19.892148    20.601579    8175.9796    1013.3274    2318.3579    2070.0649     206.6194    520.78572    163.56021   -4941.6166 
45559000    25.528039   -5203.2817   -5154.0487   -5203.2817            0    2521.2064    19.921622     19.84748    20.572642    8134.2991    1704.0448    3008.4831    2851.0914   -204.82127    464.34234   -17.026287    -4854.957 
45560000    25.380312   -5203.9479   -5154.9999   -5203.9479            0    2235.6458    19.887157    19.837516    20.720824    8174.6093    2407.0243    2354.0797    1945.8334     25.12849    467.14534   -156.29689     -4888.47 
45561000    25.103619   -5202.9568   -5154.5423   -5202.9568            0    2253.4571    19.906952    19.839602    20.696831    8174.1306    2009.2789    2498.6479    2252.4444   -26.948756   -25.778354   -197.84873   -4885.9048 
45562000    25.811976   -5199.6892   -5149.9087   -5199.6892            0    2037.5117    19.941315     19.87472    20.581205    8156.9088     1887.403    2040.6137    2184.5184   -134.80666    365.55186    325.04235    -4907.526 
45563000    24.906079   -5199.2696   -5151.2361   -5199.2696            0    2423.9896    19.906128    19.821051    20.655819    8149.9677    2417.6433    2445.5646    2408.7608    11.300521    596.92679     121.5799   -4863.1233 
45564000    24.858378   -5202.4946   -5154.5531   -5202.4946            0    2514.6603    19.941788     19.77584    20.722742    8172.3368    2903.8779    2505.4223    2134.6806    -268.9058   -33.481836   -56.670758    -4854.843 
45565000    25.619241   -5205.2653   -5155.8564   -5205.2653            0    2154.8219    19.912141    19.874039    20.629862    8163.9514    2660.3827    1657.5377    2146.5452   -76.797343   -164.79346    77.257164   -4899.2971 
45566000    26.380931   -5199.7057   -5148.8279   -5199.7057            0    2459.0522     19.84692    19.872245    20.642498      8141.46    3385.7038    1902.4233    2089.0294   -175.67869    139.36619   -165.43303   -4856.8527 
45567000    24.813055   -5202.8655   -5155.0114   -5202.8655            0    2623.5412    19.854971    19.841055    20.654438    8136.6828    2531.9948    2939.8859    2398.7428   -139.02924    117.21543   -369.29742   -4843.6885 
45568000    25.333209   -5202.8682    -5154.011   -5202.8682            0    2026.0931    19.880678    19.907771    20.660544    8177.0298    1615.1102    2364.3341    2098.8351   -103.69078   -260.51058    33.214955   -4912.3921 
45569000    24.342521   -5205.1666     -5158.22   -5205.1666            0    1742.0376    19.852131    19.891159    20.681021    8166.5608    1855.7729    1996.7726    1373.5673   -125.74913     600.9318    254.89704   -4950.7417 
45570000    24.738287    -5199.135   -5151.4251    -5199.135            0    2804.3611    19.907588    19.833097    20.551938    8114.5039    2681.2808    2865.3466    2866.4559   -73.492304    387.43033   -50.709964   -4819.5522 
45571000    25.166377   -5202.9152   -5154.3797   -5202.9152            0    1829.1474    19.838268    19.918251    20.680617    8171.8133    1897.3834    1562.8274    2027.2315    49.622391    179.81909     35.48433   -4936.3864 
45572000    27.491952   -5202.3647   -5149.3442   -5202.3647            0    2069.2755     19.83326    19.997174    20.593451    8167.5512    2403.1716     1483.834     2320.821    17.845718    395.88811    109.14881   -4902.8617 
45573000     23.51572   -5203.6196   -5158.2675   -5203.6196            0    2489.4444    19.887543    19.852951    20.636447    8147.8145    2366.5676    2238.2449    2863.5206   -46.539859   -6.6240685   -312.01362   -4862.4531 
45574000    25.248777    -5205.242   -5156.5476    -5205.242            0     2334.323    19.841889    19.829016    20.729094    8155.7614    2650.7381    2536.2428     1815.988   -269.57132    130.24627   -64.417455   -4878.8953 
45575000    25.452625   -5206.2932   -5157.2056   -5206.2932            0    2036.5831    19.843554    19.918385    20.667532    8168.8743    2624.1658    1620.7032    1864.8804   -145.00032    99.401471    332.36423    -4914.578 
45576000    25.808109   -5204.9949   -5155.2218   -5204.9949            0    2479.5591    19.949107    19.848848    20.582851    8150.1255    2131.0903    2606.5214    2701.0657    -44.12104    254.05356    109.13024   -4860.4984 
45577000    23.950956   -5204.6497   -5158.4582   -5204.6497            0    2349.1895    19.888473    19.853584    20.671888    8162.4491    2455.8324    2605.2794    1986.4566    -238.5612    412.77581   -323.81302   -4878.8085 
45578000    25.523697   -5201.0579   -5151.8333   -5201.0579            0    1903.5817    19.924141    19.887277    20.705726     8204.373    1626.1146    1825.7162    2258.9143    58.356943    4.6588226   -563.95807   -4924.0653 
45579000     25.44577   -5205.2833    -5156.209   -5205.2833            0    2375.7586    19.915014    19.833495    20.661613    8161.0134    2284.8564    2311.9214    2530.4982   -250.05908    341.59888    62.344939   -4873.4462 
45580000    26.143131    -5202.991   -5152.5718    -5202.991            0    1671.1171     19.92217    19.871152    20.697454    8193.6351    1694.7897    1992.8175    1325.7442   -53.526403   -156.28157   -27.446303   -4952.8804 
45581000    26.601815   -5205.2485   -5153.9446   -5205.2485            0     1776.884    19.888056    19.865349    20.689362    8174.0186    2066.3777    1494.0686    1770.2057   -150.71361    106.29684    350.53128   -4942.1228 
45582000    24.886362   -5205.1477   -5157.1523   -5205.1477            0    2331.6495    19.833585    19.843804    20.762818    8171.7008    2820.2158    2222.3336     1952.399   -166.53696    574.30988   -236.03112   -4879.2759 
45583000    25.404066   -5203.7701   -5154.7762   -5203.7701            0    2032.9658    19.949187    19.840144    20.634157     8166.891    1770.2477    2336.1519    1992.4978   -221.64289    381.01508    334.50945   -4912.6383 
45584000    26.333463   -5202.0369   -5151.2506   -5202.0369            0     1673.748    19.903871    19.849121    20.704521    8179.8249    2172.7725    1545.5533    1302.9181   -216.80239    742.56676   -412.37161   -4951.5819 
45585000    24.211984   -5203.3053   -5156.6105   -5203.3053            0    1780.4929    19.905354    19.911922    20.579653    8156.8245    1553.0826    1834.3049    1954.0912     95.14889    37.770972     309.6851    -4944.805 
45586000    24.821593   -5203.5546   -5155.6841   -5203.5546            0    2380.9745     19.86076    19.877622    20.643108    8149.5827    2547.3973    2367.7846    2227.7418    -30.25857     622.1418    279.02047   -4872.6974 
45587000    25.338054   -5204.9649   -5156.0983   -5204.9649            0    1950.1951    19.847985     19.91806    20.710896    8187.7082    2245.5261    1531.8752    2073.1838   -26.158381    85.199574    413.36957   -4923.2268 
45588000    25.531715   -5203.5566   -5154.3165   -5203.5566            0    1975.8875    19.919846    19.901539    20.586785    8161.3342    1998.5508    1934.9309    1994.1807   -1.8398665    19.216291   -146.02593   -4919.1371 
45589000    24.443858   -5205.9276   -5158.7856   -5205.9276            0    2111.9551    19.857511    19.917919    20.629235    8159.2811    2425.3236    1555.3819    2355.1599   -173.06472   -125.41198     -151.815    -4907.474 
45590000    24.818476   -5203.3431   -5155.4786   -5203.3431            0    1834.6302    19.903184    19.899275    20.624699    8168.5963     2367.165       1339.2    1797.5254    50.425649    443.19908    453.39626    -4936.918 
45591000    25.489403   -5205.7379   -5156.5795   -5205.7379            0    2757.7748    19.878831    19.872278    20.657383    8160.4442    3139.6892    2196.1878    2937.4475   -33.961127   -163.85973   -93.654366    -4828.372 
45592000    25.446545   -5202.9414   -5153.8656   -5202.9414            0    2502.8854    19.891675    19.872846    20.592919    8140.4671    2713.1775    2458.4126     2337.066   -245.38722   -532.80972    9.0577777   -4856.7221 
45593000    26.237535   -5202.5574   -5151.9561   -5202.5574            0    1894.2042    19.890446    19.901462     20.61891    8161.9741     2145.336    1977.8629    1559.4136   -104.03187   -161.43299    -53.82917   -4926.4814 
45594000    24.031547   -5202.4448   -5156.0979   -5202.4448            0     2065.899    19.945338     19.85709    20.637681    8173.6852    1593.5194     2280.726    2323.4516   -281.04019    692.76956    130.97498   -4909.8328 
45595000    24.659928   -5204.7191   -5157.1604   -5204.7191            0    2465.6352    19.938863    19.894277    20.509129    8135.3411    2025.4619    2567.9786    2803.4652    60.922339     560.6762   -20.332563   -4864.6236 
45596000    25.058033   -5202.8507   -5154.5241   -5202.8507            0    1849.4463     19.89453    19.905052    20.649412    8177.2015    2315.7824    1332.6874    1899.8691    98.316204    32.991972    489.26247   -4933.9664 
45597000    25.576085   -5202.5959   -5153.2703   -5202.5959            0    2240.7447    19.860211    19.891721    20.591669    8134.8164    2600.9925    1681.1742    2440.0672   -180.10413    392.92338    63.612206   -4887.4329 
45598000    25.269232   -5201.7916   -5153.0577   -5201.7916            0    2125.3398    19.892303     19.84166    20.628787    8142.1065    1548.4626    2305.6328    2521.9241    26.790316    219.69686   -201.34487   -4900.6858 
45599000    24.722238   -5202.6232   -5154.9443   -5202.6232            0    2293.3363    19.883801    19.826585    20.730538    8172.5559     2312.929    2447.0688    2120.0111    -192.5033    508.33552   -168.18357   -4881.6054 
45600000     24.59109   -5202.7446   -5155.3186   -5202.7446            0    2190.4534    19.855832    19.862445    20.697271    8162.7011    3051.9522    1954.6289    1564.7791   -190.71848    46.180669    -454.8895   -4894.5569 
45601000    23.740708   -5203.4324   -5157.6465   -5203.4324            0    2291.4794    19.873384    19.909627    20.580106    8142.9652    2079.3429    2279.1087    2515.9866    9.2526323     326.3713    482.37601   -4885.5177 
45602000    24.452367   -5199.6069   -5152.4485   -5199.6069            0    2483.4161    19.881996    19.856136    20.579016     8124.176    2635.3895    2363.5714    2451.2873    37.307451    178.48064   -36.079823   -4858.2064 
45603000     25.55806   -5201.8646   -5152.5737   -5201.8646            0    1868.5132    19.950327    19.905405    20.569818    8168.6728    1511.9903    1955.1663     2138.383   -42.807537    456.98967   -87.394469   -4929.9745 
45604000    26.317243   -5203.3633   -5152.6082   -5203.3633            0    2399.3541    19.912724    19.881581    20.573497    8144.9744    2151.4703    2412.8117    2633.7803   -18.127412     647.4112    133.22368   -4867.5983 
45605000    26.294524   -5201.2889   -5150.5777   -5201.2889            0    2304.6655    19.855103    19.888949    20.651859    8155.3599    2291.9166    2606.3272    2015.7527   -192.11104    416.37987    140.69645   -4876.4664 
45606000     25.04128   -5204.7072    -5156.413   -5204.7072            0    1772.5556    19.912996    19.888939    20.625715    8168.7805    1877.6669    1485.8092    1954.1909   -31.337503    429.63304     81.26846   -4945.2426 
45607000    25.410917   -5203.0441    -5154.037   -5203.0441            0    2044.5005    19.930236    19.882662    20.595974    8161.4872    1987.1379    1980.2266     2166.137   -238.06341   -306.76671     82.66637   -4910.6864 
45608000    25.674258   -5201.7535   -5152.2385   -5201.7535            0    2250.1045    19.926543     19.87919    20.620719    8168.3519    1987.5706    2187.4074    2575.3356   -110.80089    10.175039    189.11089   -4884.1902 
45609000     24.69694    -5202.364   -5154.7339    -5202.364            0    2333.1882    19.913092    19.858752    20.632854    8159.2447    1725.8224    2754.5765    2519.1657    14.361745    26.789449   -16.381158    -4877.098 
45610000    25.586221   -5200.5272    -5151.182   -5200.5272            0    2174.9519    19.899773    19.933056    20.569421     8159.134     2186.714    1988.5783    2349.5634    10.370521    100.94303    125.32789   -4892.3788 
45611000    26.032053   -5202.0331   -5151.8281   -5202.0331            0    2492.4489    19.871112    19.872862    20.697977    8173.5458    2889.1431    2351.0961    2237.1076    7.1478975   -41.614868   -361.50002   -4854.7213 
45612000    24.820598   -5200.8502   -5152.9816   -5200.8502            0    1886.0725     19.89925    19.867852    20.690281    8180.0134     1805.183    2273.7153    1579.3193   -13.344782   -28.171059   -305.59995   -4927.9786 
45613000    24.630443   -5203.9158   -5156.4139   -5203.9158            0     2304.618    19.976274      19.8312    20.573362    8150.2086    1718.0492    2323.4659     2872.339   -57.162156   -15.565787    348.49911   -4882.4814 
45614000     26.16709   -5204.2619   -5153.7964   -5204.2619            0    2482.9951    19.900883    19.891839    20.593314    8152.1755    2541.6576    1960.9819    2946.3458   -27.702404   -172.73106   -385.01083   -4858.5904 
45615000    24.921895   -5203.0895   -5155.0255   -5203.0895            0    2106.9823    19.907022     19.80764    20.705604    8164.4497    1918.1035    2429.2725    1973.5708   -144.74558    219.37269   -161.59487   -4904.1469 
45616000     24.42296   -5204.1801   -5157.0784   -5204.1801            0    2227.9712    19.856794    19.885378    20.657504    8156.8195    1745.5474    2475.2611    2463.1051   -99.256818    419.96406   -183.30238   -4892.0415 
45617000    24.530975   -5205.1034   -5157.7933   -5205.1034            0    2115.1567    19.895967    19.875732    20.615277    8152.2476    1711.9994    2482.6338     2150.837    32.802553    106.81713    273.97096   -4906.3178 
45618000    24.291857   -5203.9881   -5157.1392   -5203.9881            0    2338.1979    19.941312    19.888713    20.576355    8160.7272    1882.2883    2378.8718    2753.4335   -195.05378    449.74679     38.64073   -4878.8567 
45619000    24.692833   -5203.9328   -5156.3106   -5203.9328            0    2396.4677    19.885698    19.841073    20.587917    8123.0365    2532.3336    2151.8922    2505.1774   -59.203593    561.81392   -544.58549   -4872.4103 
45620000    25.757723   -5204.0767   -5154.4008   -5204.0767            0    2186.6685    19.924637    19.849559    20.605371    8149.3263    2137.5566    2072.7446    2349.7043   -110.19926    258.00339   -131.06715   -4894.5162 
45621000    25.457474   -5206.6933   -5157.5964   -5206.6933            0    1929.3546    19.873209    19.920034    20.607795    8158.1108    2356.0348    1534.0559    1897.9732   -257.74344   -6.0278474    150.87728   -4928.0463 
45622000    25.739142   -5202.5877   -5152.9476   -5202.5877            0    1849.3661    19.876751    19.869766    20.740607    8191.4277    1829.7551      1866.44    1851.9033   -193.94024    641.86337   -463.79697   -4932.0157 
45623000    25.719737   -5205.0035   -5155.4008   -5205.0035            0    2329.7938     19.94218    19.819785    20.606073    8144.5445    2348.8993    2373.0451     2267.437    216.50754    -75.49279     112.6796   -4878.6683 
45624000    24.974674   -5201.6685   -5153.5027   -5201.6685            0    2046.4431    19.870153    19.886209     20.64577    8158.0109    1842.2037    2477.1941    1819.9317   -42.444089    556.23611    171.76189   -4910.0246 
45625000    26.582309   -5202.4494   -5151.1831   -5202.4494            0     2587.135    19.894208    19.871859    20.556214    8126.5885    2636.5097    2344.2338    2780.6615   -102.27058    306.72061    254.71533   -4844.5612 
45626000    24.220513    -5204.679   -5157.9677    -5204.679            0    1610.8667    19.863159    19.844756    20.683801    8153.1313    2187.7912    1703.0808    941.72815    -163.0617  -0.30918471    357.47066   -4966.4275 
45627000    24.449179    -5202.037   -5154.8847    -5202.037            0    2519.7664    19.899629    19.829731    20.641539      8145.24    2515.4019    2682.4603     2361.437    -192.0328    225.38947   -620.21043   -4855.5618 
45628000    25.044608    -5204.054   -5155.7534    -5204.054            0    2102.8481    19.938316    19.808504    20.623415    8145.1807    2468.9768    1808.9176    2030.6499   -203.67847    132.37396   -264.09861   -4905.9579 
45629000    26.104114   -5201.9151   -5151.5712   -5201.9151            0    1974.9556    19.810782    19.911293    20.678739       8156.9    2325.3618    1821.5589    1777.9459   -107.20655    574.60276   -3.3356659   -4916.6304 
45630000     23.64943   -5203.6461   -5158.0362   -5203.6461            0    2451.0946    19.918344    19.818982    20.622299    8140.8856    2349.3927    2508.5531     2495.338   -136.39979   -74.343269    -282.0445   -4867.0263 
45631000    23.998426   -5204.1937   -5157.9107   -5204.1937            0    2319.2664    19.867832    19.905223    20.613594    8152.1327    2462.2722    2366.8674    2128.6597   -188.07503    470.28933   -172.86239    -4882.172 
45632000    26.958145   -5203.0665   -5151.0755   -5203.0665            0    2304.7838    19.854078    19.898259    20.646611    8156.6828    2729.3324    1814.0417    2370.9774   -163.13923     597.9442   -71.771438   -4876.9057 
45633000    25.248225   -5200.5116   -5151.8183   -5200.5116            0    1999.1616    19.883821    19.887515    20.659451     8169.569    1889.0912    2141.2186    1967.1749    6.6726277    132.20929    80.635809   -4913.6286 
45634000    25.323008   -5204.1352   -5155.2977   -5204.1352            0     2346.046    19.845321    19.871825    20.667836    8150.6248    3027.6001     1863.839    2146.6989    -111.6954    287.03886   -231.74022   -4876.4267 
45635000     24.61789   -5203.2603   -5155.7827   -5203.2603            0     2023.915    19.877015    19.911506    20.602471    8154.0728    2047.5571    1773.7189    2250.4692   -259.41613    180.95873    115.33206   -4915.1011 
45636000    25.581877   -5204.2928    -5154.956   -5204.2928            0     1937.535    19.850758    19.924109    20.694279    8184.7664    2299.8641    1566.8992    1945.8418   -44.170683     188.6103    30.093485   -4923.6794 
45637000    24.671773   -5204.3504   -5156.7688   -5204.3504            0    1816.7268    19.875562    19.904634    20.722801    8198.2668    2093.9064    1727.5848    1628.6892    100.66945    616.57955   -218.02295   -4939.5549 
45638000    24.099006   -5201.8188   -5155.3419   -5201.8188            0    2148.1461    19.855113     19.86352    20.648717    8143.6976    2188.9239    2279.3456    1976.1688   -23.333878    609.30023    122.34814    -4900.212 
45639000     23.67719   -5204.6053   -5158.9418   -5204.6053            0    2183.3786    19.846356    19.936825    20.651793    8171.3636    2739.6746    1757.1889    2053.2722    49.021713    309.88657   -358.68271   -4898.7465 
45640000    26.246912   -5204.4544    -5153.835   -5204.4544            0    2141.0469    19.901495    19.871066    20.675527    8176.4252    2269.4704    1895.6399    2258.0306   -177.37618    605.80642    -127.3034   -4898.5263 
45641000    25.596295   -5203.9015   -5154.5368   -5203.9015            0    2572.9108    19.857687    19.841285    20.694326    8153.6064     2649.646    2609.3851    2459.7012   -102.72553    107.16319   -123.65602   -4848.5869 
45642000    23.679196    -5200.632   -5154.9647    -5200.632            0    1956.2879    19.948252    19.892543    20.576235    8165.0917    1396.6385    2319.9305    2152.2948   -60.242828   -95.802057   -94.396566   -4922.0109 
45643000    25.364426   -5204.7482   -5155.8308   -5204.7482            0    2306.5085    19.882961    19.855107     20.66649    8158.6819     3025.597    1716.6384    2177.2901    -189.2261    299.35327   -53.179527   -4881.3886 
45644000    25.999271   -5204.6549   -5154.5132   -5204.6549            0    1834.2413    19.884842    19.891785    20.669576    8175.7476    1673.2685    1707.6181    2121.8375   -201.60847     228.5848    74.807672   -4935.8076 
45645000    24.541515   -5202.3532   -5155.0228   -5202.3532            0    2357.9666    19.909799    19.837398    20.642849    8153.0708    1880.2892    2952.0488    2241.5617    63.937887    180.15862    201.72305   -4874.6508 
45646000    24.734968   -5203.9471   -5156.2437   -5203.9471            0    2154.6555    19.872883    19.858541     20.66133     8153.921     1125.999    3476.6885     1861.279   -343.95737     285.5048    62.424371   -4900.0194 
45647000    23.589841   -5203.0271   -5157.5321   -5203.0271            0    1967.2444      19.8425    19.928981    20.636056    8160.3386      2763.91    1465.0743    1672.7489   -121.55741    134.08173     12.07635     -4923.41 
45648000    24.841101    -5204.902   -5156.9939    -5204.902            0    1711.4311    19.886768    19.887003     20.66235     8171.716    1777.4395    1836.7024    1520.1512   -79.382774    99.565693   -89.170915   -4953.0322 
45649000    26.398799   -5204.5438   -5153.6315   -5204.5438            0    2205.3284    19.898819    19.886648    20.656571    8174.2355    2334.2657    1735.8284    2545.8913   -312.18368    73.136611   -64.197982   -4890.7281 
45650000    24.976348   -5204.8182   -5156.6492   -5204.8182            0    2000.0355    19.909459    19.849369    20.651978    8161.4594    1395.2332    2534.5031    2070.3703   -109.98264    218.35598   -101.95301    -4918.592 
45651000     25.95693   -5200.6197   -5150.5596   -5200.6197            0    2410.5979     19.89417    19.874721    20.648167    8164.1008    2003.6296    2310.2026    2917.9614   -38.976011     16.61527    256.01361   -4863.5417 
45652000    24.790424   -5200.7519   -5152.9414   -5200.7519            0    2206.1377    19.903876    19.893384    20.642306    8173.4339    2412.7537    2158.8718    2046.7875    -350.3647   -134.33394    -192.5648   -4889.9673 
45653000    25.272744   -5204.4602   -5155.7195   -5204.4602            0    2703.1762    19.901786    19.792985    20.712092    8158.8197    2540.9794    3003.4002    2565.1489   -195.80957    -144.2563    302.36369    -4834.074 
45654000    23.971968   -5201.4785   -5155.2465   -5201.4785            0    2099.0808    19.962003    19.817448    20.681677    8181.5879    1891.9739    2307.5359    2097.7326    61.232905    25.680692    92.050311   -4904.7841 
45655000    25.266184   -5204.5314   -5155.8035   -5204.5314            0    2364.8492     19.91376    19.877718    20.596388    8152.8763    1715.9912     2666.072    2712.4844   -51.509377   -71.588612   -270.16599   -4874.6198 
45656000    25.028452    -5204.011   -5155.7415    -5204.011            0    3010.2643    19.923948    19.820286    20.639031    8150.3192    2844.6407    3131.3536    3054.7987   -134.44816   -287.66462   -555.19806   -4797.9293 
45657000    24.187491    -5200.117   -5153.4694    -5200.117            0    1732.2108    19.949816    19.910937    20.562762    8167.9305    1793.5948    1470.5562    1932.4814   -3.5320154    502.52113    67.506865   -4947.1269 
45658000     23.86877   -5205.6185   -5159.5856   -5205.6185            0    2407.2673     19.91733    19.900022    20.606645     8167.553    2299.2503    2262.2189    2660.3328   -162.01175   -77.543687   -205.13498    -4872.843 
45659000    24.052374   -5202.1573   -5155.7703   -5202.1573            0    2483.3447    19.879086    19.908218    20.604783    8154.4906    1995.4208    2920.9733    2533.6401    -218.1929      89.0308    379.17568   -4860.4388 
45660000    24.089315   -5200.4318   -5153.9735   -5200.4318            0    2575.8805    19.841758    19.841382    20.655008    8131.6269    2152.9501    3426.1474    2148.5441    84.944572    174.98233   -661.45236   -4848.4961 
45661000    25.007306   -5203.8899   -5155.6612   -5203.8899            0    2168.6919    19.980235    19.813436    20.612537    8160.0314    1677.9212    2552.5892    2275.5651   -165.85144    246.97531   -102.46074   -4897.5745 
45662000    24.939204   -5202.3103   -5154.2129   -5202.3103            0    2303.1366    19.864916    19.904588    20.618731    8152.7073    2092.0204    2491.1625    2326.2267     -284.528    418.03457    54.022574   -4880.3726 
45663000    24.784898   -5200.8396   -5153.0398   -5200.8396            0     2430.961    19.940099     19.75582    20.616114    8121.3682     1768.247     3196.822    2327.8139   -166.21414    355.22155   -45.893734   -4865.1123 
45664000     25.46725   -5205.6175   -5156.5017   -5205.6175            0     2101.476      19.8915     19.91262    20.596919    8158.2725    1845.9529    2081.4298    2377.0453   -201.93142     391.1556   -523.45707    -4906.468 
45665000    25.242506   -5203.5463   -5154.8641   -5203.5463            0    2555.2077    19.920131    19.850868    20.613654    8151.2962    2417.9493    2670.5015    2577.1723   -90.087786    135.98509    200.70311   -4851.1053 
45666000    26.265506   -5204.6596   -5154.0044   -5204.6596            0    2267.6313    19.891214    19.894753    20.633206     8165.195    1682.2872    2759.9714    2360.6353   -194.96212    763.23361    6.1284949   -4883.9726 
45667000    26.386748   -5204.7413   -5153.8523   -5204.7413            0    2000.1142    19.930304    19.875077    20.573833     8149.631     2161.564    1805.1638    2033.6149   -159.72827    73.987567    72.262242   -4916.1307 
45668000    26.587046   -5202.6483   -5151.3729   -5202.6483            0    2319.8384    19.882403    19.845624    20.684542    8161.6794    2587.6415    2565.4858    1806.3881    61.325602    484.98925    243.57328   -4875.2432 
45669000    26.797721   -5202.3564   -5150.6748   -5202.3564            0    2457.6032    19.898648    19.860159    20.600005    8140.9225    2139.1811    3167.0623    2066.5661   -144.74179    512.43033   -5.8805216   -4858.8909 
45670000    26.022943   -5204.2545   -5154.0671   -5204.2545            0    2013.8178    19.945022    19.809968     20.62367    8148.6233    1847.6357    2431.7684    1762.0491   -126.23532    579.49703   -159.30424   -4914.7464 
45671000    26.638366   -5202.2782   -5150.9039   -5202.2782            0     2546.885    19.945668    19.843405     20.58286      8146.49    2229.2914    2413.8088    2997.5548   -83.501249    97.208637   -189.69401   -4848.3131 
45672000    24.617879   -5203.5554   -5156.0778   -5203.5554            0    2011.6118    19.937396    19.914933    20.571822    8168.0814    1728.5912    2145.3696    2160.8746   -18.834434     326.5805    400.83686   -4916.4484 
45673000    24.748838   -5205.4375   -5157.7072   -5205.4375            0    2181.3837    19.877905    19.854799     20.69263    8166.7977    2623.5072    2284.3366    1636.3072   -93.571477    256.32899   -4.0958241   -4897.8949 
45674000    25.573281   -5203.4685   -5154.1483   -5203.4685            0     2037.274    19.864972    19.928894    20.609382    8158.9847    2148.0512    1929.1851    2034.5857   -117.02561   -16.858728    71.685478   -4911.7322 
45675000    24.408215   -5202.7057   -5155.6324   -5202.7057            0    2041.7469    19.924353    19.849579    20.636145    8161.3896    2654.7993    1749.4245     1721.017   -233.11334   -14.457638    134.65559   -4912.6125 
45676000    24.347783   -5203.8877    -5156.931   -5203.8877            0    2818.5957    19.909545    19.825428    20.607349    8134.0351    3193.8341    2550.8103    2711.1425   -164.50732    304.45452   -298.77724   -4822.5707 
45677000    24.299289   -5201.5677   -5154.7045   -5201.5677            0    2133.4464    19.895823    19.919562    20.621662    8172.6963    2316.3402    2231.6483    1852.3507   -49.002684    888.57262    498.35278   -4900.4181 
45678000    23.763022   -5201.1707   -5155.3417   -5201.1707            0    2204.9298     19.92209    19.856264     20.60365    8150.3562    1839.7767    2725.2281    2049.7846   -118.02301    258.01061   -88.384327   -4893.2536 
45679000    26.846072   -5203.7339    -5151.959   -5203.7339            0    1990.1914    19.888471     19.90353      20.6345    8168.1834    2245.8769    1595.2488    2129.4484    -0.573542    903.02292    113.68202   -4914.8783 
45680000    25.561844   -5202.0851   -5152.7869   -5202.0851            0    1961.9332    19.846848    19.909295    20.694524    8177.1673    1961.0974    2135.5458    1789.1566   -213.91827   -205.25485    406.97266   -4918.8154 
45681000    24.213646    -5201.937    -5155.239    -5201.937            0    2703.1094    19.932949     19.81505    20.587077    8131.3271    2630.9449    3124.7079    2353.6753    38.416373    683.32305    415.20449   -4834.6852 
45682000    24.675392   -5201.9388   -5154.3503   -5201.9388            0    2391.1477    19.936198    19.806236    20.597849    8133.2881    2568.8036    2112.9341    2491.7052   -30.903464   -56.642214    344.43972   -4870.7227 
45683000    24.955419    -5206.455   -5158.3263    -5206.455            0    1773.7821    19.894377    19.876106    20.598489     8145.111    1845.8988    1430.4585     2044.989   -145.84764    274.75193    180.57322   -4947.6221 
45684000    24.015861   -5203.8021   -5157.4855   -5203.8021            0    2119.0169    19.931166    19.871766    20.594987    8157.0043    1720.5942    2476.8055    2159.6511   -21.261199    249.16176    92.661852    -4905.404 
45685000    26.803063    -5204.822   -5153.1301    -5204.822            0    2075.8296    19.880127    19.883225    20.642612    8159.6334    2007.6622    1925.8413    2293.9853    114.43261    159.35799    360.67066   -4906.1066 
45686000    24.964027      -5201.4   -5153.2548      -5201.4            0    2162.5879    19.873636    19.874171     20.66874    8163.5747    2086.3609     2088.029    2313.3738   -68.076472   -177.77959   -23.855369   -4895.7828 
45687000    24.615221   -5202.9016    -5155.429   -5202.9016            0    2279.0541    19.816379    19.954287    20.604204    8147.3497     2352.826     1881.495    2602.8414    5.0675286     261.1565   -187.13019   -4884.6301 
45688000    25.970307   -5202.1931   -5152.1072   -5202.1931            0    2337.2125     19.88846    19.839737    20.616721    8134.9835    2534.2212     2246.886    2230.5303    -51.00186   -309.50754    57.437536   -4874.8194 
45689000    23.884571   -5205.0478   -5158.9844   -5205.0478            0    2274.6558    19.896523    19.877153    20.640558    8163.0564    2279.8512    2274.8996    2269.2167   -5.4047426    93.394943    210.27131    -4888.187 
45690000     25.41454   -5200.0797   -5151.0656   -5200.0797            0    2031.7808    19.912215    19.838073    20.664719    8162.9769    1855.4236    2442.8769     1797.042   -208.65298    107.23113   -190.52829   -4909.1849 
45691000    25.761981    -5203.755   -5154.0709    -5203.755            0    2059.5173    19.903762    19.922499    20.579656    8160.5061    1625.4752    2670.4373    1882.6394   -269.72302    198.03526    325.96751   -4908.9623 
45692000    26.277959   -5206.5772    -5155.898   -5206.5772            0    2265.3289    19.877263    19.870128     20.67832    8167.1867     2300.031     2531.531    1964.4247    57.724513   -28.996233    330.35351   -4886.0746 
45693000    25.308644   -5202.3268    -5153.517   -5202.3268            0    2129.2539     19.88127    19.907608     20.61353    8158.5988    2933.0721    1216.2392    2238.4504   -16.459521    49.205205    3.9550554   -4900.1681 
45694000    25.470402   -5200.6865   -5151.5647   -5200.6865            0    2375.6994    19.879031    19.905847    20.616238    8158.0295    2649.1586    2181.2826     2296.657   -233.79533   -469.30551    323.57966   -4868.9123 
45695000    25.085609   -5203.0376   -5154.6579   -5203.0376            0     2487.814    19.891135    19.834359    20.655493    8149.1687    2174.0206    3285.3708    2004.0506   -173.19789    -19.74721     499.9888    -4858.988 
45696000    25.130068   -5204.8377   -5156.3722   -5204.8377            0    1851.2988    19.860523    19.906497    20.660756    8168.3012    1748.1255    1970.7041    1835.0666   -354.80995    269.72432    339.99688   -4935.8339 
45697000    24.735013   -5201.3573   -5153.6538   -5201.3573            0    2526.6071    19.891854    19.880448    20.590817    8142.8235     2762.571    2117.3823    2699.8679   -40.945873    307.18076    422.35125   -4853.6072 
45698000    25.874109   -5204.6732   -5154.7728   -5204.6732            0    2036.3432    19.911002    19.862478    20.699973    8186.4635    2296.0691    1999.5846    1813.3759   -77.631014    69.600499    121.41881   -4911.6514 
45699000    25.319546   -5200.7482   -5151.9173   -5200.7482            0    1958.4872    19.869449    19.845391     20.70276    8163.4497      1868.65    1999.0325     2007.779   -137.88589    578.40812    261.11543   -4918.7486 
45700000     24.76126   -5203.6321    -5155.878   -5203.6321            0    2224.5456    19.913722    19.879291    20.557178    8137.9839    1988.8934    2102.6856    2582.0577   -91.412474    342.82079    259.60923   -4891.8597 
45701000    24.490511   -5202.0329   -5154.8009   -5202.0329            0    2495.5042    19.889684    19.819962    20.650435    8140.6652    1992.8062    2992.4563    2501.2502    63.568561     508.7639    202.32962   -4858.5265 
45702000    24.944126   -5202.6882   -5154.5813   -5202.6882            0    1850.6181    19.864945    19.889108    20.718174    8185.6687     1754.706    2134.0143    1663.1339   -157.39644    795.17629   -216.05948   -4933.6553 
45703000    25.412128   -5205.4519   -5156.4425   -5205.4519            0    2500.1445     19.81616     19.92964    20.634875    8149.3094    2615.6789    2080.2754    2804.4793   -141.05785    187.71421   -70.347455    -4859.302 
45704000    24.656358   -5203.3455   -5155.7936   -5203.3455            0    2791.1873     19.82077    19.890174    20.634094    8134.7556     3117.331    2586.2714    2669.9595   -384.37632    286.60871     10.69421   -4824.6554 
45705000    24.659461   -5205.4907   -5157.9328   -5205.4907            0    1954.8905     19.87842    19.884609    20.655429    8164.5662     2022.448    2233.2683    1608.9553    7.6580386    502.35483   -81.432153   -4925.1605 
45706000    24.611484   -5205.4239   -5157.9586   -5205.4239            0    2094.1425     19.92773    19.847125     20.64197    8164.0676    1869.8487    2315.7723    2096.8065   -15.374302    903.23302    589.31663   -4908.6205 
45707000    25.352995   -5204.5941   -5155.6987   -5204.5941            0     2183.402    19.858858    19.907827    20.667003    8170.6315    1846.2205    2430.6169    2273.3686   -190.65406    382.66769    351.49811   -4895.5239 
45708000    24.755182   -5201.3436   -5153.6012   -5201.3436            0    2187.1121    19.903307    19.855064    20.645666    8158.7839    2067.6661    2352.9306    2140.7397   -42.956743    309.99521      166.242   -4893.3622 
45709000     25.18629   -5204.5797   -5156.0058   -5204.5797            0    2106.0874    19.870318    19.848169    20.742535    8180.6367    2126.7576    2334.2471    1857.2576   -56.234648    249.81808   -95.524281   -4904.7365 
45710000    25.170967   -5200.4124   -5151.8681   -5200.4124            0    1788.6259     19.88302    19.890554    20.745947    8204.6961    1815.6166    1976.4137    1573.8475    33.326963    416.94468   -382.11923   -4937.8463 
45711000    24.378648   -5201.6113    -5154.595   -5201.6113            0    2073.3808    19.960487    19.838769    20.584542     8151.304    1812.0351    2276.2088    2131.8986   -183.77628    419.22642    421.41379   -4908.1148 
45712000    25.024134   -5203.0884   -5154.8272   -5203.0884            0    2345.7758    19.900002    19.885724     20.62736    8162.7813    2668.3215     1731.187    2637.8187   -60.260152    6.8035801    226.26051   -4875.5725 
45713000     25.37413   -5202.2827   -5153.3465   -5202.2827            0    1885.7707    19.943876    19.910969    20.640618    8196.4286    1485.7397    2068.0073     2103.565   -73.951022    268.69363    220.04693   -4927.9281 
45714000      25.0112   -5202.5361   -5154.2999   -5202.5361            0    2146.2941    19.897586    19.911335    20.618881    8168.9428    2073.1759    2241.5484    2124.1581   -218.13283    142.03308    126.24228   -4898.5997 
45715000     24.78582   -5206.0603   -5158.2587   -5206.0603            0    2261.8292     19.88688    19.845884    20.671394     8158.435    2580.5953    1718.3234    2486.5688   -249.49289    18.223527    76.583935   -4889.1408 
45716000     24.56317   -5203.8557   -5156.4836   -5203.8557            0    2031.2978    19.859385    19.875691    20.695388    8168.8631    2498.4713    1891.5497    1703.8723    108.26789    496.27507    336.23514    -4914.486 
45717000    23.883312   -5204.5189   -5158.4579   -5204.5189            0    1732.7311    19.905834    19.875461    20.612732    8155.1722    2053.9641    1551.6187    1592.6106   -99.983799    424.77799   -84.300541   -4952.3758 
45718000    25.135105   -5201.7595   -5153.2844   -5201.7595            0     2460.974    19.878584    19.909409    20.615608    8159.0568    2957.7195    1991.6237    2433.5788   -116.83312    42.476835    87.092834   -4860.4494 
45719000     25.75148   -5204.9737   -5155.3098   -5204.9737            0    1596.6746    19.864583    19.884709    20.739877    8192.2816    2061.1301    1747.7785    981.11516   -216.72723   -97.858414   -72.322905   -4964.5454 
45720000    24.326827   -5204.0992   -5157.1829   -5204.0992            0    2413.5985     19.90335    19.871691    20.607998    8150.7357    1923.1502    2867.9376    2449.7076   -127.86552    -42.79036    468.85488   -4870.2781 
45721000    25.089591   -5203.9196   -5155.5322   -5203.9196            0    1806.0748    19.915316    19.865364    20.634594    8163.5614    1536.6216    1761.6022    2120.0006   -63.222801    265.94825   -32.278123    -4940.506 
45722000    24.550728    -5204.885   -5157.5369    -5204.885            0    2217.6408    19.885062    19.921808    20.601683    8161.2823    2632.3813    2068.9019    1951.6393    47.855497    317.33196    199.34914   -4893.5845 
45723000    24.736967   -5204.4948   -5156.7874   -5204.4948            0    2093.7857    19.981775    19.792855    20.640928    8163.4122    2547.9762     2062.117     1671.264   -37.144773   -146.15219    81.858679   -4907.5118 
45724000    24.968466   -5203.1701   -5155.0164   -5203.1701            0    2661.5117    19.975187    19.882027    20.517112    8148.3137    1845.5762    2675.4896    3463.4692   -186.59551    517.16694    244.29791   -4838.7362 
45725000    25.175912   -5204.8654   -5156.3115   -5204.8654            0    1669.2755    19.946839    19.796986    20.648245    8153.7294    1051.5947    2272.5454    1683.6865   -143.24083    278.62919   -279.80523   -4957.8117 
45726000    23.775049   -5201.5303   -5155.6782   -5201.5303            0    2051.1812    19.883823     19.90682    20.670312    8181.7988    1856.5456    2244.5759    2052.4222   -310.88223    135.70376    380.03139   -4910.9248 
45727000    27.229314   -5201.6249   -5149.1109   -5201.6249            0    1909.4665    19.847593     19.86365    20.722679    8169.8259    2424.7037      1699.72    1603.9758    256.18922    544.89408    19.220522   -4921.6008 
45728000    26.280805   -5203.3539   -5152.6692   -5203.3539            0    1851.2317    19.836476    19.919893    20.650798    8159.9665    2237.7887    1251.6411    2064.2651   -275.61797    720.27487    380.23459   -4932.3639 
45729000    25.244949   -5200.8459   -5152.1589   -5200.8459            0    2579.3823    19.896277    19.808802      20.6352     8132.774      2589.02    2812.0692    2337.0576    39.157902   -201.70626    58.747393   -4846.2231 
45730000    26.100257   -5201.7139   -5151.3773   -5201.7139            0    1965.5307    19.823051    19.943375    20.664047    8169.2938    2322.4948    1677.1967    1896.9007   -63.940997   -216.61952    276.95858   -4917.2025 
45731000    26.140084   -5202.9216   -5152.5083   -5202.9216            0    2325.2639    19.916557    19.898946    20.576115    8154.6948    1772.1223    2497.6655     2706.004   -164.63288   -219.27856    423.40398   -4875.9696 
45732000    25.175484   -5202.3573   -5153.8042   -5202.3573            0    2285.8229    19.869934    19.897111    20.628195    8155.4454    2308.8658     2297.282    2251.3209   -107.52114    126.52823   -326.59519   -4881.9312 
45733000    24.201312   -5202.9751   -5156.3008   -5202.9751            0    2241.2445    19.885548    19.868947    20.658246    8162.1739    1604.7026     2576.001    2543.0298   -359.12328    427.23937   -234.60693     -4889.51 
45734000    25.735764   -5204.0981   -5154.4645   -5204.0981            0    1867.8061    19.903343    19.911093    20.611488    8168.2776    1900.5905    1700.9186    2001.9091    86.434343    369.27993    325.97493   -4931.9604 
45735000    25.696305   -5206.9321   -5157.3746   -5206.9321            0    2345.1308    19.875168    19.839931    20.689731    8158.4157    2432.8275    2640.6041     1961.961   -371.18311    516.45465    734.08242    -4878.346 
45736000    24.368884   -5204.6176   -5157.6201   -5204.6176            0    2326.2479    19.925422    19.891537    20.586852    8159.5424    2042.3646    2412.2557    2524.1233   -108.28274    337.79656   -165.14611      -4880.8 
45737000    24.805977   -5202.3994    -5154.559   -5202.3994            0    2416.4732    19.884105    19.824651    20.648998    8139.7411    2557.7066    2650.9174    2040.7957    28.926209    162.65977   -391.64545      -4867.7 
45738000    25.353503   -5202.6865   -5153.7902   -5202.6865            0    2190.3907    19.903969    19.915065    20.591682    8162.3132    2330.9896    1809.7837    2430.3987     15.26655    510.14891    296.98777   -4893.0483 
45739000    24.945715   -5202.1759    -5154.066   -5202.1759            0    2431.7813    19.900672    19.894471     20.58441    8149.6427    1707.8903    2957.2593    2630.1943   -54.897831    322.04131   -606.34617   -4865.0386 
45740000    25.956361   -5203.5082   -5153.4492   -5203.5082            0     2388.925    19.916452    19.839095    20.614923    8145.4586    2159.1724    2333.6608    2673.9417   -25.598581   -58.123991    101.05209   -4869.6612 
45741000    25.209936   -5205.5812   -5156.9617   -5205.5812            0     2035.429    19.861563    19.922506    20.619594    8159.0101    2419.4597    1501.5839    2185.2435   -231.29245    383.45285   -310.17502   -4914.7644 
45742000    24.599046   -5203.3766   -5155.9353   -5203.3766            0    1976.5512    19.836066    19.879553    20.651983    8143.7407    2600.4697    1749.1517    1580.0323   -47.157064    26.386826   -61.882625   -4921.1841 
45743000    25.423165   -5201.8449   -5152.8142   -5201.8449            0    2406.1594    19.870559    19.888858     20.63049    8153.2263    2281.1529    2434.1878    2503.1374   -308.65217   -36.925211     352.9313   -4866.7064 
45744000     26.20739   -5202.7172    -5152.174   -5202.7172            0    2202.8698    19.855988    19.896046    20.636959    8152.7471    2438.1867    2206.8714    1963.5514   -161.23992    520.48096   -433.68785    -4890.254 
45745000    26.939851   -5202.6081   -5150.6524   -5202.6081            0    2283.6071    19.849969    19.876286    20.700791    8167.3658    2085.9925    2288.4165    2476.4123   -46.812263     105.0709    53.940008   -4878.6459 
45746000     24.88883   -5201.6588   -5153.6586   -5201.6588            0    2320.7445    19.863069    19.878102    20.676242    8163.8096    3191.8169    1447.9071    2322.5093   -112.80591   -105.91611   -213.87282    -4877.349 
45747000    24.981149   -5204.4335   -5156.2552   -5204.4335            0    2194.4363    19.819502    19.878396    20.701867    8156.1195    2585.3862    1912.7651    2085.1578   -133.83029    297.32459   -686.56663     -4895.23 
45748000    26.153994   -5203.0975   -5152.6573   -5203.0975            0    2016.2776    19.927574    19.883938     20.64983    8182.2608    1794.9036    1945.6592    2308.2699   -249.36875    438.51755    139.02407   -4912.0551 
45749000    23.821641   -5202.3463   -5156.4043   -5202.3463            0    2047.9879    19.889144     19.85947    20.686855    8171.0566    2121.2854    1695.7997    2326.8785    -32.98901     432.7282    56.832555   -4912.3528 
45750000    26.499954   -5202.3873   -5151.2799   -5202.3873            0    2346.7899    19.889272    19.870502    20.693276    8178.1857    2578.2989     2228.355    2233.7158   -333.35854   -361.61115    292.57088   -4871.3772 
Loop time of 397.682 on 64 procs for 250000 steps with 972 atoms

Performance: 108.629 ns/day, 0.221 hours/ns, 628.642 timesteps/s
191.3% CPU use with 32 MPI tasks x 2 OpenMP threads

MPI task timing breakdown:
Section |  min time  |  avg time  |  max time  |%varavg| %total
---------------------------------------------------------------
Pair    | 27.097     | 34.311     | 49.829     |  81.1 |  8.63
Bond    | 1.0203     | 1.2103     | 2.1904     |  19.3 |  0.30
Kspace  | 169.98     | 187.93     | 197.66     |  39.2 | 47.26
Neigh   | 0.094999   | 0.10221    | 0.1109     |   1.3 |  0.03
Comm    | 67.888     | 71.523     | 74.272     |  17.7 | 17.98
Output  | 0.71391    | 0.71423    | 0.71599    |   0.0 |  0.18
Modify  | 75.115     | 77.822     | 81.69      |  17.1 | 19.57
Other   |            | 24.07      |            |       |  6.05

Nlocal:        30.3750 ave          37 max          27 min
Histogram: 4 6 4 5 2 2 6 1 1 1
Nghost:        2676.88 ave        2712 max        2654 min
Histogram: 6 3 3 3 6 5 2 1 1 2
Neighs:        9637.81 ave       11905 max        7858 min
Histogram: 5 3 3 4 4 3 4 1 4 1

Total # of neighbors = 308410
Ave neighs/atom = 317.29424
Ave special neighs/atom = 2.0000000
Neighbor list builds = 250
Dangerous builds = 0

unfix		3
unfix		2
unfix		1

write_data	data.final.${pid}
write_data	data.final.1
System init for write_data ...
PPPM initialization ...
  extracting TIP4P info from pair style
  using 12-bit tables for long-range coulomb (../kspace.cpp:340)
  G vector (1/distance) = 0.37286895
  grid = 24 24 25
  stencil order = 5
  estimated absolute RMS force accuracy = 0.0033517749
  estimated relative force accuracy = 1.0093771e-05
  using double precision FFTW3
  3d grid and FFT values/proc = 3458 576
Last active /omp style is kspace_style pppm/tip4p/omp
WARNING: Not all mixed pair coeffs generated from mixing. Use write_data with 'pair ij' option to store all pair coeffs. (../write_data.cpp:312)

write_restart   restart.lmp.${pid}
write_restart   restart.lmp.1
System init for write_restart ...
PPPM initialization ...
  extracting TIP4P info from pair style
  using 12-bit tables for long-range coulomb (../kspace.cpp:340)
  G vector (1/distance) = 0.37286895
  grid = 24 24 25
  stencil order = 5
  estimated absolute RMS force accuracy = 0.0033517749
  estimated relative force accuracy = 1.0093771e-05
  using double precision FFTW3
  3d grid and FFT values/proc = 3458 576
Last active /omp style is kspace_style pppm/tip4p/omp
Total wall time: 0:06:37
