LAMMPS data file via write_data, version 30 Jul 2021, timestep = 31000000

864 atoms
2 atom types
576 bonds
1 bond types
288 angles
1 angle types

0.7289378810581297 17.47863451892203 xlo xhi
1.9501238090634594 21.679053990917847 ylo yhi
0.8893025122883937 21.323893287698745 zlo zhi

Masses

1 1.00794
2 15.9994

Pair Coeffs # lj/cut/tip4p/long/omp

1 0 0
2 0.21084 3.1668

Bond Coeffs # harmonic/omp

1 450 0.9572

Angle Coeffs # harmonic/omp

1 55 104.52

Atoms # full

581 1 1 0.5897 4.350894382128946 3.1816137749639846 1.3794377663056587 -3 1 4
302 1 1 0.5897 4.509463158174064 3.3082133209674316 5.6223546288692425 -5 8 4
352 1 2 -1.1794 1.9131945701330348 6.7625187197063745 4.662695468581187 7 3 -3
258 1 1 0.5897 1.635025731956952 2.3416674426321884 2.7168662427887633 -4 5 0
301 1 2 -1.1794 3.7972455997937673 3.9438117270610995 5.550362859718015 -5 8 4
304 1 2 -1.1794 2.224241824341633 4.388240739482603 3.1424342704343857 6 2 -5
305 1 1 0.5897 1.808971769905783 5.211273019138167 3.4004603546233425 6 2 -5
306 1 1 0.5897 2.7781733893579137 4.154980058388571 3.8875226037551225 6 2 -5
354 1 1 0.5897 2.8436719760629305 6.581660582197318 4.796544332575723 7 3 -3
572 1 1 0.5897 3.0165913178830794 4.993132929442824 1.0491082578243158 2 -2 0
506 1 1 0.5897 4.634903646030224 6.434737229501303 5.879304110397221 -4 4 -2
505 1 2 -1.1794 4.713366572887532 6.7715090524419494 4.98664232364894 -4 4 -2
303 1 1 0.5897 3.4959442252562716 4.069576997804073 6.450268770819454 -5 8 4
41 1 1 0.5897 4.533067868263776 3.6038022148832916 8.929881495848962 -5 1 6
690 1 1 0.5897 1.2804590221001737 5.222801978775941 10.967308295354623 7 -3 6
356 1 1 0.5897 3.961104731983979 4.76468525396556 10.732803453406815 -4 0 5
415 1 2 -1.1794 3.36183400260528 2.8343681373987106 8.09440945852613 -7 4 2
247 1 2 -1.1794 4.727024419878019 6.147823251600078 7.60367880250281 0 -2 2
737 1 1 0.5897 2.5487613889900094 5.715743305360881 7.161521405676218 5 -3 -2
417 1 1 0.5897 3.999716154604926 2.136137902297229 8.242814847219357 -7 4 2
736 1 2 -1.1794 1.716530455727057 5.422907733086628 7.533082567316777 5 -3 -2
61 1 2 -1.1794 1.4914689132732843 2.0487629445685216 9.926014358546032 -1 2 3
416 1 1 0.5897 2.6880013530971922 2.6890348858968305 8.758673117262546 -7 4 2
63 1 1 0.5897 1.3897093726557834 2.452775473670765 10.787894703094276 -1 2 3
738 1 1 0.5897 1.7778642533448608 5.643403480014772 8.46261419696701 5 -3 -2
248 1 1 0.5897 4.34448531579065 6.782784699885221 8.209405558763429 0 -2 2
355 1 2 -1.1794 3.120349793058227 4.494362090257107 11.102251985776757 -4 0 5
576 1 1 0.5897 2.655113467035112 5.368729589568881 14.349300749001262 -2 -1 2
575 1 1 0.5897 3.2405211024948657 3.9724091597320816 14.347454012157826 -2 -1 2
566 1 1 0.5897 1.8734612187149693 3.390824201470524 12.973953473171063 -3 1 -10
574 1 2 -1.1794 2.664629106915195 4.552493686342599 13.849188947083183 -2 -1 2
357 1 1 0.5897 3.2328547970048884 4.587504790744661 12.048349333101196 -4 0 5
320 1 1 0.5897 3.6214401817094752 2.699244180161869 11.242630184936553 4 -2 -4
739 1 2 -1.1794 2.674474993017487 6.281991168646858 15.933768153217242 -1 -1 7
297 1 1 0.5897 4.256331115279151 6.868767716927261 12.28563391197478 6 1 2
741 1 1 0.5897 3.5721026917866134 6.483419221277709 15.669002550886686 -1 -1 7
565 1 2 -1.1794 1.2649306304270893 2.798950565287492 12.531474820763446 -3 1 -10
321 1 1 0.5897 4.022589914316844 1.963085594528028 12.503387396817557 4 -2 -4
567 1 1 0.5897 0.9691963086385129 2.201318686486222 13.218342573624824 -3 1 -10
686 1 1 0.5897 1.9542332801647577 3.074316486515559 20.69136795352164 5 -8 -9
322 1 2 -1.1794 1.5828178583371564 3.9721052305021147 17.670777876838905 8 -5 -2
685 1 2 -1.1794 2.6393656571742663 2.598621306116539 21.16117573658567 5 -8 -9
272 1 1 0.5897 1.118606320196271 5.451678159358279 18.560454914415196 0 1 0
271 1 2 -1.1794 0.8716056951006359 6.208873934051406 19.091541679852234 0 1 0
27 1 1 0.5897 3.314467724792626 3.805672944634563 16.950794093326017 -2 10 6
26 1 1 0.5897 4.260958937874799 2.6553042183356492 17.22123559329087 -2 10 6
284 1 1 0.5897 4.00454057977378 4.890230404223525 19.520860359899686 6 -3 -7
25 1 2 -1.1794 4.2072652232090615 3.504237217044636 16.782102106039332 -2 10 6
323 1 1 0.5897 1.3326186273922027 3.098056977129546 17.970525327922417 8 -5 -2
285 1 1 0.5897 4.722124808384651 4.488935238639229 18.249480602366503 6 -3 -7
324 1 1 0.5897 1.0819764948552395 4.102139544080371 16.865378466865792 8 -5 -2
571 1 2 -1.1794 3.097615381550121 5.754323394774617 20.908857687766016 2 -2 -1
283 1 2 -1.1794 4.729532952358425 5.142536005144872 18.948894123777578 6 -3 -7
573 1 1 0.5897 3.962540833694931 6.113647638180137 21.10689331506024 2 -2 -1
14 1 1 0.5897 0.8944750196608273 11.574541757606172 3.9031595530404344 0 -7 -3
353 1 1 0.5897 1.74374033963776 7.54712624806136 5.184312630164491 7 3 -3
795 1 1 0.5897 3.724870764745145 10.455364003919518 3.7932275432483196 -2 3 6
653 1 1 0.5897 1.8951956676117774 9.709685570838024 5.274069440014119 -4 3 1
652 1 2 -1.1794 2.3258018117319184 9.157466964923675 5.926797399731265 -4 3 1
793 1 2 -1.1794 4.022131147489667 11.294793618487684 4.144560875756936 -2 3 6
260 1 1 0.5897 1.8254311494307833 10.552323710778559 2.2350934473994615 3 1 14
666 1 1 0.5897 3.5626101473187566 8.207743000683362 3.6251218278938753 -1 1 -2
665 1 1 0.5897 2.7364024086271623 8.348854157101947 2.3642287692995847 -1 1 -2
13 1 2 -1.1794 0.9126222770002956 10.618992771174256 3.958121519924123 0 -7 -3
664 1 2 -1.1794 3.489900029029516 8.722613420687502 2.8213528543947124 -1 1 -2
259 1 2 -1.1794 2.1597406303389732 10.945498653953804 1.428829839533721 3 1 14
608 1 1 0.5897 4.267793002767467 11.181782077915452 5.783505252477274 10 2 -2
853 1 2 -1.1794 1.250247249177439 7.757835660188579 1.6053075612218715 -4 -3 4
855 1 1 0.5897 1.699990453036335 7.137291914718384 1.0316563198374884 -4 -3 4
623 1 1 0.5897 4.695103529525272 7.737967359913779 1.7158475483647893 2 -1 -4
261 1 1 0.5897 1.4030685885275356 11.39074796144964 1.0472338532344665 3 1 14
609 1 1 0.5897 3.834994155980303 10.097285849421544 6.74737619819802 10 2 -2
21 1 1 0.5897 3.915120303475598 8.802164043194619 9.36630399085006 -3 -7 -2
19 1 2 -1.1794 3.4661886047838597 8.316051202345928 8.674518277939889 -3 -7 -2
773 1 1 0.5897 1.473330410854 11.028035255492881 9.798242084471486 6 -1 0
20 1 1 0.5897 2.7385816958452724 8.882218249166069 8.416723106124355 -3 -7 -3
607 1 2 -1.1794 4.328626722764021 10.916223062265784 6.701259763346513 10 2 -2
772 1 2 -1.1794 1.229054884607475 10.2787369546346 9.254837339196216 6 -1 0
654 1 1 0.5897 1.6094683768486155 8.814841823597241 6.461483487862661 -4 3 1
448 1 2 -1.1794 4.594420726793678 9.690978635064507 10.769223127291786 1 -1 -9
774 1 1 0.5897 0.8768200830286088 10.66761617667994 8.454140981920006 6 -1 0
568 1 2 -1.1794 2.440670296664357 10.213516691336727 12.515197803998412 3 -5 3
733 1 2 -1.1794 2.581278279678433 7.481932182398521 12.035679987551294 0 1 -8
734 1 1 0.5897 1.809686801288101 7.135097207939754 12.483743498362221 0 1 -8
570 1 1 0.5897 2.5382872047017897 9.354755385239901 12.103606254080656 3 -5 3
202 1 2 -1.1794 3.030831949516091 11.558143319069826 15.756898890249165 -5 2 -2
569 1 1 0.5897 1.5427683476668193 10.219936926114064 12.847070073300165 3 -5 3
204 1 1 0.5897 3.6390344579412592 10.827740804015136 15.871171763055203 -5 2 -2
585 1 1 0.5897 3.5322739491511626 11.367359030172913 12.996795023092112 -6 -11 3
451 1 2 -1.1794 1.4091774523896305 8.62591145821929 15.57875494830914 5 -3 0
450 1 1 0.5897 4.328744055630866 10.288937505059865 11.467994116553646 1 -1 -9
452 1 1 0.5897 1.2737057820727127 9.21589880866955 14.837152622070999 5 -3 0
740 1 1 0.5897 2.1794289544836696 7.074622327604456 15.726218493092851 -1 -1 7
203 1 1 0.5897 2.2208788738839287 11.263484139609307 16.17353160810623 -5 2 -2
735 1 1 0.5897 2.3202660415048237 7.537367488775543 11.116316636823106 0 1 -8
761 1 1 0.5897 1.0618144522681878 10.0645288208818 18.625441789447585 4 -4 3
760 1 2 -1.1794 1.417361257550401 10.510406740254801 17.856554655175017 4 -4 3
453 1 1 0.5897 1.2561807594944927 9.17134496567364 16.35044478802449 5 -3 0
180 1 1 0.5897 4.490456267055488 11.389013743223853 19.708472947440526 -10 -1 0
722 1 1 0.5897 3.1620900762268356 9.862269375988266 20.82294086024296 8 -6 -1
723 1 1 0.5897 3.079760714497059 9.277024059860814 19.429007044763793 8 -6 -1
403 1 2 -1.1794 3.1686701984983094 7.654092886361982 18.1645034448811 2 -6 -2
721 1 2 -1.1794 3.7056914953460414 9.5398554765435 20.10394378155312 8 -6 -1
404 1 1 0.5897 2.9199150852009548 7.283714377209224 19.011476981459673 2 -6 -2
215 1 1 0.5897 4.329618956959184 8.987542403876787 16.92896565730375 1 0 4
405 1 1 0.5897 2.821414646077393 7.036204369854002 17.521039037991507 2 -6 -2
762 1 1 0.5897 1.6877890990381883 11.369501352120496 18.18097814380691 4 -4 3
214 1 2 -1.1794 4.9153800818044795 9.397738043874991 16.292531014903503 1 0 4
234 1 1 0.5897 1.7137759541213298 16.259823460760956 4.121313847830189 -2 2 -1
232 1 2 -1.1794 2.65630934154122 16.149708973209314 4.247511545487418 -2 2 -1
286 1 2 -1.1794 2.142817129336089 13.18318167724038 3.828301141466623 6 4 -1
328 1 2 -1.1794 2.7929895163827823 13.794996047235367 1.270056500871069 4 2 3
288 1 1 0.5897 2.4793251952126676 13.38419623413223 2.954917018208826 6 4 -1
287 1 1 0.5897 2.182165686485433 14.016244125130871 4.298310727783042 6 4 -1
794 1 1 0.5897 3.260256203681902 11.869593003087981 4.0697873587345175 -2 3 6
330 1 1 0.5897 3.177090049470791 12.96915543297678 0.975301068745677 4 2 3
710 1 1 0.5897 4.880481299831635 12.040994823358172 2.854716054282856 -6 4 0
224 1 1 0.5897 4.8190280357262525 15.020105462047542 4.14704835180999 0 2 -6
329 1 1 0.5897 3.3965138002581052 14.467054264553749 0.9530282134403336 4 2 3
562 1 2 -1.1794 2.5203977471901857 12.692345539915642 7.646541326165485 0 -1 5
625 1 2 -1.1794 3.629041995950754 15.143616272906721 8.355915254178953 0 -2 2
564 1 1 0.5897 2.478447233983741 12.423366099172505 8.564312296289726 0 -1 5
627 1 1 0.5897 4.249778837819042 15.403196434631372 7.674927287067009 0 -2 2
459 1 1 0.5897 2.443473111808183 13.74739514578724 10.376896818447333 -1 -6 -4
563 1 1 0.5897 3.104495988901625 12.054625169876362 7.235990246859436 0 -1 5
805 1 2 -1.1794 4.1156527433055725 15.554207161583227 10.945900418183927 1 -1 -2
626 1 1 0.5897 3.237480174231105 14.33403430467765 8.027764359234453 0 -2 2
806 1 1 0.5897 3.878374016503238 15.43940358870439 10.025574658304064 1 -1 -2
458 1 1 0.5897 3.7106057407586905 12.919052165371422 10.40096612864906 -1 -6 -4
281 1 1 0.5897 1.436324779451053 13.743840946154759 6.731205335799169 0 -7 -4
282 1 1 0.5897 0.9907613465251326 15.186661369716372 6.6213153792464645 0 -7 -4
457 1 2 -1.1794 2.7692317129616977 12.867513762983073 10.56705494725747 -1 -6 -4
340 1 2 -1.1794 2.202393901629006 14.055140256488551 13.096474313090823 6 5 -1
807 1 1 0.5897 3.4667106512728862 16.170382282498387 11.285957389867958 1 -1 -2
342 1 1 0.5897 1.3017078279099792 14.309631278195234 12.895418876583571 6 5 -1
583 1 2 -1.1794 4.289261815374432 11.83439611677692 13.350747253824263 -6 -11 3
412 1 2 -1.1794 3.108934838523776 15.150309469111866 15.490337825152807 10 -2 6
837 1 1 0.5897 4.54376407913441 15.93037518851615 14.593024614854391 5 1 1
341 1 1 0.5897 2.4822119144843766 13.543040437493108 12.33757580078586 6 5 -1
414 1 1 0.5897 2.8832285865517893 14.479575456284604 14.845680819354174 10 -2 6
549 1 1 0.5897 2.415261077324022 16.093211796548395 12.805238431899818 4 2 4
413 1 1 0.5897 3.7156068218972345 14.713785719691273 16.088519227590954 10 -2 6
194 1 1 0.5897 0.7935640296406107 12.320462080821917 14.839867017752592 10 -4 -1
584 1 1 0.5897 4.11361232503828 11.899576235569432 14.289540407932563 -6 -11 3
347 1 1 0.5897 1.353299404299451 15.099846060377704 16.318072487141173 -2 6 -1
862 1 2 -1.1794 2.1433896545793094 13.203387943167714 18.432478988158174 0 -7 5
821 1 1 0.5897 4.547372953684267 16.07993863068247 19.776932741548443 5 7 10
863 1 1 0.5897 2.9760004015693 13.444092745785765 18.838996993674208 0 -7 5
348 1 1 0.5897 1.0122114790415742 14.286804061856653 17.54894686011506 -2 6 -1
174 1 1 0.5897 3.581453976706743 16.656631062247722 17.554918387707893 1 0 -4
159 1 1 0.5897 1.2687158012866728 14.987848636252595 21.205686611360044 -1 -1 -2
864 1 1 0.5897 1.5834084101667119 12.947722391820049 19.165602935590314 0 -7 5
820 1 2 -1.1794 4.6249536447631385 15.659756592501227 20.633579523604013 5 7 10
148 1 2 -1.1794 4.576171750504197 13.54908702602437 17.01211540864341 -3 -5 3
150 1 1 0.5897 3.887505279216769 12.971063860046263 16.68342496122874 -3 -5 3
172 1 2 -1.1794 4.268570349649714 16.57334616150586 18.21623690751411 1 0 -4
178 1 2 -1.1794 4.763516334865574 12.226672313382808 20.08289317058592 -10 -1 0
257 1 1 0.5897 1.6794923747043917 21.22193831848902 3.9699170061176585 -4 4 0
534 1 1 0.5897 1.0615847717481708 19.475564188988375 2.758013871150186 -1 -1 1
497 1 1 0.5897 3.2304989841557794 20.83045442916912 2.786945471475297 5 5 1
496 1 2 -1.1794 4.089424588753976 20.409420812929188 2.824340257371115 5 5 1
498 1 1 0.5897 3.940833124264677 19.52974837785676 2.4771654341076035 5 5 0
334 1 2 -1.1794 1.9576821174901327 21.166789372767298 5.601773775638701 8 -4 5
508 1 2 -1.1794 3.1036269402337324 18.348982278365312 5.5316664763353245 6 -4 3
617 1 1 0.5897 4.6409966910253875 20.67890736357901 4.524198030543884 -5 4 1
619 1 2 -1.1794 3.3504750622410144 17.38259652317781 1.9144721441003543 5 -3 3
533 1 1 0.5897 1.6609004322445622 18.23565532370989 2.128896732102997 -1 -1 1
256 1 2 -1.1794 1.4090411223180985 21.202759214010463 3.051822577753214 -4 4 0
510 1 1 0.5897 2.9498569008317905 19.273972526568098 5.338860629652005 6 -4 3
621 1 1 0.5897 3.2031575496862055 16.826130373541254 2.6793817470566257 5 -3 3
233 1 1 0.5897 2.9178211320680383 16.905119355539995 4.77419201029962 -2 2 -1
620 1 1 0.5897 3.8755418928225738 16.843329655338078 1.3229021238232161 5 -3 3
532 1 2 -1.1794 0.8740695335681934 18.555771456529207 2.570293932713703 -1 -1 1
335 1 1 0.5897 2.616030842549817 21.65067086367923 6.100617907435793 8 -4 5
129 1 1 0.5897 1.9045811023878405 16.87290595124549 7.658692277382122 3 -1 -7
776 1 1 0.5897 4.751943378821267 19.814369660360956 9.023373610665312 2 -1 1
509 1 1 0.5897 3.404939414368562 18.340067436974362 6.4402578411583065 6 -4 3
661 1 2 -1.1794 2.082215109476687 19.370175168813688 10.644094068329633 1 -7 1
127 1 2 -1.1794 1.0520212190955824 16.937000405971318 7.228057668850702 3 -1 -7
120 1 1 0.5897 2.858827464204577 18.70737924797423 9.146115965880687 3 0 -2
118 1 2 -1.1794 3.347777971506915 18.63867851038634 8.325979957636566 3 0 -2
119 1 1 0.5897 4.061964296684831 18.03222826161958 8.522431921659479 3 0 -2
663 1 1 0.5897 1.7064777301349077 20.154477200013524 10.243965718908123 1 -7 1
128 1 1 0.5897 1.1915234389182747 17.554876457683374 6.510296077361136 3 -1 -7
336 1 1 0.5897 1.3196572514706488 20.884344363726747 6.257186813809873 8 -4 5
227 1 1 0.5897 0.8220446129729133 17.191542841121098 10.844626260892772 4 0 2
634 1 2 -1.1794 4.030456094811244 18.414193461652083 13.653487859281423 -10 2 0
635 1 1 0.5897 4.561209396881631 17.626325181240567 13.771732651045426 -10 2 0
318 1 1 0.5897 1.496670118703646 20.12740914277946 15.388919527887902 -4 -2 0
675 1 1 0.5897 3.4999086852913033 21.059940093184043 14.80593997667552 -3 2 -3
548 1 1 0.5897 2.811212864534023 17.55042224532098 12.915244155377746 4 2 4
319 1 2 -1.1794 4.125115414098782 21.675066161083326 11.551748638173395 4 -3 -4
316 1 2 -1.1794 2.2932645476615567 19.96313627095552 15.893777609168454 -4 -2 0
636 1 1 0.5897 4.0304120869979005 18.834847994032206 14.51340880332917 -10 2 0
673 1 2 -1.1794 4.0258844771435145 21.62692350464433 14.241760289751069 -3 2 -3
674 1 1 0.5897 4.8996362281872505 21.610421001081892 14.632526722704243 -3 2 -3
662 1 1 0.5897 2.7810718371160266 19.700212120008477 11.208970224570749 1 -7 1
547 1 2 -1.1794 2.2706533753181266 16.949472581219744 12.402347253587191 4 2 4
75 1 1 0.5897 4.524228779750883 20.03937124055422 17.593199576336154 0 6 5
782 1 1 0.5897 1.4484791128406758 17.0209358654986 19.754268556795246 -6 -5 2
516 1 1 0.5897 1.7117690901735958 18.313753634546714 16.341001956787508 -3 -2 -3
317 1 1 0.5897 2.1172130161408536 20.348737275370564 16.752116851429257 -4 -2 -1
87 1 1 0.5897 2.2134591281537412 18.993247100739094 19.913480534935246 3 3 2
781 1 2 -1.1794 1.0901990409448759 17.835392758838132 19.401135541351522 -6 -5 2
515 1 1 0.5897 1.52728129634506 17.60751261360401 17.667483266889263 -3 -2 -3
74 1 1 0.5897 3.675956821909376 20.568724013116935 18.73012857500551 0 6 5
514 1 2 -1.1794 1.733852902947131 17.446913091202774 16.746627615898102 -3 -2 -3
86 1 1 0.5897 3.556935697502847 19.417364967745193 20.468050555164908 3 3 2
85 1 2 -1.1794 2.7854135732387 19.7544939987474 20.012522505816243 3 3 2
73 1 2 -1.1794 4.3120927664455015 20.84241118417142 18.06919064428819 0 6 5
687 1 1 0.5897 2.6257087168911655 21.449188455535296 20.780767233620296 5 -9 -9
107 1 1 0.5897 4.8578572814298795 17.846031476228845 17.20210056274214 8 1 2
861 1 1 0.5897 0.8325369184351565 20.814214987016957 18.986489130691908 -9 0 4
582 1 1 0.5897 5.482397485542553 4.060726322269544 1.8686480679851742 -3 1 4
423 1 1 0.5897 8.593238983739482 4.583649926869041 4.694665581947342 -9 3 7
580 1 2 -1.1794 5.282620583527919 3.3586407886623775 1.2492044630370354 -3 1 4
266 1 1 0.5897 6.926412133721762 4.743128817482422 2.943837571741007 -2 -1 3
400 1 2 -1.1794 8.763579104966805 4.941189234870851 2.410891354083059 -2 1 -2
421 1 2 -1.1794 8.335878597788179 4.080169601926028 5.467117700352365 -9 3 7
265 1 2 -1.1794 6.082606777717057 5.15405203143046 3.1324766615420474 -2 -1 3
267 1 1 0.5897 6.099877359544352 5.9747493627959996 2.639923557431609 -2 -1 3
461 1 1 0.5897 7.709833441040667 2.1368721913030475 5.459525384067756 10 4 -4
402 1 1 0.5897 8.652044614169402 5.790700604772327 2.8378758195225378 -2 1 -2
507 1 1 0.5897 5.161948148269665 6.0755647507700825 4.5061453475981725 -4 4 -2
842 1 1 0.5897 8.81276958731573 3.4287609847741765 8.996406044315055 3 7 3
843 1 1 0.5897 7.833142407324401 4.5825171629937484 8.95696666838024 3 7 3
168 1 1 0.5897 6.696559169688651 6.345601385419089 7.258124725288231 -4 -2 5
42 1 1 0.5897 5.854867949788337 3.435002124155833 9.648751663815679 -5 1 6
167 1 1 0.5897 8.124659537197381 6.799514674269499 7.041702071667362 -4 -2 5
40 1 2 -1.1794 5.257782514458018 4.101545697501676 9.308680044944456 -5 1 6
166 1 2 -1.1794 7.604461889484793 6.0533399369766565 7.340086322696834 -4 -2 5
841 1 2 -1.1794 8.062362973453592 3.800897457263432 9.459904235241641 3 7 3
132 1 1 0.5897 8.816148315530798 6.614593145275485 10.57842059324564 -5 4 1
249 1 1 0.5897 5.039498808459137 5.438395494152218 8.165366990823467 0 -2 2
840 1 1 0.5897 8.942454095745871 3.2487448907356873 11.09813418567745 -8 -5 -7
422 1 1 0.5897 8.266708267912854 4.731005752094246 6.1657201051702595 -9 3 7
83 1 1 0.5897 6.052804519603231 4.9904178860361865 12.620182768363449 -8 0 2
82 1 2 -1.1794 6.742961173418866 4.393002241721554 12.908611655423533 -8 0 2
361 1 2 -1.1794 8.77544679896816 6.398762664545709 12.524626795182172 4 -1 -5
379 1 2 -1.1794 6.485024414234293 4.484788422226362 15.560345976943124 10 2 0
380 1 1 0.5897 5.691080051401613 4.1909937121723875 16.007292614045724 10 2 0
434 1 1 0.5897 7.305019590102881 2.5157825971114907 11.788665054291734 -7 3 -7
295 1 2 -1.1794 5.075337633908881 6.374491098402055 12.249133350592263 6 1 2
84 1 1 0.5897 6.796540067414384 4.527183189837687 13.8549414277078 -8 0 2
296 1 1 0.5897 5.4995718386285315 6.672027839400452 11.44420530246488 6 1 2
362 1 1 0.5897 8.071674231502396 5.76264734034344 12.65302151052421 4 -1 -5
530 1 1 0.5897 6.057847301298966 6.537611900548264 15.343331085428808 -1 -1 -6
531 1 1 0.5897 5.352991672316513 6.828198262176971 14.03522614419436 -1 -1 -6
720 1 1 0.5897 8.732144453473008 6.599974395521015 15.935903207317397 3 4 -1
719 1 1 0.5897 9.06194292471973 6.766869864743503 14.467663425451024 3 4 -1
37 1 2 -1.1794 7.505889662866331 5.062753391347949 19.768745608746976 1 3 -4
732 1 1 0.5897 8.54293676304939 2.2040508796315312 20.975385686682593 3 -2 -3
39 1 1 0.5897 7.633365585085695 5.197392957046246 18.829577174710494 1 3 -4
429 1 1 0.5897 8.429487450487496 3.2572088871882636 17.712655924809454 -1 -3 -1
427 1 2 -1.1794 8.716068844027998 4.0795958826078405 17.315187327591957 -1 -3 -1
38 1 1 0.5897 6.568573437323447 4.891728592132977 19.861628709721714 1 3 -4
731 1 1 0.5897 8.446618138784288 3.4460404116976036 20.114820284293856 3 -2 -3
730 1 2 -1.1794 9.051628575027124 2.752373289096698 20.3778814410865 3 -2 -3
660 1 1 0.5897 6.020840482736728 2.5862538765163254 20.247414922686268 -1 0 0
381 1 1 0.5897 7.095667869341625 4.692678367742806 16.267673194983495 10 2 0
332 1 1 0.5897 8.326842392664089 6.65022680482034 20.65520690904657 1 3 3
80 1 1 0.5897 6.960114897400336 8.255226477836935 4.510588163269407 -5 5 -9
81 1 1 0.5897 5.543506826171372 8.623442533317979 4.897902574453518 -5 5 -9
262 1 2 -1.1794 7.049822408348141 9.76555021227865 1.6241568063510115 6 0 4
79 1 2 -1.1794 6.373850104373805 9.005073037401292 4.612740648386978 -5 5 -9
263 1 1 0.5897 7.479703054820245 8.931984797329402 1.816010169861758 6 0 4
264 1 1 0.5897 6.266907323560832 9.764217396821877 2.175036875503184 6 0 4
707 1 1 0.5897 6.9380073623259575 10.810064164441538 4.53438501195076 2 -5 -12
706 1 2 -1.1794 7.0833954076149075 11.754005580508974 4.5996068811413835 2 -5 -12
622 1 2 -1.1794 5.3860646651042545 7.150555795558234 1.4093051727700168 2 -1 -4
90 1 1 0.5897 8.825513092733795 7.602829375744515 2.2188974939883144 8 -1 3
717 1 1 0.5897 9.004892830600225 10.766564671141603 4.542884338026702 6 -10 -6
88 1 2 -1.1794 8.527076044343215 7.5246509225232865 3.125126688772622 8 -1 3
89 1 1 0.5897 8.752643558892062 8.364478914092603 3.5253969430177423 8 -1 3
728 1 1 0.5897 7.644046116686566 9.095999336810062 7.294733208987288 -3 2 2
490 1 2 -1.1794 6.425717131013515 10.058176491840127 8.13487617471122 3 7 5
491 1 1 0.5897 5.947736735847004 9.949993387717154 8.957220245855456 3 7 5
727 1 2 -1.1794 8.502552473103208 8.822582658783677 6.971256928905771 -3 2 2
338 1 1 0.5897 6.931990759837827 7.838590255667819 10.677042792279595 2 3 0
729 1 1 0.5897 9.082117215990761 8.906069508226555 7.72858248155236 -3 2 2
492 1 1 0.5897 5.7522871297759215 10.28708974176206 7.494165552167127 3 7 5
463 1 2 -1.1794 8.755830872074757 11.626372739813878 7.879716612893801 3 -1 -2
337 1 2 -1.1794 6.3639504103248195 7.437206737446686 10.019290852729744 2 3 0
465 1 1 0.5897 8.00675664292497 11.080712210472807 7.6397929663403925 3 -1 -2
339 1 1 0.5897 6.959000219947393 6.934485600692621 9.462871751538255 2 3 0
449 1 1 0.5897 5.384031952343567 9.265938549936187 11.104323853561494 1 -1 -9
642 1 1 0.5897 7.344635762797335 9.436358961669942 12.248243772270804 8 2 -6
779 1 1 0.5897 5.57765049633894 10.538793806173487 13.509183983031365 -4 3 -5
517 1 2 -1.1794 8.00630505446509 9.38439101977744 15.6360426883201 2 -2 -7
519 1 1 0.5897 8.256447108344942 10.191940139733058 16.085187019540797 2 -2 -7
518 1 1 0.5897 8.610061881492683 9.32471686648795 14.895538990943237 2 -2 -7
778 1 2 -1.1794 6.087055382130333 9.728291192120736 13.512330831868262 -4 3 -5
780 1 1 0.5897 6.395713695378806 9.642299361345843 14.41441128591667 -4 3 -5
640 1 2 -1.1794 7.751341188532699 9.360720852433117 11.384948903292265 8 2 -6
529 1 2 -1.1794 5.253785009114158 6.912483135964059 14.983634535047278 -1 -1 -6
216 1 1 0.5897 5.253338616444802 8.668474498946388 15.772538703625779 1 0 4
641 1 1 0.5897 7.924207569071581 10.264555532063143 11.121052294383023 8 2 -6
785 1 1 0.5897 8.5988606540316 8.961131045498458 19.21007345114991 0 11 5
545 1 1 0.5897 7.417327472134951 10.709794985663232 18.16913895543454 -2 5 4
546 1 1 0.5897 6.151960324733845 10.815762445340894 17.344485813510964 -2 5 4
544 1 2 -1.1794 6.933529361604272 11.30687032923742 17.598270223305036 -2 5 4
764 1 1 0.5897 5.18032604937034 7.263641372020467 18.882367173650835 -2 -2 -6
593 1 1 0.5897 7.476938315683315 7.961734350459678 16.6873742026292 1 -2 -5
763 1 2 -1.1794 5.751560925127456 7.956350123956229 19.214445291103885 -2 -2 -6
784 1 2 -1.1794 8.913776350416725 9.604218875537075 18.574707950538752 0 11 5
594 1 1 0.5897 6.582047225010754 7.451672794502249 17.797039948151294 1 -2 -5
624 1 1 0.5897 5.738653440123662 7.5807244805561815 21.064696721503644 2 -1 -5
592 1 2 -1.1794 7.24891669584559 7.168000659550282 17.17155654271466 1 -2 -5
765 1 1 0.5897 5.151172234049228 8.63281339150332 19.52804094238141 -2 -2 -6
331 1 2 -1.1794 8.83489765010094 7.447117428969294 20.807718654649115 1 3 3
28 1 2 -1.1794 8.651143093372575 11.776774187677043 21.26036286807473 -10 -4 -1
30 1 1 0.5897 7.9252175617078775 11.154436054754788 21.30673799790128 -10 -4 -1
294 1 1 0.5897 8.191012407273915 16.09151135272484 5.643924857228296 -4 -2 2
708 1 1 0.5897 6.6453165303018675 12.118055273044467 3.83021092311141 2 -5 -12
709 1 2 -1.1794 5.557598989457714 12.510348393609414 2.367172827187845 -6 4 0
225 1 1 0.5897 5.39946779474038 14.259406894480616 2.9736610517609052 0 2 -6
711 1 1 0.5897 5.389716314627462 12.290185294812126 1.4507934656219943 -6 4 0
292 1 2 -1.1794 8.428944720591064 15.412140190158674 5.012832115597331 -4 -2 2
45 1 1 0.5897 8.178602039315388 14.664578878750014 3.3720252287575696 6 12 0
293 1 1 0.5897 8.494683295184188 14.612224692373836 5.534638572566954 -4 -2 2
43 1 2 -1.1794 8.436959984588315 14.07042612892122 2.6672913597412395 6 12 0
360 1 1 0.5897 5.88139308851123 16.701244862138374 2.674688650402626 2 -2 -3
29 1 1 0.5897 8.45398785057176 12.426232708229133 1.500870986455907 -10 -4 0
223 1 2 -1.1794 5.338870935298272 15.136823666361064 3.3517181497477324 0 2 -6
240 1 1 0.5897 8.007599292112957 15.177226206818933 1.1792227535238637 -8 -8 2
678 1 1 0.5897 6.6980976062707915 13.058493853865812 5.780162699408258 -5 -3 -9
599 1 1 0.5897 5.564919540196423 16.24034016262275 5.583874147201456 0 -6 -5
185 1 1 0.5897 8.369391084144 14.756405506295438 8.277835287086058 -3 9 5
56 1 1 0.5897 5.755287413964918 13.499853184082209 8.992748528965963 -8 -2 5
197 1 1 0.5897 6.771347820516702 12.299346605991534 10.396172493166084 -4 -6 0
598 1 2 -1.1794 5.1632310462157704 15.57513119082494 6.142936095760627 0 -6 -5
182 1 1 0.5897 6.410837327152072 16.084086176083552 9.071779019684412 -11 5 -4
181 1 2 -1.1794 6.82191616314379 15.239569470893793 9.256756307540481 -12 5 -4
677 1 1 0.5897 7.713007656586741 13.324047713379576 6.871890221142711 -5 -3 -9
183 1 1 0.5897 7.190676076544535 15.339266215126225 10.13453214171292 -12 5 -4
196 1 2 -1.1794 7.6100122806206185 11.872391623787449 10.571591711602515 -4 -6 0
676 1 2 -1.1794 6.849135161629594 13.593473233927483 6.5595294283360985 -5 -3 -9
57 1 1 0.5897 5.4185593052047425 12.146568273532703 8.403169389990156 -8 -2 5
600 1 1 0.5897 5.840217661450307 14.905872390891286 6.243994416197727 0 -6 -5
198 1 1 0.5897 8.102132449911853 11.965740880803956 9.755801510655878 -4 -6 0
55 1 2 -1.1794 5.3646631356325125 12.654103060475181 9.213058730250573 -8 -2 5
819 1 1 0.5897 8.76429964026625 14.324558942676783 11.460258853224452 9 -3 3
817 1 2 -1.1794 8.113958820294787 14.986033094819005 11.696760600881426 9 -2 3
313 1 2 -1.1794 6.457763037274196 12.941466165910231 15.208176674781194 2 2 0
818 1 1 0.5897 7.376382852589722 14.484124610729136 12.043868448716152 9 -2 3
315 1 1 0.5897 7.0136751981478636 12.308979467534117 15.663523441453536 2 2 0
162 1 1 0.5897 8.705721267949677 12.154961023264123 14.934631415103876 -5 9 1
314 1 1 0.5897 6.983944687621251 13.740325118056212 15.17087610813736 2 2 0
137 1 1 0.5897 7.5122837055215195 12.960906303859725 13.347972362062857 11 -6 -3
836 1 1 0.5897 5.649456598717934 15.287055534852309 13.783053894468809 5 1 1
835 1 2 -1.1794 5.412345311639796 16.100662751396722 14.228323677415501 5 1 1
151 1 2 -1.1794 8.35247415121321 15.100199223517793 15.188587004308335 4 -3 0
205 1 2 -1.1794 5.70440925761141 13.94360092089037 12.362149129084914 -10 6 -3
136 1 2 -1.1794 8.369164807147671 12.630191965795758 13.078065676265046 11 -6 -3
207 1 1 0.5897 5.06607514707273 13.336911512811074 12.737483327413331 -10 6 -3
206 1 1 0.5897 5.194197615180852 14.488070569607322 11.762411374556216 -10 6 -3
153 1 1 0.5897 9.08648075068749 14.808048132185368 15.729224458611652 4 -3 0
152 1 1 0.5897 8.76193621165933 15.454399433652824 14.399098655509821 4 -3 -1
138 1 1 0.5897 8.200187788289867 12.167453909231156 12.25721798683082 11 -6 -3
816 1 1 0.5897 8.216241200092721 16.611806015154162 12.42144232564534 -7 6 -4
160 1 2 -1.1794 8.974427955244995 12.000525453832513 15.84036777405486 -5 9 1
524 1 1 0.5897 7.329302805500647 12.91230093843807 18.159852357420924 1 -3 -2
149 1 1 0.5897 5.315728670625882 13.400636775536594 16.422684904839542 -3 -5 3
523 1 2 -1.1794 7.348249298922541 13.671481349278421 18.742699085021307 1 -3 -2
577 1 2 -1.1794 6.593697633375051 15.815575923450956 17.256183230230405 5 2 -6
179 1 1 0.5897 5.496610644344361 12.50699887630936 19.53479313009079 -10 -1 0
525 1 1 0.5897 7.076117471686747 14.404710843352431 18.190678005385976 1 -3 -2
239 1 1 0.5897 7.658503181916377 14.693811256801144 20.222106447610862 -8 -8 1
238 1 2 -1.1794 7.655964263627766 15.475419100913397 20.77484695319648 -8 -8 1
822 1 1 0.5897 5.564663040448511 15.658832360534038 20.816228523017188 5 7 10
173 1 1 0.5897 4.95662083688336 16.0664202665682 17.784933642904825 1 0 -4
561 1 1 0.5897 9.071919226916847 15.933723840455684 19.506220545722094 7 1 2
579 1 1 0.5897 6.988603457059988 16.496396378194916 17.80110940876606 5 2 -6
578 1 1 0.5897 7.000764986642547 15.929456398122161 16.397265731293466 5 2 -6
246 1 1 0.5897 6.294972728252774 21.548580444717917 2.2273006374342508 -7 -2 -3
96 1 1 0.5897 6.249708702255079 17.941822258258057 4.397478877266966 0 4 2
358 1 2 -1.1794 6.434903525341324 17.470007095774143 2.53662334188843 2 -2 -3
244 1 2 -1.1794 7.107320680485593 21.09549564491043 2.453634511681549 -7 -2 -3