LAMMPS data file via write_data, version 30 Jul 2021, timestep = 39250000

1296 atoms
2 atom types
864 bonds
1 bond types
432 angles
1 angle types

-10.615730035228571 12.595730035228572 xlo xhi
-9.121638625365295 12.111636625365295 ylo yhi
0.10608349440475173 21.753915505594282 zlo zhi
-9.077510321622256 1.8655741054679347 2.750794932303813 xy xz yz

Masses

1 1.008
2 15.999

Pair Coeffs # lj/cut/tip4p/long/omp

1 0 0
2 0.21084 3.1668

Bond Coeffs # harmonic/omp

1 450 0.9572

Angle Coeffs # harmonic/omp

1 55 104.52

Atoms # full

280 94 2 -1.1794 -9.566349523195257 -4.609579313909336 1.6677077800805866 1 1 0
270 90 1 0.5897 -8.315672945460458 -7.355151003873429 2.1574375985280927 1 1 0
269 90 1 0.5897 -9.196531478035292 -6.158415501182271 2.4469434462966064 1 1 0
268 90 2 -1.1794 -9.039058429651606 -7.064413265566566 2.7127520855402905 1 1 0
314 105 1 0.5897 -8.816621578099799 -6.820698336870587 4.439354481339732 1 1 0
299 100 1 0.5897 -6.455640952382411 -8.003839158302744 4.0636897309427 1 1 0
163 55 2 -1.1794 -7.072997566492494 -7.828130179176632 0.907319447619446 1 1 0
164 55 1 0.5897 -6.2471303996785075 -8.199098507419745 1.2178293850566986 1 1 0
298 100 2 -1.1794 -5.8743715588007435 -7.243394367156622 4.0570991826250715 1 1 0
73 25 2 -1.1794 -8.299775345855242 -3.8645454810142796 4.715906288347997 1 0 0
324 108 1 0.5897 -6.968248393037518 -4.321329476982156 3.5901890224119275 1 1 0
317 106 1 0.5897 -1.2448398158682235 -3.655068451291312 1.4194539925038416 1 1 0
282 94 1 0.5897 -10.441653076683643 -4.223735867456511 1.6351736016665595 1 1 0
84 28 1 0.5897 -7.9800134354482655 -0.43070130733190837 4.1093012398516935 1 0 0
75 25 1 0.5897 -9.06030440313989 -3.4027796336596214 4.363079249817136 1 0 0
281 94 1 0.5897 -8.972366926357122 -3.8595549973832854 1.6388171691415274 1 1 0
301 101 2 -1.1794 -7.854037530313551 -2.374205613745806 1.6291026219404352 1 1 0
53 18 1 0.5897 -12.345989737641018 0.9431252365687026 2.2972821790568285 1 0 0
243 81 1 0.5897 -0.840822131629638 -5.459756477839292 5.333993127736298 0 1 0
27 9 1 0.5897 -3.83536524109864 1.5842015356371597 5.233835698138253 0 0 0
322 108 2 -1.1794 -6.32729780660929 -4.700844755968683 2.9890559358796827 1 1 0
300 100 1 0.5897 -4.992932142665753 -7.614956298773101 4.090154503046544 1 1 0
260 87 1 0.5897 -6.834316258531692 -6.1159249043272474 0.37292715081976413 1 1 0
256 86 2 -1.1794 -11.993899140048374 -3.2379353773178856 1.9983673102958917 1 1 0
258 86 1 0.5897 -12.383981567760534 -2.6242358395757375 1.3759271408972809 1 1 0
165 55 1 0.5897 -7.3432800769555495 -8.407285211349024 0.19472318732132632 1 1 0
90 30 1 0.5897 -3.6881467566207418 -0.2538218931837086 1.99962539880589 1 0 0
69 23 1 0.5897 -11.001935941158147 -2.6144342907255256 3.3614236189019624 1 0 0
272 91 1 0.5897 -9.343205768576775 -1.2524589127068113 1.1484331165446178 1 1 0
83 28 1 0.5897 -9.451687425898351 -0.7777830525306317 4.1810965737994925 1 0 0
82 28 2 -1.1794 -8.851865960209956 -0.035802937481962616 4.10451917341009 1 0 0
271 91 2 -1.1794 -10.167054473251932 -0.8806028935577164 0.8336543185955413 1 1 0
98 33 1 0.5897 -11.848252164611852 0.36582100305419374 4.5400692796453805 1 0 0
54 18 1 0.5897 -11.460755585835681 -0.26167050116279533 2.059127037354885 1 0 0
67 23 2 -1.1794 -10.565371296627529 -2.3466832731307976 4.1700867829191886 1 0 0
68 23 1 0.5897 -11.201509854779392 -2.5350139032106034 4.860057176255481 1 0 0
52 18 2 -1.1794 -12.14069117771088 0.07444721990799508 2.643007687821629 1 0 0
261 87 1 0.5897 -6.539334800762564 -4.831344719534002 1.1178258549293507 1 1 0
323 108 1 0.5897 -6.189653695560844 -5.590221283142757 3.315163626544584 1 1 0
310 104 2 -1.1794 -3.3800927802617444 -8.442584175922201 3.7865952589103364 1 1 0
3 1 1 0.5897 -1.4076408474767028 -3.4080885414838162 4.225825345129236 0 0 0
103 35 2 -1.1794 -2.889658599131299 -2.2713109451134654 3.995578715746041 1 0 0
89 30 1 0.5897 -4.476809865679385 1.003892262682161 2.2964253344270262 1 0 0
313 105 2 -1.1794 -8.757290548568538 -6.521049403640231 5.346537671856463 1 1 0
97 33 2 -1.1794 -11.76598827263832 0.7169659395811951 5.4267586424255745 1 0 0
88 30 2 -1.1794 -4.38848759228051 0.0868070019372631 2.5561175380578534 1 0 0
302 101 1 0.5897 -7.468437194120247 -2.0604554515548505 2.4470897889729817 1 1 0
107 36 1 0.5897 -9.192370635105323 1.4673110810671908 3.2694262540383825 1 0 0
306 102 1 0.5897 -0.6926407702395387 -7.303211873542207 2.037642634721947 1 1 0
304 102 2 -1.1794 -1.3728491814291441 -6.924347916796068 2.59440016135744 1 1 0
318 106 1 0.5897 -2.680174773107831 -4.116017310201573 1.5566414234851393 1 1 0
242 81 1 0.5897 -1.017811105333367 -6.676459102165266 4.45061071372518 0 1 0
305 102 1 0.5897 -1.4948219410067463 -6.037781304824367 2.254687391541484 1 1 0
316 106 2 -1.1794 -1.7907303199873628 -4.441330501413006 1.4182518776615591 1 1 0
311 104 1 0.5897 -2.7283920619554394 -7.92935019432921 3.309038925091746 1 1 0
293 98 1 0.5897 -5.027896331355998 -3.6799263237230795 2.202419227794199 1 1 0
303 101 1 0.5897 -7.170919172859005 -2.2358431073441967 0.9730582948474097 1 1 0
294 98 1 0.5897 -4.654023462875392 -2.784329240984812 1.0404743254771665 1 1 0
259 87 2 -1.1794 -6.622446787242879 -5.192642091710658 0.2353039592408036 1 1 0
96 32 1 0.5897 -6.057995782313479 -1.9105880023991464 4.481532782538273 1 0 0
95 32 1 0.5897 -5.742139808904287 -0.9482530764515094 3.3562993328191983 1 0 0
105 35 1 0.5897 -3.321025099765336 -2.524604056931966 3.1795012975055523 1 0 0
94 32 2 -1.1794 -6.472337454438447 -1.3713656774627605 3.807903160431035 1 0 0
104 35 1 0.5897 -3.5581441518732255 -2.3959197903425444 4.66921871056349 1 0 0
26 9 1 0.5897 -4.155335486981425 0.4056601855855053 4.339027395299365 0 0 0
292 98 2 -1.1794 -4.280837361333696 -3.243873296119146 1.7926556490235022 1 1 0
315 105 1 0.5897 -8.691942079747108 -5.56831421928362 5.280816601960891 1 1 0
59 20 1 0.5897 -13.526466983487843 -0.8602760420833526 3.2539653984002204 1 0 0
25 9 2 -1.1794 -4.062425568816348 0.6546274292703949 5.258627208759378 0 0 0
44 15 1 0.5897 -9.805635923319258 0.8390318369913938 0.27786086603831106 1 0 0
99 33 1 0.5897 -11.614063351372842 1.6536319439790503 5.300820519626288 1 0 0
241 81 2 -1.1794 -1.0236198757465242 -6.398798237653986 5.366669647178999 0 1 0
275 92 1 0.5897 -10.411217957539234 -7.958384759538625 3.325218919853156 1 1 0
273 91 1 0.5897 -10.446646105704755 -1.4731907354055904 0.1358486271915601 1 1 0
74 25 1 0.5897 -8.014724298901758 -3.327479592467933 5.455205339826462 1 0 0
633 211 1 0.5897 -5.853265065188953 -6.104174083189382 5.477374013554531 1 1 0
1177 393 2 -1.1794 -2.684363958760862 -8.79462880799698 0.12487013768292526 0 0 1
1226 409 1 0.5897 -9.581503684027261 -5.64454821541166 0.1391326408726707 0 0 1
420 140 1 0.5897 -9.073549264216553 -6.56484050873875 9.874403325860484 1 0 0
618 206 1 0.5897 -7.792759075998461 -7.451984029615371 6.620669810501724 1 1 0
413 138 1 0.5897 -7.733303870521 -3.7905353373197785 7.825903563384987 1 0 0
419 140 1 0.5897 -8.912129621639357 -5.569235848395413 8.745364638180071 1 0 0
418 140 2 -1.1794 -9.56727360367252 -6.0990736471696625 9.199500991949689 1 0 0
414 138 1 0.5897 -6.912546450709908 -4.9776794984849015 7.368785135201621 1 0 0
350 117 1 0.5897 -7.196515406186425 -4.330675724025195 9.945397990197717 0 0 0
412 138 2 -1.1794 -7.540373770132987 -4.703933455742605 8.037452934815398 1 0 0
429 143 1 0.5897 -6.302673553885695 -7.239272074910991 8.661514218112055 1 0 0
427 143 2 -1.1794 -5.859792228785617 -7.134886734882027 9.503635395293209 1 0 0
428 143 1 0.5897 -6.56184400328464 -7.186701846643569 10.152188792827317 1 0 0
544 182 2 -1.1794 0.39102182931313756 -7.8524483421790165 7.275280553087744 0 1 0
434 145 1 0.5897 -6.513494689892698 -0.6698233894720556 10.890734436072607 0 0 0
330 110 1 0.5897 -3.1771160418356583 -0.3888059441299472 6.473448015082453 0 0 0
435 145 1 0.5897 -7.487366537788384 -0.922866905641671 9.759698127777277 0 0 0
425 142 1 0.5897 -7.3366412666516805 -1.4135170896846594 6.921636002312231 1 0 0
400 134 2 -1.1794 -10.394254155924553 -0.8290657654974805 7.3072927733994275 1 0 0
536 179 1 0.5897 -9.57830018516141 -0.044126463036453956 10.107349113992903 1 0 0
402 134 1 0.5897 -10.833263589991624 -0.319217776404523 6.626456979317619 1 0 0
526 176 2 -1.1794 -12.590284537659883 1.0847529440512638 9.348434158353854 1 0 0
405 135 1 0.5897 -5.105103709072207 -2.597492666037277 6.6061766857816115 1 0 0
537 179 1 0.5897 -9.414257978134813 -0.020779964786870053 8.602495192126273 1 0 0
426 142 1 0.5897 -8.829244146750904 -1.6616834182582316 6.966171011306666 1 0 0
401 134 1 0.5897 -11.102446506377873 -1.2921495633398976 7.754708378627494 1 0 0
527 176 1 0.5897 -11.934961326666068 1.5960415521913855 8.873761652797436 1 0 0
535 179 2 -1.1794 -8.94912404386948 0.16724284122057753 9.417665672948191 1 0 0
424 142 2 -1.1794 -7.987296717975798 -2.1154769981032757 6.930042517783022 1 0 0
528 176 1 0.5897 -12.082925498421526 0.5592533359761838 9.967007277832105 1 0 0
626 209 1 0.5897 -10.557879628424358 -6.6886586050489605 7.817094745152134 1 1 0
337 113 2 -1.1794 -6.293875692092498 0.21859423086544183 6.9084364808140215 0 0 0
465 155 1 0.5897 -1.763814656861605 -0.06640468821621859 8.476754304665791 0 0 0
631 211 2 -1.1794 -5.608786589506433 -5.505178940839944 6.1828584159704105 1 1 0
415 139 2 -1.1794 -8.555093808775423 1.5828579562778433 6.3663870396091005 1 0 0
329 110 1 0.5897 -3.4391973035315377 -1.3485597725927443 7.6145846432307644 0 0 0
454 152 2 -1.1794 -4.882759932385014 1.0780138018167573 9.165557734475687 0 0 0
335 112 1 0.5897 -4.8653335287290576 -5.547643657069575 9.51099918351675 0 0 0
433 145 2 -1.1794 -6.728148199527656 -1.3006482142137008 10.203520455066837 0 0 0
464 155 1 0.5897 -1.9394461836395571 -0.052306809030806534 9.980415713083145 0 0 0
522 174 1 0.5897 -9.957096524501628 2.195691309794901 7.519528116188458 1 0 0
555 185 1 0.5897 -2.6673894033587002 -6.746081932180967 6.2360419117087424 0 1 0
416 139 1 0.5897 -7.712516262300074 1.227252021019412 6.648684421862163 1 0 0
347 116 1 0.5897 -1.1444884517165512 -5.461927677840208 8.663708790132162 0 0 0
348 116 1 0.5897 -1.426493007886199 -6.49543947437527 9.733442617687924 0 0 0
336 112 1 0.5897 -3.408789631479645 -5.136113930432844 9.486965886473934 0 0 0
359 120 1 0.5897 -4.5837813323357 -3.1384437809211656 8.7740580326513 0 0 0
346 116 2 -1.1794 -1.859377727380851 -5.935215733949208 9.089260264107168 0 0 0
632 211 1 0.5897 -4.805965460950945 -5.878138484569082 6.546828350750344 1 1 0
546 182 1 0.5897 -0.03808329278091094 -7.401471993383108 6.548162259186329 0 1 0
553 185 2 -1.1794 -3.316029093116274 -6.890427752096532 6.9249791744765155 0 1 0
554 185 1 0.5897 -2.8547868203044926 -6.680082034499943 7.73689889876482 0 1 0
334 112 2 -1.1794 -4.295716667658105 -4.778569547761977 9.527078024575728 0 0 0
442 148 2 -1.1794 -7.278378625460304 2.409048524154416 9.541688790440963 0 0 0
338 113 1 0.5897 -5.877388947879138 0.42717498027658074 7.744649757833719 0 0 0
627 209 1 0.5897 -10.291686961899083 -6.955426838163595 6.3507989796338356 1 1 0
456 152 1 0.5897 -4.399498935473899 0.53723847324936 9.790233706739807 0 0 0
360 120 1 0.5897 -5.476394505623112 -1.9235272441630116 8.912244860980582 0 0 0
328 110 2 -1.1794 -2.731325368720012 -0.9239740230164823 7.130012185994627 0 0 0
339 113 1 0.5897 -5.601561581910307 0.3395314126878919 6.258620632664544 0 0 0
455 152 1 0.5897 -4.213520818853457 1.6230454065749313 8.751750878594283 0 0 0
411 137 1 0.5897 -13.27476274879077 0.33149009790895256 6.518209455673826 1 0 0
444 148 1 0.5897 -6.428622288407621 1.972762681528586 9.481061328217658 0 0 0
358 120 2 -1.1794 -4.820483546994923 -2.319566998699398 8.338535635994981 0 0 0
443 148 1 0.5897 -7.917358852721357 1.6987407948375939 9.483892061983207 0 0 0
356 119 1 0.5897 1.1445527146627956 -6.984950151027992 10.095668888757192 0 0 0
616 206 2 -1.1794 -7.296518573718237 -7.987537872113696 7.239642324562194 1 1 0
404 135 1 0.5897 -5.216690746987493 -3.7957056239067404 5.687539056380027 1 0 0
403 135 2 -1.1794 -5.110989191124579 -2.8443494907493525 5.681343404655483 1 0 0
351 117 1 0.5897 -6.939194316242512 -3.1543075116450687 10.86299554430581 0 0 0
349 117 2 -1.1794 -7.156802437274212 -4.0864434179974305 10.870094078617308 0 0 0
669 223 1 0.5897 -4.100591546543148 -3.7096742467686443 10.918657189121042 0 0 0
417 139 1 0.5897 -8.80703098793408 1.0391326166572146 5.6199559310693035 1 0 0
652 218 2 -1.1794 -5.686345647439404 -5.596089344962465 12.70630795391008 0 0 0
780 260 1 0.5897 -7.604392600862033 -3.8934152031246354 15.204674197980188 0 0 0
779 260 1 0.5897 -7.319240003688009 -2.8802781801900528 14.116444462378453 0 0 0
778 260 2 -1.1794 -8.034911820821247 -3.2741378465106363 14.615294379538875 0 0 0
768 256 1 0.5897 -9.6340283613407 -2.5473321907465962 14.867330414198767 0 0 0
654 218 1 0.5897 -6.174703723060277 -5.069398954863915 12.073612728565495 0 0 0
653 218 1 0.5897 -6.360402451261104 -6.051395013232378 13.210803232083004 0 0 0
662 221 1 0.5897 -8.932283675631645 -4.1654372393743575 13.311110296350677 0 0 0
661 221 2 -1.1794 -9.341043731069941 -4.523459126285618 12.523100066013459 0 0 0
663 221 1 0.5897 -8.700067919898677 -4.369603196726011 11.829069457738346 0 0 0
684 228 1 0.5897 -8.366023465466483 -6.474515395341317 14.427192290885323 0 0 0
682 228 2 -1.1794 -7.709595721205735 -6.9269019979329425 13.897418291264215 0 0 0
797 266 1 0.5897 -1.6281546640438282 1.1172793103904635 13.077132853415545 0 0 0
836 279 1 0.5897 -11.29604899776241 -1.359184544116391 11.100686211791299 1 0 0
729 243 1 0.5897 -7.967013052435917 -7.151134900190662 12.088626907821457 1 0 0
771 257 1 0.5897 -11.731442628076255 2.7121604111414666 11.63370628940099 0 0 0
766 256 2 -1.1794 -10.492852476483996 -2.143487192090028 14.991590939983638 0 0 0
806 269 1 0.5897 -4.164835468841517 2.7337389673325614 13.154084856238622 0 0 0
835 279 2 -1.1794 -11.090890825291362 -0.42421006045589493 11.096742018904934 1 0 0
790 264 2 -1.1794 -10.963704781396872 0.24739219870797768 13.779487709217102 0 0 0
762 254 1 0.5897 -9.177965103186517 2.223525307063433 12.097296887903926 0 0 0
761 254 1 0.5897 -9.468406127718398 1.2582527908340282 13.22684889907873 0 0 0
924 308 1 0.5897 -2.79663409557814 3.123549488802933 15.256814090640463 0 0 0
792 264 1 0.5897 -11.648474172175515 0.6149688987248556 14.338221633845833 0 0 0
727 243 2 -1.1794 -8.03996764643167 -7.42668023802317 11.174821045619431 1 0 0
760 254 2 -1.1794 -8.757759857007454 1.7497384220637642 12.815048086318953 0 0 0
837 279 1 0.5897 -11.093365180455455 -0.17405275090617067 12.020705290343308 1 0 0
791 264 1 0.5897 -10.80049708632807 -0.6236193186251207 14.141398902617302 0 0 0
769 257 2 -1.1794 -12.39679701054173 2.573228334782934 12.307647617963099 0 0 0
788 263 1 0.5897 -5.026815830107602 -4.5372650915052235 15.520136318487527 0 0 0
689 230 1 0.5897 1.3053369760283822 -5.908155373467283 13.077459891947576 0 0 0
896 299 1 0.5897 -7.959009142514496 2.4105832297251943 15.588711369841779 0 0 0
758 253 1 0.5897 -9.470283551666459 -5.25479312963457 16.27668487428855 0 0 0
767 256 1 0.5897 -11.100105908170221 -2.8816962157329034 15.041350086240444 0 0 0
763 255 2 -1.1794 -3.3764927999093333 -0.45403935953159547 11.015094021555736 0 0 0
897 299 1 0.5897 -7.68544697977647 2.3884798952097466 14.099848895467003 0 0 0
678 226 1 0.5897 -4.094455733006756 -6.242667549311373 12.247463861471307 0 0 0
802 268 2 -1.1794 -2.6029196128004912 -2.17798931274376 15.019994509941947 0 0 0
816 272 1 0.5897 0.3069595849921445 -3.872400550863267 15.204717037271985 0 0 0
888 296 1 0.5897 -10.488209817785945 3.0999558975955157 15.33230679650884 0 0 0
667 223 2 -1.1794 -3.9381848705198035 -3.088317554567123 11.62846338786368 0 0 0
789 263 1 0.5897 -4.7091559801399665 -4.7638262072248105 14.057327910432573 0 0 0
676 226 2 -1.1794 -3.215710773748074 -6.621982114101273 12.243709211652435 0 0 0
814 272 2 -1.1794 -0.12532658418142795 -3.284038028942369 14.58570556778681 0 0 0
785 262 1 0.5897 -5.695272564601112 1.1019681685812746 12.36002306975776 0 0 0
657 219 1 0.5897 -0.3840753014520679 -7.051704483109596 11.938327196423275 0 0 0
803 268 1 0.5897 -3.222343609855254 -2.9075636081720653 15.034632985743778 0 0 0
795 265 1 0.5897 -2.8530698134180588 -5.477407948937974 15.21224470843616 0 0 0
720 240 1 0.5897 -0.7274700745039695 -6.420346671615123 14.325013587039594 0 0 0
804 268 1 0.5897 -1.7466275061761127 -2.5924374315191105 14.914615066474022 0 0 0
698 233 1 0.5897 -1.100148292685347 -4.071706427201344 13.211023656409665 0 0 0
699 233 1 0.5897 -0.8804696165237615 -4.238016912083854 11.722355935812452 0 0 0
697 233 2 -1.1794 -1.5628011015724432 -4.25521144099572 12.393415188649474 0 0 0
718 240 2 -1.1794 -0.0877842618450444 -6.849433772524769 13.756773721266343 0 0 0
677 226 1 0.5897 -2.628522424341396 -5.867355374850025 12.287758364597714 0 0 0
668 223 1 0.5897 -3.096585536620097 -3.358271419125609 11.995769284794585 0 0 0
793 265 2 -1.1794 -2.1142451589720324 -5.967573654555197 15.572799997294652 0 0 0
773 258 1 0.5897 -5.94807863136169 -1.1567081101155727 13.127857667543791 0 0 0
774 258 1 0.5897 -5.230481337433424 -2.4696091714030137 12.89696927987917 0 0 0
818 273 1 0.5897 -5.521497479142475 -1.8523753137692136 15.292627731857147 0 0 0
787 263 2 -1.1794 -4.328516888248462 -4.43826003548353 14.8730184924516 0 0 0
901 301 2 -1.1794 -4.941147614580517 1.1441248372059363 15.494086415209646 0 0 0
772 258 2 -1.1794 -5.825525512659039 -2.028638959692511 13.503354001615078 0 0 0
827 276 1 0.5897 -2.847056648020077 -0.6310790154802106 14.160192738630425 0 0 0
765 255 1 0.5897 -3.201257527831787 -0.13325982471543796 11.89977792376511 0 0 0
784 262 2 -1.1794 -6.347759124560003 0.4017619258659284 12.371780252681926 0 0 0
828 276 1 0.5897 -3.6250002869100886 0.6653062927316533 14.23837948706923 0 0 0
826 276 2 -1.1794 -3.006442912699031 0.1857817425753172 13.687319969329184 0 0 0
740 247 1 0.5897 -10.722565163033753 -3.4468607672492375 11.983118613223034 1 0 0
895 299 2 -1.1794 -7.26049228654193 2.531388856578829 14.945547783983853 0 0 0
903 301 1 0.5897 -5.754536770044709 1.4704535530620397 15.10938678803011 0 0 0
786 262 1 0.5897 -7.180766464431769 0.8524489400457487 12.509994467021194 0 0 0
805 269 2 -1.1794 -4.618816850620236 2.596469780525842 12.322661513935582 0 0 0
807 269 1 0.5897 -3.9513975017478913 2.756290245237569 11.655426276550125 0 0 0
770 257 1 0.5897 -11.944892088760872 2.7534854205087758 13.13196369468786 0 0 0
902 301 1 0.5897 -4.7599379647525994 1.74453701151519 16.217240440140408 0 0 0
655 219 2 -1.1794 -0.45226939181028136 -7.355199080791051 11.03304809379222 0 0 0
819 273 1 0.5897 -5.226280082395432 -0.619919250882182 16.120836626707373 0 0 0
817 273 2 -1.1794 -5.387474041074251 -1.5606054572119286 16.194396933608658 0 0 0
764 255 1 0.5897 -3.627770423350074 -1.3695894174868464 11.137169732238371 0 0 0
757 253 2 -1.1794 -9.654786977342487 -5.902273805488898 15.596235212886278 0 0 0
739 247 2 -1.1794 -11.548828710545024 -3.0657810553929057 11.686204915226766 1 0 0
794 265 1 0.5897 -1.7731747651768064 -5.408464560204684 16.270881891197753 0 0 0
866 289 1 0.5897 -12.660602401707973 1.7184194178760208 16.30899326054338 0 0 0
1150 384 2 -1.1794 -6.182227646007959 -4.404782083115101 19.15694054406289 0 0 0
1152 384 1 0.5897 -6.782597462698544 -4.037031804882213 19.80543537554189 0 0 0
1227 409 1 0.5897 -8.79939485921384 -3.080797056486362 20.746410017772703 0 0 0
1109 370 1 0.5897 -8.785873492757702 -3.3455351445170276 17.68476929139036 0 0 0
1089 363 1 0.5897 -6.518114265341948 -4.493693820557825 17.292819801784297 0 0 0
1151 384 1 0.5897 -6.089216802986294 -5.323340734082161 19.40969807939357 0 0 0
1108 370 2 -1.1794 -9.399804388635875 -4.079847262323453 17.692269670292333 0 0 0
1225 409 2 -1.1794 -7.970385302970124 -3.4499472499908252 21.050642868741214 0 0 0
1087 363 2 -1.1794 -6.608139479848912 -4.853805156835934 16.410490989978058 0 0 0
1262 421 1 0.5897 -0.09102069546660907 -2.8256132065063726 21.650224910483843 0 0 0
1047 349 1 0.5897 -4.217079780465778 4.005091422631134 20.668369921553413 0 -1 0
1143 381 1 0.5897 -8.20863671705354 -5.154315175130481 21.65856783547933 0 0 0
1130 377 1 0.5897 -7.219543716953508 -1.7319031326206744 18.600048636390902 0 0 0
1248 416 1 0.5897 -5.781207233450565 -1.5785469496064577 20.50786472800604 0 0 0
1253 418 1 0.5897 -4.045258870195174 3.6407564602089195 17.66408972412139 0 0 0
1129 377 2 -1.1794 -7.656468192862416 -1.9327826009955098 17.772429748092364 0 0 0
1287 429 1 0.5897 -3.6734964264710106 1.8622953420644652 21.505589877774078 0 0 0
1131 377 1 0.5897 -7.002972217275511 -1.7347321085683909 17.10167213688962 0 0 0
1294 432 2 -1.1794 -1.418212601920862 2.7526007032561015 19.264922737797676 0 0 0
1246 416 2 -1.1794 -6.2391746852826255 -1.0375754503405634 19.86457441583123 0 0 0
1124 375 1 0.5897 1.093569423143391 -5.8901676137620536 16.629116097922214 0 0 0
309 103 1 0.5897 -0.7932473480998325 1.3281376787115864 21.732990861195987 1 1 -1
1110 370 1 0.5897 -10.255413741215577 -3.67568822786017 17.83613995317163 0 0 0
1121 374 1 0.5897 -4.743471737309308 -3.4296815722787084 18.62479105370918 0 0 0
1219 407 2 -1.1794 -10.374764146369612 -2.1234713964028282 20.446799313736165 0 0 0
1099 367 2 -1.1794 -10.017021765809439 -0.50552538627662 17.17195131982912 0 0 0
1236 412 1 0.5897 -7.865705608929678 -0.27889806225098646 20.40251967917589 0 0 0
1009 337 2 -1.1794 -11.057918942361438 3.6520886540785398 21.004570097917046 0 -1 0
1100 367 1 0.5897 -9.185821890585135 -0.8942464153608949 17.44414756657939 0 0 0
1234 412 2 -1.1794 -8.708374062810618 0.17319104501890337 20.442986635067193 0 0 0
1259 420 1 0.5897 -9.046333424035137 1.7138500929835239 19.555308146459687 0 0 0
1258 420 2 -1.1794 -9.14924169684844 2.595251311082043 19.196385966263442 0 0 0
1260 420 1 0.5897 -9.852883685690891 2.985000674052925 19.71520555967033 0 0 0
1216 406 2 -1.1794 -12.37573193839247 2.7706519553483933 17.75489259375363 0 0 0
1197 399 1 0.5897 -9.445621758820367 2.393042579185197 17.44165396178068 0 0 0
1206 402 1 0.5897 -11.220338420558582 0.012780866654244605 18.46319129718144 0 0 0
1235 412 1 0.5897 -9.356194811075875 -0.530211122608474 20.484515844299665 0 0 0
1196 399 1 0.5897 -9.690991024907508 1.1444145273652016 16.62142968030267 0 0 0
1096 366 2 -1.1794 -8.932769032848597 -6.539008163758904 19.00987359426263 0 0 0
1204 402 2 -1.1794 -11.869368123512245 0.4306022666863445 19.02922972926732 0 0 0
1231 411 2 -1.1794 -1.7822167789505432 2.1506374960511945 16.60692779317918 0 0 0
1285 429 2 -1.1794 -3.833728408332658 0.9198292280619622 21.55426758739098 0 0 0
1187 396 1 0.5897 1.7597048757777873 -5.138913991591102 19.38029976531911 0 0 0
1046 349 1 0.5897 -3.1637011680141978 4.1723679297556515 21.742644982625905 0 -1 0
1045 349 2 -1.1794 -3.41566473266942 3.6093099541184746 21.010696089756607 0 -1 0
1142 381 1 0.5897 -8.503062774555222 -6.381533701892229 20.822336575337815 0 0 0
1165 389 2 -1.1794 0.026554255253630643 -1.9330649672327027 17.76669143978208 0 0 0
1205 402 1 0.5897 -12.050460964762342 1.2705615169020081 18.607391034348367 0 0 0
1250 417 1 0.5897 -11.577063484844269 0.7528340624049896 20.77887217795074 0 0 0
1252 418 2 -1.1794 -4.645292624499269 2.896484639348893 17.61713889469749 0 0 0
1240 414 2 -1.1794 -4.242473617392875 0.4853797061839433 18.859944252996215 0 0 0
1232 411 1 0.5897 -1.8284492287186165 1.201403989049453 16.721433296465953 0 0 0
1295 432 1 0.5897 -1.314373289930911 1.8536251921520783 19.576925358713964 0 0 0
1247 416 1 0.5897 -5.542460131972355 -0.5670811316232669 19.4069801974356 0 0 0
1125 375 1 0.5897 1.2219612207394643 -4.55035170325773 17.32227801166617 0 0 0
1145 382 1 0.5897 -1.0022070355592714 -3.4787443105946068 17.703083000523947 0 0 0
1122 374 1 0.5897 -4.505157006728426 -2.4963184808572043 17.456866197586372 0 0 0
1242 414 1 0.5897 -3.539708326566025 0.14731325052588318 18.3049393673819 0 0 0
1270 424 2 -1.1794 -1.0316110219731396 0.23661565987294786 20.313457906023757 0 0 0
1271 424 1 0.5897 -1.6246378978077374 -0.5140307305723191 20.281210218987738 0 0 0
1144 382 2 -1.1794 -1.5736094421343836 -4.245385552642608 17.658855258555867 0 0 0
1263 421 1 0.5897 -1.2000352928030313 -3.1430907191272333 20.66996052738311 0 0 0
1133 378 1 0.5897 -1.094309054360929 -5.6689945125812855 18.67561228544006 0 0 0
1188 396 1 0.5897 0.9202369875523413 -3.9083911193452447 19.650516024517138 0 0 0
1257 419 1 0.5897 -3.068260785218029 -2.318795313694287 19.41518489527165 0 0 0
1255 419 2 -1.1794 -2.597499342376155 -2.0517251782505603 20.20465503593833 0 0 0
1261 421 2 -1.1794 -0.35594160363601013 -3.4635677448632975 20.987579550234287 0 0 0
1256 419 1 0.5897 -3.247872004182425 -2.1129088677156975 20.904279602678464 0 0 0
1120 374 2 -1.1794 -4.04627095245406 -3.0389985830643678 18.09805896158261 0 0 0
1146 382 1 0.5897 -2.458414448648993 -3.8902327097691245 17.74299130708937 0 0 0
1141 381 2 -1.1794 -8.435110195906669 -6.081702711647399 21.728853193226477 0 0 0
1249 417 2 -1.1794 -11.479185848249326 1.059353127008741 21.6803999556671 0 0 0
1296 432 1 0.5897 -2.074916815790866 3.134411413288939 19.847310541775123 0 0 0
1254 418 1 0.5897 -5.514701734100383 3.282185268376937 17.72422020698994 0 0 0
1135 379 2 -1.1794 -2.3182100504069094 -0.5247231693770296 17.186234605014306 0 0 0
1286 429 1 0.5897 -3.8761321302414355 0.6361074502645874 20.64103401956804 0 0 0
1136 379 1 0.5897 -1.4854995241976034 -0.928282851380283 17.430823488691516 0 0 0
1195 399 2 -1.1794 -9.473364710447896 2.073002688234995 16.539933840344403 0 0 0
1241 414 1 0.5897 -4.479243710090259 1.323769926414096 18.463320610223192 0 0 0
1233 411 1 0.5897 -1.8101887481745056 2.5014177894245453 17.49713491429805 0 0 0
1272 424 1 0.5897 -0.15703581272517653 -0.14533611800516333 20.24047908594097 0 0 0
1218 406 1 0.5897 -13.215858333785896 3.223136351521884 17.82943056864469 0 0 0
1123 375 2 -1.1794 1.268495150440037 -4.964301347196992 16.46043029885383 0 0 0
1097 366 1 0.5897 -9.080961364956615 -5.640709165455618 18.71427444918018 0 0 0
1179 393 1 0.5897 -0.6887910486174835 -5.110003411566656 21.607329437275766 0 0 0
1101 367 1 0.5897 -10.312045608915497 -1.0544240796906497 16.445362164453798 0 0 0
1088 363 1 0.5897 -6.779614354266167 -5.785475580636073 16.547862415885106 0 0 0
1229 410 1 0.5897 -7.753977049923892 3.5555783621771955 18.541242866615036 0 0 0
1217 406 1 0.5897 -11.727350515787661 3.473649615696269 17.715331979813975 0 0 0
1251 417 1 0.5897 -11.314830319632895 1.9987581626719102 21.59798755998588 0 0 0
1132 378 2 -1.1794 -1.0236978474945815 -6.565647249498112 19.003200972805452 0 0 0
1221 407 1 0.5897 -10.748226240111524 -2.166276285026729 19.5665050083117 0 0 0
1178 393 1 0.5897 -0.8617096093487504 -6.438155654760603 20.90151746784447 0 0 0
1010 337 1 0.5897 -10.772598355784858 4.237219396525104 21.70633707433511 0 -1 0
201 67 1 0.5897 2.193001751182196 -5.7310970673938275 21.744823377851915 1 1 -1
1137 379 1 0.5897 -2.656883662154012 -1.080133929933556 16.484046133168853 0 0 0
40 14 2 -1.1794 -15.064755781081999 3.871766280005284 1.8666103039358277 1 0 0
177 59 1 0.5897 -13.951889446551323 4.556377781188008 3.207747047445035 1 0 0
56 19 1 0.5897 -12.304636990976359 5.948224266014456 1.2307926499641089 1 0 0
66 22 1 0.5897 -13.45903687403829 2.96108931915931 1.6132772135028133 1 0 0
65 22 1 0.5897 -11.985782950494206 3.306263568065022 1.570577115687055 1 0 0
64 22 2 -1.1794 -12.59138885735111 2.5663103437925177 1.527049199376501 1 0 0
191 64 1 0.5897 -12.501203325286841 6.271500352656929 4.0470454443427535 1 0 0
183 61 1 0.5897 -12.103228481228204 3.68922920497854 4.412649551028915 1 0 0
175 59 2 -1.1794 -13.566812317514922 4.78211406609028 4.054492034034444 1 0 0
176 59 1 0.5897 -14.280217200460987 4.664480557540326 4.681705710122909 1 0 0
181 61 2 -1.1794 -11.270791153678129 3.318502100336895 4.705394000217441 1 0 0
55 19 2 -1.1794 -13.141594576571887 6.286895638784012 0.913164618507954 1 0 0
42 14 1 0.5897 -15.483603551798815 4.379639195265273 1.1717399823879044 1 0 0
108 36 1 0.5897 -10.062973368480172 2.701612626360765 3.3715577959656575 1 0 0
215 72 1 0.5897 -12.302585697713877 8.609661541851905 3.3632428126399727 1 0 0
190 64 2 -1.1794 -11.851313479876026 6.973780871805479 4.0718493380054035 1 0 0
135 45 1 0.5897 -7.010629677585003 8.571943820513154 5.252617089103154 0 0 0
153 51 1 0.5897 -12.670499700776208 9.297933754559752 1.19454226490796 1 0 0
216 72 1 0.5897 -13.003588246619774 9.941397937148315 3.527648370430045 1 0 0
162 54 1 0.5897 -14.328808040984764 6.885026118933238 2.2258677361245796 1 0 0
151 51 2 -1.1794 -12.768146013391677 8.999009520689915 0.29044434512438144 1 0 0
148 50 2 -1.1794 -17.995943396209753 10.858318075505453 1.946257012490122 1 0 0
174 58 1 0.5897 -16.394757181277193 10.072263004319035 1.6542116713799127 1 0 0
214 72 2 -1.1794 -12.359469589776781 9.486997228738355 2.9846513805711354 1 0 0
43 15 2 -1.1794 -9.67420939454035 1.7833549730557792 0.19260044399668547 1 0 0
206 69 1 0.5897 -14.943249892513155 7.482465591709376 4.523939851983219 1 0 0
160 54 2 -1.1794 -15.046309298616872 7.237121536605988 2.7525678651760046 1 0 0
173 58 1 0.5897 -14.9106323048182 10.35918773603955 1.5736410048409573 1 0 0
85 29 2 -1.1794 -10.915505094170559 4.771841949502967 1.5016535460945089 1 0 0
219 73 1 0.5897 -7.531477027172633 10.670749043154162 4.4339149871452195 0 0 0
291 97 1 0.5897 -15.118742958865672 10.650351476425032 4.421577328148682 1 0 0
161 54 1 0.5897 -15.26070973305228 8.072821736756952 2.3379492888559406 1 0 0
172 58 2 -1.1794 -15.546380992253617 9.644514634132056 1.5384346631999088 1 0 0
289 97 2 -1.1794 -14.255116239506458 10.365209915901966 4.719765749516776 1 0 0
283 95 2 -1.1794 -16.576286148855672 11.74790895087511 4.145290595140789 1 0 0
285 95 1 0.5897 -16.979893269227205 11.608791851155223 3.2885707965575595 1 0 0
284 95 1 0.5897 -17.294280204194056 11.640957488838142 4.769166857302172 1 0 0
150 50 1 0.5897 -18.425212303948015 11.394162309217842 1.2793125432842194 1 0 0