#include		in.partitions
include		in.temp
variable        temperature equal 168.27
variable	tempDamp equal 100.0
include		in.pressure
variable        pressure equal 8313.8
variable        pressureDamp equal 1000.0 # This is 1 ps
include		in.seed
variable        seed equal 745823

units		real
atom_style	full
read_restart	restart.lmp.${pid}
read_restart	restart.lmp.0
Reading restart file ...
  restart file = 30 Jul 2021, LAMMPS = 30 Jul 2021
  restoring atom style full from restart
  orthogonal box = (-0.020770732 -0.050253119 -0.029726736) to (24.750772 24.780254 22.839727)
  2 by 4 by 2 MPI processor grid
  restoring pair style lj/cut/tip4p/long/omp from restart
  restoring bond style harmonic/omp from restart
  restoring angle style harmonic/omp from restart
  1920 atoms
  1280 bonds
  640 angles
Finding 1-2 1-3 1-4 neighbors ...
  special bond factors lj:    0        0        0       
  special bond factors coul:  0        0        0       
     2 = max # of 1-2 neighbors
     1 = max # of 1-3 neighbors
     1 = max # of 1-4 neighbors
     2 = max # of special neighbors
  special bonds CPU = 0.001 seconds
  read_restart CPU = 0.006 seconds
include 	in.setup
variable	out_freq equal 1000
variable	out_freq2 equal 10000
variable	out_freq3 equal 1000

timestep	2.0

neigh_modify    delay 7 every 1

include		in.tip4p
# This is TIP4P/Ice

# create groups ###
group ox type 2
640 atoms in group ox
group hy type 1
1280 atoms in group hy

# set charges - beside manually ###
set group ox charge -1.1794
Setting atom values ...
  640 settings made for charge
set group hy charge 0.5897
Setting atom values ...
  1280 settings made for charge

# ### TIP3P Potential Parameters ###
pair_style lj/cut/tip4p/long/omp 2 1 1 1 0.1577 8.5
pair_coeff 1 1*2 0.000 0.000
pair_coeff 2 2 0.21084 3.1668
bond_style  harmonic
bond_coeff  1 450 0.9572
angle_style harmonic
angle_coeff 1 55 104.52
kspace_style pppm/tip4p/omp 1.0e-5
pair_modify tail yes

thermo          ${out_freq}
thermo          1000
thermo_style    custom step temp pe etotal epair emol press lx ly lz vol pxx pyy pzz pxy pxz pyz enthalpy

restart 	${out_freq3} restart.lmp.${pid} restart2.lmp.${pid}
restart 	1000 restart.lmp.${pid} restart2.lmp.${pid}
restart 	1000 restart.lmp.0 restart2.lmp.${pid}
restart 	1000 restart.lmp.0 restart2.lmp.0


include         in.dump
dump            myDump all atom ${out_freq2} dump.water.${pid}
dump            myDump all atom 10000 dump.water.${pid}
dump            myDump all atom 10000 dump.water.0
dump            myDump2 all dcd ${out_freq2} dump.dcd
dump            myDump2 all dcd 10000 dump.dcd
dump_modify     myDump append yes
dump_modify     myDump2 append yes


variable natoms 	equal  "count(all)"                        # NUMBER ATOMS
variable H      	equal  "enthalpy/v_natoms"                 # ENTHALPY-per-atom
variable Vol      	equal  "vol/v_natoms"                 # volume-per-atom
fix AVG all 		ave/time ${out_freq} 1 ${out_freq} v_Vol v_H file vol_enthalpy.dat
fix AVG all 		ave/time 1000 1 ${out_freq} v_Vol v_H file vol_enthalpy.dat
fix AVG all 		ave/time 1000 1 1000 v_Vol v_H file vol_enthalpy.dat




fix 		1 all shake 1e-6 200 0 b 1 a 1
       0 = # of size 2 clusters
       0 = # of size 3 clusters
       0 = # of size 4 clusters
     640 = # of frozen angles
  find clusters CPU = 0.000 seconds
fix             2 all nph aniso ${pressure} ${pressure} ${pressureDamp}
fix             2 all nph aniso 8313.8 ${pressure} ${pressureDamp}
fix             2 all nph aniso 8313.8 8313.8 ${pressureDamp}
fix             2 all nph aniso 8313.8 8313.8 1000
fix             3 all temp/csvr ${temperature} ${temperature} ${tempDamp} ${seed}
fix             3 all temp/csvr 168.27 ${temperature} ${tempDamp} ${seed}
fix             3 all temp/csvr 168.27 168.27 ${tempDamp} ${seed}
fix             3 all temp/csvr 168.27 168.27 100 ${seed}
fix             3 all temp/csvr 168.27 168.27 100 745823


run             250000
PPPM initialization ...
  extracting TIP4P info from pair style
  using 12-bit tables for long-range coulomb (../kspace.cpp:340)
  G vector (1/distance) = 0.37488572
  grid = 30 30 30
  stencil order = 5
  estimated absolute RMS force accuracy = 0.0032206124
  estimated relative force accuracy = 9.6987786e-06
  using double precision FFTW3
  3d grid and FFT values/proc = 7920 1800
Last active /omp style is kspace_style pppm/tip4p/omp
Neighbor list info ...
  update every 1 steps, delay 7 steps, check yes
  max neighbors/atom: 2000, page size: 100000
  master list distance cutoff = 10.8154
  ghost atom cutoff = 10.8154
  binsize = 5.4077, bins = 5 5 5
  1 neighbor lists, perpetual/occasional/extra = 1 0 0
  (1) pair lj/cut/tip4p/long/omp, perpetual
      attributes: half, newton on, omp
      pair build: half/bin/newton/omp
      stencil: half/bin/3d
      bin: standard
Per MPI rank memory allocation (min/avg/max) = 12.56 | 12.56 | 12.56 Mbytes
Step Temp PotEng TotEng E_pair E_mol Press Lx Ly Lz Volume Pxx Pyy Pzz Pxy Pxz Pyz Enthalpy 
19000000     173.9928   -9483.9192   -8820.5793   -9483.9192            0    8198.9509    24.771542    24.830507    22.869453    14066.771    8407.5455    7883.2204    8306.0867   -591.15989   -925.58747   -480.08791   -7138.5692 
19001000    165.49996   -9503.9197   -8872.9584   -9503.9197            0    7650.5129    24.731239    24.824477    22.965227    14099.273    7838.8697    7457.2611    7655.4078    -171.7697   -40.295302   -965.19641   -7299.8336 
19002000    170.43642   -9517.3947   -8867.6134   -9517.3947            0    6986.2196    24.892463    24.852559    22.857409    14140.539    6008.5572    7681.2976     7268.804    4.6923743   -418.20914   -152.07148   -7426.8784 
19003000    169.09534   -9508.7731   -8864.1045   -9508.7731            0    8598.0806    24.872462    24.853708    22.742565    14058.838    7654.0478    8444.1731     9696.021    246.87941    323.37004    643.63303    -7101.208 
19004000    163.22058   -9509.4233    -8887.152   -9509.4233            0    8017.1022    24.796347    24.834719    22.851711    14072.319     7661.439    8740.1617    7649.7059   -100.21392   -445.45927   -205.35912   -7241.7994 
19005000    167.25349   -9490.4026    -8852.756   -9490.4026            0    7692.7076    24.863886    24.702764    23.009949    14132.865    7041.8572    8912.1511    7124.1143   -608.60616   -430.41609    -461.7654   -7267.1863 
19006000    172.11678   -9492.6466   -8836.4589   -9492.6466            0    8229.2951    24.791671    24.841186    22.904733    14105.983    8802.0919    8220.0155    7665.7779   -733.44471    107.45791    572.45641   -7143.5178 
19007000    168.59111    -9520.565   -8877.8188    -9520.565            0    8137.7256    24.846788     24.87639    22.777466    14078.715    7160.9254    8684.2764    8567.9749   -31.086985    215.42355    765.70259   -7206.9515 
19008000    167.05028   -9503.9681   -8867.0962   -9503.9681            0    9634.7404    24.833085    24.828755    22.722676    14010.225    9083.5594    9909.3013    9911.3605   -359.15355   -423.74361    1341.6385   -6898.4803 
19009000      172.678   -9497.3627   -8839.0354   -9497.3627            0    8657.5105    24.808878    24.864612    22.822617    14078.431     7815.288    9959.9725     8197.271    202.87095    323.60581    -274.8135   -7061.4799 
19010000     169.6094   -9500.0931   -8853.4647   -9500.0931            0    7521.8899    24.864957    24.774074    22.906892     14110.79    7432.0049    8282.6194    6851.0454   -411.87251   -165.55821    727.86524   -7305.5245 
19011000    175.29562   -9540.3386   -8872.0317   -9540.3386            0    7213.5181    24.724052    24.899065    22.918599    14108.822    6919.8763    8236.1985    6484.4794   -61.726737    191.01121    259.79957   -7387.7588 
19012000    175.04535   -9509.7452   -8842.3925   -9509.7452            0    7629.6297    24.923482    24.747785    22.918857    14136.374    6255.6562    9489.0352    7144.1978   -358.83766   -229.63152    439.53036   -7269.4337 
19013000    168.44206    -9488.598   -8846.4201    -9488.598            0    7878.4465    24.796769    24.924864    22.829771    14110.079    8037.9684    7271.8771     8325.494   -681.88855    -215.7224    683.92288   -7225.1852 
19014000     166.9942   -9524.7938   -8888.1357   -9524.7938            0     8023.999    24.960969    24.786415    22.753025    14077.136    6744.8317    8475.4138    8851.7515    373.86378    868.58215   -571.51886    -7240.804 
19015000    167.72322   -9504.1663   -8864.7289   -9504.1663            0    8764.0438    24.772516    24.904603    22.787331    14058.637    9734.7153     7153.437    9403.9792    52.870648   -778.86962    646.72497     -7067.83 
19016000    171.82156   -9506.0018   -8850.9396   -9506.0018            0    8712.7766    24.883429    24.702199    22.890674    14070.335    7152.9919    9869.4714    9115.8666    73.001124    -427.0967     201.9699   -7063.0657 
19017000     170.1832   -9506.6898   -8857.8738   -9506.6898            0    8559.8926    24.697168    24.897272      22.9013    14081.829    9876.0548    7675.9487    8127.6743   -388.49276   -414.67601   -203.23247    -7099.937 
19018000    167.25224    -9528.166   -8890.5242    -9528.166            0    8084.5306    24.888457    24.730621    22.869765    14076.501    8182.7909    8586.2623    7484.5385   -95.742131   -963.50543   -984.91747   -7230.8402 
19019000    166.66735   -9507.3693   -8871.9574   -9507.3693            0     8055.602    24.797702      24.8804    22.829729    14085.413    8532.9419    7709.7419    7924.1221    339.70215   -156.60427   -483.14342   -7217.1652 
19020000    165.50515   -9511.0117   -8880.0305   -9511.0117            0    7821.0783    24.841362    24.909293    22.771386    14090.496    7365.0055    7372.3185    8725.9109   -101.86666    418.93454   -191.94882   -7272.8347 
19021000    171.08868   -9523.1546   -8870.8866   -9523.1546            0    8233.2094    24.876805    24.766054    22.810985    14053.855    7130.7283    8374.5044    9194.3954   -41.298169    69.118041   -234.03825   -7183.3993 
19022000    168.62168   -9488.4288   -8845.5661   -9488.4288            0    8416.5447    24.689033    24.917416    22.875778    14072.879    9400.7802     8364.961    7483.8929    14.406375   -113.48732    339.45195    -7118.167 
19023000    164.24934   -9523.5716   -8897.3782   -9523.5716            0    7323.9605     24.81587    24.806491    22.902689    14098.773    7528.4693    7358.3162    7085.0958   -23.065458    98.974552    346.26939   -7391.4538 
19024000    173.35495   -9484.3773   -8823.4692   -9484.3773            0    7142.5769    24.749894    24.865727    22.955328    14127.262    7186.6323    7212.9355    7028.1628   -37.197008    314.73604    708.82055   -7351.8725 
19025000    169.48291   -9500.2269   -8854.0807   -9500.2269            0    8207.2686    24.787132    24.896144    22.830894    14089.036    7735.9647    8018.6773    8867.1638   -124.49893   -179.33485    175.75694   -7167.6992 
19026000    176.11019   -9505.0084    -8833.596   -9505.0084            0    9336.7839    24.884369     24.86904    22.677004    14033.672    9123.6382    9147.9165     9738.797   -305.93706    275.97715   -221.32617   -6922.6672 
19027000    171.19265   -9511.3614    -8858.697   -9511.3614            0    8263.7607    24.791445    24.867888    22.822882    14070.555    8302.2799    8112.6069    8376.3952   -113.16149    587.34992    274.49436   -7162.9352 
19028000    161.12321   -9488.7527   -8874.4775   -9488.7527            0    9287.8302    24.823378    24.792514    22.806722    14036.031    9220.0196    8276.6548    10366.816    349.02008    466.66517   -131.60578   -6973.2483 
19029000    171.09411   -9535.4424   -8883.1536   -9535.4424            0    7532.2281    24.739701     24.86619     22.92637    14103.893    7944.9337    7638.0681    7013.6827   -31.099385   -264.35633     -199.644   -7333.8436 
19030000    165.49403   -9474.7234   -8843.7846   -9474.7234            0    8076.8965    24.841049    24.685297    23.019067    14115.492    8325.0407    8614.7081    7290.9405   -285.49466     297.0691   -844.40372    -7181.075 
19031000    172.94759   -9491.5895   -8832.2344   -9491.5895            0    8820.0418    24.740157    24.855941    22.881111    14070.507    9641.3731    8532.0272    8286.7251   -604.72781   -660.26222    755.73979   -7022.3273 
19032000    173.47072   -9502.1295     -8840.78   -9502.1295            0    8704.3653    24.905995    24.806155    22.779964    14073.962    7721.8259    9079.1637    9312.1064    749.58054   -65.714731    100.72788   -7054.1715 
19033000    174.31927   -9518.1227   -8853.5381   -9518.1227            0    7468.4098    24.818988    24.899414    22.851264    14121.584    8062.4751    6929.0786    7413.6758   -991.63997    251.05763   -1766.4014   -7315.4279 
19034000    160.25221    -9489.409   -8878.4545    -9489.409            0    9917.9342      24.7462    24.794641    22.836302    14011.742    11207.632    9381.8399    9164.3301   -571.86533    28.919035    1070.9011   -6851.7556 
19035000     163.3743   -9517.2575   -8894.4002   -9517.2575            0    8952.9796    24.769982    24.797873    22.865484     14044.96    9209.1621    8724.1677     8925.609   -23.271262     974.2098   -111.37421   -7060.5494 
19036000    167.55844   -9496.2083   -8857.3991   -9496.2083            0    9285.5797    24.684304    24.867576    22.853468    14028.345    9829.5909    9390.6968    8636.4513   -109.18295   -858.90976   -105.81871   -6957.6714 
19037000    170.78955   -9516.0739   -8864.9463   -9516.0739            0    8675.2046    24.845268    24.750864    22.868063    14062.529    8470.9377    10002.217    7552.4596   -1072.2152   -607.95134   -263.27998   -7085.7697 
19038000    171.12934    -9506.417   -8853.9939    -9506.417            0    6940.9842    24.751011    24.913291    22.911765    14128.062    7652.1197    6985.2408    6185.5921   -709.63438   -762.12216   -45.252641   -7423.8507 
19039000    164.66962   -9505.7951   -8877.9995   -9505.7951            0    7514.8579    24.872848    24.835834    22.865895    14125.131    7845.4367    7080.7798    7618.3574   -528.14303   -335.85768    560.41601   -7329.9346 
19040000    169.18927   -9516.5376   -8871.5109   -9516.5376            0    8484.6062    24.856357    24.802558    22.812887    14064.173    7925.3048    9058.1524    8470.3613    309.57834    474.82774    429.94814   -7131.2203 
19041000    161.87231   -9509.2086   -8892.0775   -9509.2086            0    9715.3046    24.729246    24.872911    22.782647     14013.34    10778.927    9324.1694    9042.8179    61.137369   -165.36701   -79.689798   -6906.5589 
19042000    163.44633   -9487.1858   -8864.0538   -9487.1858            0    8681.5363    24.815513    24.757965    22.879677    14056.852    8088.8031    9680.0269    8275.7789   -493.35763    -584.4783    208.37683   -7084.2975 
19043000      170.554   -9499.5117    -8849.282   -9499.5117            0    8984.8109    24.715966    24.901726    22.837974    14056.093    8752.4715    8749.9266    9452.0345   -741.12743    -526.7914    172.32739   -7007.4524 
19044000    166.10295   -9494.1394   -8860.8792   -9494.1394            0    8369.5299    24.968522    24.772174    22.740601     14065.62    7122.1249    9137.3038     8849.161   -421.60852   -20.487587   -509.75186   -7144.0154 
19045000    164.08265   -9530.3381   -8904.7802   -9530.3381            0    8764.4913    24.767521    24.854569    22.804181    14037.936    9046.7979    8347.5654    8899.1107    486.68533   -350.98452   -390.08428   -7110.4355 
19046000    175.13385   -9489.6888   -8821.9987   -9489.6888            0    9563.5668    24.775033    24.728663    22.852524    14000.678    10117.074    9771.8847    8801.7416   -169.17899   -512.38093   -61.866159   -6869.2569 
19047000    173.28994   -9543.0281   -8882.3678   -9543.0281            0    7508.6407    24.742142    24.874642    22.884227    14084.141    7311.2153    7583.8249    7630.8821    114.52637    223.12372   -287.92703   -7340.0724 
19048000    165.06811   -9503.0686   -8873.7537   -9503.0686            0    7559.2961    24.860481    24.803205     22.88411    14110.791    6998.3335    8201.4006    7478.1542    203.71121   -73.965383    1212.9584   -7318.1155 
19049000    166.97749   -9485.0417   -8848.4474   -9485.0417            0    8640.7927    24.831692    24.811364    22.828035    14064.538    8508.6992    8854.3266    8559.3525   -302.11129   -28.987146    337.07511   -7076.0751 
19050000    172.19946   -9490.8329   -8834.3301   -9490.8329            0    8800.2512    24.716653    24.854023    22.832615    14026.264    8214.2535    9161.7344    9024.7657    -758.6049   -540.03218   -717.23593   -7034.1623 
19051000    171.04147   -9516.5415   -8864.4534   -9516.5415            0    8197.0538    24.884468    24.730262    22.889119     14085.95    8070.8008    9044.2773    7476.0832    410.05759   -783.42671    707.50215   -7180.5398 
19052000    164.10925   -9487.5856   -8861.9263   -9487.5856            0     8713.733    24.714655    24.907357    22.862366    14073.541    8825.7374    8235.4441    9080.0174   -136.10595    929.92921    923.71405   -7073.4487 
19053000    166.10263    -9495.491   -8862.2321    -9495.491            0    9221.1425    24.817176    24.780091    22.819072    14033.088    8678.4942    9741.4343    9243.4989   -196.93455   -12.854357   -892.98557   -6975.0497 
19054000    170.54931   -9497.0107   -8846.7989   -9497.0107            0    8535.5778    24.721448    24.949931    22.805449    14066.365    9095.0762    6895.7006    9615.9567    180.82533   -391.95512    716.34937   -7095.7805 
19055000     169.4173   -9486.7135   -8840.8175   -9486.7135            0    8926.6625    24.787973    24.791779    22.862853    14050.091    8754.6748    9353.4437     8671.869   -138.24737    672.22832   -398.85449   -7011.6893 
19056000    170.22548   -9490.0536   -8841.0765   -9490.0536            0    8988.0028    24.692248    24.884725    22.897726    14069.732    10015.712    7409.8084    9538.4879    809.11141   -559.10912    1096.5078   -6996.8047 
19057000    167.41044   -9503.7325   -8865.4875   -9503.7325            0    8259.6086    24.823822    24.811664    22.862408    14081.422    8296.4809    7932.4314    8549.9134    128.73453    197.37003    190.09382   -7169.2687 
19058000    166.48638   -9515.2932   -8880.5712   -9515.2932            0    7781.2766    24.810358    24.856481    22.879777    14109.917     6652.208    8060.0356    8631.5863   -129.39837    327.52414   -742.74235   -7279.3505 
19059000    163.57503    -9492.171   -8868.5484    -9492.171            0    7307.3253    24.888984    24.843391     22.83062    14116.783    7749.6674    6679.2897    7493.0187    -78.74697   -442.83182     178.7683    -7364.125 
19060000    161.05927   -9503.0654    -8889.034   -9503.0654            0    8720.1263    24.718748     24.96346    22.787156    14061.167    8744.3307    8485.8881    8930.1601    -504.6045    1069.0407    229.05372   -7100.8178 
19061000    165.32944   -9509.4825   -8879.1713   -9509.4825            0    8598.1083     24.83262    24.767086    22.867095    14063.987    7958.4493     8956.812    8879.0635    -480.1412    223.97765   -590.24989   -7115.6235 
19062000    172.85006   -9511.8756   -8852.8923   -9511.8756            0    8962.5288    24.649933    24.826769    22.940383    14039.014    9901.0113    8524.4854    8462.0896   -86.038791    874.35575    130.99115   -7017.8627 
19063000    169.94544   -9486.7203   -8838.8108   -9486.7203            0    8500.8384     24.90202    24.792842    22.834117    14097.598    8003.3835    9386.1306     8113.001     341.2504   -267.18469   -250.42558   -7091.0469 
19064000    168.27497   -9511.3414   -8869.8004   -9511.3414            0    7279.3416    24.795318    24.911834    22.841522    14109.136    8177.3593    6393.6533    7267.0123    80.129594   -618.40869     459.5473   -7371.9502 
19065000     162.1225   -9514.4893   -8896.4044   -9514.4893            0    7834.9528    24.801366    24.851039    22.858538    14088.625    8284.7212    7716.4299    7503.7071    -111.2508    1028.6836    438.95164   -7286.5712 
19066000    177.90497   -9492.3252   -8814.0703   -9492.3252            0    9165.2593    24.775704    24.757196     22.90214    14047.645    9286.0677    8770.0394    9439.6708   -1239.1994   -752.78643    1286.2698   -6936.3791 
19067000    168.35223   -9533.9468   -8892.1114   -9533.9468            0     8648.966    24.721087    24.856543    22.849619    14040.651    8418.6981    8752.8931    8775.3068   -87.186806   -358.95742    112.17713   -7121.0756 
19068000    161.65444   -9506.6308   -8890.3304   -9506.6308            0    7748.0221    24.823439    24.754918     22.92377    14086.707    7953.5264    8626.9449    6663.5951   -332.39098    558.42968   -753.93148   -7298.5754 
19069000    171.74601   -9540.9251   -8886.1509   -9540.9251            0    8112.9629    24.746588    24.834082    22.895315    14070.517    9051.9449    7624.8921    7662.0517    258.22492    410.32527   -143.69939    -7221.338 
19070000    162.98138   -9494.3519   -8872.9925   -9494.3519            0    9774.6762    24.860372    24.861496    22.679595    14017.487    8915.5452     9134.096    11274.387   -346.52365    -439.7055    245.17383   -6874.7489 
19071000    168.77908   -9501.0782   -8857.6153   -9501.0782            0    8921.1283    24.832075    24.805965    22.789198    14037.772    8242.0198    9537.9103    8983.4549   -321.96005    80.688737   -136.50772   -7031.2239 
19072000    170.81118   -9497.1567   -8845.9465   -9497.1567            0    8416.2261    24.730413     24.92229    22.819194    14064.348    9091.6207    8053.7002    8103.3575   -151.35666    181.99624   -484.81389   -7119.6599 
19073000    155.08937   -9502.0323   -8910.7609   -9502.0323            0    8639.5152    24.869275    24.739305    22.882236    14078.263    7702.0455    8957.1598    9259.3403    217.51101   -1160.9614   -171.05711   -7136.9214 
19074000     168.3035   -9485.2733   -8843.6236   -9485.2733            0    9207.2319    24.672219    24.861659    22.896743    14044.686    9942.3777    9174.2983    8505.0198   -54.444948   -302.04063    215.72123   -6957.7307 
19075000    172.96435   -9496.7414   -8837.3224   -9496.7414            0    7372.0991    24.980594    24.688313    22.912996    14131.103    5679.7125    8991.5678    7445.0169   -782.78242    215.63603    722.86684   -7318.0239 
19076000    170.18714   -9511.7122   -8862.8812   -9511.7122            0    8270.4243    24.802888    24.879307    22.801945    14070.594    8048.9093    8177.2125     8585.151   -444.44478    320.76052    761.65103   -7165.7473 
19077000    162.83735   -9510.8517   -8890.0414   -9510.8517            0    8251.1816    24.843834    24.770847    22.855287    14065.208    7342.0888    9515.7685    7895.6874    386.69166   -629.64381    76.934984   -7197.5043 
19078000    168.87551   -9482.7218   -8838.8913   -9482.7218            0    7759.4657    24.685136    24.882865    22.987677     14119.88    8215.0485    7798.1253    7265.2235    36.470239    351.46242   -45.065221   -7241.0314 
19079000    166.38758   -9511.7622   -8877.4169   -9511.7622            0    7606.2629    24.818214    24.774522    22.930894    14099.276    6903.0942    8735.1844    7180.5101   -407.69213    347.85579    287.01969   -7313.3906 
19080000    169.82401   -9506.1014   -8858.6548   -9506.1014            0    9696.2679    24.692546    24.820059    22.874106    14018.863    9307.9649    10332.076    9448.7625   -595.68812    107.40038    495.74824   -6876.2457 
19081000    174.71111   -9503.2753   -8837.1969   -9503.2753            0     8729.419     24.83571    24.820311    22.807497    14059.226    8531.1522    8706.0188    8951.0861   -12.604266   -61.873936     418.6035   -7047.3221 
19082000    164.87461   -9492.5834   -8864.0062   -9492.5834            0    10284.382      24.7457    24.813184    22.815036    14008.879    10834.251    9059.7956    10959.099   -475.29594    58.788963   -339.98446   -6762.8542 
19083000     165.3428   -9535.8833   -8905.5212   -9535.8833            0    7788.9903    24.837334    24.873712    22.773703    14069.519    8756.4892    7335.3254    7275.1563    132.76123    94.308229     347.2367   -7307.3022 
19084000    167.04075   -9478.5667   -8841.7312   -9478.5667            0    8067.4749    24.865941    24.916662     22.78887    14119.443    7709.9202    7752.0496    8740.4548     137.6048   -1000.7092   -170.95126   -7180.4962 
19085000    164.12833   -9501.4589   -8875.7269   -9501.4589            0    7697.4282    24.783371    24.803635    22.955545     14111.18    7377.0465    8432.4579    7282.7801    95.626553   -128.74345   -212.38953   -7291.6186 
19086000    171.86159   -9511.5406   -8856.3258   -9511.5406            0    9184.2238    24.769201    24.765024    22.916833    14057.411    9085.5675     9468.617     8998.487    241.94111    416.42865   -64.034076   -6973.4412 
19087000    167.97842   -9509.5941   -8869.1837   -9509.5941            0    8396.0104    24.839151    24.812073    22.826335    14068.117    8448.4721    8612.8007    8126.7583    152.78941    657.21155   -857.85362   -7146.5822 
19088000    171.42285   -9494.5545   -8841.0124   -9494.5545            0    7336.3131    24.817299     25.00544    22.776249    14134.199    7318.6621    6599.6049    8090.6722   -166.22494   -407.05797    363.55507   -7328.7577 
19089000    165.84385   -9540.7138   -8908.4414   -9540.7138            0    7147.9896    24.821085    24.831272    22.919864    14126.409    5883.0171    7967.0204    7593.9313    369.67433   -180.22813    347.34446   -7435.8184 
19090000    165.95257   -9487.2281   -8854.5412   -9487.2281            0    8117.3699    24.794158    24.837606    22.909832    14108.505     7632.555    8906.4201    7813.1347    -342.8377    184.38028    292.89586   -7184.3268 
19091000    160.89603   -9501.1878   -8887.7787   -9501.1878            0    8335.2927    24.888714    24.738743    22.882909    14089.362    7861.0646    8669.5469    8475.2667   -282.55938    396.43786    534.38775    -7175.052 
19092000    173.21813   -9514.9273   -8854.5408   -9514.9273            0     8507.527    24.761781    24.920217    22.755753    14041.868     7554.286    8972.2457    8996.0494    491.16358   -1125.1931    376.66427   -7112.3162 
19093000    168.08379   -9498.9092   -8858.0972   -9498.9092            0    7871.5085    24.890331    24.844432    22.759096     14073.91    7251.9816    8000.8402    8361.7036    726.56902   -688.71147   -158.44132   -7242.4422 
19094000    167.21328   -9502.0255   -8864.5322   -9502.0255            0    9360.1286    24.779868    24.804147    22.830985    14032.917    9179.6271     9708.738    9192.0208   -503.00339     374.0827    130.31503   -6948.9286 
19095000    162.59572   -9529.0715   -8909.1825   -9529.0715            0    7092.5688    24.733703    24.752325    23.038791    14104.731    7995.3974    7977.4178    5304.8912   -567.22502   -1261.2375    840.69511   -7450.2195 
19096000    167.10927    -9501.704   -8864.6073    -9501.704            0    7685.7445    24.844292    24.797257     22.92101    14120.954    7228.2019    9060.8883    6768.1434    358.60013    445.46139   -277.47615    -7281.808 
19097000    170.66373   -9498.8967   -8848.2488   -9498.8967            0    8263.7169    24.761395    24.955001    22.747826    14056.352      9108.93    7057.9001    8624.3204   -454.89442   -253.46668   -114.58062   -7154.2077 
19098000    158.43004   -9495.6143   -8891.6067   -9495.6143            0    9486.2739     24.84483    24.805969    22.725171    14005.525    9274.7046    8742.8356    10441.281    90.937345   -64.386221   -566.06649   -6953.9763 
19099000    168.41223   -9493.2457   -8851.1814   -9493.2457            0    8583.7743    24.798079    24.786072     22.88976    14069.121    9072.5594    8857.0106     7821.753   -119.55434   -253.57272   -248.64715   -7089.9308 
19100000    163.25971   -9510.7113   -8888.2908   -9510.7113            0    8373.1602    24.779387    24.711885    22.985821    14075.261    7935.2252     10114.17    7070.0855    33.306589   -713.74267    1141.5343   -7169.5051 
19101000    171.12655   -9531.4244   -8879.0119   -9531.4244            0    8669.9241    24.766829    24.846468    22.816805    14040.737    9450.0608    8215.8052    8343.9063     154.8329   -982.01003    403.23214   -7103.6738 
19102000    172.01528   -9507.1882   -8851.3876   -9507.1882            0    8140.1255    24.829246    24.878108    22.836512     14106.22    8361.2741    7700.1267    8358.9759   -350.35975   -954.97706    234.52864   -7176.7623 
19103000    172.12216   -9514.4144   -8858.2063   -9514.4144            0    7208.3555     24.93196    24.878777    22.762641    14119.135    6109.3195    7441.8023    8073.9447   -320.35228    50.229552    749.45994   -7373.9114 
19104000    171.81395   -9519.1675   -8864.1343   -9519.1675            0    8207.9257    24.791024    24.811961    22.863308    14063.539    7774.2027    9109.6522    7739.9223    447.63934   -415.73292    115.94256     -7180.67 
19105000     173.1037   -9501.4058   -8841.4556   -9501.4058            0    8677.4117     24.77698    24.784303    22.877718    14048.753    8924.7284    8947.6228    8159.8839    681.69632   -1372.5605    1062.5858   -7063.5697 
19106000     163.7093   -9502.9961   -8878.8616   -9502.9961            0    9190.2478    24.783694    24.806518    22.825868    14033.278    9705.4742    8645.9786    9219.2906    859.14625   -252.77917    1492.4643   -6997.9766 
19107000    168.47302   -9496.0378   -8853.7418   -9496.0378            0    9803.9131    24.803566    24.778892    22.798924     14012.33    10142.953    10348.037    8920.7484    438.53253    113.84583   -152.47326   -6850.2586 
19108000    169.90894   -9511.7377   -8863.9673   -9511.7377            0    8900.6782    24.791054    24.819382      22.8395    14053.113    8633.9803    9154.7578    8913.2964    557.19696   -1061.7561   -1041.5316   -7039.7712 
19109000    164.21195   -9500.0221   -8873.9713   -9500.0221            0    8547.5222     24.83724    24.748492    22.888968    14069.487     8448.046     8411.795    8782.7257   -86.684868    341.20194    363.67886   -7120.1133 
19110000    169.00936   -9522.4555   -8878.1147   -9522.4555            0    8306.9187    24.776043    24.840231     22.85828     14067.96    8738.3719    8136.2904    8046.0939   -531.71763   -138.51402   -240.85295    -7173.811 
19111000    162.52014   -9484.7698   -8865.1689   -9484.7698            0    7980.5238    24.938997    24.728149    22.857398    14096.049    7479.1347    8849.4894    7612.9474    -957.2621    468.94907    76.700376   -7224.5614 
19112000    170.59505   -9506.1601    -8855.774   -9506.1601            0    7960.8844    24.757595    24.944936    22.812316    14088.353    7885.7005    8032.5831    7964.3697    603.47271    1040.3519   -624.54247   -7220.0973 
19113000    168.96458   -9507.8096   -8863.6396   -9507.8096            0     8147.604    24.863509     24.72094     22.91933    14087.351    7755.7223    8359.9504    8327.1394   -258.73708    240.35205    659.07898   -7189.7179 
19114000    174.91798   -9487.6159   -8820.7488   -9487.6159            0    8445.0985    24.717263    24.856183    22.898259     14068.16    8553.8411    8407.5074    8373.9469   -486.03091    -314.2094    372.17042   -7088.0707 
19115000    174.36146   -9499.1224    -8834.377   -9499.1224            0     8906.113    24.830322    24.776334    22.859225    14063.095    8269.6671    9530.3375    8918.3344    230.60263   -341.04074    618.44111   -7007.7705 
19116000    167.97672   -9523.9339     -8883.53   -9523.9339            0    7533.3562    24.847164    24.888331    22.807932    14104.527    7632.6626    7067.8781     7899.528   -145.50789   -8.0303872     105.0438   -7333.9182 
19117000    161.55177    -9513.789     -8897.88    -9513.789            0    8990.9632    24.823261    24.782996    22.799869    14026.361    8505.3217    9499.2117    8968.3563   -91.551337   -736.77532   -303.15432   -7058.6878 
19118000     165.3656   -9530.2183   -8899.7692   -9530.2183            0    8442.7107    24.792602     24.81007    22.850479    14055.471    8984.1889    7832.6573    8511.2859   -295.33915    74.036952   -841.28339   -7169.1433 
19119000    171.84837   -9515.6757   -8860.5113   -9515.6757            0    9254.8262    24.745672     24.84991    22.801385    14021.204    9537.0193    8326.1992    9901.2603   -391.29791   -293.55204    356.32964   -6968.0393 
19120000    166.90449   -9518.9686   -8882.6526   -9518.9686            0    7806.7691    24.838384    24.758792    22.928376    14100.226    8143.1165    8052.4863    7224.7046   -1061.7435    46.584812    168.77663   -7277.2894 
19121000     167.7537   -9519.1554   -8879.6018   -9519.1554            0    7797.9339    24.687625    24.861728    22.980521    14104.915    8456.7191    7444.1002    7492.9824    307.99391   -1327.3856   -382.14657   -7275.5221 
19122000    170.51673   -9501.3357   -8851.2482   -9501.3357            0    8208.2957    24.859481    24.791022    22.865804    14092.011    8007.9659    7675.6607    8941.2604    20.517298   -900.39095   -239.68769   -7164.2996 
19123000    171.72362   -9527.3744   -8872.6856   -9527.3744            0    9911.0913    24.769095    24.881442    22.669265    13970.859    9299.8032    10424.447    10009.024   -1245.3382   -1396.0735   -652.10708   -6853.2943 
19124000    169.86372   -9492.7112   -8845.1132   -9492.7112            0    8313.9849    24.830261    24.835182    22.843955    14087.046    7774.2447    8902.2822    8265.4277    520.60125    541.56768   -129.85263   -7137.0456 
19125000    173.73968   -9490.1894   -8827.8146   -9490.1894            0    8958.2451    24.810848    24.772526    22.854494    14046.998    9547.5121    9259.0342    8068.1889   -638.40109     1169.164     935.2751    -6992.619 
19126000    174.50354   -9526.2874   -8861.0003   -9526.2874            0    9532.9887    24.730313     24.79932    22.838177    14006.538    9314.4969    10531.108    8753.3611    122.40613   -100.71703    553.94883   -6913.6873 
19127000    170.09102   -9504.3011   -8855.8365   -9504.3011            0    8463.2377    24.804067    24.823307    22.850086    14069.231     9030.938    8342.6139    8016.1612   -200.32808    347.93524    888.19433   -7119.3045 
19128000    169.42656   -9522.4078   -8876.4765   -9522.4078            0    8156.8154    24.840602    24.883856     22.75525    14065.702    7531.4139    8311.3216    8627.7106   -229.82607   -279.47438   -118.71569   -7203.2377 
19129000    170.07826   -9502.2945   -8853.8786   -9502.2945            0    8705.3732    24.732981    24.844574    22.882486    14060.838     9629.423    7707.7828    8778.9139   -240.74979    398.30199    263.95577   -7068.7295 
19130000    164.45671   -9522.8022   -8895.8182   -9522.8022            0    8216.8237    24.815606    24.707891     22.97624    14087.682    7283.3097    9786.1437    7581.0177    -373.1526   -484.81154    265.94307   -7207.6357 
19131000    164.89626   -9517.2435   -8888.5837   -9517.2435            0     8226.659    24.714596    24.882376    22.888425    14075.418    8899.7966    8135.2744    7644.9061   -98.086023   -43.294796    207.24708    -7199.852 
19132000    165.68104    -9501.689   -8870.0373    -9501.689            0    8290.5067    24.862154    24.775631    22.862761    14082.902    7480.5823    8976.5907    8414.3469    112.51355   -662.96832   -285.28455   -7167.2943 
19133000    165.53141   -9507.6663   -8876.5851   -9507.6663            0    8255.4015     24.75499     24.92204     22.82761    14083.377    9002.5141    7693.9644     8069.726   -304.34076    806.63698    488.40814   -7180.9949 
19134000    171.59932   -9541.2073   -8886.9924   -9541.2073            0    9207.5421    24.748111    24.794205    22.820296    14002.756    9230.9824    8977.1502    9414.4938   -133.10105   -414.16448    420.64812   -7006.6666 
19135000    166.70743   -9532.8471   -8897.2824   -9532.8471            0    7975.1025    24.869599    24.770721    22.850006     14076.47    7115.0192    8942.8062    7867.4821   -778.47861   -419.80582   -1.5812573   -7260.0666 
19136000     170.5895   -9509.4031   -8859.0381   -9509.4031            0    9190.0213    24.790137    24.841923    22.812048     14048.45     8653.882    9039.1455    9877.0365   -57.964121   -365.10569    423.47544    -6976.166 
19137000    166.11977   -9514.0377   -8880.7134   -9514.0377            0    9486.5217    24.787772    24.933279    22.698888    14028.831    9004.4922    8715.2748    10739.798    -597.9536    939.20807   -222.46337    -6939.808 
19138000    165.10785   -9492.2889   -8862.8224   -9492.2889            0     8419.269    24.925923    24.784991    22.789558    14079.133    6762.1145    9645.5951    8850.0975    547.81938   -8.1194432    864.16938   -7134.0963 
19139000    161.66851   -9506.4256   -8890.0716   -9506.4256            0    8232.1273    24.608891    24.877916    22.994099    14077.399    10036.506    7723.2502    6936.6256    819.15264    36.313686     376.9476   -7199.9794 
19140000     170.9742   -9514.1431   -8862.3114   -9514.1431            0    8169.7237    24.865804    24.739455    22.876998    14073.161    7213.6797    9313.3146    7982.1769   -1099.3667    296.86415    202.47546   -7185.5359 
19141000    168.07765    -9529.685   -8888.8963    -9529.685            0    9114.0696    24.736024    24.884202    22.799792    14034.097    9480.5451    8462.0105     9399.653    641.39364   -996.54703     533.9952   -7023.4931 
19142000    170.37934   -9536.2501   -8886.6864   -9536.2501            0    8843.5206    24.832378    24.824692    22.764083    14033.058    9416.7263    8452.9005    8660.9349   -196.53363    179.33296    637.19117   -7076.7912 
19143000    166.08454   -9505.3972   -8872.2072   -9505.3972            0    8037.8295    24.855334    24.865701    22.779592     14078.82    8078.7772     7486.796    8547.9151    333.74824    61.687455   -151.19236   -7221.8386 
19144000    167.81762   -9515.0713    -8875.274   -9515.0713            0    7371.9967    24.804955    24.886494      22.8411    14100.002    8068.6858    6824.1507    7223.1535    152.43509    243.08678    717.20653   -7359.3404 
19145000    176.32286   -9500.2829   -8828.0598   -9500.2829            0    8935.9539    24.830294    24.764517     22.87804    14067.941      8474.28      9365.59    8967.9917   -210.48644   -44.218837    355.70954   -6994.7015 
19146000    169.57506   -9519.9279   -8873.4305   -9519.9279            0    7927.1459      24.6794    24.863926    22.943933    14079.011    9890.6141    7217.0032    6673.8203   -934.36322   -275.82252    536.47752    -7245.766 
19147000    169.27259   -9512.7978   -8867.4534   -9512.7978            0    8905.8137    24.848808     24.80644    22.777127     14040.06     8446.577     8568.349    9702.5152   -433.48641   -678.32592    237.52055   -7043.9002 
19148000    168.16292   -9536.1957    -8895.082   -9536.1957            0    8770.6728    24.746816    24.905024    22.776413     14037.56    8501.6786    8189.5633    9620.7765   -267.31522   -655.65285    729.51478   -7099.5199 
19149000    173.34807   -9528.5769    -8867.695   -9528.5769            0    6940.7644    24.983809    24.723279     22.87526    14129.629    5745.7647    7769.0199    7307.5085    334.52171    -316.5832    -942.9938   -7437.4385 
19150000    165.58042    -9514.361    -8883.093    -9514.361            0     8128.891    24.784514    24.830607    22.879594    14080.434    8418.5235    8116.9795    7851.1702   -87.653146   -463.06047    319.30485   -7213.8358 
19151000     173.1898    -9524.657   -8864.3785    -9524.657            0    7662.8651    24.788322    24.830915    22.899157    14094.814    7872.6935    6758.8297    8357.0722   -23.482623   -443.92151    1040.2107   -7289.2121 
19152000    168.21246   -9518.8052   -8877.5026   -9518.8052            0    9023.1882    24.742809    24.831799    22.848795    14038.493    10125.824    8815.4643    8128.2762    394.53778   -797.72255    675.09679   -7030.1219 
19153000    169.81971   -9510.0174   -8862.5872   -9510.0174            0    7199.2254    24.770488    24.907759    22.884752    14119.373     8039.242    6063.4319    7495.0022   -37.602226   -50.688377   -307.14092   -7380.1474 
19154000    162.57117   -9510.7459   -8890.9505   -9510.7459            0    7193.2333    24.903233    24.804149    22.861692    14121.747      6324.73    7488.0092    7766.9607   -47.321284   -455.88081   -162.30025   -7409.4955 
19155000    171.61161   -9524.2769   -8870.0152   -9524.2769            0    8456.8293    24.696048    24.918902    22.847896    14060.558    9283.4363    6952.4177    9134.6341   -204.28364    51.540418    618.39569   -7135.8677 
19156000    154.22886   -9512.7036   -8924.7128   -9512.7036            0    8839.4932     24.85975    24.691028    22.857446    14030.193    8767.1688     9352.546    8398.7648    117.40028   -134.55216    -457.5665   -7116.0114 
19157000    164.66348   -9504.1198   -8876.3475   -9504.1198            0     8081.731    24.705264    24.855037    22.949296    14092.021    9646.8518    6913.6175    7684.7236   -4.6945322    -735.8647   -83.651352    -7215.409 
19158000    168.23037   -9498.7269    -8857.356   -9498.7269            0    8695.3467    24.838025    24.789182    22.806783    14042.463    7444.8743    9998.9991    8642.1668   -384.08439   -1043.1902     485.4573   -7076.5931 
19159000    171.57082   -9503.0362     -8848.93   -9503.0362            0    8575.5573    24.769587    24.908391    22.769829    14048.315    8605.0283    9054.2445     8067.399   -363.19933   -36.415055   -153.59484   -7091.9676 
19160000    169.52843   -9521.7672   -8875.4475   -9521.7672            0    8332.9237    24.864239    24.772659    22.835032    14065.313    7537.3726    8863.2452    8598.1534   -547.92341    558.77134    465.23951   -7166.1302 
19161000    163.35535   -9529.0574   -8906.2723   -9529.0574            0    7459.2948    24.770578    24.838767    22.920441    14102.274    7869.7577    7275.0851    7233.0417   -616.62433    218.16323     793.5748   -7372.1399 
19162000    169.02927   -9506.7443   -8862.3276   -9506.7443            0    9247.3725    24.680711    24.794292    22.921457    14026.574    9284.9848    9913.7628      8543.37    22.576014    120.70962   -258.42586   -6970.6556 
19163000    163.92066   -9484.8095   -8859.8692   -9484.8095            0    8561.6407    24.812488     24.82026    22.843087     14067.97     8943.289    8947.0672     7794.566   -741.16983    383.11254    243.79788   -7103.3037 
19164000      163.291   -9512.5677    -8890.028   -9512.5677            0    7482.4028    24.820089    24.888824    22.809188    14090.212    8012.4779    6907.4583    7527.2722   -519.89834    751.52193    352.84479   -7352.4593 
19165000    167.61215   -9506.6585   -8867.6446   -9506.6585            0     8175.893    24.839782     24.94604     22.73015    14084.833    8036.2753     7095.541    9395.8626     571.0628   -168.90174   -391.59972   -7188.2112 
19166000    168.15647   -9485.3372    -8844.248   -9485.3372            0    8706.9426    24.831891     24.79692    22.817898    14050.222    7688.8966    9420.9971     9010.934   -3.2158747    -456.4766   -278.01851   -7060.1252 
19167000    163.71384    -9533.341   -8909.1892    -9533.341            0    7425.0266    24.761351    24.803407    22.973752    14109.694    8110.4542    7018.7037    7145.9218    763.27662    285.44034    27.759434   -7381.3012 
19168000    169.81819   -9478.3247   -8830.9003   -9478.3247            0    9273.4381    24.814727    24.706237    22.910044    14045.656    8185.5432    11121.959    8512.8123   -472.09543   -1433.8693    612.67736   -6931.3155 
19169000    167.01433   -9510.9868   -8874.2521   -9510.9868            0    7816.7086    24.796049    24.962277    22.789494    14105.919    8357.9585    7164.9137    7927.2537   -320.03409    494.64627    450.05972    -7266.196 
19170000    167.78241   -9519.0025   -8879.3394   -9519.0025            0    7916.1128    24.831557    24.840233    22.853618    14096.607    8479.5318    6865.7195     8403.087      91.2186    4.2186996    23.595064   -7251.9089 
19171000    166.86065     -9513.78    -8877.631     -9513.78            0     7155.026    24.690869    24.958241     22.92568    14127.737    8412.4723    6650.3876     6402.218    573.35981   -153.05728    702.47875   -7403.4199 
19172000     167.9922   -9510.4644   -8870.0015   -9510.4644            0    8354.7623    24.839315    24.720414    22.905102    14064.606     7281.587    9283.6631    8499.0369   -820.16387   -542.77209   -677.19837   -7156.2905 
19173000     168.5482   -9510.4393   -8867.8567   -9510.4393            0    9097.5898    24.653512     24.85167    22.911307    14037.321    8701.2622    9086.0366    9505.4707   -1185.9759   -187.14588   -242.15338   -7005.3987 
19174000     169.4387   -9529.1337   -8883.1561   -9529.1337            0    8075.5479    24.854418    24.760661    22.851863    14063.306    8230.3108    8568.5418    7427.7911   -307.56459    26.176688    685.27969   -7226.8701 
19175000    172.69134   -9526.2748   -8867.8966   -9526.2748            0    8687.0696    24.821573    24.936943    22.686123    14042.123    8769.6629     8074.664    9216.8819   -649.46608    137.25107    250.16566    -7088.872 
19176000    166.85866   -9527.5401   -8891.3988   -9527.5401            0    6608.6777    24.845064     24.84556    22.900822    14136.438    7083.1215    6646.3972    6096.5143    598.61907   -387.53485    357.57773   -7528.9179 
19177000    165.83728   -9500.5064    -8868.259   -9500.5064            0    6988.0536    24.797402    24.834644    22.971878    14146.879    8040.9898    6520.2789    6402.8921   -295.66624   -196.21193    952.64636   -7426.4998 
19178000    166.30746   -9506.3214   -8872.2815   -9506.3214            0    7220.1417    24.804042    24.867228    22.902008    14126.136    7600.6002    6649.1351    7410.6898    345.08136    336.82639    310.04485   -7384.8226 
19179000    169.01834    -9519.099    -8874.724    -9519.099            0    8970.8654    24.798197    24.833043    22.812473    14048.256    8068.6794    9604.0763    9239.8406    78.804344    779.90063     31.03092   -7036.7785 
19180000    169.42404   -9533.9856   -8888.0639   -9533.9856            0    8530.4589    24.795529    24.823532    22.816504    14043.845    7829.2203    8853.3997    8908.7568     31.23879   -481.83214    262.25315   -7140.8972 
19181000    171.78372   -9530.6019    -8875.684   -9530.6019            0    8696.7112    24.822497    24.803266    22.838174    14060.984    7847.6155    9511.6522     8730.866    9.3570579    -498.5252    50.953402   -7092.2926 
19182000    171.55305   -9503.3218   -8849.2834   -9503.3218            0    7898.3754     24.77563    24.836756    22.911588     14098.56    8468.9683    7558.5698     7667.588   -180.46773    631.21499    467.99968   -7225.2744 
19183000    168.72399   -9518.3397   -8875.0869   -9518.3397            0    7681.1716    24.776878    24.838169    22.925502    14108.635    8134.1482    7968.7954    6940.5712   -37.510463   -29.640013   -748.77957   -7294.6093 
19184000    167.87517   -9498.3756   -8858.3588   -9498.3756            0    8140.3968    24.779881    24.730285    22.988853    14087.879     7662.916    9869.0043      6889.27    79.943228   -221.68091   -541.47632   -7185.8551 
19185000     173.3798   -9485.9028   -8824.8999   -9485.9028            0    9506.0548    24.651797    24.927557    22.847825    14040.195    11828.826    7383.4779    9305.8609    167.39238   -134.39247   -133.44779   -6878.4225 
19186000    170.27085    -9493.138   -8843.9879    -9493.138            0    7989.7025    24.899711    24.805134    22.814096    14090.913    7259.1864    7783.8127    8926.1085    314.06968    277.09017    1190.3022    -7202.092 
19187000    164.16758   -9524.3694   -8898.4878   -9524.3694            0    9269.3419    24.766566    24.827784    22.808262    14024.776     8959.363    9481.5928    9367.0698   -152.51839   -672.23367    1030.1103   -7002.5646 
19188000    174.69727   -9509.8078   -8843.7821   -9509.8078            0    8409.6996    24.837241    24.747084    22.897992    14074.235    8251.9111    8459.8464    8517.3414    1.7413637   -854.53232    1255.9542   -7117.6217 
19189000    162.77575   -9529.1628   -8908.5874   -9529.1628            0    7208.1375    24.664423    24.822793    23.080269    14130.661    8451.4117    7132.3301    6040.6708   -214.57906   -204.52192     533.6195   -7423.1258 
19190000    170.22066    -9486.351   -8837.3922    -9486.351            0    9202.4505    24.784573    24.753839    22.893341    14045.369    8983.1248    10250.532    8373.6946    186.34355   -181.47239    48.077289   -6952.3871 
19191000    169.87557   -9512.0088   -8864.3657   -9512.0088            0    8180.4835    24.827399    24.841909     22.80224    14063.509    6924.8794    9165.1953    8451.3759    221.21086   -772.63855    121.41352   -7186.5334 
19192000    168.71688   -9496.5406   -8853.3149   -9496.5406            0    8306.3769    24.835114    24.854901    22.833534    14094.554    8691.8531    8229.1203    7998.1573     363.1833    341.61219    53.011747   -7145.9008 
19193000    168.25471   -9518.8398   -8877.3761   -9518.8398            0    7771.4148    24.856413    24.832504     22.84066    14098.328    7295.4598     8170.468    7848.3168    378.09945   -369.24777   -88.733478   -7279.4981 
19194000    165.78878   -9501.7762   -8869.7138   -9501.7762            0     7972.862    24.790943     24.85184      22.8819    14097.551    8839.7455    7658.2121    7420.6285    37.111271   -175.79161   -682.27249   -7230.5067 
19195000    170.14014   -9515.6307   -8866.9789   -9515.6307            0    8091.4667    24.773704    24.772128    22.943386    14080.295    8445.5919    7701.2169    8127.5913   -561.90244   -387.75199   -712.95836   -7205.4232 
19196000    171.92237   -9510.9483   -8855.5018   -9510.9483            0    8423.6612    24.801343    24.797058    22.840291    14046.787    8790.1787    8551.3548    7929.4502    734.61896    981.36193    -381.4286   -7129.8476 
19197000    167.87496   -9509.6179    -8869.602   -9509.6179            0    7993.9242    24.794226    24.912368    22.809529    14089.056    7552.9176     8133.244    8295.6109    668.41886   -244.55228    372.37126    -7227.055 
19198000    173.21108    -9520.601   -8860.2413    -9520.601            0    7790.7268    24.749265    24.783117    22.995756    14104.767    7605.3226    8084.6292    7682.2286   -826.99707    1012.1983    571.91989   -7257.6611 
19199000    169.98273   -9495.5857    -8847.534   -9495.5857            0    8062.4467    24.727519    24.857405    22.943853    14102.713    9150.5687    7770.2033    7266.5682   -71.306171   -59.519749   -579.31967   -7189.3015 
19200000    169.74428   -9512.1848   -8865.0421   -9512.1848            0     7839.304    24.823509    24.857732    22.811141    14075.755    7596.2986    7851.0115    8070.6018   -644.59251   -457.56978    80.562159   -7255.7863 
19201000    167.93609   -9476.7977   -8836.5487   -9476.7977            0    9063.6008    24.862625    24.933071    22.642181    14035.925    8192.2603    8827.2097    10171.332   -665.06337   -166.50492     608.6519   -6981.2336 
19202000     166.3876   -9508.7429   -8874.3975   -9508.7429            0    8802.1642    24.805858    24.794808     22.83531    14045.005    9506.6374     8350.161    8549.6941   -662.46511    598.65745   -1435.2648   -7071.4327 
19203000    161.63969   -9511.0411   -8894.7969   -9511.0411            0    8700.4518    24.676951    24.913962    22.851608    14049.183    9341.8473    8136.3516    8623.1566   -491.04962     683.6274    76.935703   -7112.1359 
19204000    172.61023   -9515.8055   -8857.7366   -9515.8055            0    7917.3135    24.896661    24.795964    22.833915    14096.214    8135.0515    7253.0299     8363.859   -557.47492   -1024.8576   -274.04519   -7230.1047 
19205000     166.6178     -9521.86    -8886.637     -9521.86            0    7855.7538    24.782728    24.910687     22.79755    14074.176    7406.7041    7439.5999    8720.9575   -395.99317   -707.32542   -517.49565   -7274.1852 
19206000    161.88195   -9537.6765   -8920.5087   -9537.6765            0    8225.3733    24.843462    24.791738    22.801155    14043.519     8360.765    8213.9473    8101.4075   -44.608646    522.81737    370.14498   -7235.8674 
19207000    168.42999   -9501.2346   -8859.1026   -9501.2346            0    9105.6305    24.667561    24.839038     22.89983     14031.15    9294.0233    9418.4185    8604.4496    -7.571516   -740.52789    404.20089   -6995.8181 
19208000    169.96475   -9518.1048   -8870.1217   -9518.1048            0    8075.2784    24.806089    24.777231    22.929091     14092.82    6956.1708    9472.4327    7797.2316    472.71524   -106.68373    443.92289   -7210.4152 
19209000    169.35626   -9491.3593   -8845.6961   -9491.3593            0    8549.5284    24.857133    24.857191     22.80442    14090.361    7890.6557    8493.7221    9264.2075    43.258608    158.81198    420.04528   -7088.8238 
19210000    173.72454   -9521.6361   -8859.3189   -9521.6361            0     8497.089    24.766709    24.926915    22.781001    14064.025    9387.5463    7841.2292    8262.4916   -316.47693   -195.42919    801.58787   -7116.4862 
19211000    169.65476   -9494.1823    -8847.381   -9494.1823            0    9058.9932    24.848663    24.786498    22.818419    14054.122    8648.4598    9809.2201    8719.2997   -395.49823    523.60654   -9.0934899   -6990.6048 
19212000    167.48062   -9515.2671   -8876.7546   -9515.2671            0    7592.9434    24.773681    24.899177    22.867275    14105.547     7929.997    6437.1723     8411.661   -647.21099   -130.48438    178.51213   -7314.7727 
19213000    163.49462   -9506.4871    -8883.171   -9506.4871            0    8127.7309    24.850095    24.786698    22.888558    14098.249    6906.4661    8882.9051    8593.8216    135.99372    874.28538    105.52208   -7212.0405 
19214000    173.32417   -9524.5069   -8863.7161   -9524.5069            0    7708.2817    24.778618    24.803942    22.940496    14099.398    8095.9467    7536.3371    7492.5614    75.653934   -630.91735    819.41461   -7278.6986 
19215000    171.17351    -9530.749   -8878.1575    -9530.749            0    8118.3712    24.802709    24.815766     22.85743    14068.707    6840.4747    8720.4036    8794.2354   -810.75367   -469.96749    838.65066   -7212.4491 
19216000     159.2247   -9493.7092    -8886.672   -9493.7092            0    9034.7641    24.862643    24.806425     22.77135    14044.304    9020.9326    8365.8196      9717.54    118.19272    110.71939    -1188.865   -7036.1556 
19217000    167.35058   -9489.6093   -8851.5925   -9489.6093            0    8441.8247    24.802405    24.912091    22.768706    14068.323    7985.8555     7907.628    9431.9905   -250.22758    -904.4029    412.82046    -7119.566 
19218000    166.21736   -9500.7086   -8867.0123   -9500.7086            0    7949.8385    24.846877     24.79165    22.840424    14069.589    7199.6252    8677.8305    7972.0597    370.65025   -684.71566    179.72151   -7235.7808 
19219000    158.03188   -9497.5426    -8895.053   -9497.5426            0    8065.7879    24.739848    24.830719    22.939762    14092.085    8099.3986    8186.9418    7911.0235   -969.62674   -173.45914     223.8148   -7237.3835 
19220000     172.6493   -9528.2661   -8870.0483   -9528.2661            0    7842.2238    24.703241    24.724927    23.078773    14096.188    8269.6503    9386.3982    5870.6228    -274.8554    676.75789    87.773851   -7257.8561 
19221000     165.0338   -9500.3085   -8871.1244   -9500.3085            0    8344.2537    24.779186    24.878816    22.822279    14069.406    8611.7656     7748.463    8672.5327    -348.8552   -379.95653    456.29324    -7158.985 
19222000    163.80215   -9510.2254   -8885.7369   -9510.2254            0    8250.6742    24.869623    24.876129    22.737206    14066.598    7711.8365    8324.3841     8715.802   -937.73558   -1199.1919   -512.96672   -7193.1366 
19223000    165.96865   -9499.3766   -8866.6284   -9499.3766            0    8632.4409    24.866295    24.854769    22.738293    14053.312    7381.5016    8316.1023    10199.719    233.76271    373.19727   -252.34624   -7097.3826 
19224000    175.11256   -9488.5151   -8820.9062   -9488.5151            0     9376.113    24.774811    24.861373    22.799717    14043.162    9443.3017    8662.3713    10022.666    906.88845   -1053.8558    265.33147   -6900.6303 
19225000    162.66618    -9504.843   -8884.6854    -9504.843            0    7962.4541    24.792879    24.820177    22.913352    14100.044    8130.2622     8402.197     7354.903   -59.191315    373.68683    1310.7701   -7247.3287 
19226000    169.29654   -9517.2144   -8871.7788   -9517.2144            0    7188.4363    24.891417    24.799259    22.876259    14121.256    6325.7842    7902.4128    7337.1119    -642.8151   -849.90929    994.26498   -7391.3632 
19227000    169.72467   -9497.1959    -8850.128   -9497.1959            0    8746.0825    24.716895    24.944173    22.814737    14066.255    9435.1075    7786.3791    9016.7608   -452.02064     338.2757    144.60373   -7055.9401 
19228000    163.48841   -9469.3291   -8846.0367   -9469.3291            0    9537.6328    24.832922    24.794415    22.811281    14045.311    8901.8116    9957.7013    9753.3855    382.98466   -832.80519   -167.18364   -6892.3819 
19229000    166.21666   -9526.6862   -8892.9925   -9526.6862            0    7663.1275    24.772999    24.831849    22.940772     14112.23    7782.8475    7875.5872    7330.9479   -406.26352   -703.32979     36.57258   -7315.8258 
19230000    169.64652   -9511.2921   -8864.5222   -9511.2921            0    7606.1266     24.79933    24.791742    22.966275    14120.093    6858.4575    9620.4879    6339.4344    88.742583   -152.22675   -737.71219   -7298.2148 
19231000    173.70075     -9508.94   -8846.7135     -9508.94            0    7886.9223    24.797313    24.802339    22.922051    14097.781    7832.9205    7913.6782    7914.1682    386.79561   -869.15705   -293.99668   -7225.1491 
19232000    173.32329   -9513.9871   -8853.1997   -9513.9871            0    7941.8965    24.822116    24.900491    22.791861    14087.259    8179.1407    7785.1503    7861.3986    11.764043    -229.2144   -705.44169   -7221.5512 
19233000    170.08393   -9490.9758   -8842.5383   -9490.9758            0    8482.1529    24.844453    24.858134    22.777149    14066.866    7977.2797    8484.3686    8984.8104    275.35021   -60.006279   -593.41682   -7102.4178 
19234000     173.8519   -9513.4779   -8850.6752   -9513.4779            0    9133.1408    24.678511    24.855909    22.872549    14030.178    9842.2594    8504.2731    9052.8898   -345.67816   -233.61355    -106.0981   -6981.8907 
19235000    171.12957   -9541.2605   -8888.8365   -9541.2605            0     8105.989    24.771463    24.721516    22.978739    14071.907    7683.0429    9577.8467    7057.0774    422.11045    256.77642    233.08999   -7225.2904 
19236000     167.8511   -9493.3324   -8853.4075   -9493.3324            0    8853.5871    24.689161    24.850979    22.911404    14057.288    9592.2407     8714.175    8254.3457   -94.900562    -212.1685   -150.52797   -7038.3237 
19237000    166.81967   -9515.1205   -8879.1279   -9515.1205            0    8344.7057    24.838595    24.772573    22.855148    14063.136    7958.7937    8251.7868    8823.5367   -108.22395    522.03625    661.99188   -7167.6587 
19238000    177.38267   -9500.3842   -8824.1206   -9500.3842            0    8633.3161    24.797148    24.913895    22.770324    14067.359    8368.6519    7754.6402    9776.6563    8.1685158    198.92105    636.30335   -7052.9267 
19239000    171.44595   -9515.9151   -8862.2849   -9515.9151            0    7652.3746    24.919424    24.823485    22.783651    14093.669    6988.0608    8075.4527    7893.6104   -283.46554   -239.97507   -236.53305   -7289.4028 
19240000    171.71215   -9498.1092   -8843.4642   -9498.1092            0    8365.8907    24.784776      24.8618    22.848569    14079.154    8514.8185     8147.915    8434.9384   -25.858885   -353.40487    452.98243   -7125.6957 
19241000    167.97425   -9495.5886   -8855.1941   -9495.5886            0    8170.8483     24.76585    24.817839    22.922568    14089.009    8599.2247    7729.4779    8183.8422    65.407902   -89.465711    12.741164   -7176.2993 
19242000    177.07644   -9525.0311    -8849.935   -9525.0311            0    7949.2466    24.801204    24.750658     22.92818    14074.374    7549.7877    9245.9908    7051.9612    226.41262   -339.08142   -547.41258   -7218.2701 
19243000    167.84072   -9515.5792   -8875.6938   -9515.5792            0    8003.5064    24.789461    24.868862    22.833836    14076.733    8631.2974    7726.2418      7652.98   -266.14861     -1088.23    402.45891   -7232.6163 
19244000    166.59852   -9518.3097   -8883.1602   -9518.3097            0    8250.2081    24.922077    24.822784     22.72233    14056.836    7680.6849    9173.1369    7896.8026   -37.482266     153.4781   -1472.9216   -7191.8301 
19245000    169.79493   -9505.6373   -8858.3016   -9505.6373            0    8936.5556    24.723987    24.878333    22.821899    14037.558    9379.1174    8349.8026    9080.7469    117.29307    -275.2266    391.23528   -7028.7797 
19246000    166.00106   -9515.6261   -8882.7544   -9515.6261            0     8215.463    24.796612    24.719741    22.958248    14072.621    7864.1781    9407.4052    7374.8056    292.17255   -98.838649   -852.01814   -7196.6559 
19247000    173.28324   -9490.6682   -8830.0335   -9490.6682            0    8635.4261    24.746902    24.815444    22.930339    14081.645    8938.3966    8612.7587    8355.1232    -259.7722    804.12252   -294.39676   -7056.6076 
19248000    160.71475    -9508.513    -8895.795    -9508.513            0    8405.6341    24.865324    24.729535    22.900325    14081.591    7989.4689    9602.1255    7625.3077    359.34953   -271.97217    45.481754   -7169.5673 
19249000    161.89284   -9522.8816   -8905.6723   -9522.8816            0    8344.6479    24.759221    24.893497    22.802418    14054.124    8421.2821    8189.5119    8423.1498    64.110307    89.865751   -390.88653   -7195.3116 
19250000    172.64336   -9505.7543    -8847.559   -9505.7543            0    8805.0247    24.910251    24.788615    22.761916    14055.269    8242.0734    9188.1377     8984.863   -142.48532    442.89976    178.82682   -7042.6902 
Loop time of 527.704 on 64 procs for 250000 steps with 1920 atoms

Performance: 81.864 ns/day, 0.293 hours/ns, 473.751 timesteps/s
376.1% CPU use with 16 MPI tasks x 4 OpenMP threads

MPI task timing breakdown:
Section |  min time  |  avg time  |  max time  |%varavg| %total
---------------------------------------------------------------
Pair    | 75.248     | 77.13      | 79.452     |  12.9 | 14.62
Bond    | 1.5576     | 1.839      | 2.5437     |  21.0 |  0.35
Kspace  | 255.97     | 258.96     | 262.1      |  11.4 | 49.07
Neigh   | 1.817      | 1.884      | 1.9324     |   2.8 |  0.36
Comm    | 67.106     | 71.427     | 77.738     |  35.8 | 13.54
Output  | 0.57046    | 0.57076    | 0.5722     |   0.1 |  0.11
Modify  | 80.842     | 89.986     | 93.903     |  37.3 | 17.05
Other   |            | 25.91      |            |       |  4.91

Nlocal:        120.000 ave         127 max         115 min
Histogram: 2 0 2 3 3 4 1 0 0 1
Nghost:        4157.88 ave        4211 max        4104 min
Histogram: 1 0 5 3 0 0 3 0 2 2
Neighs:        43249.9 ave       45320 max       41254 min
Histogram: 1 1 3 0 2 4 3 0 1 1

Total # of neighbors = 691999
Ave neighs/atom = 360.41615
Ave special neighs/atom = 2.0000000
Neighbor list builds = 3813
Dangerous builds = 0

unfix		3
unfix		2
unfix		1

write_data	data.final.${pid}
write_data	data.final.0
System init for write_data ...
PPPM initialization ...
  extracting TIP4P info from pair style
  using 12-bit tables for long-range coulomb (../kspace.cpp:340)
  G vector (1/distance) = 0.37484881
  grid = 30 30 30
  stencil order = 5
  estimated absolute RMS force accuracy = 0.0032284166
  estimated relative force accuracy = 9.7222808e-06
  using double precision FFTW3
  3d grid and FFT values/proc = 7920 1800
Last active /omp style is kspace_style pppm/tip4p/omp
WARNING: Not all mixed pair coeffs generated from mixing. Use write_data with 'pair ij' option to store all pair coeffs. (../write_data.cpp:312)

write_restart   restart.lmp.${pid}
write_restart   restart.lmp.0
System init for write_restart ...
PPPM initialization ...
  extracting TIP4P info from pair style
  using 12-bit tables for long-range coulomb (../kspace.cpp:340)
  G vector (1/distance) = 0.37484881
  grid = 30 30 30
  stencil order = 5
  estimated absolute RMS force accuracy = 0.0032284166
  estimated relative force accuracy = 9.7222808e-06
  using double precision FFTW3
  3d grid and FFT values/proc = 7920 1800
Last active /omp style is kspace_style pppm/tip4p/omp
Total wall time: 0:08:47
