LAMMPS data file via MDAnalysis

        1728  atoms
        1152  bonds
         576  angles
           0  dihedrals
           0  impropers

           2  atom types
           1  bond types
           1  angle types
           0  dihedral types
           0  improper types

0.000000 18.047001 xlo xhi
0.000000 45.801891 ylo yhi
0.000000 22.042999 zlo zhi


Masses

1 1.007940
2 15.999400

Atoms

1 0 2 -1.179400 1.245759 2.293128 1.959207
2 0 1 0.589700 0.422387 2.004598 2.338651
3 0 1 0.589700 1.271324 3.235377 2.124370
4 0 2 -1.179400 3.127677 6.483586 20.685801
5 0 1 0.589700 3.930325 6.197677 20.262520
6 0 1 0.589700 2.964015 7.355639 20.329683
7 0 2 -1.179400 7.662868 9.507577 16.863735
8 0 1 0.589700 7.755786 9.527167 17.809793
9 0 1 0.589700 6.797967 9.870205 16.701685
10 0 2 -1.179400 3.512201 6.594723 6.287763
11 0 1 0.589700 2.676795 6.183103 6.090332
12 0 1 0.589700 3.437000 7.479668 5.933361
13 0 2 -1.179400 0.222072 10.290941 8.800208
14 0 1 0.589700 0.267042 11.146805 9.223512
15 0 1 0.589700 0.976114 9.814828 9.134576
16 0 2 -1.179400 3.093658 14.805681 6.237554
17 0 1 0.589700 3.055287 14.777188 7.187169
18 0 1 0.589700 3.791325 14.197406 6.009048
19 0 2 -1.179400 1.109138 2.050085 21.273243
20 0 1 0.589700 1.177201 2.147669 0.186662
21 0 1 0.589700 1.222690 2.937007 20.934263
22 0 2 -1.179400 9.742927 13.224780 17.079575
23 0 1 0.589700 10.492778 13.753332 16.822445
24 0 1 0.589700 9.785676 13.196818 18.029016
25 0 2 -1.179400 0.677726 20.730234 20.288597
26 0 1 0.589700 0.713879 20.912443 19.355877
27 0 1 0.589700 0.341960 19.836634 20.346325
28 0 2 -1.179400 5.387630 2.487476 1.585128
29 0 1 0.589700 4.842227 1.891174 2.090808
30 0 1 0.589700 5.351297 3.315308 2.061010
31 0 2 -1.179400 7.222611 22.310419 6.556238
32 0 1 0.589700 8.001796 22.206215 6.021234
33 0 1 0.589700 6.554181 21.804647 6.103646
34 0 2 -1.179400 0.595487 2.308497 9.404815
35 0 1 0.589700 0.666575 3.218420 9.691110
36 0 1 0.589700 1.476954 1.959623 9.488433
37 0 2 -1.179400 2.499459 22.310049 8.403611
38 0 1 0.589700 1.704090 22.025229 8.841102
39 0 1 0.589700 3.194586 22.111471 9.021634
40 0 2 -1.179400 7.967347 1.195594 20.003014
41 0 1 0.589700 7.180235 1.634582 20.310198
42 0 1 0.589700 7.654362 46.186218 19.607258
43 0 2 -1.179400 0.674121 10.664864 1.648214
44 0 1 0.589700 1.475370 10.312597 2.021858
45 0 1 0.589700 0.556304 11.509381 2.079920
46 0 2 -1.179400 14.430637 20.841383 19.492718
47 0 1 0.589700 15.127175 21.248112 19.998335
48 0 1 0.589700 13.641753 21.297642 19.768967
49 0 2 -1.179400 7.409104 14.229675 15.995386
50 0 1 0.589700 7.415611 15.099424 16.392282
51 0 1 0.589700 8.165752 13.787617 16.367832
52 0 2 -1.179400 0.183237 13.248965 17.340054
53 0 1 0.589700 0.333132 13.378492 18.270115
54 0 1 0.589700 17.510187 13.827987 17.134193
55 0 2 -1.179400 13.865142 13.570036 2.660869
56 0 1 0.589700 13.901268 13.390532 3.594110
57 0 1 0.589700 14.101764 12.739753 2.251248
58 0 2 -1.179400 9.616674 12.876956 9.591442
59 0 1 0.589700 8.768421 13.236013 9.352015
60 0 1 0.589700 9.647212 12.950622 10.538940
61 0 2 -1.179400 11.531886 21.846897 1.327471
62 0 1 0.589700 12.367308 21.473021 1.588631
63 0 1 0.589700 11.553354 22.744001 1.658245
64 0 2 -1.179400 7.660913 9.082586 1.895226
65 0 1 0.589700 7.773915 8.156212 1.684437
66 0 1 0.589700 7.671899 9.112774 2.845501
67 0 2 -1.179400 9.836417 13.102283 12.442883
68 0 1 0.589700 10.003240 12.221124 12.774587
69 0 1 0.589700 10.576860 13.620173 12.744787
70 0 2 -1.179400 5.831022 2.263826 16.391958
71 0 1 0.589700 5.694601 2.359369 15.455783
72 0 1 0.589700 5.099563 1.729155 16.686810
73 0 2 -1.179400 14.114412 18.381996 20.884539
74 0 1 0.589700 14.342261 19.191471 20.431187
75 0 1 0.589700 13.293250 18.108376 20.489708
76 0 2 -1.179400 10.216490 2.849282 13.308337
77 0 1 0.589700 10.323156 3.641654 12.785745
78 0 1 0.589700 10.374073 3.135164 14.201959
79 0 2 -1.179400 2.837943 21.248434 0.148546
80 0 1 0.589700 2.135849 21.037571 21.572529
81 0 1 0.589700 3.295591 21.980322 21.771070
82 0 2 -1.179400 5.378534 2.459624 5.960360
83 0 1 0.589700 4.664231 1.831745 6.029736
84 0 1 0.589700 6.124721 1.934530 5.686152
85 0 2 -1.179400 7.135864 22.152380 9.270946
86 0 1 0.589700 7.151164 22.301088 8.331804
87 0 1 0.589700 7.988255 21.777269 9.467566
88 0 2 -1.179400 4.546925 21.190281 12.473509
89 0 1 0.589700 4.639405 21.254017 11.529326
90 0 1 0.589700 4.790716 20.288176 12.677359
91 0 2 -1.179400 12.520103 9.364050 2.163963
92 0 1 0.589700 12.370722 9.220439 3.092065
93 0 1 0.589700 11.774198 9.883749 1.879050
94 0 2 -1.179400 0.200195 21.301229 9.542828
95 0 1 0.589700 17.488106 21.771494 9.232038
96 0 1 0.589700 0.052886 21.194180 10.476116
97 0 2 -1.179400 16.588568 9.270041 17.001730
98 0 1 0.589700 16.638525 8.369617 16.683155
99 0 1 0.589700 15.731243 9.576166 16.724962
100 0 2 -1.179400 4.823626 18.367496 8.858987
101 0 1 0.589700 5.509385 17.722010 9.009484
102 0 1 0.589700 4.950285 18.646929 7.958459
103 0 2 -1.179400 10.266836 10.488544 13.297565
104 0 1 0.589700 9.552501 9.902081 13.064338
105 0 1 0.589700 10.273284 10.489065 14.248352
106 0 2 -1.179400 12.279208 1.125842 2.328942
107 0 1 0.589700 12.250832 1.248402 3.271496
108 0 1 0.589700 11.433722 1.437214 2.023063
109 0 2 -1.179400 14.561423 5.089295 2.038386
110 0 1 0.589700 13.956674 5.613844 1.521844
111 0 1 0.589700 15.354085 5.616464 2.077482
112 0 2 -1.179400 1.117713 5.212976 9.745438
113 0 1 0.589700 0.919001 5.314122 10.669807
114 0 1 0.589700 1.941070 5.676662 9.627156
115 0 2 -1.179400 9.901292 13.100099 19.781733
116 0 1 0.589700 10.496872 13.744420 20.155466
117 0 1 0.589700 9.034447 13.439157 19.979767
118 0 2 -1.179400 14.257803 21.416693 2.057772
119 0 1 0.589700 14.164987 21.597805 2.986782
120 0 1 0.589700 14.879372 22.071379 1.749945
121 0 2 -1.179400 3.243422 9.438728 2.591863
122 0 1 0.589700 3.392403 9.452738 3.530828
123 0 1 0.589700 2.948596 8.547282 2.410374
124 0 2 -1.179400 4.978630 13.152799 16.833635
125 0 1 0.589700 5.047741 13.321795 17.766953
126 0 1 0.589700 5.759658 13.550271 16.461929
127 0 2 -1.179400 9.750257 20.918901 19.701248
128 0 1 0.589700 9.058781 21.477627 20.044579
129 0 1 0.589700 10.555220 21.364111 19.947247
130 0 2 -1.179400 16.014734 22.935637 8.693061
131 0 1 0.589700 15.985445 23.840214 9.002469
132 0 1 0.589700 15.167581 22.571968 8.929487
133 0 2 -1.179400 1.293083 2.438978 16.108660
134 0 1 0.589700 1.049381 3.252479 16.546387
135 0 1 0.589700 0.547467 1.859552 16.238373
136 0 2 -1.179400 5.392656 5.010595 2.784018
137 0 1 0.589700 5.423297 5.124332 3.727596
138 0 1 0.589700 4.695134 5.593442 2.497127
139 0 2 -1.179400 7.719779 9.209000 19.558468
140 0 1 0.589700 7.029337 9.607403 20.078779
141 0 1 0.589700 7.796429 8.318160 19.897657
142 0 2 -1.179400 5.529033 5.093466 19.883799
143 0 1 0.589700 5.559871 4.197857 20.217817
144 0 1 0.589700 5.575352 4.994547 18.939213
145 0 2 -1.179400 8.220559 6.770270 5.596714
146 0 1 0.589700 7.419408 6.260225 5.522428
147 0 1 0.589700 8.324511 6.917336 6.530467
148 0 2 -1.179400 15.920305 14.341570 16.492426
149 0 1 0.589700 15.841812 15.242987 16.802340
150 0 1 0.589700 15.932358 14.418007 15.544730
151 0 2 -1.179400 14.522637 10.654096 20.963568
152 0 1 0.589700 14.598100 10.743875 21.907173
153 0 1 0.589700 14.489181 11.554049 20.641548
154 0 2 -1.179400 9.685365 13.142682 2.165742
155 0 1 0.589700 10.482862 13.615160 1.947148
156 0 1 0.589700 9.761756 12.309444 1.704126
157 0 2 -1.179400 7.050740 16.871370 19.790415
158 0 1 0.589700 7.744081 17.433657 20.124104
159 0 1 0.589700 7.197350 16.844423 18.851357
160 0 2 -1.179400 7.944104 6.649237 20.568510
161 0 1 0.589700 7.397410 6.073413 20.041264
162 0 1 0.589700 7.674337 6.476746 21.464005
163 0 2 -1.179400 10.383215 5.427968 4.856537
164 0 1 0.589700 11.113294 5.865429 5.283399
165 0 1 0.589700 9.617188 5.917789 5.140291
166 0 2 -1.179400 3.338833 44.954948 8.682636
167 0 1 0.589700 2.534863 44.451977 8.592822
168 0 1 0.589700 3.702592 44.671825 9.514874
169 0 2 -1.179400 11.297456 22.407763 5.435532
170 0 1 0.589700 12.163269 22.246908 5.076488
171 0 1 0.589700 11.136621 23.336035 5.268608
172 0 2 -1.179400 5.166732 12.785932 2.402864
173 0 1 0.589700 4.438697 13.147938 1.908176
174 0 1 0.589700 5.247284 11.885039 2.091956
175 0 2 -1.179400 9.797401 3.128823 8.386780
176 0 1 0.589700 9.002546 2.662995 8.627924
177 0 1 0.589700 9.829043 3.069638 7.438317
178 0 2 -1.179400 16.406893 14.479310 2.021158
179 0 1 0.589700 15.595855 14.065193 2.298760
180 0 1 0.589700 16.265574 15.414210 2.168043
181 0 2 -1.179400 1.220444 5.330566 5.481414
182 0 1 0.589700 0.424324 5.798545 5.714119
183 0 1 0.589700 1.086833 4.443082 5.811513
184 0 2 -1.179400 7.094974 16.674973 9.505177
185 0 1 0.589700 7.902165 17.140753 9.309140
186 0 1 0.589700 7.287541 15.759136 9.306975
187 0 2 -1.179400 4.995828 20.718386 1.917168
188 0 1 0.589700 5.678583 21.341904 1.684208
189 0 1 0.589700 4.305728 20.875216 1.281906
190 0 2 -1.179400 12.440220 6.715405 1.244530
191 0 1 0.589700 12.420475 6.836014 0.301504
192 0 1 0.589700 12.470100 7.604086 1.596416
193 0 2 -1.179400 16.468887 9.376804 12.653493
194 0 1 0.589700 16.403845 8.480807 12.981523
195 0 1 0.589700 16.393345 9.288581 11.709747
196 0 2 -1.179400 16.294767 6.897895 13.342066
197 0 1 0.589700 17.063284 6.443814 13.010423
198 0 1 0.589700 15.560220 6.420682 12.968191
199 0 2 -1.179400 5.094463 12.987046 5.298545
200 0 1 0.589700 4.965781 12.781952 4.378778
201 0 1 0.589700 5.971342 13.354620 5.341420
202 0 2 -1.179400 16.041452 17.091648 17.159681
203 0 1 0.589700 16.760080 17.525991 16.710825
204 0 1 0.589700 15.278190 17.621387 16.948553
205 0 2 -1.179400 16.597519 14.632353 6.008183
206 0 1 0.589700 16.757643 15.483457 5.603716
207 0 1 0.589700 16.406208 14.836698 6.917160
208 0 2 -1.179400 12.862418 1.770335 17.203398
209 0 1 0.589700 12.050890 2.127895 16.857946
210 0 1 0.589700 12.704675 1.678833 18.136618
211 0 2 -1.179400 11.758881 14.568852 8.576842
212 0 1 0.589700 11.072384 14.013629 8.935424
213 0 1 0.589700 11.546233 15.449368 8.883035
214 0 2 -1.179400 14.680672 2.382060 1.636178
215 0 1 0.589700 13.813204 2.102685 1.909228
216 0 1 0.589700 14.646287 3.338225 1.662241
217 0 2 -1.179400 5.362962 10.401011 1.202366
218 0 1 0.589700 6.176636 9.914932 1.296445
219 0 1 0.589700 4.701740 9.825253 1.576168
220 0 2 -1.179400 14.923190 4.896610 19.766016
221 0 1 0.589700 14.123555 5.211674 20.174294
222 0 1 0.589700 15.620334 5.344712 20.234961
223 0 2 -1.179400 3.160386 6.259769 16.531551
224 0 1 0.589700 3.106174 7.182018 16.780128
225 0 1 0.589700 3.221828 6.273506 15.582827
226 0 2 -1.179400 5.349920 18.108707 1.071315
227 0 1 0.589700 4.634085 17.666672 1.517224
228 0 1 0.589700 5.369683 18.985415 1.452347
229 0 2 -1.179400 11.985699 9.287558 4.710560
230 0 1 0.589700 12.172978 8.465860 5.160782
231 0 1 0.589700 12.747464 9.835364 4.876862
232 0 2 -1.179400 2.823468 14.665415 13.352765
233 0 1 0.589700 3.598320 14.164023 13.116964
234 0 1 0.589700 2.879215 14.760715 14.297208
235 0 2 -1.179400 17.241543 0.740183 16.438185
236 0 1 0.589700 16.549904 1.362718 16.230177
237 0 1 0.589700 17.366089 46.042061 15.637050
238 0 2 -1.179400 3.132679 17.254229 5.521381
239 0 1 0.589700 3.114615 16.338259 5.796692
240 0 1 0.589700 3.995076 17.565321 5.776028
241 0 2 -1.179400 13.935014 13.264281 9.561029
242 0 1 0.589700 13.941008 13.376795 10.505230
243 0 1 0.589700 13.259281 13.862985 9.254862
244 0 2 -1.179400 10.006756 10.642212 15.984058
245 0 1 0.589700 9.785018 11.496969 16.349998
246 0 1 0.589700 9.237875 10.102360 16.143124
247 0 2 -1.179400 5.060996 21.237080 4.768434
248 0 1 0.589700 4.268446 21.721539 4.979000
249 0 1 0.589700 4.928746 20.937120 3.875258
250 0 2 -1.179400 15.919086 23.020267 15.798614
251 0 1 0.589700 16.037298 22.801983 14.880437
252 0 1 0.589700 15.835862 23.973663 15.811093
253 0 2 -1.179400 3.235533 6.776799 1.739625
254 0 1 0.589700 3.209294 6.659438 0.796353
255 0 1 0.589700 2.496847 6.269460 2.062752
256 0 2 -1.179400 2.396251 9.216485 9.957842
257 0 1 0.589700 2.722546 8.345179 9.737775
258 0 1 0.589700 3.052641 9.816914 9.615113
259 0 2 -1.179400 0.745583 10.559320 13.673996
260 0 1 0.589700 17.995386 10.179131 13.339005
261 0 1 0.589700 0.653445 10.517178 14.619406
262 0 2 -1.179400 16.900024 6.428148 20.806665
263 0 1 0.589700 17.627338 5.947707 20.422857
264 0 1 0.589700 16.853994 7.240712 20.306284
265 0 2 -1.179400 7.061732 22.341627 1.361172
266 0 1 0.589700 7.417710 23.226032 1.435221
267 0 1 0.589700 7.702329 21.783958 1.793389
268 0 2 -1.179400 7.527682 16.889585 12.280579
269 0 1 0.589700 7.270947 16.715141 11.381635
270 0 1 0.589700 7.546969 16.027081 12.692372
271 0 2 -1.179400 12.531534 1.498987 19.782106
272 0 1 0.589700 13.389148 1.728894 20.123308
273 0 1 0.589700 11.927709 2.056043 20.265059
274 0 2 -1.179400 5.653456 2.878903 8.791247
275 0 1 0.589700 5.802772 2.836359 7.853184
276 0 1 0.589700 6.304216 2.289757 9.162818
277 0 2 -1.179400 5.626489 5.047133 16.965853
278 0 1 0.589700 5.565901 4.138152 16.674242
279 0 1 0.589700 4.747847 5.395373 16.854506
280 0 2 -1.179400 11.915230 8.890969 17.112310
281 0 1 0.589700 11.981750 8.975746 18.057045
282 0 1 0.589700 11.218566 9.494172 16.868031
283 0 2 -1.179400 9.792852 10.412119 8.314969
284 0 1 0.589700 9.934170 11.305777 8.624791
285 0 1 0.589700 10.388719 9.877936 8.832093
286 0 2 -1.179400 9.957131 10.597535 20.487301
287 0 1 0.589700 9.115156 10.241210 20.223003
288 0 1 0.589700 9.880427 11.539366 20.336214
289 0 2 -1.179400 3.592892 0.806117 17.037140
290 0 1 0.589700 3.511248 0.653179 17.972178
291 0 1 0.589700 2.824823 1.322371 16.810999
292 0 2 -1.179400 3.116410 17.317524 2.663339
293 0 1 0.589700 3.011471 16.402384 2.405258
294 0 1 0.589700 3.192612 17.288933 3.610665
295 0 2 -1.179400 7.541352 14.396814 13.307108
296 0 1 0.589700 7.449474 14.240898 14.240708
297 0 1 0.589700 8.398780 14.045096 13.090739
298 0 2 -1.179400 10.211454 5.340443 2.175653
299 0 1 0.589700 10.973242 5.874039 1.968810
300 0 1 0.589700 10.204317 5.293349 3.125283
301 0 2 -1.179400 9.291869 17.880455 6.196870
302 0 1 0.589700 9.328979 18.767159 5.840778
303 0 1 0.589700 10.044328 17.435757 5.819075
304 0 2 -1.179400 14.391622 18.725540 1.552727
305 0 1 0.589700 14.511477 18.638378 0.613483
306 0 1 0.589700 14.581763 19.645418 1.734073
307 0 2 -1.179400 7.085277 16.588186 5.354318
308 0 1 0.589700 7.152712 16.732523 4.416802
309 0 1 0.589700 7.902236 16.926317 5.706214
310 0 2 -1.179400 14.276176 18.839537 13.309134
311 0 1 0.589700 14.105451 19.718981 12.974945
312 0 1 0.589700 13.517318 18.327541 13.045463
313 0 2 -1.179400 12.231368 6.600915 8.384598
314 0 1 0.589700 11.391795 6.332735 8.742680
315 0 1 0.589700 12.859316 6.004588 8.783132
316 0 2 -1.179400 7.636572 14.336740 20.604136
317 0 1 0.589700 7.387179 14.308983 21.521242
318 0 1 0.589700 7.590339 15.263783 20.372105
319 0 2 -1.179400 9.186148 18.147640 1.346141
320 0 1 0.589700 9.854260 18.079407 2.019263
321 0 1 0.589700 8.468208 17.610332 1.668228
322 0 2 -1.179400 6.970686 22.364820 15.961359
323 0 1 0.589700 7.144247 22.066967 15.074581
324 0 1 0.589700 7.735316 22.091684 16.457134
325 0 2 -1.179400 16.653498 6.678895 16.028656
326 0 1 0.589700 16.522011 6.590061 15.091130
327 0 1 0.589700 16.014690 6.086412 16.415417
328 0 2 -1.179400 11.398157 22.444260 8.124796
329 0 1 0.589700 11.258332 23.372118 8.311716
330 0 1 0.589700 11.532470 22.409246 7.184162
331 0 2 -1.179400 3.121770 6.624598 13.768448
332 0 1 0.589700 3.227493 7.539077 13.508382
333 0 1 0.589700 3.914909 6.193341 13.465992
334 0 2 -1.179400 0.649920 21.531986 17.385845
335 0 1 0.589700 17.984070 21.913347 16.895805
336 0 1 0.589700 1.420998 21.989014 17.064295
337 0 2 -1.179400 16.118065 8.862890 9.789550
338 0 1 0.589700 16.835917 9.323642 9.366149
339 0 1 0.589700 15.347797 9.380976 9.575348
340 0 2 -1.179400 0.558778 18.758121 6.200627
341 0 1 0.589700 1.436231 18.504808 5.934482
342 0 1 0.589700 0.544710 18.614677 7.140591
343 0 2 -1.179400 0.679412 18.703238 1.720336
344 0 1 0.589700 1.446557 18.192036 1.960512
345 0 1 0.589700 0.554649 18.522289 0.795043
346 0 2 -1.179400 13.758806 18.574734 5.900010
347 0 1 0.589700 14.585002 18.142870 5.706535
348 0 1 0.589700 13.096231 17.939266 5.641994
349 0 2 -1.179400 2.692328 22.721806 16.037701
350 0 1 0.589700 2.487361 22.636124 15.113153
351 0 1 0.589700 3.377146 22.075764 16.190125
352 0 2 -1.179400 15.727635 22.414883 6.084020
353 0 1 0.589700 16.506847 22.109083 5.631670
354 0 1 0.589700 15.949161 22.354816 7.006739
355 0 2 -1.179400 7.787766 1.394316 9.682526
356 0 1 0.589700 7.676602 0.491317 9.387491
357 0 1 0.589700 7.644091 1.355666 10.621632
358 0 2 -1.179400 10.486538 2.641222 20.886070
359 0 1 0.589700 10.429155 3.535403 20.551790
360 0 1 0.589700 9.688151 2.218549 20.585472
361 0 2 -1.179400 5.385657 10.529131 20.523743
362 0 1 0.589700 5.236474 11.431721 20.244682
363 0 1 0.589700 5.341944 10.564712 21.472891
364 0 2 -1.179400 0.727044 5.645416 12.508479
365 0 1 0.589700 0.708469 4.774601 12.902676
366 0 1 0.589700 1.419071 6.106918 12.972134
367 0 2 -1.179400 14.846303 2.392620 21.086454
368 0 1 0.589700 14.862281 3.310588 20.817661
369 0 1 0.589700 14.766941 2.424793 0.003417
370 0 2 -1.179400 13.796641 18.728601 8.795588
371 0 1 0.589700 13.762746 18.506983 7.871236
372 0 1 0.589700 14.361317 18.061586 9.177897
373 0 2 -1.179400 0.774038 13.431044 2.637614
374 0 1 0.589700 0.882407 13.327172 3.576576
375 0 1 0.589700 17.970091 13.828112 2.538761
376 0 2 -1.179400 7.065929 14.053141 8.855743
377 0 1 0.589700 6.142906 13.913074 9.036715
378 0 1 0.589700 7.159038 13.858476 7.929471
379 0 2 -1.179400 17.965776 21.262045 12.323570
380 0 1 0.589700 18.011570 20.391203 12.715484
381 0 1 0.589700 0.665050 21.725538 12.673329
382 0 2 -1.179400 2.236115 17.239683 9.464489
383 0 1 0.589700 3.081630 17.639122 9.286339
384 0 1 0.589700 2.357160 16.312799 9.260479
385 0 2 -1.179400 5.302498 18.669752 6.289914
386 0 1 0.589700 5.978237 18.076946 5.972664
387 0 1 0.589700 5.333471 19.415682 5.694917
388 0 2 -1.179400 9.406096 18.096819 20.556438
389 0 1 0.589700 9.232499 18.120539 21.490969
390 0 1 0.589700 9.680567 18.987577 20.342569
391 0 2 -1.179400 12.490793 6.819934 5.744808
392 0 1 0.589700 12.647790 6.916101 6.677689
393 0 1 0.589700 13.237527 6.321252 5.426908
394 0 2 -1.179400 1.030275 10.823483 21.041380
395 0 1 0.589700 0.265652 10.317722 20.782539
396 0 1 0.589700 0.934670 10.936982 21.980631
397 0 2 -1.179400 9.123786 20.812712 2.341497
398 0 1 0.589700 9.113589 19.955338 1.918945
399 0 1 0.589700 9.894811 21.246887 1.989970
400 0 2 -1.179400 14.180674 13.258080 12.428560
401 0 1 0.589700 14.917800 13.722021 12.813680
402 0 1 0.589700 14.233430 12.374252 12.789701
403 0 2 -1.179400 17.940388 18.440104 8.853817
404 0 1 0.589700 0.648736 18.037027 9.254084
405 0 1 0.589700 17.914072 19.324459 9.216565
406 0 2 -1.179400 16.903343 1.301500 2.774417
407 0 1 0.589700 16.943348 0.420090 2.405883
408 0 1 0.589700 16.052937 1.635651 2.508520
409 0 2 -1.179400 11.365228 22.771908 16.291534
410 0 1 0.589700 11.459321 23.690800 16.540485
411 0 1 0.589700 12.203925 22.376024 16.506025
412 0 2 -1.179400 0.035543 21.413074 5.018282
413 0 1 0.589700 0.249404 21.252949 4.105592
414 0 1 0.589700 0.157317 20.565023 5.441979
415 0 2 -1.179400 7.690549 6.270847 1.350331
416 0 1 0.589700 7.159038 5.619143 1.800258
417 0 1 0.589700 8.584660 6.051898 1.589783
418 0 2 -1.179400 10.064607 2.679288 5.605583
419 0 1 0.589700 9.308611 2.199730 5.280632
420 0 1 0.589700 10.130137 3.443817 5.037288
421 0 2 -1.179400 12.154326 6.817597 13.079812
422 0 1 0.589700 12.353827 7.738946 12.916817
423 0 1 0.589700 12.262387 6.712911 14.018722
424 0 2 -1.179400 12.890486 24.739542 0.535055
425 0 1 0.589700 13.253292 25.169151 1.303361
426 0 1 0.589700 12.004402 25.080536 0.470290
427 0 2 -1.179400 5.162816 13.112388 12.689990
428 0 1 0.589700 5.263737 12.185769 12.905802
429 0 1 0.589700 6.051832 13.449961 12.654270
430 0 2 -1.179400 16.166042 17.070662 12.374968
431 0 1 0.589700 15.420900 17.579376 12.680677
432 0 1 0.589700 16.918839 17.626213 12.556084
433 0 2 -1.179400 5.365996 21.132277 19.575520
434 0 1 0.589700 5.125097 20.400301 20.138811
435 0 1 0.589700 4.819603 21.857557 19.869503
436 0 2 -1.179400 14.532636 2.774891 5.974053
437 0 1 0.589700 14.671011 2.915359 6.904334
438 0 1 0.589700 15.288199 2.266943 5.693709
439 0 2 -1.179400 16.366295 1.586792 12.761323
440 0 1 0.589700 16.575188 0.725030 13.118509
441 0 1 0.589700 15.518521 1.802046 13.134993
442 0 2 -1.179400 12.001930 9.174193 9.571095
443 0 1 0.589700 12.743118 9.732153 9.353146
444 0 1 0.589700 12.082981 8.422596 8.987971
445 0 2 -1.179400 0.748630 10.638632 16.539579
446 0 1 0.589700 0.570856 11.507038 16.897711
447 0 1 0.589700 18.045238 10.115773 16.781069
448 0 2 -1.179400 7.204611 16.578819 2.457474
449 0 1 0.589700 7.064641 15.756655 1.991192
450 0 1 0.589700 6.606510 17.197437 2.046743
451 0 2 -1.179400 0.509320 13.459042 20.144888
452 0 1 0.589700 0.554762 12.569434 20.492762
453 0 1 0.589700 17.690943 13.760960 20.369373
454 0 2 -1.179400 4.563658 12.954690 10.019732
455 0 1 0.589700 4.733639 13.024564 10.952645
456 0 1 0.589700 4.726707 12.034502 9.815071
457 0 2 -1.179400 5.339828 2.760407 13.681925
458 0 1 0.589700 6.187842 2.491857 13.344608
459 0 1 0.589700 4.724383 2.515313 12.999275
460 0 2 -1.179400 10.107836 5.148786 19.810406
461 0 1 0.589700 10.167500 5.258246 18.867720
462 0 1 0.589700 9.491279 5.821350 20.088888
463 0 2 -1.179400 15.934654 45.394684 18.641436
464 0 1 0.589700 16.247679 45.926434 19.367409
465 0 1 0.589700 16.469761 45.665314 17.902897
466 0 2 -1.179400 0.600949 2.970559 13.407573
467 0 1 0.589700 17.744610 2.727306 13.288571
468 0 1 0.589700 0.776532 2.792901 14.325215
469 0 2 -1.179400 11.981255 17.616722 17.085394
470 0 1 0.589700 11.253538 18.039700 16.640482
471 0 1 0.589700 12.755288 18.032934 16.719336
472 0 2 -1.179400 5.085839 18.249626 15.867034
473 0 1 0.589700 4.912642 19.088013 16.291811
474 0 1 0.589700 4.897965 18.408018 14.948345
475 0 2 -1.179400 7.832791 8.884640 12.583466
476 0 1 0.589700 6.985903 9.246621 12.823378
477 0 1 0.589700 7.723937 7.937322 12.664923
478 0 2 -1.179400 7.059986 14.187108 1.121230
479 0 1 0.589700 7.897461 13.933402 1.494308
480 0 1 0.589700 6.431452 13.597856 1.529117
481 0 2 -1.179400 9.145806 18.578220 16.277218
482 0 1 0.589700 9.289394 18.301178 15.378505
483 0 1 0.589700 8.969333 19.516703 16.215752
484 0 2 -1.179400 14.410984 10.796293 13.586610
485 0 1 0.589700 13.703205 10.327269 13.155287
486 0 1 0.589700 15.201473 10.363464 13.279471
487 0 2 -1.179400 2.948621 1.127086 5.791682
488 0 1 0.589700 2.236533 1.754776 5.882275
489 0 1 0.589700 3.058154 1.024400 4.852725
490 0 2 -1.179400 11.483245 22.698038 13.428601
491 0 1 0.589700 10.726555 22.132607 13.302113
492 0 1 0.589700 11.453319 22.936192 14.349025
493 0 2 -1.179400 7.838781 1.374334 2.380484
494 0 1 0.589700 7.032143 1.683818 1.981869
495 0 1 0.589700 8.513765 1.940595 2.017108
496 0 2 -1.179400 7.623880 22.313938 20.600954
497 0 1 0.589700 6.935685 21.908436 20.083086
498 0 1 0.589700 7.367692 22.153923 21.502699
499 0 2 -1.179400 0.588620 17.988619 20.913988
500 0 1 0.589700 17.963907 17.401407 20.596109
501 0 1 0.589700 1.374927 17.706474 20.458752
502 0 2 -1.179400 0.179516 18.724112 13.172337
503 0 1 0.589700 0.885536 18.250454 12.743134
504 0 1 0.589700 0.334514 18.590414 14.100981
505 0 2 -1.179400 14.400803 5.268727 17.061491
506 0 1 0.589700 14.615831 4.373068 16.804222
507 0 1 0.589700 14.433662 5.256592 18.011660
508 0 2 -1.179400 13.792413 21.561743 12.429277
509 0 1 0.589700 12.970728 21.773430 12.859034
510 0 1 0.589700 13.557986 21.431574 11.516936
511 0 2 -1.179400 9.720013 18.227985 13.701524
512 0 1 0.589700 8.956676 17.831581 13.293698
513 0 1 0.589700 9.681707 19.149000 13.445582
514 0 2 -1.179400 14.601590 2.319716 8.799822
515 0 1 0.589700 15.171766 1.569264 8.952192
516 0 1 0.589700 13.761795 2.053015 9.158469
517 0 2 -1.179400 7.652130 14.055916 6.045355
518 0 1 0.589700 7.455776 14.909453 5.662505
519 0 1 0.589700 8.339895 13.696653 5.494290
520 0 2 -1.179400 7.858145 6.747183 16.104855
521 0 1 0.589700 7.051639 6.395021 16.467127
522 0 1 0.589700 7.836266 7.678369 16.323732
523 0 2 -1.179400 16.951551 8.870131 5.136642
524 0 1 0.589700 17.686583 9.405090 5.421944
525 0 1 0.589700 17.049145 8.047522 5.612843
526 0 2 -1.179400 7.495625 7.193546 8.444987
527 0 1 0.589700 7.478920 7.948188 9.029620
528 0 1 0.589700 8.273767 6.706808 8.699509
529 0 2 -1.179400 12.567643 9.414245 12.306339
530 0 1 0.589700 11.666897 9.673682 12.468522
531 0 1 0.589700 12.609660 9.271779 11.367060
532 0 2 -1.179400 13.798401 21.156385 4.631354
533 0 1 0.589700 14.399971 21.406115 5.324630
534 0 1 0.589700 13.677008 20.213951 4.744741
535 0 2 -1.179400 16.455332 22.388107 20.721643
536 0 1 0.589700 17.302824 21.968315 20.612425
537 0 1 0.589700 16.421608 23.047716 20.033484
538 0 2 -1.179400 12.235321 6.478035 15.755472
539 0 1 0.589700 12.134118 7.359235 16.112604
540 0 1 0.589700 13.062657 6.168448 16.109043
541 0 2 -1.179400 16.965616 6.249156 6.178416
542 0 1 0.589700 16.132833 5.991188 5.797784
543 0 1 0.589700 16.779408 6.365198 7.103660
544 0 2 -1.179400 14.282096 5.074840 9.315804
545 0 1 0.589700 14.228940 4.135562 9.490771
546 0 1 0.589700 15.211355 5.245596 9.207228
547 0 2 -1.179400 13.839944 13.029384 17.289726
548 0 1 0.589700 14.635488 13.385067 16.907177
549 0 1 0.589700 13.917689 12.082443 17.175081
550 0 2 -1.179400 0.862812 10.492731 6.257875
551 0 1 0.589700 0.448281 10.292132 7.090044
552 0 1 0.589700 0.825990 11.447012 6.194158
553 0 2 -1.179400 4.693913 21.154848 9.760392
554 0 1 0.589700 5.533921 21.483540 9.457320
555 0 1 0.589700 4.518639 20.395050 9.209345
556 0 2 -1.179400 3.039597 14.602531 1.711771
557 0 1 0.589700 2.141597 14.365706 1.917514
558 0 1 0.589700 3.116513 14.452870 0.775811
559 0 2 -1.179400 11.754382 14.954564 1.640774
560 0 1 0.589700 12.534330 14.495423 1.936963
561 0 1 0.589700 11.882329 15.063211 0.704813
562 0 2 -1.179400 16.176859 17.249311 5.278018
563 0 1 0.589700 16.926538 17.672716 5.684398
564 0 1 0.589700 16.378782 17.248228 4.348894
565 0 2 -1.179400 9.544171 20.598906 12.480085
566 0 1 0.589700 9.662513 20.779917 11.553962
567 0 1 0.589700 8.651279 20.871376 12.663286
568 0 2 -1.179400 3.834372 0.710831 19.836645
569 0 1 0.589700 3.160670 1.022820 20.431742
570 0 1 0.589700 4.047346 45.635155 20.150864
571 0 2 -1.179400 0.715926 5.011445 16.937044
572 0 1 0.589700 1.532789 5.483787 16.808018
573 0 1 0.589700 0.053084 5.581825 16.558010
574 0 2 -1.179400 16.828375 9.188268 19.916456
575 0 1 0.589700 16.002478 9.584175 20.175880
576 0 1 0.589700 16.834381 9.250810 18.967695
577 0 2 -1.179400 5.130491 10.488599 6.279621
578 0 1 0.589700 5.722277 10.158220 5.611683
579 0 1 0.589700 5.048179 11.422864 6.090033
580 0 2 -1.179400 4.939774 10.442704 9.144624
581 0 1 0.589700 5.705656 9.985424 9.478021
582 0 1 0.589700 4.982591 10.321545 8.202434
583 0 2 -1.179400 2.793928 17.089666 17.038635
584 0 1 0.589700 2.667745 16.170195 16.806574
585 0 1 0.589700 3.626051 17.325089 16.642467
586 0 2 -1.179400 13.725718 21.566936 9.515908
587 0 1 0.589700 13.039376 21.954153 8.982016
588 0 1 0.589700 13.688709 20.631392 9.318458
589 0 2 -1.179400 9.240872 20.610600 5.143091
590 0 1 0.589700 9.839187 21.352577 5.196157
591 0 1 0.589700 8.937048 20.614597 4.242136
592 0 2 -1.179400 7.681062 1.776855 12.922320
593 0 1 0.589700 7.593592 1.033372 13.514709
594 0 1 0.589700 8.460977 2.234222 13.221294
595 0 2 -1.179400 1.124319 5.138482 2.553292
596 0 1 0.589700 0.459669 5.641372 2.092048
597 0 1 0.589700 0.952847 5.307258 3.473361
598 0 2 -1.179400 10.532821 2.820774 16.173834
599 0 1 0.589700 9.781237 2.387950 16.566681
600 0 1 0.589700 10.509526 3.711603 16.520824
601 0 2 -1.179400 5.079471 18.499798 20.455572
602 0 1 0.589700 5.064797 18.270376 21.378551
603 0 1 0.589700 5.728558 17.913609 20.076534
604 0 2 -1.179400 2.296163 17.116106 12.380924
605 0 1 0.589700 2.469974 17.189751 11.449000
606 0 1 0.589700 2.481786 16.200665 12.587374
607 0 2 -1.179400 13.974081 3.020752 13.385661
608 0 1 0.589700 14.079862 3.847241 12.917914
609 0 1 0.589700 13.077494 2.757118 13.207808
610 0 2 -1.179400 7.161035 16.988995 17.000385
611 0 1 0.589700 6.368728 17.411135 16.683405
612 0 1 0.589700 7.861995 17.580643 16.740971
613 0 2 -1.179400 16.089380 14.287279 21.218800
614 0 1 0.589700 16.083483 14.425956 0.129572
615 0 1 0.589700 16.207939 15.161973 20.851377
616 0 2 -1.179400 9.276388 21.298012 16.927563
617 0 1 0.589700 9.545000 21.066050 17.810057
618 0 1 0.589700 9.964849 21.876287 16.611172
619 0 2 -1.179400 16.092518 22.946125 12.947380
620 0 1 0.589700 15.239216 22.557484 12.783358
621 0 1 0.589700 16.710634 22.316801 12.585205
622 0 2 -1.179400 16.650160 6.220656 9.054334
623 0 1 0.589700 17.490145 5.968808 9.422997
624 0 1 0.589700 16.462294 7.073666 9.442575
625 0 2 -1.179400 2.729584 8.938764 17.179966
626 0 1 0.589700 2.865237 9.102865 18.106825
627 0 1 0.589700 1.960865 9.455705 16.957605
628 0 2 -1.179400 16.405628 14.314992 13.237872
629 0 1 0.589700 16.496284 15.203872 12.897065
630 0 1 0.589700 17.136292 13.834474 12.860575
631 0 2 -1.179400 11.800935 14.822963 16.262508
632 0 1 0.589700 11.804889 15.761403 16.449556
633 0 1 0.589700 12.540799 14.476464 16.750557
634 0 2 -1.179400 14.684888 10.276709 6.205235
635 0 1 0.589700 15.523520 9.908829 5.945956
636 0 1 0.589700 14.676081 11.153322 5.823579
637 0 2 -1.179400 0.670261 13.027314 12.437366
638 0 1 0.589700 0.785626 12.154689 12.810612
639 0 1 0.589700 1.376874 13.546596 12.809741
640 0 2 -1.179400 12.036407 14.477713 5.771905
641 0 1 0.589700 11.997653 14.532941 6.720341
642 0 1 0.589700 11.324894 13.888164 5.537728
643 0 2 -1.179400 11.583201 17.200293 4.959650
644 0 1 0.589700 11.896359 16.325474 5.184983
645 0 1 0.589700 11.746991 17.278631 4.026292
646 0 2 -1.179400 0.874043 4.731154 19.802504
647 0 1 0.589700 1.722005 5.113245 20.004923