LAMMPS (30 Jul 2021)
  using 1 OpenMP thread(s) per MPI task
package omp 0
using multi-threaded neighbor list subroutines
echo both

include		in.partitions
variable        pid world 0
include		in.temp
variable        temperature equal 244.09
variable	tempDamp equal 100.0
include		in.pressure
variable        pressure equal 4375.0
variable        pressureDamp equal 1000.0 # This is 1 ps
include		in.seed
variable        seed world 745823

units		real
atom_style	full
read_restart	restart.lmp.${pid}
read_restart	restart.lmp.0
Reading restart file ...
  restart file = 30 Jul 2021, LAMMPS = 30 Jul 2021
  restoring atom style full from restart
  orthogonal box = (0.45142028 1.6232447 0.55073169) to (17.756152 22.005933 21.662464)
  4 by 4 by 4 MPI processor grid
  restoring pair style lj/cut/tip4p/long/omp from restart
  restoring bond style harmonic/omp from restart
  restoring angle style harmonic/omp from restart
  864 atoms
  576 bonds
  288 angles
Finding 1-2 1-3 1-4 neighbors ...
  special bond factors lj:    0        0        0       
  special bond factors coul:  0        0        0       
     2 = max # of 1-2 neighbors
     1 = max # of 1-3 neighbors
     1 = max # of 1-4 neighbors
     2 = max # of special neighbors
  special bonds CPU = 0.905 seconds
  read_restart CPU = 1.193 seconds
include 	in.setup
variable	out_freq equal 1000
variable	out_freq2 equal 10000
variable	out_freq3 equal 1000

timestep	2.0

neigh_modify    delay 7 every 1

include		in.tip4p
# This is TIP4P/Ice

# create groups ###
group ox type 2
288 atoms in group ox
group hy type 1
576 atoms in group hy

# set charges - beside manually ###
set group ox charge -1.1794
Setting atom values ...
  288 settings made for charge
set group hy charge 0.5897
Setting atom values ...
  576 settings made for charge

# ### TIP3P Potential Parameters ###
pair_style lj/cut/tip4p/long/omp 2 1 1 1 0.1577 8.5
pair_coeff 1 1*2 0.000 0.000
pair_coeff 2 2 0.21084 3.1668
bond_style  harmonic
bond_coeff  1 450 0.9572
angle_style harmonic
angle_coeff 1 55 104.52
kspace_style pppm/tip4p/omp 1.0e-5
pair_modify tail yes

thermo          ${out_freq}
thermo          1000
thermo_style    custom step temp pe etotal epair emol press lx ly lz vol pxx pyy pzz pxy pxz pyz enthalpy

restart 	${out_freq3} restart.lmp.${pid} restart2.lmp.${pid}
restart 	1000 restart.lmp.${pid} restart2.lmp.${pid}
restart 	1000 restart.lmp.0 restart2.lmp.${pid}
restart 	1000 restart.lmp.0 restart2.lmp.0


include         in.dump
dump            myDump all atom ${out_freq2} dump.water.${pid}
dump            myDump all atom 10000 dump.water.${pid}
dump            myDump all atom 10000 dump.water.0
dump            myDump2 all dcd ${out_freq2} dump.dcd
dump            myDump2 all dcd 10000 dump.dcd
dump_modify     myDump append yes
dump_modify     myDump2 append yes


variable natoms 	equal  "count(all)"                        # NUMBER ATOMS
variable H      	equal  "enthalpy/v_natoms"                 # ENTHALPY-per-atom
variable Vol      	equal  "vol/v_natoms"                 # volume-per-atom
fix AVG all 		ave/time ${out_freq} 1 ${out_freq} v_Vol v_H file vol_enthalpy.dat
fix AVG all 		ave/time 1000 1 ${out_freq} v_Vol v_H file vol_enthalpy.dat
fix AVG all 		ave/time 1000 1 1000 v_Vol v_H file vol_enthalpy.dat


timer           timeout 23:50:00 every 1000
New timer settings: style=normal  mode=nosync  timeout=23:50:00

fix 		1 all shake 1e-6 200 0 b 1 a 1
       0 = # of size 2 clusters
       0 = # of size 3 clusters
       0 = # of size 4 clusters
     288 = # of frozen angles
  find clusters CPU = 0.215 seconds
fix             2 all nph iso ${pressure} ${pressure} ${pressureDamp}
fix             2 all nph iso 4375 ${pressure} ${pressureDamp}
fix             2 all nph iso 4375 4375 ${pressureDamp}
fix             2 all nph iso 4375 4375 1000
fix             3 all temp/csvr ${temperature} ${temperature} ${tempDamp} ${seed}
fix             3 all temp/csvr 244.09 ${temperature} ${tempDamp} ${seed}
fix             3 all temp/csvr 244.09 244.09 ${tempDamp} ${seed}
fix             3 all temp/csvr 244.09 244.09 100 ${seed}
fix             3 all temp/csvr 244.09 244.09 100 745823

run             250000
PPPM initialization ...
  extracting TIP4P info from pair style
  using 12-bit tables for long-range coulomb (../kspace.cpp:340)
  G vector (1/distance) = 0.37423709
  grid = 24 24 25
  stencil order = 5
  estimated absolute RMS force accuracy = 0.0030746028
  estimated relative force accuracy = 9.259075e-06
  using double precision FFTW3
  3d grid and FFT values/proc = 2730 288
Last active /omp style is kspace_style pppm/tip4p/omp
Neighbor list info ...
  update every 1 steps, delay 7 steps, check yes
  max neighbors/atom: 2000, page size: 100000
  master list distance cutoff = 10.8154
  ghost atom cutoff = 10.8154
  binsize = 5.4077, bins = 4 4 4
  1 neighbor lists, perpetual/occasional/extra = 1 0 0
  (1) pair lj/cut/tip4p/long/omp, perpetual
      attributes: half, newton on, omp
      pair build: half/bin/newton/omp
      stencil: half/bin/3d
      bin: standard
Per MPI rank memory allocation (min/avg/max) = 9.240 | 9.243 | 9.252 Mbytes
Step Temp PotEng TotEng E_pair E_mol Press Lx Ly Lz Volume Pxx Pyy Pzz Pxy Pxz Pyz Enthalpy 
 1500000    261.69659   -3921.8834   -3473.3444   -3921.8834            0    3796.3065    17.304732    20.382688    21.111732     7446.466     3347.522    4733.5545     3307.843    1016.5046   -1210.4688    1371.3261   -3061.0691 
 1501000    240.84034   -3904.8293   -3492.0372   -3904.8293            0    3362.8423    17.399482    20.494291    21.227327    7569.4533    2993.6757    2835.4783    4259.3729    1426.6227   -585.63993    499.26295   -3120.8039 
 1502000    242.78038    -3914.861   -3498.7438    -3914.861            0      3229.54    17.344615    20.429666     21.16039     7498.072    2466.4404    4609.9202    2612.2595    422.25752    753.73369    492.01636   -3145.5881 
 1503000    243.78587   -3937.2677   -3519.4271   -3937.2677            0    3450.9696      17.3402    20.424465    21.155003    7492.3467    3637.9039    3793.1687    2921.8361    103.75243   -849.63932   -956.81958   -3142.3459 
 1504000    234.72126   -3954.8258   -3552.5216   -3954.8258            0    4295.3544     17.25831     20.32801    21.055098    7386.6992    4752.9556    3934.8371    4198.2705    264.09228    -618.3875    464.23278   -3089.7941 
 1505000    240.82884   -3909.9513   -3497.1789   -3909.9513            0    2460.4793    17.315351    20.395196    21.124688     7460.183     1318.227    2454.5023    3608.7085    1619.2442    38.700066    57.778359    -3229.481 
 1506000    253.26396   -3957.7447    -3523.659   -3957.7447            0    3517.6439    17.387137    20.479751    21.212267    7553.3537    3527.3416    4514.0542    2511.5358    708.67421     771.1079   -720.47581   -3136.1627 
 1507000    246.44877   -3949.1323   -3526.7275   -3949.1323            0    5718.2764     17.23725    20.303204    21.029405    7359.6903     4517.835    7138.5543    5498.4398   -792.29662   -1547.4448   -831.35061   -2912.9647 
 1508000    254.02832   -3960.2627   -3524.8669   -3960.2627            0    3914.6219    17.317925    20.398228    21.127828    7463.5102    3512.2257    3208.5259     5023.114   -718.58172    104.15985    600.62485   -3098.7695 
 1509000    250.73156   -3937.2783    -3507.533   -3937.2783            0    4387.5837    17.345165    20.430313     21.16106    7498.7844    4016.0797    4677.4155    4469.2559   -572.79829   -11.012207    -1497.542   -3027.6977 
 1510000    232.83705   -3935.5536   -3536.4789   -3935.5536            0     4644.212    17.291128    20.366665    21.095136    7428.9178    3820.7646    5633.8996    4477.9717   -43.863231   -768.01906   -2277.4807   -3033.3103 
 1511000    242.98259   -3957.7619   -3541.2981   -3957.7619            0     4562.465    17.232176    20.297227    21.023215    7353.1932    4176.5175    4673.9874    4836.8899    1803.7759    380.32095    419.57646   -3052.0249 
 1512000    258.58381   -3945.8676   -3502.6638   -3945.8676            0    5074.2614     17.25127    20.319717    21.046509    7377.6623     4578.268    5198.1745    5446.3416    1525.9156   -194.41432   -255.40882   -2956.6954 
 1513000    251.62293   -3948.3361    -3517.063   -3948.3361            0    4420.7196    17.298228    20.375028    21.103798    7438.0733    4396.1665    5456.8413    3409.1509    1116.1395   -293.59263    -606.1383   -3037.5181 
 1514000    234.91312   -3955.8137   -3553.1807   -3955.8137            0    4079.2363    17.306469    20.384734    21.113851    7448.7083    4120.2939    5382.0232    2735.3919   -1371.7246    1409.0798   -1707.2494    -3110.046 
 1515000    230.41397   -3930.4256   -3535.5039   -3930.4256            0    3713.7016    17.312412    20.391735    21.121103    7456.3854    3261.5083    2733.0225    5146.5739    529.11055    334.14261   -1749.7057   -3131.6622 
 1516000     245.9429   -3944.9768   -3523.4391   -3944.9768            0    5940.4279    17.245401    20.312805    21.039349    7370.1357    6677.6574    5517.3913     5626.235   -960.46459    449.14946    543.67384    -2884.927 
 1517000    244.05995    -3951.069   -3532.7586    -3951.069            0    5723.6295    17.296694    20.373221    21.101927    7436.0947    4966.9571    4954.5274    7249.4038   -10.021157   -1242.8715    1532.2001   -2912.0435 
 1518000    235.93103   -3972.2504   -3567.8727   -3972.2504            0    3605.5914    17.316644    20.396719    21.126265    7461.8546    4134.6024     3631.403    3050.7689    2167.7905   -1284.5132   -435.35947   -3175.4997 
 1519000    238.94371   -3947.2608   -3537.7195   -3947.2608            0     4660.395      17.2875    20.362391    21.090709    7424.2425    4949.0629    3843.9291    5188.1928   -237.84469    1330.5417    945.01517   -3033.1154 
 1520000     234.5745   -3969.0547   -3567.0021   -3969.0547            0    3886.6778    17.323589      20.4049    21.134739    7470.8367    3662.0193    3097.2112    4900.8028   -587.47809    10.831294     1537.291   -3143.5311 
 1521000    244.23917   -3982.8891   -3564.2715   -3982.8891            0    4198.6371    17.293499    20.369457    21.098028    7431.9742    4147.5984    3927.7058    4520.6072    66.866498   -18.154765    766.39383   -3109.1908 
 1522000    264.61005   -3983.3581   -3529.8256   -3983.3581            0    5035.5855      17.2805    20.354147     21.08217    7415.2284    5338.2814    3286.5533    6481.9218   -681.99122    404.55757    1283.0189   -2985.2597 
 1523000    233.53878   -3982.9118   -3582.6343   -3982.9118            0    5446.9451    17.302304    20.379829    21.108771    7443.3328    5267.7013    5816.7857    5256.3482    1738.4706    415.06459   -113.22764   -2991.3501 
 1524000    253.98272    -3931.489   -3496.1713    -3931.489            0      5039.49    17.304254    20.382125    21.111149    7445.8487     4146.618    5667.3506    5304.5014   -780.79557   -230.10862    18.621017   -2948.9327 
 1525000    238.51081   -3958.4374    -3549.638   -3958.4374            0    4960.2819    17.298016    20.374778     21.10354    7437.8002    5602.9204    4672.0852    4605.8402   -347.85432    1834.6657     484.2556   -3011.5829 
 1526000    251.23395   -3939.2621   -3508.6557   -3939.2621            0    5380.2574    17.280014    20.353573    21.081576    7414.6016    7895.7838     5207.615    3037.3735   -830.01964    -441.9697   -723.38918    -2926.865 
 1527000    253.66278   -3949.6017   -3514.8323   -3949.6017            0    5892.5441     17.29751    20.374182    21.102922    7437.1466    6424.2986    6503.6869    4749.6469   -604.69566    1467.2126   -1028.1961   -2875.7084 
 1528000    242.36576   -3962.5468   -3547.1402   -3962.5468            0    4919.6702    17.326636    20.408488    21.138455    7474.7787    5091.5583    4426.0553    5241.3972    1696.7081     319.6218   -55.955874   -3010.8372 
 1529000    238.75696   -3967.3603    -3558.139   -3967.3603            0    2972.4263    17.463758        20.57    21.305744    7653.6517    3598.5064    2365.0088    2953.7637   -451.92908    -1415.421    240.70602   -3226.3548 
 1530000    251.39108   -3933.0058   -3502.1301   -3933.0058            0    3972.7049    17.369772    20.459297    21.191082    7530.7453    4768.8615    2920.9536    4228.2996    313.62072   -736.98664   -519.70497   -3065.8151 
 1531000    261.66635   -3907.0006   -3458.5135   -3907.0006            0    5206.4103    17.346564    20.431961    21.162767    7500.5991     6606.787    4990.5188    4021.9249    429.35976    1294.3825    667.26693   -2888.9918 
 1532000    245.55658   -3908.9308   -3488.0553   -3908.9308            0    4773.6107    17.309872    20.388742    21.118003    7453.1031    4761.5432    3369.4083    6189.8806    -1085.798    1131.2963   -64.411341   -2969.1835 
 1533000    251.25866   -3909.7769   -3479.1281   -3909.7769            0    4329.3264    17.290237    20.365616    21.094049    7427.7703    4029.6954    2925.8664    6032.4175    28.231003   -1384.8467     600.3649   -3010.1477 
 1534000    245.50091   -3944.0809   -3523.3008   -3944.0809            0     3256.415     17.32013    20.400826    21.130519    7466.3624    451.43726    4762.6245    4555.1833   -578.31757    163.75805   -882.98513   -3168.7122 
 1535000    238.04434   -3932.7184   -3524.7186   -3932.7184            0    3788.9021    17.335683    20.419145    21.149493    7486.4938    3197.6079    4625.4331    3543.6654    229.70024   -416.26404   -279.53199   -3111.0355 
 1536000    238.51643   -3953.5398   -3544.7308   -3953.5398            0    4110.2864    17.324142    20.405551    21.135413    7471.5519    2992.9897    5171.9275    4165.9422     676.8224   -398.05201   -257.84787   -3096.8538 
 1537000    251.37201   -3947.1448   -3516.3018   -3947.1448            0    5442.4178    17.294228    20.370316    21.098918    7432.9142    5592.9217    3589.2787    7145.0531    502.13869     -902.382   -484.38885    -2926.336 
 1538000    241.22222   -3956.9582   -3543.5115   -3956.9582            0    3179.4439    17.363493    20.451902    21.183421    7522.5816    3679.9605    2343.4196    3514.9516   -1357.0399   -579.82351    686.15209   -3194.6975 
 1539000    244.13873   -3941.8398   -3523.3944   -3941.8398            0    4834.1188     17.34045     20.42476    21.155309    7492.6716    4758.9077    4088.6896    5654.7591    777.28217     650.8248   -884.07139   -2995.1561 
 1540000    248.38724   -3951.7616   -3526.0343   -3951.7616            0    2316.5617    17.334753     20.41805    21.148359    7485.2893    1231.5495    2897.9064    2820.2292   -30.671894     682.5848   -450.91527   -3273.1463 
 1541000     237.7442   -3932.5361   -3525.0507   -3932.5361            0    2834.9981    17.350836    20.436993     21.16798     7506.143    1599.7698    2992.3523    3912.8721    63.585736   -176.48467   -829.80763   -3214.7051 
 1542000    238.16099   -3936.6653   -3528.4655   -3936.6653            0    4595.1311    17.310796    20.389832    21.119131    7454.2978    5402.9607    4484.2061    3898.2264   -965.57856    525.16518   -546.27734   -3028.9137 
 1543000    241.56653   -3910.9776   -3496.9409   -3910.9776            0    4311.0003    17.367844    20.457026    21.188729    7528.2371    5202.8479    3309.9103    4420.2426   -805.99606    700.20177   -620.65391   -3023.6292 
 1544000    244.07077   -3903.6128   -3485.2838   -3903.6128            0     5862.798    17.320977    20.401823    21.131552    7467.4573    5022.2153    5635.3017    6930.8769   -1333.1317    305.06779    627.62083   -2846.7946 
 1545000    230.90751   -3917.7459   -3521.9784   -3917.7459            0    4066.2304     17.35802    20.445455    21.176744    7515.4701    4009.5058    2463.7865    5725.3991    608.68972   -347.62931    122.98031   -3076.2974 
 1546000    243.00787   -3899.5488   -3483.0416   -3899.5488            0    4988.7663    17.353974    20.440689    21.171808    7510.2159    4816.2383    4650.0243    5500.0365   -168.21907   -659.09924   -312.70463    -2936.628 
 1547000    231.21345   -3889.5654   -3493.2735   -3889.5654            0    4403.3496    17.359575    20.447286    21.178641    7517.4899    3828.4533    5026.2128    4355.3826   -9.7595915   -503.71783   -1029.8795   -3010.5128 
 1548000    244.64856    -3895.601   -3476.2818    -3895.601            0    6827.4661     17.30116    20.378481    21.107374    7441.8553    7165.7216    6375.6994    6940.9773   -965.98658    153.88312   -804.33585   -2735.2844 
 1549000    238.25901   -3873.3102   -3464.9424   -3873.3102            0    4607.2669    17.350953    20.437131    21.168123    7506.2948    2828.6526    4827.3883    6165.7596   -714.45801   -1620.9886    438.80022   -2960.5775 
 1550000    248.36546   -3933.8695   -3508.1796   -3933.8695            0    3341.5904    17.346378    20.431742     21.16254     7500.358    4387.4232    2456.5218    3180.8262    1034.8645    272.29597   -63.030247   -3142.6596 
 1551000    258.42722   -3942.2068   -3499.2714   -3942.2068            0    3812.1832    17.344573    20.429615    21.160338    7498.0165    3880.5194     4221.497    3334.5331   -633.60429   -475.85821    1196.6101   -3082.4058 
 1552000    238.29018   -3928.9008   -3520.4796   -3928.9008            0    4352.5689    17.314819     20.39457    21.124039    7459.4954    3985.8766    5434.1705    3637.6596   -95.598555   -812.49629   -133.49789   -3046.9676 
 1553000    242.98544   -3947.9776   -3531.5089   -3947.9776            0    3590.6255    17.299715    20.376779    21.105611    7439.9909    3015.6587    4386.7249    3369.4931     387.4446   -199.47906   -1837.4756   -3141.9094 
 1554000     256.6868   -3945.9118   -3505.9594   -3945.9118            0    3027.5777     17.26396    20.334664    21.061991    7393.9555    3876.4479     2300.369    2905.9164   -231.74419   -977.65869   -579.73146   -3179.4858 
 1555000    253.59802   -3954.4104   -3519.7521   -3954.4104            0    4826.8295    17.245442    20.312852    21.039399    7370.1878    6032.2538    4017.3557    4430.8791   -155.97374    1085.4398   -897.77031   -3000.9325 
 1556000    260.53296    -3917.517   -3470.9724    -3917.517            0    6060.2228    17.268063    20.339498    21.066997    7399.2293    6578.2186    7709.2095    3893.2403    1190.3524    960.85805   -47.663678   -2817.0127 
 1557000      247.169   -3935.3455   -3511.7063   -3935.3455            0    5087.1058    17.284007    20.358278    21.086449    7419.7439    5374.4914    3951.8216    5935.0044     350.3283    855.00226   -668.54642   -2961.2338 
 1558000     244.8197   -3932.0598   -3512.4472   -3932.0598            0    5761.2976    17.226094    20.290063    21.015794    7345.4091    6457.9053    6531.7812    4294.2062   -1681.0243    1531.8781   -806.76269   -2895.2667 
 1559000    252.90417   -3927.1471    -3493.678   -3927.1471            0    6482.0238    17.151578    20.202293    20.924885    7250.4979    7301.4245    4048.2014    8096.4455    581.28737     454.7578   -313.77286   -2808.2618 
 1560000    243.33564   -3957.5414   -3540.4724   -3957.5414            0    2845.3466    17.287702    20.362629    21.090956    7424.5031    1800.3017     4075.951     2659.787    161.37435    -472.3582    -468.2942   -3232.3818 
 1561000    242.63712    -3935.181   -3519.3093    -3935.181            0    4545.0929     17.24982     20.31801     21.04474    7375.8028    3616.8405    4613.2351     5405.203   -950.00421    54.664266   -249.85713   -3030.4003 
 1562000    244.12671   -3911.9773   -3493.5524   -3911.9773            0    4083.6699    17.249833    20.318025    21.044756    7375.8193    4348.7031    3322.6555    4579.6511    4.3416078    593.90916   -1407.6755   -3054.2771 
 1563000    260.08283   -3927.8379   -3482.0649   -3927.8379            0    4481.7639    17.272943    20.345245     21.07295    7405.5038    5152.9063    4091.1217    4201.2636   -1196.2427   -42.658747   -617.42534   -2998.0268 
 1564000    257.47524   -3966.9857    -3525.682   -3966.9857            0    3057.1175    17.257937     20.32757    21.054643    7386.2197    5204.4644    4473.6665   -506.77834    604.89149    166.13621   -737.95043   -3196.3679 
 1565000    241.12397   -3980.2186   -3566.9403   -3980.2186            0    4807.6245    17.234286    20.299712    21.025788     7355.894    5558.3244    4242.9127    4621.6366   -1183.2341    -109.8623   -1529.3815   -3051.1872 
 1566000    253.49775   -3948.0572   -3513.5708   -3948.0572            0    3389.7864    17.252405    20.321054    21.047893    7379.1186    4469.0179    1704.2853    3996.0559    201.68428   -649.06524   -122.92979   -3148.7725 
 1567000    230.29057   -3987.2807   -3592.5705   -3987.2807            0    4980.2564    17.279918    20.353461     21.08146    7414.4792     5157.824    3800.1573    5982.7878     687.1189    994.04542   -542.51125   -3054.0426 
 1568000     241.4505   -3955.7063   -3541.8684   -3955.7063            0     4564.924    17.260359    20.330423    21.057598    7389.3303    3983.6635    4507.0977    5204.0109    72.496336    151.38601    361.30166   -3049.9257 
 1569000    236.18885   -3978.8395   -3574.0199   -3978.8395            0    3533.9311    17.280735    20.354424    21.082457     7415.531    3040.5738    2906.0372    4655.1824    1354.8272   -894.32199   -206.99766   -3191.8327 
 1570000    248.44633   -3965.4344   -3539.6059   -3965.4344            0    2972.9485    17.255142    20.324278    21.051233    7382.6315    3053.6556    4448.5682    1416.6216    542.36674   -545.03212   -1743.7517   -3219.5142 
 1571000    240.11881   -3947.3704    -3535.815   -3947.3704            0    4569.4932    17.265775    20.336803    21.064205    7396.2883    4114.9835    5619.3644    3974.1318    874.53304   -54.778739   -1705.6116   -3042.9162 
 1572000    269.19016    -3922.832   -3461.4493    -3922.832            0    4778.8441    17.277213    20.350274    21.078159    7410.9967    4413.7196    5773.7949    4149.0179    192.75551    250.19442    -601.3778   -2944.9433 
 1573000    238.26704   -3966.5276    -3558.146   -3966.5276            0    6434.1482    17.176526    20.231679    20.955322    7282.1829    4298.5826     8381.514    6622.3481   -590.35524   -1407.7662   -712.92782   -2874.8191 
 1574000     243.8425   -3955.7764   -3537.8387   -3955.7764            0    4711.1214    17.172011     20.22636    20.949813    7276.4414    2999.2022    5999.4539    5134.7082    1735.9351   -1866.4252    518.24327   -3037.8971 
 1575000    238.25144   -3944.9952   -3536.6403   -3944.9952            0    5082.4222    17.240482     20.30701    21.033347    7363.8302    4508.2718    6595.7979    4143.1968   -1063.3674   -447.51222    112.72348   -2990.8192 
 1576000      241.871    -3938.166   -3523.6074    -3938.166            0    3889.3297     17.25024    20.318505    21.045253     7376.342    3764.1183    3675.0353    4228.8354   -482.02928   -1691.4671    -244.8708   -3105.2074 
 1577000    242.36502   -3956.8763   -3541.4709   -3956.8763            0    5974.2569    17.202931     20.26278    20.987535    7315.8185    5438.5492    6017.1597    6467.0617    227.64667   -266.62613   -707.39495   -2904.0553 
 1578000    255.15596   -3884.8264   -3447.4978   -3884.8264            0    4657.4742      17.2121     20.27358    20.998722    7327.5225    5351.9564    4499.7591    4120.7071     192.8358    575.91765   -778.31062   -2949.7797 
 1579000    247.26918   -3943.7924   -3519.9815   -3943.7924            0    4680.4823    17.299919     20.37702    21.105861    7440.2552    4848.8924    4854.2518    4338.3025   -51.735257    553.75095    16.411126   -3012.1094 
 1580000    246.47676   -3879.0807    -3456.628   -3879.0807            0    6431.2099    17.248136    20.316026    21.042686    7373.6429    6719.5069    5536.0645    7038.0584     1040.061    1132.5057    1206.6107   -2765.0348 
 1581000    239.91024   -3940.3149   -3529.1169   -3940.3149            0    3063.4299    17.364695    20.453317    21.184887    7524.1434    4583.7625    2539.2697    2067.2574    85.834692   -57.709837   -438.63737   -3192.9609 
 1582000    241.44563   -3953.0221   -3539.1926   -3953.0221            0    4731.1024    17.267422    20.338742    21.066214    7398.4046    4088.2552    5888.9751    4216.0769   -242.61448   -1046.6586   -839.07134   -3028.7154 
 1583000    233.48677   -3929.9735   -3529.7852   -3929.9735            0    4252.7264    17.245467    20.312882     21.03943    7370.2205    6087.7389    3311.0751    3359.3653    597.19485   -1271.3016   -915.55571   -3072.6719 
 1584000    254.56003   -3928.2405   -3491.9333   -3928.2405            0    4594.6769    17.312475    20.391808    21.121179     7456.466      5619.55    4605.0174    3559.4633    146.00133    606.82145     127.1874   -2992.2856 
 1585000    246.84998   -3961.0849   -3537.9925   -3961.0849            0    3910.0625    17.312083    20.391347    21.120701    7455.9603    3065.7529    4329.0831    4335.3517    991.90408    2237.7419    187.40904   -3112.8219 
 1586000    238.81802   -3923.7993   -3514.4734   -3923.7993            0    7756.7032    17.236339     20.30213    21.028293    7358.5231    7181.5443    9155.4411     6933.124    1104.6751    946.04498   -311.22517   -2682.0511 
 1587000    244.98345   -3964.9883   -3545.0951   -3964.9883            0      3539.38    17.271242    20.343242    21.070875    7403.3166    3091.5903    3671.5906     3854.959    2416.4634   -782.76214   -365.21297    -3162.949 
 1588000    247.49882   -3927.7165    -3503.512   -3927.7165            0    3338.6285    17.290511    20.365938    21.094383    7428.1229    4283.6804    2161.2537    3570.9514    -488.7001   -373.53327   -156.40478   -3141.8332 
 1589000    226.19255   -3943.2239   -3555.5376   -3943.2239            0    5059.9919    17.250458    20.318761    21.045518    7376.6209    4821.2265    5492.0936    4866.6556   -325.94139    936.31676   -588.33489   -3011.1814 
 1590000    245.93141   -3938.9782   -3517.4602   -3938.9782            0    4730.6849    17.213566    20.275307     21.00051    7329.3947    3729.4775     7247.989    3214.5882    1441.2997   -1197.5383   -1352.4038   -3011.7893 
 1591000    240.95923   -3964.0756   -3551.0797   -3964.0756            0    4726.1516     17.21793    20.280447    21.005834    7334.9709    4973.0942    5935.6964    3269.6642    127.53442   -719.45185   -2617.4435    -3045.509 
 1592000    248.31777   -3932.7681   -3507.1599   -3932.7681            0    3095.8871    17.325889    20.407609    21.137544    7473.8119    3614.3465    4035.0771    1638.2378    1386.6184    582.43694   -316.24836   -3169.7148 
 1593000    246.62928   -3979.8913   -3557.1771   -3979.8913            0    5881.2966    17.255808    20.325063    21.052046     7383.487    6167.0694    6185.2572     5291.563    488.35823      -281.57   -425.30844   -2923.8757 
 1594000     245.1969   -3980.4568   -3560.1977   -3980.4568            0    3436.8509    17.363652    20.452088    21.183614    7522.7872    2093.7235    4128.9282     4087.901    99.363976    1145.6562    84.669988   -3183.1335 
 1595000    242.05932   -3962.8565   -3547.9751   -3962.8565            0    6115.3434    17.265182    20.336104    21.063482    7395.5261    4991.7881    6523.1213    6831.1208   -721.60784   -279.30455   -21.142142   -2888.3976 
 1596000    248.13687   -3924.1847   -3498.8866   -3924.1847            0      6746.48    17.263456    20.334071    21.061376     7393.308     5288.175    8143.9678    6807.2973   -192.01217    1873.2051    1318.8399   -2771.4554 
 1597000    247.50003    -3920.076   -3495.8694    -3920.076            0    3471.6216    17.293909     20.36994    21.098528    7432.5029    4620.4321    3013.3864    2781.0464   -549.33449    173.77731   -199.44375   -3119.5615 
 1598000    237.67186   -3951.6857   -3544.3243   -3951.6857            0    6035.7687    17.239357    20.305685    21.031975    7362.3889    6410.0919    6465.7287    5231.4855   -670.21629    427.33244   -612.99313   -2896.2464 
 1599000    248.42925     -3942.92   -3517.1208     -3942.92            0    3287.9638    17.312518    20.391859    21.121231    7456.5219    3016.1538    3403.3504    3444.3873    1088.9928    -151.6941   -673.20134   -3159.5688 
 1600000    241.24956   -3954.6273   -3541.1338   -3954.6273            0    3239.6293       17.312    20.391249    21.120599    7455.8522    4061.2924    2309.7552    3347.8402    178.39464   -1076.6922   -360.19312   -3188.8696 
 1601000    233.84418   -3952.5959    -3551.795   -3952.5959            0    5179.3702    17.285558    20.360104     21.08834     7421.741    5585.5234    4562.1939    5390.3932    223.69063    454.29469   -88.958042   -2991.1879 
 1602000    251.67213   -3905.2701   -3473.9127   -3905.2701            0    3408.8401    17.384865    20.477075    21.209495    7550.3933     3044.213    2495.3033    4687.0041   -210.40262    555.82481    717.99798   -3098.5492 
 1603000    245.44905    -3936.169   -3515.4777    -3936.169            0     6026.654    17.333085    20.416085    21.146323    7483.1283    6284.6572    5430.0366    6365.2682   -273.22691    1103.3136    1004.8543   -2857.7663 
 1604000    238.59943   -3940.4358   -3531.4846   -3940.4358            0    3699.9551     17.37344    20.463617    21.195556    7535.5166    3517.8672     4740.068    2841.9301    -574.4826    1350.5659   -994.39625   -3124.8677 
 1605000    259.29363   -3945.4192   -3500.9988   -3945.4192            0    4050.9415    17.315974     20.39593    21.125448    7460.9881    3033.3471    3622.9352    5496.5421    220.04349    81.064693   -198.05656   -3060.2124 
 1606000    225.73798   -3943.2956   -3556.3884   -3943.2956            0    2737.2663    17.323384    20.404659    21.134489    7470.5714    3637.9736    2378.1035    2195.7218    257.55912   -1537.0566   -330.70392   -3258.1616 
 1607000    231.95384   -3943.1297   -3545.5687   -3943.1297            0    4872.3356    17.265503    20.336482    21.063873    7395.9383    4608.2489    6810.7152    3198.0426    459.16082    141.22891    166.17245    -3020.028 
 1608000    240.18093   -3933.6631   -3522.0012   -3933.6631            0    5021.7287    17.235653    20.301322    21.027456    7357.6442     5592.121    2339.1399    7133.9254    476.24273    1489.5395   -231.73268   -2983.1512 
 1609000     248.3747   -3954.1978    -3528.492   -3954.1978            0     5262.187    17.292021    20.367717    21.096226    7430.0697    5607.3403    4615.5344    5563.6864    -2.671071    644.90481    398.60218   -2958.2817 
 1610000    254.49188   -3985.4923    -3549.302   -3985.4923            0    2601.7116     17.32377    20.405113    21.134959    7471.0702    2233.1253    1240.9771    4331.0323   -494.83815   -213.15131   -213.47857    -3265.825 
 1611000    240.97981   -3948.0265   -3534.9953   -3948.0265            0     4374.217    17.289339    20.364558    21.092953    7426.6124    6461.3213    3726.4525    2934.8771   -243.91917    1640.7193    -1067.048    -3061.226 
 1612000    242.20891   -3947.5888    -3532.451   -3947.5888            0    4098.5783    17.308667    20.387324    21.116533    7451.5474    5878.5753      3709.44    2707.7196    1490.4303    862.32368   -164.56819   -3087.0455 
 1613000    248.41068   -3957.7226   -3531.9552   -3957.7226            0    5806.0472    17.183704    20.240133    20.964078     7291.316    6637.7497    4704.6362    6075.7558    692.29284    586.86618    732.11422   -2914.5613 
 1614000    260.37638    -3929.176   -3482.8998    -3929.176            0    4490.1093    17.356128    20.443226    21.174435    7513.0121    4703.3934     4894.048    3872.8865    1025.2267   -331.78338   -694.26354   -2990.9204 
 1615000    242.90384   -3920.7652   -3504.4363   -3920.7652            0    4184.8801    17.327233    20.409192    21.139184    7475.5517    5166.1662    4378.4695    3010.0047    922.22433   -681.93146   -820.45281   -3048.1871 
 1616000    230.76466   -3936.3899   -3540.8672   -3936.3899            0    4697.9757    17.333158    20.416171    21.146412    7483.2229    4676.5369    3225.3575    6192.0326    504.21179   -1184.8801   -416.23632    -3028.153 
 1617000    226.90548   -3934.8672    -3545.959   -3934.8672            0    5364.4563    17.248018    20.315887    21.042541    7373.4911    6333.9529    5115.0036    4644.4124   -2756.2306    171.92368    14.900058   -2969.0932 
 1618000    234.21745   -3935.0998   -3533.6591   -3935.0998            0    4678.6256     17.31035    20.389306    21.118587    7453.7211    5423.0465    2730.9946    5881.8358    123.06607    1523.8071   -518.78619   -3025.0697 
 1619000    241.36732   -3919.4926   -3505.7973   -3919.4926            0    5771.1771    17.249981    20.318199    21.044936    7376.0091    7669.8898    5248.0602    4395.5815    546.10814    268.56932   -324.06332    -2884.983 
 1620000    234.59356   -3921.5479   -3519.4626   -3921.5479            0     4957.031    17.303959    20.381778    21.110789    7445.4678    5091.3146    5638.8723    4140.9061    371.32132     353.2031    1165.9481   -2981.2058 
 1621000    234.28455     -3922.88   -3521.3243     -3922.88            0    3173.6535    17.383542    20.475517    21.207881    7548.6698    2876.6438    1845.1099    4799.2068    523.99827    61.131472    1022.4115    -3171.938 
 1622000     245.0899   -3873.9363   -3453.8606   -3873.9363            0    5586.5467    17.315983     20.39594    21.125459    7460.9998    3981.7318    7134.7734     5643.135   -1473.4478    676.60216   -13.888837   -2845.9827 
 1623000     231.3638    -3938.582   -3542.0324    -3938.582            0    4716.7714    17.334189    20.417384     21.14767    7484.5576    6680.7775    5030.8045    2438.7324   -1230.1161     208.0637    -1069.384   -3027.1751 
 1624000    242.86259   -3912.9625   -3496.7044   -3912.9625            0    3765.8324    17.375717      20.4663    21.198334    7538.4803    3367.7882    4710.2242    3219.4847   -1880.6891    1433.4693    474.28723    -3082.685 
 1625000    245.86139    -3885.904    -3464.506    -3885.904            0    4728.8465    17.361289    20.449305    21.180732    7519.7166    5414.6116     4289.392     4482.536   -958.04919   -960.60058      1394.91   -2945.9059 
 1626000    235.22791    -3907.913   -3504.7404    -3907.913            0    4252.4266    17.356273    20.443396    21.174612    7513.2004     2509.704    5314.5153    4933.0604   -62.542037    -1632.494   -315.78757   -3038.7921 
 1627000    235.46612    -3894.902   -3491.3211    -3894.902            0    3550.2784    17.443802    20.546495    21.281398    7627.4447    2311.4215    4585.3814    3754.0323    514.10178   -98.770765    75.581763   -3096.3936 
 1628000    240.59267   -3919.9558   -3507.5882   -3919.9558            0    4196.4529    17.422363    20.521242    21.255242    7599.3549    3722.0194    4542.7262     4324.613    981.69451   -134.16741    -34.01654   -3042.5004 
 1629000    252.42362   -3912.5515   -3479.9061   -3912.5515            0    3521.3304    17.388768    20.481672    21.214257    7555.4798    3162.3284    2811.3073    4590.3554    768.27414    22.589675    1119.3531   -3091.8945 
 1630000    233.68833   -3951.0948    -3550.561   -3951.0948            0     3576.294     17.34867    20.434442    21.165337     7503.332    3566.8807    4278.0304     2883.971    556.28651   -1056.6543   -36.943804   -3159.2129 
 1631000    237.20621   -3956.2355   -3549.6722   -3956.2355            0    3611.8518    17.293377    20.369314     21.09788    7431.8176    3027.6199    5252.9263    2555.0093   -154.97927   -617.89076    -253.8092   -3158.2001 
 1632000    260.42835   -3921.5487   -3475.1834   -3921.5487            0    3705.7392    17.361635    20.449713    21.181154    7520.1665      6046.95    4044.5765     1025.691    568.75047   -411.63464   -204.10072   -3068.7605 
 1633000     234.6977    -3936.777   -3534.5132    -3936.777            0     4809.139    17.413639    20.510966    21.244599    7587.9453    5565.5718    4822.7399    4039.1052   -219.96424   -153.52003    5.8938893   -3002.3223 
 1634000    242.20937   -3964.7116    -3549.573   -3964.7116            0    2323.3529    17.392907    20.486547    21.219306     7560.876     2726.116    14.202083    4229.7406     659.2314   -1124.4205   -805.46485   -3293.3824 
 1635000    234.58329   -3954.1959   -3552.1282   -3954.1959            0    5081.0747    17.294656    20.370821     21.09944    7433.4668    6119.8772     4152.471    4970.8759   -232.04009    639.65034   -1395.4067   -3001.2915 
 1636000    247.37273   -3941.6072   -3517.6188   -3941.6072            0    3682.3357    17.332475    20.415366    21.145579    7482.3381    4815.0685    3662.0746     2569.864     263.0626   -368.10293    1106.7647   -3115.7942 
 1637000    241.73248   -3959.3665   -3545.0453   -3959.3665            0    2553.8035    17.316516    20.396568    21.126109    7461.6887    3732.3179    1761.3891    2167.7035      654.925    146.06043   -1037.8617   -3267.1377 
 1638000    238.29163   -3928.1421   -3519.7184   -3928.1421            0    4883.2935    17.312135    20.391408    21.120764    7456.0274      6049.56    5623.2022    2977.1184    486.58293   -126.94014    188.81621   -2988.7163 
 1639000     221.6812   -3951.4687   -3571.5147   -3951.4687            0    3482.5901    17.309284     20.38805    21.117286    7452.3442     1623.124    4336.7553    4487.8909    257.97395   -1026.0098   -681.62566   -3193.0102 
 1640000    249.50846   -3955.5758   -3527.9268   -3955.5758            0    5002.0059    17.295158    20.371412    21.100053    7434.1139    3882.2671    5671.8595     5451.891    -188.5564   -333.86777    632.68713   -2985.6147 
 1641000    238.94847   -3961.6133   -3552.0638   -3961.6133            0    3804.8192    17.283061    20.357163    21.085294     7418.525    4060.4071     2756.262    4597.7883     794.4581    863.42313    342.31967   -3140.4144 
 1642000    231.48958   -3940.5056   -3543.7404   -3940.5056            0     3633.561    17.389272    20.482266    21.214872    7556.1369    4764.0045    4204.6781    1932.0005   -353.24576    1091.2708   -1570.1214   -3143.3274 
 1643000    241.02873   -3944.7876   -3531.6726   -3944.7876            0    4141.6277     17.33477    20.418069    21.148378    7485.3104    3897.9201    4114.1418    4412.8211   -543.82767   -304.81216    992.61105   -3079.5494 
 1644000    234.39653   -3940.2495   -3538.5019   -3940.2495            0    4118.6905    17.417638    20.515677    21.249478    7593.1746    3532.7181    3781.5212    5041.8323    1052.1636   -459.11096   -332.28697   -3082.4036 
 1645000    242.46124   -3918.1359   -3502.5657   -3918.1359            0    4164.3518    17.383859    20.475889    21.208267    7549.0818    3580.8818    4639.8373    4272.3364    346.17976    1482.2515   -517.92132   -3044.0888 
 1646000    239.78448    -3961.125   -3550.1426    -3961.125            0    3681.0683    17.411065    20.507934    21.241458    7584.5806    3694.8462    4864.6782    2483.6806    813.47942   -866.66996    562.47315   -3142.9674 
 1647000    236.57446   -3959.9403   -3554.4598   -3959.9403            0    2422.1678    17.422676     20.52161    21.255623    7599.7646    3357.7956    1645.8326    2262.8751     466.3593    1123.0424   -478.42187   -3285.9994 
 1648000    237.25659     -3949.28   -3542.6303     -3949.28            0    5455.7192     17.31074    20.389765    21.119062    7454.2244    3043.0032    7231.8933    6092.2613   -24.293236    -1658.225    448.64565    -2949.527 
 1649000    252.10282    -3910.058   -3477.9623    -3910.058            0    4491.3006     17.27858    20.351885    21.079827    7412.7564    2969.6491    4184.1168    6320.1359   -468.80061    658.90511    621.39595   -2992.4193 
 1650000    242.35831   -3945.6499   -3530.2561   -3945.6499            0    4709.3435    17.284215    20.358522    21.086702     7420.011    6401.6775    4659.7134    3066.6396     832.1862    148.36202   -1867.6821   -3020.6427 
 1651000    250.75513   -3941.5852   -3511.7995   -3941.5852            0    3829.4318    17.323866    20.405225    21.135076     7471.194    4047.9606     4737.165    2703.1697    477.73091   -111.61232   -462.58967   -3094.5457 
 1652000    240.40229   -3940.6287   -3528.5874   -3940.6287            0    4458.5174    17.207441    20.268093    20.993038    7321.5741    2746.4058    4473.5844    6155.5621   -644.09445    316.13351   -1521.1095   -3052.5174 
 1653000    249.08552   -3926.1221    -3499.198   -3926.1221            0    3566.8675    17.331901     20.41469    21.144879    7481.5951    4899.7496    1943.0434    3857.8095    1656.4865   -858.91483    349.68136   -3110.0122 
 1654000    237.34422   -3941.4868   -3534.6869   -3941.4868            0    3235.2277    17.321395    20.402315    21.132061    7467.9973    3976.8866    2669.8661    3058.9303   -688.96441   -214.47857   -36.344393   -3182.3283 
 1655000    241.55126   -3930.1624   -3516.1518   -3930.1624            0     3909.304    17.299323    20.376318    21.105134    7439.4862    4386.6017    4255.4683     3085.842    178.45009    252.54648    304.47796    -3092.003 
 1656000    226.27031   -3930.8561   -3543.0365   -3930.8561            0    3139.0226    17.390224    20.483387    21.216033    7557.3782     3563.504     2921.359    2932.2049   -186.03299   -270.55129   -371.98747   -3197.0641 
 1657000    249.41669   -3936.6282   -3509.1365   -3936.6282            0    5575.2401    17.256963    20.326423    21.053455    7384.9696    4098.6744    6659.3857    5967.6603   -1136.6192    459.58988    1458.3895   -2908.6709 
 1658000    244.14962   -3952.4275   -3533.9634   -3952.4275            0    2157.3657    17.291757    20.367405    21.095903    7429.7284    2248.1835    1880.7637    2343.1499     932.5347   -997.13829    323.79022   -3300.2021 
 1659000    238.39058   -3917.6436   -3509.0503   -3917.6436            0    4820.4882    17.303027     20.38068    21.109653    7444.2655    4466.7178    4902.3304    5092.4164    2370.3885   -660.95405     1035.174   -2985.7045 
 1660000    255.05236   -3914.0055   -3476.8545   -3914.0055            0    6743.5251    17.273177     20.34552    21.073235    7405.8042    5668.1896    6619.5341    7942.8517   -669.47167    921.48652   -73.816275   -2748.5129 
 1661000    230.76023   -3934.0449   -3538.5298   -3934.0449            0    2411.7927    17.375677    20.466253    21.198286    7538.4286    2580.5329    936.64891    3718.1963   -546.73013    143.51391   -164.99789   -3273.3767 
 1662000    234.90182    -3940.889   -3538.2753    -3940.889            0    2147.5113    17.334609     20.41788    21.148183    7485.1023    863.92691    3002.4116    2576.1953   -1092.9952    1912.7364   -159.73825   -3303.8476 
 1663000    249.41334   -3941.9003   -3514.4144   -3941.9003            0    4947.9143    17.221162    20.284254    21.009777    7339.1019      4836.99    4261.5399    5745.2129    1334.6685      -274.78    274.24877   -2984.8229 
 1664000    246.41577   -3950.5736   -3528.2254   -3950.5736            0    4915.6849    17.255804    20.325057     21.05204     7383.481    4303.9612    6060.7941    4382.2993   -1248.1647    37.322212    855.98126    -2998.902 
 1665000    240.86075   -3963.5408   -3550.7137   -3963.5408            0    4109.0029      17.2437    20.310801    21.037274    7367.9548    4756.0635    3398.7468    4172.1983   -271.86923    -78.44727    814.22358   -3109.1847 
 1666000    262.93008   -3965.5878   -3514.9346   -3965.5878            0    4511.6225    17.182672    20.238918     20.96282    7290.0026    3747.7203    4436.8659    5350.2815   -592.29356   -92.315713    616.13969   -3035.2715 
 1667000    234.57512   -3964.6519   -3562.5982   -3964.6519            0    5074.2994    17.253941    20.322864    21.049768    7381.0907     4344.932    4525.3953     6352.571    873.31642   -961.44855    1498.0562    -3016.372 
 1668000    254.27423   -3925.3372   -3489.5199   -3925.3372            0    3799.6051    17.334339    20.417561    21.147853    7484.7522    2786.0295    5063.4608    3549.3249    1028.5907    341.18285   -324.94156   -3074.7647 
 1669000    250.35069   -3929.9633   -3500.8708   -3929.9633            0    5082.5594       17.245    20.312332     21.03886    7369.6216    4076.5071    5419.0022     5752.169   -1030.3678    -380.3977   -486.96443   -2954.6056 
 1670000     252.2802   -3947.1961   -3514.7965   -3947.1961            0    5405.9935    17.218974    20.281677    21.007108     7336.305    5801.8237    4036.5567    6379.5999    532.63201   -214.24117   -571.83592   -2936.3958 
 1671000    235.41701   -3930.4707    -3526.974   -3930.4707            0    5373.6351    17.245201    20.312568    21.039104    7369.8786    6437.8879     5344.804    4338.2134    150.20948   -339.07208   -107.28919   -2949.4043 
 1672000    240.11714     -3963.58   -3552.0275     -3963.58            0    3727.8828    17.289223    20.364422    21.092812    7426.4635    3821.8746    4473.9287    2887.8452    1225.3409    861.04397   -1134.3571   -3148.2703 
 1673000    246.15871   -3964.1089   -3542.2013   -3964.1089            0    3914.1373    17.249116     20.31718    21.043881    7374.8996    4268.4913    3762.5804    3711.3402     1273.632   -277.32788    -1156.935   -3121.2149 
 1674000    242.18186   -3948.7474   -3533.6559   -3948.7474            0    6505.6302    17.205081    20.265313    20.990158    7318.5618    7210.1068    6274.5106    6032.2733   -216.55594   -398.95131    357.29325   -2839.2858 
 1675000     251.7004   -3936.0084   -3504.6025   -3936.0084            0    7794.5915    17.211105    20.272408    20.997507    7326.2515    8244.1483    7876.7262       7262.9    61.195722   -777.54124    -1029.138   -2671.7827 
 1676000    249.62561   -3980.8552   -3553.0054   -3980.8552            0    3205.5827    17.338708    20.422707    21.153183     7490.413    2551.5572    3546.1566    3519.0344    213.26405    184.19705   -213.51926   -3202.8276 
 1677000    238.64038   -3924.8394    -3515.818   -3924.8394            0    4503.1292    17.322272    20.403348    21.133131    7469.1318    5014.9042    6524.2634    1970.2201   -33.497683    225.11311    672.50857   -3025.2938 
 1678000    243.52081   -3931.9089   -3514.5226   -3931.9089            0    5018.9423     17.22497    20.288739    21.014423    7343.9719    4444.4768    6128.8361     4483.514    1329.6985    1165.1557   -312.29028   -2976.9723 
 1679000    232.26276   -3944.5804     -3546.49   -3944.5804            0    2845.3727    17.316684    20.396766    21.126314    7461.9058     4846.694    3081.6521    607.77209   -1381.8926     591.1564    980.84351   -3236.8444 
 1680000    231.69916   -3944.9283   -3547.8038   -3944.9283            0    2778.2638    17.308991    20.387705    21.116928    7451.9655    2601.2957    3654.0052    2079.4905   -954.30869    788.16461    909.06353   -3245.8641 
 1681000    251.85333   -3955.3644   -3523.6964   -3955.3644            0     4900.626    17.183475    20.239864      20.9638    7291.0254    5470.8908    5300.5913    3930.3959    139.05097    541.32436   -251.43151   -3002.6025 
 1682000     258.1832   -3941.5191    -3499.002   -3941.5191            0    6412.0669    17.209327    20.270314    20.995339    7323.9815    6181.6005    6301.0466    6753.5535    185.97104    683.08925     330.4871   -2814.1114 
 1683000    233.95204   -3942.9704   -3541.9846   -3942.9704            0    5488.4264    17.163466    20.216295    20.939388    7265.5842    4835.9017    5158.3474    6471.0302    184.96251    123.43218    3.9163157    -2960.425 
 1684000    237.27722   -3936.1575   -3529.4725   -3936.1575            0    5275.8061    17.230961    20.295796    21.021732    7351.6373    6287.7224    4261.7247     5277.971    2244.6309   -643.06263    549.83926   -2963.8212 
 1685000    237.95677   -3902.6105   -3494.7608   -3902.6105            0     4203.389    17.311468    20.390622     21.11995    7455.1649    4206.3713    5774.1017     2629.694   -1484.7597   -2034.3775    308.39803   -3037.7434 
 1686000    244.04552   -3919.9547    -3501.669   -3919.9547            0    3203.8794    17.369753    20.459275    21.191059    7530.7209     1747.735    3723.6008    4140.3025    2315.5346   -1339.0753   -552.88153   -3149.7938 
 1687000    242.87469   -3964.5138   -3548.2349   -3964.5138            0     4675.046    17.318191    20.398542    21.128153    7463.8549    5344.2741    5213.0857     3467.778    117.07469    264.37529    1655.2209   -3039.3437 
 1688000    258.16106   -3942.4451   -3499.9659   -3942.4451            0    4875.4535    17.274488    20.347065    21.074835    7407.4914    5592.7033    4232.4013    4801.2561    666.26507    202.59847    663.07189   -2973.2674 
 1689000    228.55775   -3946.0288   -3554.2886   -3946.0288            0    5914.0609     17.25534    20.324511    21.051474    7382.8853    8120.6509    6302.5563    3318.9754   -1265.4945   -74.597965   -1043.2846    -2917.511 
 1690000    254.94955    -3904.268   -3467.2932    -3904.268            0    5362.8414    17.221053    20.284125    21.009644    7338.9628     6015.927    4778.7971    5293.8003      1681.47    694.60164    405.25548   -2893.3016 
 1691000    240.22165   -3906.5838   -3494.8521   -3906.5838            0    4813.0943    17.268918    20.340505     21.06804    7400.3283    4180.3618    7073.3941     3185.527    2470.8675    -617.3203    285.49132   -2975.3932 
 1692000    255.26994   -3930.6598   -3493.1359   -3930.6598            0    3938.7777    17.313922    20.393513    21.122944     7458.336    3969.0848    3148.9089    4698.3393    565.30726   -102.99593   -332.03749   -3064.7064 
 1693000     244.8547   -3911.1609   -3491.4883   -3911.1609            0    4033.2322    17.276302    20.349202    21.077048    7409.8251    2711.9737    5662.0983    3725.6247   -380.59561   -299.14134     564.7704   -3055.6383 
 1694000     251.9597   -3933.8458   -3501.9955   -3933.8458            0    2349.2896    17.377545    20.468453    21.200564    7540.8597    3853.8512    2187.0777    1006.9399   -1158.2072   -118.81515    1064.7853   -3243.6307 
 1695000    239.04663   -3937.6756   -3527.9579   -3937.6756            0    4535.3131    17.295706    20.372057    21.100721    7434.8204    5037.2457    5406.5011    3162.1924    909.10617   -646.13915    493.12835   -3036.1974 
 1696000    244.33568   -3933.1053   -3514.3223   -3933.1053            0    4111.1077    17.238951    20.305207    21.031479    7361.8686    2625.1455    4122.0202    5586.1572    46.768204   -1083.4687    1315.8547    -3072.932 
 1697000    243.51465   -3931.8588    -3514.483   -3931.8588            0    5160.8047    17.305287    20.383342    21.112409    7447.1825    4670.1701    4342.8951    6469.3488   -1675.2018   -295.06543    599.26444   -2953.9705 
 1698000     247.4877   -3936.8132   -3512.6278   -3936.8132            0    4473.7695    17.308543    20.387178    21.116383    7451.3877    3806.8858    4687.3556    4927.0672    1007.4829   -73.292993    1129.0021   -3026.4595 
 1699000    252.36997   -3931.8362   -3499.2827   -3931.8362            0    4959.9413    17.259592    20.329519    21.056662    7388.3447    5847.6756    3786.5527    5245.5957    37.111947    794.25154    817.97307    -2964.842 
 1700000    249.14474    -3937.393   -3510.3674    -3937.393            0    3866.9736    17.214008    20.275827    21.001049    7329.9596    4766.7752    3156.2552    3677.8903    217.48708   -695.56495    725.80726   -3096.9882 
 1701000    245.64592   -3931.8162   -3510.7875   -3931.8162            0    4617.8396    17.224298    20.287948    21.013603    7343.1122    5168.4918     4423.462    4261.5649    1091.5877   -181.25076    724.52469    -3016.255 
 1702000    242.89835   -3918.3522   -3502.0327   -3918.3522            0    4808.6583    17.281271    20.355055    21.083111    7416.2208    5251.3704    3981.0346    5193.5699    552.09354    573.24047    80.332148    -2981.938 
 1703000    241.23428   -3962.6921   -3549.2248   -3962.6921            0    4696.5081    17.283252    20.357387    21.085527    7418.7706    5430.9238    2961.0208    5697.5797    573.25771    -259.1953   -140.57354   -3041.0853 
 1704000    231.72517   -3930.9639   -3533.7949   -3930.9639            0    5025.7933    17.245737    20.313201    21.039759    7370.5671     5410.932    5290.8086    4375.6392    1933.9496    937.71505    876.29006   -2993.5615 
 1705000    238.27677   -3951.7201   -3543.3219   -3951.7201            0    3980.4239    17.277989    20.351189    21.079106    7411.9957    3461.3362    2865.9329    5614.0026    829.88303    260.17038   -486.58449   -3113.0526 
 1706000    243.53838   -3954.8357   -3537.4192   -3954.8357            0    3038.7166    17.272595    20.344835    21.072525    7405.0556    3804.1122    3133.0334    2179.0042    793.74024   -1003.2194    1578.5745   -3209.2526 
 1707000    235.53695   -3910.4569   -3506.7547   -3910.4569            0     5778.426    17.273756    20.346203    21.073942    7406.5493     4138.275    8654.6174    4542.3855   -1560.9562    370.33904    483.30825   -2882.5869 
 1708000    243.91995    -3897.907   -3479.8365    -3897.907            0    4182.3434    17.263964     20.33467    21.061996    7393.9614    3961.1087    4995.5365    3590.3848   -578.49109    924.10948   -1120.1527   -3028.8405 
 1709000    247.89114   -3941.2565   -3516.3796   -3941.2565            0    4325.0988    17.307366    20.385791    21.114946    7449.8672    4545.8775    4128.8755    4300.5435    341.99545    482.77834   -1079.1629   -3046.4633 
 1710000    250.69281   -3912.2921   -3482.6132   -3912.2921            0    5365.7358    17.289361    20.364583     21.09298    7426.6407    5419.8291    6357.4824    4319.8958   -1838.2852   -1695.5474   -300.39135   -2901.4507 
 1711000    252.79412   -3957.0614   -3523.7809   -3957.0614            0     4992.835    17.332978    20.415958    21.146192    7482.9893    6267.1877     5180.733    3530.5843    861.65706    336.67701   -181.90166   -2978.9042 
 1712000    263.04493    -3962.784    -3511.934    -3962.784            0    3964.5241    17.340942    20.425339    21.155909    7493.3092     6116.203    2421.5735    3355.7957   -626.69898    422.42028    1385.0368    -3078.682 
 1713000     249.1054    -3920.979   -3494.0209    -3920.979            0    4744.0453    17.366785    20.455779    21.187437    7526.8606    3725.5039    6094.5925    4412.0396   -1470.5671    242.22786    141.33886   -2973.2597 
 1714000    245.13794   -3945.5074   -3525.3493   -3945.5074            0    3926.8371     17.31037     20.38933    21.118611    7453.7474    3430.8271    3797.8466    4551.8376      574.884   -1169.8115   -472.87488   -3098.4815 
 1715000    234.66254   -3964.9916   -3562.7881   -3964.9916            0    3008.0397    17.322861    20.404042     21.13385    7469.8946    1792.0319    4502.9109    2729.1762    -1272.319    45.182707   -390.15996     -3235.09 
 1716000    236.80812     -3947.78    -3541.899     -3947.78            0    3439.0407     17.35019    20.436232    21.167192    7505.3046      1822.79    4484.1725    4010.1596   -180.99636     769.8384    737.53072   -3165.4714 
 1717000    239.83649   -3967.1935   -3556.1219   -3967.1935            0    4882.2586    17.321467    20.402401     21.13215    7468.0916    3800.8874    6494.4265    4351.4618   -47.956855   -1346.0855   -1618.5135   -3024.3734 
 1718000    250.34193   -3947.5016   -3518.4241   -3947.5016            0    5565.0159    17.315597    20.395487    21.124988    7460.5016    6127.3504    3473.2077    7094.4895   -203.60895      -327.68    403.59219   -2912.9294 
 1719000    250.63481   -3940.9374   -3511.3579   -3940.9374            0    4144.3182    17.336439    20.420035    21.150415    7487.4733    3958.2795    4540.7827    3933.8926    1231.2104   -302.06957   -124.78944   -3058.8103 
 1720000    233.90834   -3948.6269    -3547.716   -3948.6269            0    3851.7425    17.309059    20.387785    21.117011     7452.053    4871.0784    3325.1705    3358.9787    1421.1699   -1074.1268   -562.40935   -3129.1065 
 1721000    253.82919    -3965.682   -3530.6274    -3965.682            0    4308.7588     17.31702    20.397162    21.126724    7462.3402    4182.1493     2367.238     6376.889    1529.1043    294.91552    361.19647   -3061.7027 
 1722000    259.34083   -3997.0285   -3552.5272   -3997.0285            0    3632.4588    17.361935    20.450066     21.18152     7520.556     4256.849    3259.7101    3380.8172    724.62931    204.78957   -229.21558   -3154.1206 
 1723000    242.39216   -3941.7317   -3526.2799   -3941.7317            0    5333.6834    17.253001    20.321757    21.048621    7379.8843     5300.846    4947.2236    5752.9808   -978.09481    -656.7814   -1150.7625    -2952.226 
 1724000    239.97901   -3913.0404   -3501.7246   -3913.0404            0    3328.1036    17.382795    20.474636    21.206969    7547.6963    4717.6349    2565.4657    2701.2102    647.69019    324.36112    847.67708   -3135.3822 
 1725000    232.40824   -3923.7755   -3525.4358   -3923.7755            0    4235.2183    17.328534    20.410724    21.140771    7477.2355    4100.2778    4211.6697    4393.7074   -679.30211    1836.7686    1109.7631   -3063.5945 
 1726000    246.97117     -3937.42   -3514.1199     -3937.42            0    2688.3932    17.364884    20.453539    21.185117    7524.3886    1343.2402    2089.3056    4632.6338   -1657.5823     995.8361   -874.53079   -3219.1078 
 1727000    252.46149   -3876.3358   -3443.6255   -3876.3358            0    6520.3278    17.258212    20.327895    21.054979    7386.5734    5498.2402     5411.217    8651.5261   -318.97797    27.299473    821.32043   -2741.2193 
 1728000    260.39261    -3917.685    -3471.381    -3917.685            0    5590.8674    17.277921    20.351109    21.079024    7411.9086    4925.4394     7091.389    4755.7739   -30.068471   -817.90821    604.69413   -2867.0357 
 1729000    245.13601   -3914.9399   -3494.7851   -3914.9399            0    4835.6145    17.362047    20.450198    21.181657    7520.7017    4177.5312      6233.59    4095.7223   -1248.6686    361.52529    1743.7148   -2964.4066 
 1730000    245.66262   -3902.3687   -3481.3113   -3902.3687            0    4929.0336    17.372384    20.462374    21.194268    7534.1429    4977.7415    5619.6137    4189.7456    550.99974    967.36518    383.26667   -2939.7202 
 1731000    247.88204   -3916.9353    -3492.074   -3916.9353            0    3797.7906    17.380298    20.471696    21.203923    7544.4444    5815.4396    2593.8462     2984.086   -1698.0322    1337.8103    12.908905   -3074.2107 
 1732000    246.15417   -3933.8101   -3511.9103   -3933.8101            0    4992.9102    17.328064     20.41017    21.140197    7476.6269    4804.7904    5603.8886    4570.0516   -420.71312    792.47972     1392.576   -2967.4886 
 1733000    242.23172   -3942.1729    -3526.996   -3942.1729            0    4039.9917    17.348456     20.43419    21.165076    7503.0547    5004.1957    4036.9233    3078.8561   -492.41203    425.94061   -166.59143   -3084.9225 
 1734000    245.72752   -3931.1176   -3509.9491   -3931.1176            0    4512.8931    17.362555    20.450797    21.182277    7521.3625    4882.0923    4781.6409    3874.9461    498.89074   -1426.4692    197.91394   -3014.9237 
 1735000     233.7961   -3938.2251   -3537.5066   -3938.2251            0    3182.2555    17.334887    20.418207    21.148522    7485.4626    2280.4817    3997.3148      3268.97   -454.38174   -141.12686    44.175815   -3190.1068 
 1736000    238.48516   -3914.4234    -3505.668   -3914.4234            0    2360.4024    17.408875    20.505355    21.238786     7581.719    2555.5531    1632.4644    2893.1898    697.87976    126.10333   -744.37897   -3244.6746 
 1737000    258.19579   -3961.1182   -3518.5794   -3961.1182            0    3697.0219    17.369709    20.459223    21.191005    7530.6634     3922.992    3408.6062    3759.4675   -728.84105    272.59864   -496.61002   -3112.5466 
 1738000    247.80622   -3928.7618   -3504.0304   -3928.7618            0    4604.7867    17.387613    20.480311    21.212847    7553.9735    4201.2858    6021.8852    3591.1891    778.03249   -803.39863   -389.59635   -2996.7351 
 1739000    243.00432    -3916.575   -3500.0739    -3916.575            0    4005.7341    17.336462    20.420062    21.150443     7487.503    3313.1543    4338.1569    4365.8912   -74.047077   -398.11794   -1046.5515   -3062.6576 
 1740000    237.51067   -3909.7814   -3502.6962   -3909.7814            0    3968.4413    17.346615    20.432021     21.16283    7500.6656    3077.2501    3111.7455    5716.3284   -207.37749   -1370.2399    1027.0087   -3068.5904 
 1741000    231.01692   -3918.7358   -3522.7807   -3918.7358            0    6666.4139    17.261717    20.332022    21.059254    7391.0737    9391.2572    6121.1824    4486.8019   -238.39408    866.54834    490.57535   -2804.1998 
 1742000    244.24959   -3916.6452   -3498.0097   -3916.6452            0    3826.9941    17.358623    20.446164    21.177479    7516.2527    5232.1115    3663.0614    2585.8094   -31.458339    329.12375    347.70257   -3078.5067 
 1743000     255.2363   -3909.7178   -3472.2515   -3909.7178            0    5523.2993    17.295113    20.371358    21.099997    7434.0552    5240.1338    7397.8989    3931.8652    764.88225   -459.61112    94.462343    -2873.426 
 1744000    248.21447   -3909.3249   -3483.8938   -3909.3249            0     4410.938    17.282292    20.356258    21.084356    7417.5356    3290.3801    5456.3374    4486.0964    501.02774   -829.67147    -872.1188   -3006.7311 
 1745000     260.5397   -3893.0482   -3446.4921   -3893.0482            0    4147.1035    17.364218    20.452755    21.184305    7523.5232    2269.1859    5562.1844    4609.9402    591.11275   -1137.3614   -765.35492     -2991.46 
 1746000    252.37454    -3912.892   -3480.3306    -3912.892            0    2312.1791     17.34444    20.429459    21.160176    7497.8448    3114.7725    1997.8893    1823.8755   -1128.9479   -388.86484   -1432.7525   -3227.4976 
 1747000    245.92323   -3910.8373   -3489.3333   -3910.8373            0    4536.6705    17.290477    20.365897    21.094341    7428.0784    4002.0376    5603.2134    4004.7604    616.23387    124.17114    612.93042   -2997.8717 
 1748000    250.45587   -3918.0744   -3488.8016   -3918.0744            0    4922.6014    17.327305    20.409277    21.139272    7475.6453    6210.4149    2730.3807    5827.0085   -398.26809    1581.8724    148.67582   -2952.1168 
 1749000     237.2971   -3943.0498   -3536.3307   -3943.0498            0    3993.6312    17.283173    20.357295     21.08543     7418.669    3671.8835    4114.2441     4194.766   -61.875648    259.53992   -261.83763    -3104.245 
 1750000    262.69756   -3924.4554   -3474.2007   -3924.4554            0    2261.6496    17.351967    20.438326     21.16936     7507.611    1431.4657    3229.7799    2123.7032    100.89215   -360.46308    785.79921   -3226.5709 
Loop time of 425.242 on 64 procs for 250000 steps with 864 atoms

Performance: 101.589 ns/day, 0.236 hours/ns, 587.900 timesteps/s
99.1% CPU use with 64 MPI tasks x 1 OpenMP threads

MPI task timing breakdown:
Section |  min time  |  avg time  |  max time  |%varavg| %total
---------------------------------------------------------------
Pair    | 20.096     | 25.466     | 29.983     |  47.6 |  5.99
Bond    | 0.2737     | 0.28275    | 0.2979     |   1.0 |  0.07
Kspace  | 186.31     | 193.96     | 203.26     |  23.0 | 45.61
Neigh   | 4.195      | 4.6736     | 5.6325     |  15.4 |  1.10
Comm    | 87.087     | 95.849     | 101.68     |  32.5 | 22.54
Output  | 0.92631    | 0.92824    | 0.94255    |   0.2 |  0.22
Modify  | 95.023     | 97.615     | 101.53     |  14.5 | 22.96
Other   |            | 6.468      |            |       |  1.52

Nlocal:        13.5000 ave          18 max           9 min
Histogram: 2 4 3 7 17 12 11 2 5 1
Nghost:        2134.28 ave        2184 max        2097 min
Histogram: 4 6 10 10 12 8 7 4 1 2
Neighs:        4116.52 ave        5270 max        2261 min
Histogram: 1 1 5 6 7 11 4 12 11 6

Total # of neighbors = 263457
Ave neighs/atom = 304.92708
Ave special neighs/atom = 2.0000000
Neighbor list builds = 12031
Dangerous builds = 0

unfix		3
unfix		2
unfix		1

write_data	data.final.${pid}
write_data	data.final.0
System init for write_data ...
PPPM initialization ...
  extracting TIP4P info from pair style
  using 12-bit tables for long-range coulomb (../kspace.cpp:340)
  G vector (1/distance) = 0.37401267
  grid = 24 24 25
  stencil order = 5
  estimated absolute RMS force accuracy = 0.0030996016
  estimated relative force accuracy = 9.3343581e-06
  using double precision FFTW3
  3d grid and FFT values/proc = 2730 288
Last active /omp style is kspace_style pppm/tip4p/omp
WARNING: Not all mixed pair coeffs generated from mixing. Use write_data with 'pair ij' option to store all pair coeffs. (../write_data.cpp:312)

write_restart   restart.lmp.${pid}
write_restart   restart.lmp.0
System init for write_restart ...
PPPM initialization ...
  extracting TIP4P info from pair style
  using 12-bit tables for long-range coulomb (../kspace.cpp:340)
  G vector (1/distance) = 0.37401267
  grid = 24 24 25
  stencil order = 5
  estimated absolute RMS force accuracy = 0.0030996016
  estimated relative force accuracy = 9.3343581e-06
  using double precision FFTW3
  3d grid and FFT values/proc = 2730 288
Last active /omp style is kspace_style pppm/tip4p/omp
Total wall time: 0:07:07
