LAMMPS data file via write_data, version 30 Jul 2021, timestep = 1500000

1296 atoms
2 atom types
864 bonds
1 bond types
432 angles
1 angle types

-10.596333313273773 12.576333313273773 xlo xhi
-9.229763756256443 12.219761756256442 ylo yhi
0.1020323640004488 21.757966635999594 zlo zhi
-9.20450312174206 1.7384861197165191 2.9357885124430605 xy xz yz

Masses

1 1.008
2 15.999

Pair Coeffs # lj/cut/tip4p/long/omp

1 0 0
2 0.21084 3.1668

Bond Coeffs # harmonic/omp

1 450 0.9572

Angle Coeffs # harmonic/omp

1 55 104.52

Atoms # full

282 94 1 0.5897 -10.48449075608393 -4.054146602205356 1.5490699851916452 1 1 0
257 86 1 0.5897 -12.621911433520047 -3.7897851258090522 2.1602559973421354 1 1 0
280 94 2 -1.1794 -9.646699757980405 -4.516967697479953 1.555257349438098 1 1 0
270 90 1 0.5897 -8.395992828286087 -7.317973764673339 2.1532211307528697 1 1 0
163 55 2 -1.1794 -7.219864736810534 -7.92419260922189 0.8499588138618942 1 1 0
164 55 1 0.5897 -6.3634624043331 -8.297607301027622 1.0579906455376995 1 1 0
298 100 2 -1.1794 -5.991484898051864 -7.264171656770829 3.9895636199486653 1 1 0
269 90 1 0.5897 -9.259706918341085 -6.0983033058465965 2.393955487422208 1 1 0
268 90 2 -1.1794 -9.071409214973022 -6.971916323798441 2.736594437449315 1 1 0
281 94 1 0.5897 -8.988540080475742 -3.82200892221943 1.5560275165881976 1 1 0
324 108 1 0.5897 -7.095127442906419 -4.274393676271498 3.562593456083443 1 1 0
73 25 2 -1.1794 -8.35918938091326 -3.627229048766102 4.783454057677225 1 0 0
314 105 1 0.5897 -8.769176159744577 -6.595048287428775 4.398116685989204 1 1 0
323 108 1 0.5897 -6.380378448271271 -5.555622038772009 3.1895710015618057 1 1 0
299 100 1 0.5897 -6.651049345459651 -7.956119776325636 3.941407648407493 1 1 0
300 100 1 0.5897 -5.155717876079314 -7.722840768583647 3.9043737286161377 1 1 0
275 92 1 0.5897 -10.547222876781222 -7.898187245086141 3.3555859584000522 1 1 0
315 105 1 0.5897 -8.551636825741785 -5.393167601840469 5.29253602453473 1 1 0
322 108 2 -1.1794 -6.548380157428354 -4.665324547695172 2.88102997934448 1 1 0
261 87 1 0.5897 -6.836807255441726 -4.895521095498775 1.0119136040316778 1 1 0
313 105 2 -1.1794 -8.739714972037792 -6.331276083307992 5.317860137132822 1 1 0
633 211 1 0.5897 -5.848268866134697 -5.962072566442197 5.448681541097149 1 1 0
1141 381 2 -1.1794 -10.475444010254618 -8.698353694999957 0.14842347966407798 0 0 1
165 55 1 0.5897 -7.566242459622403 -8.488452459562147 0.15865451015095652 1 1 0
260 87 1 0.5897 -6.855009026080273 -6.250804008036523 0.3377095491527248 1 1 0
259 87 2 -1.1794 -6.736022990733374 -5.318104184551903 0.1589138482636769 1 1 0
429 143 1 0.5897 -6.247177034111866 -7.1523927560383 8.538702729094805 1 0 0
428 143 1 0.5897 -6.33497033603894 -7.159970989996779 10.050156193595026 1 0 0
427 143 2 -1.1794 -5.718049564523158 -7.038963522912068 9.328296354204916 1 0 0
419 140 1 0.5897 -8.946034550115757 -5.325608096407385 8.72112337750663 1 0 0
418 140 2 -1.1794 -9.62664583386152 -5.832001294376369 9.16444716020874 1 0 0
413 138 1 0.5897 -7.614811126188387 -3.4358624702009752 7.6954250104494015 1 0 0
414 138 1 0.5897 -6.958216525486291 -4.778168670632606 7.453330323436781 1 0 0
350 117 1 0.5897 -7.224127186914947 -4.2502178587889565 9.895837173567346 0 0 0
627 209 1 0.5897 -10.268215238676154 -6.659579322594677 6.433380269569685 1 1 0
618 206 1 0.5897 -7.714630292027126 -7.266883781158755 6.643658508039609 1 1 0
616 206 2 -1.1794 -7.30629529271655 -7.846158391457255 7.286982636537641 1 1 0
412 138 2 -1.1794 -7.592699911826574 -4.336719625761901 8.017952842792784 1 0 0
420 140 1 0.5897 -9.148368732322716 -6.398209806730252 9.770100325144998 1 0 0
349 117 2 -1.1794 -7.152417431100288 -3.9427498777104972 10.799542136254946 0 0 0
351 117 1 0.5897 -7.083516541844979 -2.9910876488040072 10.724444151565036 0 0 0
631 211 2 -1.1794 -5.676638462047834 -5.37553422519982 6.1854325799236936 1 1 0
684 228 1 0.5897 -8.497649543317346 -6.693233284101906 14.300216321460015 0 0 0
662 221 1 0.5897 -8.973819840807346 -4.347281989732652 13.213943499682204 0 0 0
740 247 1 0.5897 -10.999843556091202 -3.3592255764313235 12.129842857535968 1 0 0
652 218 2 -1.1794 -5.705614503608508 -5.438724685376828 12.656342156952984 0 0 0
682 228 2 -1.1794 -7.7510117549141295 -6.998749900170628 13.785015658274409 0 0 0
780 260 1 0.5897 -7.438861349339102 -4.018206606927841 15.048108854571094 0 0 0
779 260 1 0.5897 -7.271882360230791 -3.001988995466224 13.938501462691535 0 0 0
778 260 2 -1.1794 -7.9322673177564225 -3.5255655461932243 14.39233610388191 0 0 0
768 256 1 0.5897 -9.45456970530748 -2.651261621450839 14.921990771222655 0 0 0
654 218 1 0.5897 -6.143283595806044 -4.890752984007734 12.004928236714512 0 0 0
653 218 1 0.5897 -6.419777630941059 -5.863272221245426 13.131693509472607 0 0 0
661 221 2 -1.1794 -9.440229991661809 -4.58820248422404 12.413487101083021 0 0 0
729 243 1 0.5897 -8.061359842462288 -7.073674084355809 11.883696158675928 1 0 0
766 256 2 -1.1794 -10.326194769261448 -2.2704679953451112 15.028863694021435 0 0 0
788 263 1 0.5897 -4.982506445084148 -4.538562121630534 15.560681401522883 0 0 0
663 221 1 0.5897 -8.85165381912732 -4.327622025882844 11.704987941422996 0 0 0
767 256 1 0.5897 -10.917931852290616 -3.0227675086603574 15.03314212861461 0 0 0
727 243 2 -1.1794 -8.152078642871537 -7.383208079281059 10.982412705847551 1 0 0
758 253 1 0.5897 -9.319684824520952 -5.354082170005513 16.181147655865423 0 0 0
757 253 2 -1.1794 -9.695952820210593 -5.891213637590744 15.483875759749909 0 0 0
1088 363 1 0.5897 -6.983343155370793 -5.921331946153051 16.49053701833452 0 0 0
1221 407 1 0.5897 -10.747364991871134 -2.1846062385910248 19.594115834173202 0 0 0
1097 366 1 0.5897 -9.343981123952894 -5.629374047267415 18.57837951924335 0 0 0
1248 416 1 0.5897 -6.007522078229367 -1.3956201544231153 20.505182988997248 0 0 0
1152 384 1 0.5897 -6.7898437934519755 -3.8719106904295746 19.839834070528887 0 0 0
1225 409 2 -1.1794 -8.07783628846396 -3.179546812293453 20.91770450379363 0 0 0
1227 409 1 0.5897 -8.898322801675029 -2.7786042679504845 20.631020392842032 0 0 0
1131 377 1 0.5897 -7.149600247222261 -1.6299241449751607 17.076230537780837 0 0 0
1109 370 1 0.5897 -8.779058506474232 -3.443700023962446 17.648625722106168 0 0 0
1108 370 2 -1.1794 -9.443724446273183 -4.130121474065051 17.592134797285766 0 0 0
1129 377 2 -1.1794 -7.8668975671765295 -1.7875510699181216 17.69017007685386 0 0 0
1089 363 1 0.5897 -6.477354008711886 -4.7723734613943165 17.336527531760943 0 0 0
1121 374 1 0.5897 -4.802235695397261 -3.3332500728950496 18.509028542154667 0 0 0
1219 407 2 -1.1794 -10.422629034732728 -1.9380016093136447 20.460182093355826 0 0 0
1143 381 1 0.5897 -8.625128468127805 -4.826137810977308 21.641108639106847 0 0 0
1151 384 1 0.5897 -6.106998838876342 -5.178746559598737 19.49711208378833 0 0 0
1150 384 2 -1.1794 -6.231349761158445 -4.284065861459183 19.180671011533946 0 0 0
1110 370 1 0.5897 -10.271998853690677 -3.6753839153761634 17.744880976312523 0 0 0
1130 377 1 0.5897 -7.4759021757795106 -1.6587698349712872 18.55438753082965 0 0 0
1087 363 2 -1.1794 -6.619928930444219 -5.038096616012757 16.42799693255329 0 0 0
1226 409 1 0.5897 -7.7815304894833766 -2.6283386344972577 21.642033320361037 0 0 0
1142 381 1 0.5897 -8.662088443981638 -6.1674005579142355 20.940152624550265 0 0 0
44 15 1 0.5897 -9.843392799016407 0.9306422866225859 0.41999376142776634 1 0 0
69 23 1 0.5897 -10.965454287830473 -2.6274360815348023 3.2371153102082246 1 0 0
59 20 1 0.5897 -13.619502068222156 -0.8711500807477162 3.48820330807832 1 0 0
272 91 1 0.5897 -9.49488064395693 -1.2784612676301332 1.4541778232019529 1 1 0
271 91 2 -1.1794 -10.235984332669835 -0.829037198656227 1.0480660678587705 1 1 0
99 33 1 0.5897 -11.815377125650876 1.6999940278643386 5.214619162358669 1 0 0
258 86 1 0.5897 -12.424404459380527 -2.6439919038768185 1.1907925328356446 1 1 0
256 86 2 -1.1794 -11.94697090225551 -3.226867392201785 1.7810929691072483 1 1 0
67 23 2 -1.1794 -10.57835559074846 -2.2426937935785825 4.023523668116552 1 0 0
301 101 2 -1.1794 -7.875816181126222 -2.2936923582970286 1.5109708105739355 1 1 0
68 23 1 0.5897 -11.245526787369771 -2.357408957112783 4.700301217283876 1 0 0
52 18 2 -1.1794 -12.353979151420145 0.18540105502222204 2.591462715603317 1 0 0
53 18 1 0.5897 -12.498165116138575 1.0585869348563168 2.227020434301558 1 0 0
82 28 2 -1.1794 -8.954585753244633 0.06470447163107806 4.171799070106692 1 0 0
83 28 1 0.5897 -9.621681226365203 -0.6196555217129642 4.1191270986781 1 0 0
54 18 1 0.5897 -11.60303559461743 -0.15616706819741566 2.106017634015564 1 0 0
98 33 1 0.5897 -12.12898052732508 0.5244009338710249 4.31379994302894 1 0 0
107 36 1 0.5897 -9.266284408385415 1.549160235998139 3.34920886373493 1 0 0
84 28 1 0.5897 -8.137383113807797 -0.3786341302936336 3.944233028436348 1 0 0
97 33 2 -1.1794 -12.10166749952843 0.7869009019833939 5.233972356863387 1 0 0
273 91 1 0.5897 -10.462266986623058 -1.372756037791393 0.2934578387581827 1 1 0
75 25 1 0.5897 -9.153670033424923 -3.2279074161721084 4.42922499910681 1 0 0
527 176 1 0.5897 -11.88927484299467 1.766450105117567 8.599315702440114 1 0 0
526 176 2 -1.1794 -12.602796963558493 1.2634096870164484 8.99179142708365 1 0 0
426 142 1 0.5897 -8.834485685482822 -1.3938362082100157 6.826854825157005 1 0 0
411 137 1 0.5897 -13.647900833026483 0.3969719978030142 6.263808687297842 1 0 0
402 134 1 0.5897 -10.885145988898005 -0.2464055290413789 6.27972489498761 1 0 0
401 134 1 0.5897 -11.102144780052143 -1.0389646418187866 7.551225404797996 1 0 0
400 134 2 -1.1794 -10.416238142459427 -0.6416176569578642 7.014674093295792 1 0 0
537 179 1 0.5897 -9.348029762675077 0.19228786354444694 8.450336674677052 1 0 0
536 179 1 0.5897 -9.759034715995965 0.16161077507508637 9.907177018784287 1 0 0
535 179 2 -1.1794 -9.054006139851687 0.4456882565646918 9.325368721055442 1 0 0
528 176 1 0.5897 -12.178634213606312 0.7287449237623775 9.662903145536859 1 0 0
424 142 2 -1.1794 -7.982175547188311 -1.8133087695886898 6.9440653938433154 1 0 0
435 145 1 0.5897 -7.572289062301213 -0.713598684930103 9.80214273725207 0 0 0
522 174 1 0.5897 -9.738579530522536 2.309159833949167 7.53182199631606 1 0 0
417 139 1 0.5897 -8.698120281917825 1.0464845977989654 5.609476390586945 1 0 0
74 25 1 0.5897 -8.121910117092174 -3.071811772584213 5.52608424489123 1 0 0
433 145 2 -1.1794 -6.885745551709795 -1.2204056848435751 10.235662511904629 0 0 0
516 172 1 0.5897 -14.109720005916191 2.041897539483619 9.477020461518961 1 0 0
369 123 1 0.5897 -12.498309279332231 -2.5611605770151264 6.577482233668636 1 0 0
410 137 1 0.5897 -13.634481260613576 0.4575652017682472 7.77655797332861 1 0 0
430 144 2 -1.1794 -12.206437479512132 -2.266540992333881 8.388081266160029 1 0 0
458 153 1 0.5897 -10.328548802764997 2.799037301695238 9.869351071899022 0 0 0
835 279 2 -1.1794 -11.142042372792421 -0.35916757310411995 10.827222167721107 1 0 0
836 279 1 0.5897 -11.24080416434356 -1.3106105843933857 10.859697332173672 1 0 0
896 299 1 0.5897 -8.059057646115747 2.4302682934457867 15.780161168297848 0 0 0
762 254 1 0.5897 -9.43687557136818 2.1045341192456934 12.094861036499195 0 0 0
761 254 1 0.5897 -9.598968414540849 1.0119608788003305 13.130118667159513 0 0 0
760 254 2 -1.1794 -8.958238695491769 1.6261768387639108 12.771819453677498 0 0 0
897 299 1 0.5897 -8.058306161949702 2.410741665598998 14.266268696697152 0 0 0
792 264 1 0.5897 -11.643488555685515 0.5610489509917969 14.408306665903329 0 0 0
837 279 1 0.5897 -11.428101871821214 -0.05862872458972568 11.689892821336466 1 0 0
888 296 1 0.5897 -10.681951701472181 3.1828929543529654 15.32944285706638 0 0 0
791 264 1 0.5897 -10.896133648761488 -0.7319007756015043 14.160783637394282 0 0 0
790 264 2 -1.1794 -11.15216451437821 0.08728836636125159 13.73716524601123 0 0 0
770 257 1 0.5897 -12.002186099178502 2.658584576107044 13.164015251999164 0 0 0
769 257 2 -1.1794 -12.413257879476218 2.5812233400801254 12.302989820140944 0 0 0
771 257 1 0.5897 -11.745262767150873 2.887590877691034 11.689644830114158 0 0 0
1009 337 2 -1.1794 -11.558799379378751 3.8475394708043194 20.942229908795177 0 -1 0
1260 420 1 0.5897 -10.00775107136785 3.277774779530656 19.892380013198427 0 0 0
1205 402 1 0.5897 -12.420982368255999 1.291572899578643 18.721716412078372 0 0 0
1259 420 1 0.5897 -9.21781621766615 1.9894835577043626 19.804046035069987 0 0 0
1258 420 2 -1.1794 -9.30503642598596 2.8529654407594442 19.400482935999264 0 0 0
1251 417 1 0.5897 -11.714927904363453 2.08133607395143 21.54238323852457 0 0 0
1206 402 1 0.5897 -11.664090498746814 0.007781080050374811 18.45619183485981 0 0 0
1101 367 1 0.5897 -10.52735877036471 -0.9947731181570205 16.59027047699773 0 0 0
1236 412 1 0.5897 -8.02691977199094 -0.022591586325345858 20.31277111684475 0 0 0
1246 416 2 -1.1794 -6.422999358008531 -0.8071306513022325 19.874930347937166 0 0 0
1235 412 1 0.5897 -9.502618708158069 -0.29058477453814113 20.51848654368915 0 0 0
1234 412 2 -1.1794 -8.86137827330454 0.41847808768197936 20.471813902796605 0 0 0
1196 399 1 0.5897 -9.894447594433153 1.2501025867038926 16.848110190045304 0 0 0
1229 410 1 0.5897 -7.964360513838895 3.7618148848059416 18.631619640212826 0 0 0
1250 417 1 0.5897 -11.824370309382957 0.7908317461656971 20.75858586333979 0 0 0
1197 399 1 0.5897 -9.592894768772574 2.5184344010531703 17.617620219360504 0 0 0
1100 367 1 0.5897 -9.40419507909782 -0.7104015154111352 17.564737457667434 0 0 0
1216 406 2 -1.1794 -12.564940337670166 2.826860075462129 17.922513270752845 0 0 0
1099 367 2 -1.1794 -10.264506633074985 -0.39481822311073955 17.28828739527229 0 0 0
1249 417 2 -1.1794 -11.792268869634478 1.133657496364215 21.651777647895734 0 0 0
1217 406 1 0.5897 -11.968535172160557 3.567165057708264 17.811286564186098 0 0 0
1218 406 1 0.5897 -13.431107519209977 3.2262771588040327 18.002294557103767 0 0 0
1195 399 2 -1.1794 -9.715964711919257 2.1829213023289675 16.729568445398357 0 0 0
1011 337 1 0.5897 -12.388960800193281 4.178352648027953 20.599371683006595 0 -1 0
866 289 1 0.5897 -12.716718205313882 1.6428871807764054 16.429639256640755 0 0 0
40 14 2 -1.1794 -15.11144569420222 4.043091030625741 1.9429690702790483 1 0 0
177 59 1 0.5897 -14.065912691749736 4.8800874141314186 3.2535321841131544 1 0 0
42 14 1 0.5897 -15.620492518202681 4.507241160307215 1.2784216173085612 1 0 0
108 36 1 0.5897 -10.11847581788234 2.7711954455441514 3.617426950116198 1 0 0
162 54 1 0.5897 -14.602279395324064 7.0240525763337445 1.8703080727822203 1 0 0
55 19 2 -1.1794 -13.181676979483914 6.36955792713287 0.7918008218725902 1 0 0
56 19 1 0.5897 -12.438195294104034 5.878277983636423 1.1410979468800897 1 0 0
190 64 2 -1.1794 -11.942132830433295 7.174077434596196 4.163551265234209 1 0 0
167 56 1 0.5897 -16.585646448377602 6.527262870929743 3.354089261684148 1 0 0
66 22 1 0.5897 -13.650412441728797 3.117498216494459 1.4786699428156773 1 0 0
65 22 1 0.5897 -12.15456357562309 3.3033474999745067 1.3382692803429617 1 0 0
64 22 2 -1.1794 -12.837359263585219 2.632576516198718 1.3374555921986702 1 0 0
85 29 2 -1.1794 -11.12410319583796 4.820795843683033 1.5109046878303007 1 0 0
176 59 1 0.5897 -14.433151811716648 4.726101219022317 4.714235359222015 1 0 0
191 64 1 0.5897 -12.57480602785644 6.460058779408625 4.085810495697862 1 0 0
175 59 2 -1.1794 -13.69053828988436 4.893834569617937 4.134008086893583 1 0 0
183 61 1 0.5897 -12.34326818974188 3.672386790536317 4.514749482145933 1 0 0
181 61 2 -1.1794 -11.464370797592906 3.340244946133806 4.697427235166802 1 0 0
45 15 1 0.5897 -9.780395383510333 2.190752211832443 1.2566146381682024 1 0 0
43 15 2 -1.1794 -9.845900689248785 1.8853048932960714 0.35175234953584766 1 0 0
106 36 2 -1.1794 -9.442927368333045 2.433719522331808 3.0292022893875155 1 0 0
182 61 1 0.5897 -11.134230007244286 3.906017568160637 5.395407537313831 1 0 0
86 29 1 0.5897 -10.693810852204482 4.968850096373274 2.353077815882073 1 0 0
57 19 1 0.5897 -13.637857913647373 5.745528867381923 0.227254678829962 1 0 0
508 170 2 -1.1794 -13.457526478672444 6.261666028286568 7.25628170769367 1 0 0
645 215 1 0.5897 -12.50224986802855 7.146497197946076 8.621140738809999 1 0 0
644 215 1 0.5897 -12.772954895152946 7.2275834552113345 10.10855716272022 1 0 0
643 215 2 -1.1794 -12.127560227312895 7.464633061280463 9.442556310000136 1 0 0
509 170 1 0.5897 -14.169609805478519 5.8552875010099275 7.750268919045414 1 0 0
533 178 1 0.5897 -10.396737270389279 5.914675291956705 6.771336997542507 1 0 0
519 173 1 0.5897 -16.43026565688447 7.583216167363929 6.2488503980177486 1 0 0
532 178 2 -1.1794 -10.970745523356838 5.148755574139473 6.769688973628536 1 0 0
543 181 1 0.5897 -10.655909974007454 6.117564133926804 9.697007633242718 0 0 0
510 170 1 0.5897 -13.896571433279039 6.852112980015679 6.644107966930963 1 0 0
521 174 1 0.5897 -10.475653682254793 3.6193311032976574 7.709807568832698 1 0 0
534 178 1 0.5897 -11.8520441145379 5.50904470212093 6.86801716029747 1 0 0
636 212 1 0.5897 -15.313301356148735 7.622002296002471 9.811124151400016 1 0 0
541 181 2 -1.1794 -9.856507583805124 5.7539993056893675 10.077705933819855 0 0 0
459 153 1 0.5897 -10.140754564753118 4.075811496627937 10.660768272219622 0 0 0
457 153 2 -1.1794 -10.256035269047043 3.1313174942451596 10.764165387140718 0 0 0
520 174 2 -1.1794 -10.424832902825603 2.7269811533524653 8.052132132590597 1 0 0
518 173 1 0.5897 -16.66337640311901 7.546552885566097 7.744368059211223 1 0 0
887 296 1 0.5897 -10.395849967960743 4.076513368926694 14.14138720814308 0 0 0
886 296 2 -1.1794 -11.083265686419304 3.5411947541746507 14.537725949177998 0 0 0
876 292 1 0.5897 -12.663033152844156 4.4541398478292855 14.856235847331977 0 0 0
874 292 2 -1.1794 -13.544610904946895 4.812412488717641 14.959306853389851 0 0 0
944 315 1 0.5897 -14.34837284351345 5.79409346493312 11.11161996255924 1 0 0
945 315 1 0.5897 -14.252960191091095 7.030384329086683 11.980102097120357 1 0 0
848 283 1 0.5897 -13.904026988764565 3.7169551899305517 12.067350660845998 1 0 0
900 300 1 0.5897 -14.560494755165795 7.851738265146576 14.299436930307438 0 0 0
899 300 1 0.5897 -13.848655846295454 6.528262700228726 14.117237841995077 0 0 0
898 300 2 -1.1794 -13.962310498615878 7.388409037178267 13.713131164165876 0 0 0
869 290 1 0.5897 -12.55529468500778 8.430705996706699 13.181173015660594 0 0 0
943 315 2 -1.1794 -14.172055464337555 6.734045867760656 11.073458974406794 1 0 0
875 292 1 0.5897 -14.110311595860825 4.043067553405951 15.024221196116036 0 0 0
880 294 2 -1.1794 -9.145662435382233 5.197475189849261 13.573029850928105 0 0 0
649 217 2 -1.1794 -15.903789075959864 8.448802951558985 15.534215404210446 0 -1 0
1018 340 2 -1.1794 -12.07934946507396 7.490596618668523 20.31613972391166 0 -1 0
1019 340 1 0.5897 -12.703732155570624 6.771157222166636 20.222908828819236 0 -1 0
1020 340 1 0.5897 -11.222044145100364 7.065013987592014 20.323160173036953 0 -1 0
989 330 1 0.5897 -15.161657128657568 8.67351622628815 18.41030084912238 0 -1 0
1237 413 2 -1.1794 -10.975854543603132 4.987570594044053 17.77595973682503 0 0 0
1043 348 1 0.5897 -12.387568326399588 9.229554779262209 19.697992781724103 0 -1 0
1030 344 2 -1.1794 -9.650758001754769 6.137963962954679 20.067211220746472 0 -1 0
1032 344 1 0.5897 -9.135736623680138 5.657104136874436 20.715061653162884 0 -1 0
1003 335 2 -1.1794 -13.834930968051022 5.196967840203818 20.281142429388147 0 -1 0
1033 345 2 -1.1794 -14.82564904560024 8.464197258781986 21.59336351769108 0 -1 0
1239 413 1 0.5897 -10.26370231704922 5.226226859844697 17.182538518702394 0 0 0
1238 413 1 0.5897 -10.667283035952023 5.255914784248903 18.64147007347333 0 0 0
990 330 1 0.5897 -14.223439658762636 7.486043794866735 18.444401887485185 0 -1 0
1208 403 1 0.5897 -12.362118451040175 6.175677455024829 17.433373981468563 0 0 0
1207 403 2 -1.1794 -13.084709998298022 6.712009357100449 17.107296245792178 0 0 0
988 330 2 -1.1794 -14.949118279813788 7.891245347699506 18.91919967831919 0 -1 0
1035 345 1 0.5897 -14.8523411028789 9.397250667965448 21.381834577210945 0 -1 0
980 327 1 0.5897 -12.738682362771897 8.5151110749615 16.671673439644714 0 -1 0
1034 345 1 0.5897 -14.755121984505845 8.027633765388163 20.744376312238593 0 -1 0
1209 403 1 0.5897 -13.445391283274848 6.210096068097229 16.376355823326698 0 0 0
1031 344 1 0.5897 -9.00203382683673 6.621659654054273 19.555926888905375 0 -1 0
1010 337 1 0.5897 -11.331618749637375 4.453782718435942 21.647298856629263 0 -1 0
215 72 1 0.5897 -12.295894984326337 8.792810142475972 3.4535158447323617 1 0 0
174 58 1 0.5897 -16.669607230861434 10.261799300472166 1.4797326058975344 1 0 0
173 58 1 0.5897 -15.195524736206561 10.583785069150128 1.356387473898826 1 0 0
172 58 2 -1.1794 -15.806095607318202 9.85110059477158 1.4370506968064858 1 0 0
152 51 1 0.5897 -12.978644566812921 8.257072366425916 0.34879842772158565 1 0 0
161 54 1 0.5897 -15.36069873893457 8.275817379362515 2.2568952103303785 1 0 0
285 95 1 0.5897 -17.343666550191458 11.660318447781691 3.184271354490738 1 0 0
148 50 2 -1.1794 -18.239254271214577 11.057491776754635 1.8014484528628647 1 0 0
153 51 1 0.5897 -12.996959792981276 9.517630731553634 1.1869127713861944 1 0 0
150 50 1 0.5897 -18.72145094571156 11.694629894286582 1.2745093957411509 1 0 0
216 72 1 0.5897 -13.236485128452284 9.968991833983932 3.6066000443103077 1 0 0
284 95 1 0.5897 -17.61574913707235 11.759079440897498 4.670369770929925 1 0 0
207 69 1 0.5897 -14.624284404032174 8.758780709134982 5.228984846267329 1 0 0
291 97 1 0.5897 -15.450876190814164 10.851040587920952 4.416401033059308 1 0 0
289 97 2 -1.1794 -14.625430466576566 10.490573807229612 4.740206478667583 1 0 0
283 95 2 -1.1794 -16.928864119849205 11.88829146538107 4.016312020433752 1 0 0
160 54 2 -1.1794 -15.213580319463004 7.367924951262591 2.5217222602105314 1 0 0
193 65 2 -1.1794 -14.041602592876323 12.22437751888749 1.3885153636756964 1 0 0
214 72 2 -1.1794 -12.5226872517829 9.636413967042383 3.0624159181963235 1 0 0
206 69 1 0.5897 -14.82537933525586 7.480998254861895 4.442484659350163 1 0 0
290 97 1 0.5897 -14.396090425658537 11.046988158345531 5.484577913683943 1 0 0
205 69 2 -1.1794 -14.784171605110672 7.821242697263774 5.3362927940587905 1 0 0
151 51 2 -1.1794 -13.026664212967013 9.210540419757429 0.2807244038259439 1 0 0
640 214 2 -1.1794 -14.01188029137792 12.319354468505843 6.884595834108057 1 0 0
630 210 1 0.5897 -12.861154282368066 9.525868087677637 7.502676182016513 1 0 0
629 210 1 0.5897 -13.72248042442087 10.757375899127243 7.684434202803071 1 0 0
628 210 2 -1.1794 -13.620764823125336 9.854022848007475 7.983865367491362 1 0 0
566 189 1 0.5897 -13.274034775055593 9.969113378691056 9.718974884141186 0 0 0
634 212 2 -1.1794 -15.692883062054005 8.174247904441959 9.127662169308818 1 0 0
525 175 1 0.5897 -11.890916163394113 8.290625408491046 5.613664430386571 1 0 0
642 214 1 0.5897 -14.868380945081059 12.738782116831711 6.966071205681059 1 0 0
635 212 1 0.5897 -14.95584525276923 8.68785302639273 8.797242282834306 1 0 0
617 206 1 0.5897 -17.245467757152863 13.160076975126966 7.711211900730965 1 0 0
567 189 1 0.5897 -13.007189456415697 11.188348912406962 10.575747677802362 0 0 0
327 109 1 0.5897 -13.325333598502148 13.359903552228602 9.603609997036264 0 -1 0
565 189 2 -1.1794 -13.126846781364659 10.240041438459784 10.62522822340797 0 0 0
658 220 2 -1.1794 -16.58381375791734 12.045499462613485 15.07575681612563 0 -1 0
870 290 1 0.5897 -12.263353642893431 9.496139368199792 12.14609029098682 0 0 0
868 290 2 -1.1794 -11.840449969096259 8.942055710600332 12.802075615726057 0 0 0
671 224 1 0.5897 -13.369802503165573 11.367175019217111 14.343312134040257 0 -1 0
680 227 1 0.5897 -11.196441932098066 9.807547722239395 15.755421959109308 0 -1 0
956 319 1 0.5897 -16.98738270668483 10.950517403156987 11.942926641188603 1 0 0
660 220 1 0.5897 -15.711680181865962 11.659696819195606 14.9939665684809 0 -1 0
879 293 1 0.5897 -14.64954089797676 10.002193747941792 11.70291789108793 0 0 0
878 293 1 0.5897 -14.949694454352777 10.160894215852185 13.17837784943604 0 0 0
877 293 2 -1.1794 -15.370449821233024 10.00583274403532 12.332657283606883 0 0 0
683 228 1 0.5897 -16.79690108611412 13.560091195968322 14.097381755970533 0 -1 0
670 224 2 -1.1794 -14.078836787677663 10.86319453270486 14.742655197217903 0 -1 0
672 224 1 0.5897 -13.641321407049642 10.292295434725524 15.374174605185544 0 -1 0
728 243 1 0.5897 -17.462649548494298 13.118592688848207 11.063742735727581 1 -1 0
659 220 1 0.5897 -17.17580897165901 11.29442929302268 15.115276127535019 0 -1 0
650 217 1 0.5897 -15.637761669151184 9.045262441753938 16.23402884155906 0 -1 0
1140 380 1 0.5897 -12.307897867512438 13.027858808448308 20.635872486974023 0 -1 0
1138 380 2 -1.1794 -12.696734362418194 13.622168002090763 19.994183982340857 0 -1 0
1128 376 1 0.5897 -14.31641644440515 14.376890802674911 20.23427868999071 0 -1 0
1127 376 1 0.5897 -15.778683865548981 13.989415143855801 20.292926176119927 0 -1 0
1022 341 1 0.5897 -13.699544618766428 12.709602486920868 18.68532942469657 0 -1 0
1119 373 1 0.5897 -15.399960681769553 11.59379948261829 20.552272105727923 0 -1 0
1117 373 2 -1.1794 -14.598634729848609 11.198184839723694 20.89506961107808 0 -1 0
1044 348 1 0.5897 -13.161696351086295 10.50064819188161 19.974746061347076 0 -1 0
1042 348 2 -1.1794 -12.49640671380683 10.130691067103694 19.39441555068899 0 -1 0
1126 376 2 -1.1794 -15.196111916203517 14.748835723882625 20.297110584188275 0 -1 0
993 331 1 0.5897 -16.686991926234647 13.236902740368116 16.455663337258827 0 -1 0
981 327 1 0.5897 -12.547251715001405 9.690061922092088 17.60692105612445 0 -1 0
1111 371 2 -1.1794 -16.88582888863875 12.570071586422145 20.24300664530378 0 -1 0
991 331 2 -1.1794 -16.480910352955902 13.877553924227843 17.136363664291125 0 -1 0
992 331 1 0.5897 -15.67263667126841 13.553821216828002 17.533924513881836 0 -1 0
1023 341 1 0.5897 -13.481993529823935 12.465782467019185 17.20699227309556 0 -1 0
1021 341 2 -1.1794 -14.156052535571469 12.445835147936716 17.886369422532212 0 -1 0
1001 334 1 0.5897 -15.039720420996304 10.917021597103457 17.891283156175184 0 -1 0
1000 334 2 -1.1794 -15.636542970815142 10.185474793565355 17.733857772200345 0 -1 0
1098 366 1 0.5897 -17.79905858975331 14.514221870978062 18.422206505925764 0 -1 0
1002 334 1 0.5897 -16.5086992175629 10.55122783874057 17.88129320297689 0 -1 0
1013 338 1 0.5897 -11.142362106526779 11.080989623354572 18.479096359728977 0 -1 0
979 327 2 -1.1794 -12.691738966920294 9.470952014116634 16.68633462850279 0 -1 0
1118 373 1 0.5897 -14.347630238263815 11.760686188680161 21.62778821091902 0 -1 0
318 106 1 0.5897 -2.6866245334846415 -4.067261911659223 1.3149264519127366 1 1 0
311 104 1 0.5897 -2.786123809788445 -8.034076539476665 3.270277879231308 1 1 0
293 98 1 0.5897 -5.124165690821599 -3.653244351674801 2.1745139842465355 1 1 0
304 102 2 -1.1794 -1.475818601464793 -6.971105097379159 2.561323055977363 1 1 0
241 81 2 -1.1794 -1.1543948049574482 -6.484800289894654 5.241810421905521 0 1 0
316 106 2 -1.1794 -1.8403353994518472 -4.513543346563364 1.3425921501240872 1 1 0
242 81 1 0.5897 -1.2404739367584359 -6.805397421717118 4.343941358613542 0 1 0
306 102 1 0.5897 -0.8076575757566893 -7.402777138160062 2.028909757646998 1 1 0
305 102 1 0.5897 -1.4320419178668864 -6.050983025617513 2.30150085265483 1 1 0
310 104 2 -1.1794 -3.520264068866254 -8.509638298829874 3.6589707278253116 1 1 0
243 81 1 0.5897 -0.9566552438914879 -5.5532491205754475 5.146033848980193 0 1 0
317 106 1 0.5897 -1.2049256130367265 -3.81401901271194 1.4944765091746162 1 1 0
3 1 1 0.5897 -1.5939153207718029 -3.4758556782636667 4.534945810605209 0 0 0
201 67 1 0.5897 0.27812431105234836 -8.46948317637921 0.17031437008522166 1 1 0
1 1 2 -1.1794 -0.7369917292393335 -3.8366330866428893 4.762237300526074 0 0 0
199 67 2 -1.1794 0.5415765831363064 -7.988075453381885 0.9546289432350646 1 1 0
195 65 1 0.5897 -4.160887256621304 -9.101844022578204 0.7223095844465484 1 1 0
632 211 1 0.5897 -4.850381783113739 -5.688233108975663 6.553776271418973 1 1 0
356 119 1 0.5897 1.1681944754827231 -7.020737041444022 10.029438311701387 0 0 0
555 185 1 0.5897 -2.6664503251572595 -6.545862202114865 6.209562489992732 0 1 0
554 185 1 0.5897 -2.9033727177992406 -6.324920421945864 7.688523013161941 0 1 0
553 185 2 -1.1794 -3.3370159323992885 -6.6218051840324375 6.888443013106989 0 1 0
546 182 1 0.5897 -0.16114113335312652 -7.425660763847374 6.51325829055675 0 1 0
359 120 1 0.5897 -4.816239007484807 -3.1352677821108923 8.833514125248048 0 0 0
404 135 1 0.5897 -5.441712685223036 -3.5264313141029175 5.683043999125276 1 0 0
348 116 1 0.5897 -1.4432486669884508 -6.387098929744325 9.629519895155127 0 0 0
347 116 1 0.5897 -1.0409356725064125 -5.378386095579149 8.574787189168243 0 0 0
346 116 2 -1.1794 -1.8066346117068957 -5.76236604330775 9.00197472909056 0 0 0
336 112 1 0.5897 -3.3870903728171964 -5.01116887411826 9.493001305772943 0 0 0
334 112 2 -1.1794 -4.272946244961002 -4.712251414498317 9.698155888246518 0 0 0
544 182 2 -1.1794 0.24829755477492554 -7.903043868528889 7.234833644046546 0 1 0
335 112 1 0.5897 -4.814298345401539 -5.498263881029512 9.625738178927987 0 0 0
357 119 1 0.5897 1.3444749998194983 -7.335069308906778 8.558934483488835 0 0 0
793 265 2 -1.1794 -2.0453314708800487 -5.849326008652683 15.426343453590848 0 0 0
789 263 1 0.5897 -4.690670652412263 -4.639752475892266 14.078499534133067 0 0 0
803 268 1 0.5897 -3.315307490714872 -2.8821928206650096 15.013351133415565 0 0 0
795 265 1 0.5897 -2.8300479489082937 -5.4177707178329335 15.088526784277002 0 0 0
787 263 2 -1.1794 -4.296349041989656 -4.382095107687408 14.911837072146552 0 0 0
774 258 1 0.5897 -4.915994403787225 -2.2574178144498678 13.110834929078854 0 0 0
802 268 2 -1.1794 -2.6310792666436846 -2.218108038948232 14.9298552014491 0 0 0
718 240 2 -1.1794 -0.0581556406198942 -6.824703300070027 13.690738420127241 0 0 0
699 233 1 0.5897 -0.8248832800858992 -4.316608507186088 11.693245386659232 0 0 0
697 233 2 -1.1794 -1.464651776141329 -4.43144281906655 12.395966043156308 0 0 0
677 226 1 0.5897 -2.5838159569701276 -5.851022465635938 12.123399608114005 0 0 0