#include		in.partitions
include		in.temp
variable        temperature equal 239.50
variable	tempDamp equal 100.0
include		in.pressure
variable        pressure equal 2185.7
variable        pressureDamp equal 1000.0 # This is 1 ps
include		in.seed
variable        seed equal 745823

units		real
atom_style	full
#include		in.box
read_restart	restart.lmp.${pid}
read_restart	restart.lmp.0
Reading restart file ...
  restart file = 30 Jul 2021, LAMMPS = 30 Jul 2021
  restoring atom style full from restart
  orthogonal box = (0.097479690 0.043364494 0.072989327) to (18.110093 23.585813 22.140206)
  2 by 4 by 4 MPI processor grid
  restoring pair style lj/cut/tip4p/long/omp from restart
  restoring bond style harmonic/omp from restart
  restoring angle style harmonic/omp from restart
  864 atoms
  576 bonds
  288 angles
Finding 1-2 1-3 1-4 neighbors ...
  special bond factors lj:    0        0        0       
  special bond factors coul:  0        0        0       
     2 = max # of 1-2 neighbors
     1 = max # of 1-3 neighbors
     1 = max # of 1-4 neighbors
     2 = max # of special neighbors
  special bonds CPU = 0.002 seconds
  read_restart CPU = 0.006 seconds
include 	in.setup
variable	out_freq equal 1000
variable	out_freq2 equal 10000
variable	out_freq3 equal 1000

timestep	2.0

neigh_modify    delay 7 every 1

include		in.tip4p
# This is TIP4P/Ice

# create groups ###
group ox type 2
288 atoms in group ox
group hy type 1
576 atoms in group hy

# set charges - beside manually ###
set group ox charge -1.1794
Setting atom values ...
  288 settings made for charge
set group hy charge 0.5897
Setting atom values ...
  576 settings made for charge

# ### TIP3P Potential Parameters ###
pair_style lj/cut/tip4p/long/omp 2 1 1 1 0.1577 8.5
pair_coeff 1 1*2 0.000 0.000
pair_coeff 2 2 0.21084 3.1668
bond_style  harmonic
bond_coeff  1 450 0.9572
angle_style harmonic
angle_coeff 1 55 104.52
kspace_style pppm/tip4p/omp 1.0e-5
pair_modify tail yes

thermo          ${out_freq}
thermo          1000
thermo_style    custom step temp pe etotal epair emol press lx ly lz vol pxx pyy pzz pxy pxz pyz enthalpy

restart 	${out_freq3} restart.lmp.${pid} restart2.lmp.${pid}
restart 	1000 restart.lmp.${pid} restart2.lmp.${pid}
restart 	1000 restart.lmp.0 restart2.lmp.${pid}
restart 	1000 restart.lmp.0 restart2.lmp.0


include         in.dump
dump            myDump all atom ${out_freq2} dump.water.${pid}
dump            myDump all atom 10000 dump.water.${pid}
dump            myDump all atom 10000 dump.water.0
dump            myDump2 all dcd ${out_freq2} dump.dcd
dump            myDump2 all dcd 10000 dump.dcd
dump_modify     myDump append yes
dump_modify     myDump2 append yes


variable natoms 	equal  "count(all)"                        # NUMBER ATOMS
variable H      	equal  "enthalpy/v_natoms"                 # ENTHALPY-per-atom
variable Vol      	equal  "vol/v_natoms"                 # volume-per-atom
fix AVG all 		ave/time ${out_freq} 1 ${out_freq} v_Vol v_H file vol_enthalpy.dat
fix AVG all 		ave/time 1000 1 ${out_freq} v_Vol v_H file vol_enthalpy.dat
fix AVG all 		ave/time 1000 1 1000 v_Vol v_H file vol_enthalpy.dat


timer           timeout 23:50:00 every 1000
New timer settings: style=normal  mode=nosync  timeout=23:50:00

fix 		1 all shake 1e-6 200 0 b 1 a 1
       0 = # of size 2 clusters
       0 = # of size 3 clusters
       0 = # of size 4 clusters
     288 = # of frozen angles
  find clusters CPU = 0.000 seconds
fix             2 all nph aniso ${pressure} ${pressure} ${pressureDamp}
fix             2 all nph aniso 2185.7 ${pressure} ${pressureDamp}
fix             2 all nph aniso 2185.7 2185.7 ${pressureDamp}
fix             2 all nph aniso 2185.7 2185.7 1000
fix             3 all temp/csvr ${temperature} ${temperature} ${tempDamp} ${seed}
fix             3 all temp/csvr 239.5 ${temperature} ${tempDamp} ${seed}
fix             3 all temp/csvr 239.5 239.5 ${tempDamp} ${seed}
fix             3 all temp/csvr 239.5 239.5 100 ${seed}
fix             3 all temp/csvr 239.5 239.5 100 745823


run             250000
PPPM initialization ...
  extracting TIP4P info from pair style
  using 12-bit tables for long-range coulomb (../kspace.cpp:340)
  G vector (1/distance) = 0.37142565
  grid = 24 27 25
  stencil order = 5
  estimated absolute RMS force accuracy = 0.003191895
  estimated relative force accuracy = 9.612297e-06
  using double precision FFTW3
  3d grid and FFT values/proc = 4410 672
Last active /omp style is kspace_style pppm/tip4p/omp
Neighbor list info ...
  update every 1 steps, delay 7 steps, check yes
  max neighbors/atom: 2000, page size: 100000
  master list distance cutoff = 10.8154
  ghost atom cutoff = 10.8154
  binsize = 5.4077, bins = 4 5 5
  1 neighbor lists, perpetual/occasional/extra = 1 0 0
  (1) pair lj/cut/tip4p/long/omp, perpetual
      attributes: half, newton on, omp
      pair build: half/bin/newton/omp
      stencil: half/bin/3d
      bin: standard
Per MPI rank memory allocation (min/avg/max) = 10.19 | 10.20 | 10.23 Mbytes
Step Temp PotEng TotEng E_pair E_mol Press Lx Ly Lz Volume Pxx Pyy Pzz Pxy Pxz Pyz Enthalpy 
 6250000    237.13353    -4244.653   -3838.2142    -4244.653            0    1511.9615    18.012613    23.542449    22.067217    9357.8466    3119.8598    -125.6086    1541.6333   -57.580906   -120.15532   -563.71266   -3631.8699 
 6251000    250.92149   -4290.6852   -3860.6143   -4290.6852            0    2907.5548    18.060296    23.322284    21.959594    9249.5427     3438.406    2800.5549    2483.7035    217.56228   -623.98136    247.35875   -3468.3994 
 6252000    237.93977   -4276.5839   -3868.7633   -4276.5839            0    706.26094    18.151191    23.180305    22.304363    9384.5639    257.46323     1010.616     850.7036    426.36318   -179.48657    569.97944   -3772.1014 
 6253000     235.0618   -4277.1446   -3874.2567   -4277.1446            0     1520.726    18.163832     23.43764    21.923279    9333.1206    241.08105    472.25303    3848.8439   -786.10699   -64.411114    90.608448   -3667.2646 
 6254000    217.35158   -4280.7694   -3908.2362   -4280.7694            0   -802.83384    18.024621     23.71864    22.100063    9448.2075   -668.61427   -333.75196   -1406.1353    137.32006   -179.57325    145.84748   -4018.8606 
 6255000    247.33264   -4276.4919   -3852.5722   -4276.4919            0    2455.4401    17.991694    23.365985    22.044724    9267.4619    1634.1187    3460.9331    2271.2684    891.00447    566.06579    846.40058   -3520.7037 
 6256000    243.37612   -4262.6994   -3845.5611   -4262.6994            0    2176.3735    18.076825    23.530785    21.836955    9288.6082     1720.226    2534.4663    2274.4283   -194.41032    489.10238    630.45906    -3550.739 
 6257000    243.19419   -4283.5942   -3866.7677   -4283.5942            0     2031.203    17.979698    23.069107    22.338347    9265.4008    1783.7493    3500.0401    809.81952   -1385.1447    265.24492   -319.15935   -3592.2986 
 6258000    242.83939   -4269.5345   -3853.3161   -4269.5345            0    1962.9734    18.040357    23.435418    21.970892    9288.9267    1426.2322     1691.221     2771.467    332.74474   -126.62722    92.313999   -3587.3931 
 6259000    246.21739   -4261.6602    -3839.652   -4261.6602            0    1398.0291    18.049205    23.629361    22.056592    9406.9422    1041.6877    841.05839    2311.3411   -1164.5544    542.05526     213.6909   -3647.8556 
 6260000     239.9262   -4277.3101   -3866.0848   -4277.3101            0    1175.3723    17.941489    23.473475    22.144106    9325.9703    1600.6206    301.38984    1624.1064    8.5306215   -1140.9438    530.49175   -3706.2228 
 6261000    237.06709   -4277.3154   -3870.9905   -4277.3154            0    2418.2929    18.133968     23.60709     21.64214    9264.7883    3187.1015    1166.5184     2901.259    89.185798    180.54163    878.85002    -3544.237 
 6262000    248.10473   -4246.9089   -3821.6659   -4246.9089            0     2471.256    17.960853    23.211298     22.20924    9258.9152    2707.7466    3503.2665     1202.755   -123.39439    483.94349     1467.097   -3487.9678 
 6263000    244.71961   -4261.1304   -3841.6894   -4261.1304            0    2173.7979    18.171861    23.482859    21.789301    9298.0887     1225.869    2594.6198    2700.9049    129.27556    701.67014    641.14665   -3546.9157 
 6264000    232.25866   -4285.1475   -3887.0641   -4285.1475            0    2769.4791    17.974811    23.232164    22.215839    9277.1956    3790.3916    2683.7395    1834.3063    532.12871    454.38244    706.95736    -3512.358 
 6265000    242.16775   -4281.8784   -3866.8112   -4281.8784            0    2437.1261    17.962986    23.474347    22.104081     9320.614    3824.3267    2108.5816    1378.4701   -302.65525   -278.43335   -270.68156   -3535.5287 
 6266000    237.35368    -4266.773   -3859.9569    -4266.773            0     3500.563    17.927512    23.662151    21.712475    9210.5082    3449.9659    1970.4564    5081.2668   -204.14184    1039.8097   -212.53183    -3389.741 
 6267000    237.70027   -4270.7918   -3863.3817   -4270.7918            0    1400.1464    17.990587    23.374473     22.17573     9325.349    1659.3443    785.35791     1755.737    96.847932     596.7573    418.11081   -3672.9609 
 6268000    232.37262   -4289.4344   -3891.1557   -4289.4344            0    1993.8167    18.033398    23.680336    21.941257    9369.7268    1500.2842    1743.0145    2738.1515    227.58025    604.93958    137.74376   -3618.7049 
 6269000    243.02703   -4280.6861   -3864.1461   -4280.6861            0     1842.387    17.833044     23.71957    22.031064     9318.967    1590.0221    921.81607    3015.3227     33.31932   -689.85166    88.937914   -3613.7518 
 6270000    236.70202   -4292.2197   -3886.5205   -4292.2197            0    2455.7151    17.993763    23.381849    22.052518    9278.0999    2828.9101     2611.697    1926.5381   -1263.3325   -352.69114   -790.31019   -3554.2339 
 6271000     239.8377     -4293.18   -3882.1064     -4293.18            0    3283.1247    18.402004    23.059263    21.795016    9248.4238    3022.2429    4087.2427    2739.8885    1105.6156   -94.934466   -711.56674   -3439.2826 
 6272000    248.24204   -4279.1791   -3853.7007   -4279.1791            0    2392.2512    17.992109    23.210696    22.206005    9273.4359    2817.1801    4782.3978   -422.82427    622.67025    374.47536   -37.023139   -3530.1642 
 6273000    218.25059   -4273.5797   -3899.5057   -4273.5797            0    1566.7382     18.05295    23.673874    21.893216     9356.794    1972.5921    1001.2484    1726.3742     495.4191    189.87652    44.124703   -3685.7098 
 6274000    255.90882   -4256.5552   -3817.9362   -4256.5552            0    1358.1021    17.889876    23.426871    22.339566    9362.5975    852.27029    1894.4188    1327.6172   -727.97411   -816.14426   -489.99833   -3632.4957 
 6275000    248.63169   -4292.6006   -3866.4544   -4292.6006            0    1729.0027     18.12545    23.491445    21.908193    9328.3553    633.67063    2069.3376    2483.9998    35.383219   -432.95044   -71.910966   -3631.2331 
 6276000    252.50768   -4264.1841   -3831.3945   -4264.1841            0    3330.5089    17.958621     23.24635    22.134046    9240.3532    3080.1613    4916.3812    1994.9842    709.37742    731.80171   -637.80084   -3382.5716 
 6277000    245.33917   -4266.6577   -3846.1548   -4266.6577            0     521.8167    18.192807    23.354588    22.139398    9406.7096      496.023    1290.8631   -221.43602    48.177073    223.91683    576.65867   -3774.5682 
 6278000    242.53568    -4296.957   -3881.2592    -4296.957            0    2201.1443    18.045149    23.432396    21.860012    9243.3108    1628.3225    1314.0108    3661.0995   -334.73248   -885.14779   -58.079307   -3584.5357 
 6279000    234.46767   -4299.9613   -3898.0917   -4299.9613            0    2798.1825    17.720962    23.537087    22.168773    9246.5913    3585.1281    2574.8073    2234.6121    924.39682    217.53401    616.75039   -3520.7511 
 6280000    247.23956   -4271.5291   -3847.7689   -4271.5291            0    2434.1344    18.074881    23.450209    21.932135    9296.1489    1109.8937    1439.7433    4752.7662    -561.0001   -44.273599   -218.34489   -3517.7617 
 6281000    253.12568   -4267.2148    -3833.366   -4267.2148            0    2951.9317     17.91348    23.320248    22.106902    9235.0875    2002.7841    4454.9639     2398.047   -156.17748   -182.42371   -121.51633   -3435.7872 
 6282000    245.80478   -4274.9429    -3853.642   -4274.9429            0    532.92909    18.077439    23.470092    22.137002    9392.2687    1450.1254   -179.84743    328.50932   -82.659951    791.75278   -692.30289   -3780.6431 
 6283000    242.84151   -4277.7301   -3861.5081   -4277.7301            0    2376.0143    18.108116    23.429621    21.902716    9292.5844    775.26649    1497.5614    4855.2151     291.7659   -168.86728   -491.53435   -3539.5039 
 6284000    233.64302     -4291.89   -3891.4339     -4291.89            0    1650.9148    18.017257    23.319211    22.077621    9275.8733    1925.2841    1519.9661    1507.4943    274.38861   -538.83138   -526.68908   -3668.0996 
 6285000    235.00194   -4304.7607   -3901.9754   -4304.7607            0    1953.1716    17.926938    23.629769    21.931535    9290.4048     2072.535    1043.8904    2743.0895   -526.85684    49.836097    223.42764   -3637.3381 
 6286000    230.10194   -4282.8799   -3888.4931   -4282.8799            0     2129.503    17.924039    23.541387     22.04944      9303.91    2175.5534    2639.7892    1573.1665   -605.48447    322.47287    601.21365   -3599.5451 
 6287000    249.10769   -4289.1855   -3862.2234   -4289.1855            0    2044.1192    18.105357     23.27811    22.081444    9306.4123    2326.4254    2436.1987    1369.7334   -236.40873    -19.67777    254.64532   -3584.7864 
 6288000     243.4423   -4281.9306   -3864.6788   -4281.9306            0    2159.4019    18.043924    23.365592    22.055928    9298.9328    1897.2993     1663.244    2917.6623    778.18701    160.45972    277.34713   -3571.8307 
 6289000    237.95293   -4277.8105   -3869.9673   -4277.8105            0    1312.8057    18.142006    23.233655    22.226195    9368.4546   -391.31391    3363.5637    966.16735   -465.70651   -293.01052   -484.82568   -3690.5996 
 6290000    238.31645   -4288.5403    -3880.074   -4288.5403            0    2377.9173    18.063559    23.532525    21.934871    9324.1004    1201.1643    1712.6183    4219.9692    1336.3903   -616.07137    59.375104    -3556.719 
 6291000    238.60889   -4287.5695    -3878.602   -4287.5695            0    1329.4929    17.894688    23.496294    22.227766     9345.861    2136.0648    629.69971    1222.7143    -1216.353   -151.55293   -768.17577   -3697.3924 
 6292000    251.81762   -4309.9086   -3878.3018   -4309.9086            0    2169.8887     18.06041    23.386199    21.965652     9277.508    1744.9531    1953.5381    2811.1749    153.44343   -687.61735    172.54566   -3584.7095 
 6293000    238.44098   -4262.3591   -3853.6794   -4262.3591            0    3036.6933    18.091376     23.29573    21.958815    9254.5825    2938.5769    3756.4462    2415.0569    524.90405   -646.33773    18.890714   -3443.8212 
 6294000    233.61021   -4263.4934   -3863.0935   -4263.4934            0    2641.9066    18.252625    23.165322      22.0191    9310.2909    2181.1287    2595.3689    3149.2221    382.29887    829.10261    598.39102   -3504.3727 
 6295000    233.01129   -4309.7012   -3910.3278   -4309.7012            0     1644.385    17.922794     23.31738    22.149543     9256.573    2472.1814    1270.2848    1190.6887    534.78533    473.05366    671.17001   -3688.3398 
 6296000    241.99939   -4267.3452   -3852.5665   -4267.3452            0    2177.8295    18.052488     23.66623    21.833161     9327.876    1620.7558    714.99274    4197.7399   -579.10486    -734.2331    272.72634      -3556.3 
 6297000    233.86355     -4287.84   -3887.0059     -4287.84            0    2987.0544    17.898785     23.48218    22.069429    9275.8363    3632.1394    1232.3886    4096.6351   -227.26903    374.98803   -836.58153   -3482.9215 
 6298000    239.37809   -4271.9258   -3861.6399   -4271.9258            0    2063.0102    18.185619    23.474212    21.908642    9352.6478    1979.5149    3077.8273    1131.6885    -735.1711   -432.06566    991.53053   -3580.2478 
 6299000    241.75193   -4262.4308   -3848.0763   -4262.4308            0    3089.1058    18.136115    22.964784    22.206918    9249.0029     2969.541    2990.4923     3307.284    207.27688    454.97009    396.41979   -3431.3954 
 6300000    250.68427   -4313.4961   -3883.8318   -4313.4961            0      1712.12    17.970154    23.407659    22.117239    9303.3784    1287.7576    1130.0328    2718.5696    70.938557     127.1143    1.9708127    -3651.531 
 6301000     235.9714   -4253.2505   -3848.8036   -4253.2505            0    2620.4589    17.979213    23.704535    21.714618    9254.5291    3360.8619    1636.5141    2864.0008   -65.760523    201.26623    139.80746   -3495.1259 
 6302000    242.06277   -4283.8951   -3869.0078   -4283.8951            0    2296.5566    17.948308     23.42102    22.097017    9288.8716    2129.8016    1502.3079    3257.5602    353.80101   -228.02284     431.8034   -3557.8964 
 6303000    240.46779    -4295.246   -3883.0925    -4295.246            0    3152.9796    18.041718    23.411351    21.920014    9258.5975    3660.4473    1980.6189    3817.8727    856.28134   -52.765721    1162.2356   -3457.3546 
 6304000    248.87224   -4274.0478   -3847.4893   -4274.0478            0     2478.943    17.992556    23.159759    22.275849     9282.419    3932.1649    1365.4807    2139.1834   -1009.7088    609.68075    25.582633   -3511.9035 
 6305000    245.12887   -4288.5386   -3868.3961   -4288.5386            0     2178.409    18.104771    23.552967    21.873741    9327.4244    2573.4155    1000.8142    2960.9972   -166.40779   -637.14633    186.92125   -3572.0651 
 6306000    244.00567   -4261.4225   -3843.2052   -4261.4225            0    792.12063    17.993534    23.557319    22.055615    9348.9215    2059.2586   -152.10105    469.20437   -575.71759    337.22731   -548.66895   -3735.2039 
 6307000    249.03809   -4294.5843   -3867.7415   -4294.5843            0    1857.5228    18.049969    23.328725    22.171358    9335.9766    2718.2721    2075.2536    779.04273    218.84585    433.40001   -490.48177   -3614.8293 
 6308000    239.60854    -4275.291   -3864.6102    -4275.291            0    3631.2636    18.054237    23.415947    21.828732    9228.2506    4332.2955     4183.551    2377.9445    599.58759     74.80733    1027.6707   -3375.8982 
 6309000    238.73999   -4276.8125   -3867.6204   -4276.8125            0     1076.137    17.940332    23.487668    22.246341     9374.087    311.04978     1050.454    1866.9072   -148.72549   -615.11853   -84.628884   -3720.5001 
 6310000    235.13154   -4307.0017   -3903.9942   -4307.0017            0     1567.836    18.202185    23.366571    21.926355    9325.7754    1534.1049    750.91919     2418.484    743.01232    450.23144   -429.21427   -3690.7578 
 6311000    238.71002   -4276.1256   -3866.9848   -4276.1256            0    1545.6254    18.225268    23.204459     22.05223    9326.0533    363.13111    1736.7072    2537.0378    453.77254   -601.60429    469.37277   -3656.7628 
 6312000    249.76161   -4279.6559   -3851.5731   -4279.6559            0    1982.6506    18.019688    23.345065    22.115811    9303.4755     2870.043    1502.0502    1575.8586     545.7147   -901.66071    388.37508   -3582.5638 
 6313000    251.09064   -4256.0354   -3825.6746   -4256.0354            0    2473.7601    17.877557    23.867754    21.841838    9319.8494    3114.2834    1163.0213    3143.9755     603.7071   -272.60897   -403.88203     -3489.44 
 6314000    242.05709   -4283.2569   -3868.3794   -4283.2569            0    2265.3142    17.983112    23.301002    22.194427    9300.0095    1020.1116     4130.646    1645.1849    21.532319   -668.77199   -400.84222   -3561.1323 
 6315000    223.59348   -4288.3157   -3905.0841   -4288.3157            0    1544.8196    18.184709    23.306991    21.991188    9320.5441    626.80183    1294.8448    2712.8121     753.5106    969.57764    1371.3514   -3695.0959 
 6316000    241.96342   -4251.4938   -3836.7768   -4251.4938            0    3082.0338    18.060906    23.376249    21.876488    9236.1707    3021.7673    3636.6515    2587.6825   -167.50391     253.7446     374.9698   -3421.6266 
 6317000    226.75223   -4293.6782   -3905.0327   -4293.6782            0    3539.7113    17.827802    23.367017    22.088326    9201.6111    4415.0355    2959.2783      3244.82    461.82151   -346.30878    177.30959   -3430.0174 
 6318000    234.55631   -4279.0364   -3877.0149   -4279.0364            0    1919.8234      18.1121    23.660971     21.70315    9300.8821    1122.1975    1586.2842    3050.9885    655.98971    343.57243     25.88734   -3616.6027 
 6319000    235.53827   -4315.2136   -3911.5091   -4315.2136            0    2021.8529    17.970352    23.269739    22.174164    9272.4682    2285.8771    1963.7175    1815.9641     386.1946    512.52338    130.17738    -3638.095 
 6320000    239.51458   -4277.7754   -3867.2556   -4277.7754            0    2130.7986    18.026225    23.430903    21.903011    9251.1908    1377.3684    2226.4012     2788.626    627.37526    571.21679    123.15817   -3579.7701 
 6321000    240.27025   -4283.8399   -3872.0249   -4283.8399            0    2010.2093    17.950707    23.529574    21.951307    9271.6282    3966.0279     1242.301    822.29909   -793.70506   -465.79107   -441.44684   -3600.2101 
 6322000    255.49331   -4255.5132   -3817.6065   -4255.5132            0     1511.178    18.026876    23.332604    22.330819     9392.654    1980.8816    1508.8245    1043.8278    995.90441    332.45087    242.02778   -3610.6019 
 6323000     231.3461    -4297.917   -3901.3977    -4297.917            0    3078.0879    18.125391    23.331675    21.854112    9242.0104     3621.989    3390.7375    2221.5373   -891.41354   -130.37877    218.09932   -3486.5168 
 6324000    239.91468   -4285.6244   -3874.4188   -4285.6244            0    2527.0383    17.816801    23.368435    22.229572    9255.2993    2368.5274    2370.6334    2841.9539   -140.57796    -438.2856    204.29584   -3533.3216 
 6325000    237.36624   -4282.3377   -3875.5001   -4282.3377            0    2732.5136    17.916971    23.458073    22.057024    9270.5146    3278.0926    3031.5259    1887.9223   -793.19562   -689.99497   -589.25047   -3506.0617 
 6326000     231.2965   -4274.1391   -3877.7048   -4274.1391            0    1399.0572    18.091079    23.328035    22.173361    9357.8085    1233.4977    2000.4838     963.1902   -478.83422    9.3659725   -650.31905   -3686.7698 
 6327000    232.88931   -4291.2997   -3892.1354   -4291.2997            0    1823.0371     18.28252    23.295798     21.80723     9287.828   -15.817744     2616.513    2868.4161   -1084.6302   -691.52798    241.83218   -3645.1988 
 6328000    257.97188    -4272.059    -3829.904    -4272.059            0    1883.5432     18.06722    23.490074    21.964325    9321.6665    2727.9317    1973.7484    948.94936   -765.36675    233.50838    445.58366   -3573.8421 
 6329000    242.70837     -4291.22   -3875.2262     -4291.22            0    2271.9926    17.913002    23.486913    22.091132    9294.2055    4210.8933    1801.8156    803.26902    357.05239   -1080.9446    291.32103   -3567.2656 
 6330000    253.56408   -4267.2027   -3832.6026   -4267.2027            0    2425.0677    18.088337    23.486197    21.755295    9242.2202    1274.5747    2253.9245    3746.7037    681.95953    643.46152   -225.27809   -3505.7318 
 6331000    240.95087   -4278.2038   -3865.2222   -4278.2038            0    2532.4346    17.779728    23.298919    22.318715    9245.4927    3039.6909    4398.4004    159.21246    555.32455   -583.71229   -85.571051   -3523.7588 
 6332000    238.42205   -4299.7946   -3891.1474   -4299.7946            0    1743.9915    18.018413     23.43581    22.030714    9303.0439    1957.8131    2264.0414      1010.12    420.98383   -384.05402   -778.08738   -3654.5307 
 6333000    238.18374   -4301.6223   -3893.3836   -4301.6223            0    882.91622    18.166953    23.614096    21.829507     9364.775    164.53652   -406.80691    2891.0191   -175.51047   -750.06721    567.25899   -3772.7987 
 6334000     245.2992   -4254.5566   -3834.1221   -4254.5566            0    3106.2904    18.054075    23.377556    22.007959    9288.6821    3311.6825    3589.0309    2418.1579    1043.8614   -893.11533   -246.89681   -3413.3257 
 6335000    234.76425   -4271.8916   -3869.5137   -4271.8916            0    2609.7027     17.85765    23.378586    22.183308     9261.234    2015.9846     2100.267    3712.8565    836.34204    715.14079    95.393594   -3517.0327 
 6336000    247.26442    -4295.564   -3871.7612    -4295.564            0     2586.346     18.08151    23.431838     21.94557    9297.9657    2276.8166    2610.6539    2871.5675   -700.83151    -845.2148   -661.74054   -3521.0494 
 6337000     228.5119   -4277.7245    -3886.063   -4277.7245            0    919.10365    18.151035    23.351955    22.115121    9373.7629    1041.7973    1115.2756    600.23803   -910.86489    178.41433    5.2763466   -3760.4153 
 6338000    252.50286    -4275.688   -3842.9067    -4275.688            0    2855.0767    17.932954    23.189514     22.19902    9231.6062    3086.4958    3136.4109    2342.3236   -60.719523   -396.29364    361.78208   -3458.5177 
 6339000    238.39645    -4313.293   -3904.6896    -4313.293            0    1650.1146    18.061553    23.555274    21.801365    9275.2778    2256.5172    1536.8758    1156.9507    189.37821    -499.6402   -950.91295   -3681.4779 
 6340000    252.85577   -4306.0092   -3872.6231   -4306.0092            0    3287.0089    17.860727    23.409074    22.051732    9219.8971     2796.492    4418.0317     2646.503    297.10552   -352.20051   -138.88041   -3430.6428 
 6341000    226.08933   -4283.3969   -3895.8875   -4283.3969            0    1740.0342    18.244939    23.297674    21.906133    9311.5228   -965.78276    3607.1288    2578.7565   -156.78577    938.36685    -208.4845   -3659.5926 
 6342000    240.80273   -4268.7501   -3856.0224   -4268.7501            0    2283.6794    18.106081    23.369233     22.09328    9348.2239    1096.8362    3474.3551    2279.8471   -1079.9148    1.0161997    479.97163   -3544.6787 
 6343000    239.92287   -4299.6366    -3888.417   -4299.6366            0    3786.7503    17.854528    23.392245    21.975299    9178.1485    4770.9125    3947.8396    2641.4989    459.16204    17.259891   -382.66628   -3381.5458 
 6344000    238.60415   -4290.7631   -3881.8037   -4290.7631            0    2067.7771     18.01597     23.49035    22.070518    9340.2749     2457.621    1724.2354    2021.4749   -616.82006   -46.953068   -352.61282   -3600.1346 
 6345000    238.92584   -4302.7456   -3893.2349   -4302.7456            0    4031.9089     17.94851    23.312567    22.053281    9227.6628    3719.0396    4094.6676    4282.0196    953.20405    169.95721   -59.414109   -3350.6367 
 6346000    250.55566   -4280.7514   -3851.3075   -4280.7514            0    3673.6962    17.832386    23.615982    21.887421    9217.4346      3113.16    2934.9447    4972.9839    -1741.305    173.92812    10.087715   -3357.4642 
 6347000     230.1811   -4263.0695    -3868.547   -4263.0695            0     179.9359    17.962218    23.556505    22.103216    9352.4693    917.94308   -561.50631    183.37094   -101.54289    43.288804    314.17474   -3844.0044 
 6348000    231.05957   -4295.0998   -3899.0716   -4295.0998            0    2336.3156    18.127724    23.218412    22.004635    9261.6841    2396.4901    2319.0099    2293.4468    -814.1178   -34.723481    48.874888   -3583.5004 
 6349000    246.21763   -4282.9623   -3860.9537   -4282.9623            0    2835.2513    18.081823    23.186765    22.104164    9267.3697    3383.9834    3197.1629    1924.6075    825.06147   -514.23842   -199.26352   -3477.7551 
 6350000    238.94917   -4299.3844   -3889.8337   -4299.3844            0    1643.3076    17.964538    23.570899    22.004034    9317.3949    1808.4061    661.31938    2460.1974   -232.75711    570.50567    445.62998   -3666.5334 
 6351000    238.12573   -4310.4553   -3902.3159   -4310.4553            0    3509.3367    17.898173    23.542995    21.920837    9236.9274    2662.2639    2985.2691    4880.4772    141.16039   -333.63021    960.24629   -3429.5693 
 6352000    245.34444    -4271.963   -3851.4511    -4271.963            0    1587.8159     17.89622    23.358772    22.303037    9323.4214     1819.133    1422.5341    1521.7806   -245.34398   -820.33937   -462.43017   -3635.5517 
 6353000     240.4511     -4270.11    -3857.985     -4270.11            0    899.26908    18.246411    23.339183    21.951919    9348.3636   -742.20529    1527.1618    1912.8508    850.93556    320.93321    224.42737    -3735.382 
 6354000    235.88754    -4275.031   -3870.7278    -4275.031            0    1111.5048    18.164402    23.161741    22.164477    9325.0205    1948.6399    2065.2128   -679.33837   -392.22157   -300.74062     31.37708   -3719.5678 
 6355000    239.67195   -4260.7891   -3849.9996   -4260.7891            0     1511.002    18.027082    23.567686    22.088269     9384.347    1432.8859    1266.0373     1834.083   -280.42599    428.58012    1697.3916   -3643.2023 
 6356000    229.77929   -4290.1766   -3896.3427   -4290.1766            0     2494.542      17.7259    23.762856    22.009442    9270.7734    2710.7772    2124.7738    2648.0749    106.36457    111.38708   -762.95061   -3559.0689 
 6357000    234.11201    -4292.428    -3891.168    -4292.428            0    2408.7941    17.986078    23.407768     22.01503    9268.6347    2564.3811    2540.0827    2121.9184   -301.52965    358.35914    828.67939   -3565.5628 
 6358000     237.9242   -4277.2723   -3869.4784   -4277.2723            0    1591.8141    18.360676    23.290542    21.736575    9295.2137   -455.33881    2622.6349    2608.1463   -206.80405     973.4894    415.03031   -3653.6902 
 6359000    234.56334    -4276.081   -3874.0474    -4276.081            0    3578.3011    18.060186    23.121867     22.07804    9219.4632    2985.6872    4623.2705    3125.9457   -621.25006    203.10819    75.349737   -3392.9219 
 6360000    225.76907   -4259.6853   -3872.7248   -4259.6853            0    1803.0692    17.948774    23.743154    21.789104    9285.6557    856.56464      1457.74    3094.9031    837.51523   -2.3276597   -272.84246     -3628.55 
 6361000    234.05863   -4267.4572   -3866.2887   -4267.4572            0    2197.1922     17.84558    23.658095    22.018525    9296.0542    2360.8374    2862.7466    1367.9926    -162.5303   -407.47515    865.35682   -3568.4079 
 6362000     237.0581   -4277.7416   -3871.4322   -4277.7416            0    1294.4941     18.13533     23.25397    22.204607    9364.0922   -498.82337    2012.1905    2370.1151   -1784.1606   -253.67861   -411.16248   -3694.6487 
 6363000    230.85023   -4274.0352   -3878.3658   -4274.0352            0     2509.026    18.113345    23.313059    21.995907    9288.3759    2946.7155    2153.3672    2426.9953    277.88991    1033.0939    445.20681   -3538.4896 
 6364000    246.66694   -4256.2305   -3833.4518   -4256.2305            0    2308.7198    17.973043    23.584902    21.913024    9288.7656    3347.5103    1455.0585    2123.5907   -334.99883   -503.95464   -451.18868   -3520.6962 
 6365000    244.13881    -4269.494   -3851.0484    -4269.494            0    2182.2115    17.849348    23.515752    22.141063    9293.5083    2491.9083      822.399    3232.3274   -1347.8636    694.19651    366.07909   -3555.2796 
 6366000    243.04517   -4309.5424   -3892.9713   -4309.5424            0    2103.7794    18.220519    23.313005    21.946978    9322.5287     2600.183    3177.0393    534.11589   -784.12595   -493.01407    243.36954   -3606.9425 
 6367000    234.82401   -4300.2954   -3897.8151   -4300.2954            0    2134.4765     18.18414    23.089628    22.163992    9305.8848    1791.4457     3295.438    1316.5457    592.18151    -89.81261   -444.49245   -3608.1308 
 6368000    232.84453   -4290.9934   -3891.9059   -4290.9934            0    2089.7023    18.077244    23.356331    21.901094    9247.0383    1271.0685    2670.4817    2327.5566    826.57818    570.16623    120.76385   -3610.0916 
 6369000     239.5143   -4266.8699   -3856.3506   -4266.8699            0    1639.7365    17.890268    23.631776    22.065364    9328.7679    581.92004    1935.5216    2401.7678    97.811601   -137.00783    412.26255   -3633.2636 
 6370000    236.84325   -4293.7632    -3887.822   -4293.7632            0    2980.9664    17.882703    23.474047    21.959754    9218.2528    2747.8672    3356.1685    2838.8635   -30.623519   -544.30751   -115.95435   -3487.0646 
 6371000    237.45005   -4293.0176   -3886.0364   -4293.0176            0    2498.3248    18.250206    23.258965    21.956391    9320.0686    2023.9785    2283.0782    3187.9176   -963.88657    101.94735    1259.4543    -3546.455 
 6372000    239.98916   -4257.5019   -3846.1687   -4257.5019            0    1898.6942    18.090145    23.226644    22.220079     9336.285    2748.4551    2547.9691     399.6585    262.55482    233.34773    656.77435   -3587.6422 
 6373000    232.69075   -4302.0598   -3903.2358   -4302.0598            0    2576.2485    17.942627     23.52855     21.96685    9273.6132    2623.0023     3355.914    1749.8291   -59.686654   -717.79049    394.31628   -3554.8081 
 6374000    249.15565   -4280.9607   -3853.9164   -4280.9607            0    2208.8659    17.908205    23.621109    22.031799    9319.7082    1717.6266    1736.2136    3172.7575   -95.679342    943.45898    937.31683   -3553.6909 
 6375000    255.49728   -4270.0098   -3832.0962   -4270.0098            0    2343.8617    18.103074    23.302803    22.094328    9320.5443    2565.3781    2268.8457    2197.3614    980.24308    495.43143    676.49708   -3513.4937 
 6376000    240.76471   -4280.9321   -3868.2696   -4280.9321            0    1744.8719    18.253169    23.248252    21.969883    9323.0137    505.45199     1536.182    3192.9817    764.95569   -692.78729    3.0559212   -3631.0253 
 6377000    234.22496   -4266.5298   -3865.0762   -4266.5298            0    1564.5621    18.055737    23.443522    22.101464    9355.3301     1621.964     1569.207    1502.5154   -761.83055    168.33111   -300.47898   -3651.6107 
 6378000    250.02598   -4294.3658   -3865.8298   -4294.3658            0    2110.0364    18.003633    23.431374    21.991941    9277.2972    2439.6084    2846.9217     1043.579   -181.60081     210.5254    322.18935   -3580.3422 
 6379000    256.17895   -4287.3035   -3848.2216   -4287.3035            0    1050.8084    18.003682    23.493931    22.115795    9354.4788    2633.4438    1069.0532   -550.07176   -276.92384    222.68073   -47.335711   -3704.8645 
 6380000    232.74255   -4299.5566   -3900.6438   -4299.5566            0    1758.6654    18.134654    23.300932    22.021545    9305.2994    545.21863    2568.4399    2162.3375    521.13835   -221.90129   -485.76488   -3661.9784 
 6381000    232.16632   -4299.0035   -3901.0783   -4299.0035            0    1656.9413    18.194595     23.17906    22.097836    9319.3996    1526.1798    2205.8588    1238.7854    1506.0696   -310.97222    41.943578    -3675.877 
 6382000    235.78387   -4253.9618   -3849.8363   -4253.9618            0    2274.9039    17.994935    23.633168    21.905962    9316.1087    1219.4203     2453.955    3151.3364   -248.38619    250.92977    -408.8829   -3540.7544 
 6383000    228.60387   -4273.4482    -3881.629   -4273.4482            0    2030.5037     17.94649    23.439386    22.122097    9305.7642    1051.0745    2521.9185    2518.5182   -692.06066    47.052494    534.13092   -3606.0591 
 6384000    232.97225   -4298.0463   -3898.7399   -4298.0463            0    1707.1798    18.147407    23.452829    21.817975    9285.9058    733.04117    1848.3429    2540.1553    847.77432   -614.28399   -63.368134   -3667.5444 
 6385000    223.05263   -4296.7627   -3914.4582   -4296.7627            0    1317.4967    18.041735    23.274488    22.153202    9302.3986    777.80653    1487.1874    1687.4961    446.56261    863.46162   -608.18157   -3735.7187 
 6386000    236.87859   -4280.4724   -3874.4706   -4280.4724            0    1053.8534    18.069231     23.40246    22.095139    9343.2486    2201.7596    1640.5366   -680.73601   -329.21471    92.903103    596.01996   -3730.8707 
 6387000    238.83886   -4306.9914   -3897.6298   -4306.9914            0    719.34695    18.084254    23.548525     21.89152    9322.6681    357.44305   -555.20333    2355.8011   -862.85497   -250.51149   -130.46886   -3799.8262 
 6388000    246.14231   -4292.9521   -3871.0726   -4292.9521            0    2282.6457    17.945492    23.276967    22.149529    9252.2265    2193.5742     1999.436    2654.9269   -1844.3168   -545.30172    370.84201   -3563.0656 
 6389000    219.07773   -4291.8178   -3916.3261   -4291.8178            0    2805.9038    18.050675    23.557224    21.747994    9247.7641    1690.1259    2842.4603    3885.1251    350.53385    352.00451   -616.22769   -3537.8962 
 6390000    246.22366   -4295.1913   -3873.1724   -4295.1913            0    2191.4963    17.898509    23.354391    22.070759     9225.771     1740.165    2056.1878    2778.1362   -638.95068   -163.63807    194.84152     -3578.31 
 6391000    234.60946   -4299.9435   -3897.8309   -4299.9435            0    883.55981    18.170569    23.280496    22.169342    9378.0721    669.54934    1355.8553     625.2748   -418.62841   -490.18936   -13.214206   -3776.9868 
 6392000    238.90642   -4297.9154    -3888.438   -4297.9154            0     1763.197     18.23969    23.277943    21.882199    9290.7979    887.19329    3211.8398    1190.5579   -28.854008    63.096916     11.06686   -3649.5305 
 6393000    232.47519   -4285.9477   -3887.4932   -4285.9477            0     2133.246    17.891664    23.334412     22.20145     9268.916    2051.0835    3070.3092    1278.3452   -31.724051   -251.77027    79.392742    -3599.126 
 6394000    232.77891   -4279.7264   -3880.7513   -4279.7264            0    2215.7868    17.946351    23.716187    21.874226     9310.086    1237.1682      1855.11    3555.0821    1502.0829    246.17868     543.1334   -3579.8961 
 6395000    257.54935   -4292.2701   -3850.8393   -4292.2701            0    3295.8566    17.962893    23.407619    22.052519    9272.3907    3831.0524    3268.0022    2788.5153   -49.144621   -184.31488   -596.17027   -3405.1462 
 6396000    251.49232   -4321.0705   -3890.0213   -4321.0705            0    611.35388    18.174158    23.346714    22.073657    9366.0046    -480.5226    123.34791    2191.2363    369.77818   -605.00449    32.150461   -3806.5142 
 6397000    232.35516   -4300.6089   -3902.3601   -4300.6089            0    2074.3527     18.16336    23.476178    21.771277    9283.4089    2092.9595    2055.0794    2075.0192   -1334.6147   -129.86858     836.4233   -3621.5156 
 6398000    218.39993   -4277.1654   -3902.8353   -4277.1654            0    3726.3944    17.806974    23.356584    22.126808    9202.7622    4519.4698    3760.7251    2898.9884    140.95844    547.15395    444.87598   -3402.7053 
 6399000    247.22347   -4261.0337   -3837.3011   -4261.0337            0    2738.9424    18.084024    23.446643    21.915054    9292.1947    1437.8588    3338.8249    3440.1436   -255.83619    577.10294   -132.29669   -3466.1275 
 6400000    232.24688   -4279.7495   -3881.6863   -4279.7495            0    2140.4918    18.164493    23.391053    21.937726    9321.0461    660.27227    4103.1012    1658.1018   -248.18506   -511.90765   -424.81194   -3590.7123 
 6401000    232.98848   -4248.9906   -3849.6563   -4248.9906            0    1848.1214    18.052183     23.34722    22.150709    9335.8214    2028.2903    2238.2315    1277.8425    325.23219   -858.82183   -365.12964   -3598.0283 
 6402000    229.37721   -4293.6403   -3900.4956   -4293.6403            0    1571.8391    18.076907    23.644948     21.73167    9288.7141    1341.7011    1431.5262    1942.2899    453.90924   -303.44776    52.669375   -3687.5643 
 6403000    236.22953    -4263.037   -3858.1476    -4263.037            0    3998.1738    17.838134    23.346756    22.076156    9193.8923    4306.5437    2600.5737    5087.4039     677.0862   -211.71898   -111.17837   -3322.0585 
 6404000    226.83521   -4284.4702   -3895.6824   -4284.4702            0    1847.9937    18.124289    23.516175    21.842165    9309.4353    641.84188    1092.8128    3809.3263   -276.11056    673.20179   -458.62948    -3644.783 
 6405000    238.87669   -4288.0937   -3878.6673   -4288.0937            0    3182.5337    18.033902    23.198152    22.079031    9236.8333     2126.451    3676.3755    3744.7746    -81.39656   -648.66455   -79.980311    -3449.949 
 6406000    217.15942   -4288.3858   -3916.1819   -4288.3858            0     1548.972    18.099683    23.393083    21.942354    9290.5548    395.88576    1622.6313    2628.3991    325.55416    384.26446   -193.25882   -3706.3067 
 6407000    230.09984   -4270.2723    -3875.889   -4270.2723            0     2500.003    17.886297    23.497342    21.936993    9219.6889     4193.864    1722.0349    1584.1101   -462.64708   -1086.8921     39.68566   -3539.7393 
 6408000    236.36608   -4291.5057   -3886.3823   -4291.5057            0    1360.0311    17.839064    23.538808    22.111943    9285.0325    2185.1991   -274.75769     2169.652   -731.37769      6.46881   -638.40179   -3702.2169 
 6409000    245.81496    -4299.492   -3878.1735    -4299.492            0    2367.6969    18.077648    23.465103     21.97016    9319.6071     2590.336    941.44861    3571.3061     637.1672    711.41352   -19.884985   -3556.3635 
 6410000    244.09414   -4263.5908   -3845.2218   -4263.5908            0    1519.2328    18.238916    23.100497    22.114505    9317.4606    652.86342    1718.8005    2186.0346    609.53984    756.09934   -506.13267   -3638.7799 
 6411000    226.44513   -4300.6736   -3912.5544   -4300.6736            0    2575.7184    17.967474    23.380364    22.112423    9289.1211    2509.9101    2673.1775    2544.0675    386.90162    1033.2009    1100.9336   -3563.6159 
 6412000    233.06219   -4280.8244   -3881.3638   -4280.8244            0     3167.112    17.866252    23.742392    21.812022    9252.3886    4352.3867    2125.2443     3023.705    1378.9397    215.26412    552.71276   -3454.0045 
 6413000     244.2619   -4285.9939   -3867.3374   -4285.9939            0    2409.6711    17.971771     23.37679    22.088584    9279.9071    1718.5498     1694.614    3815.8495   -446.90519    1256.2697    556.72523   -3541.2175 
 6414000    242.40067   -4298.6053   -3883.1388   -4298.6053            0    1859.4261    18.085126    23.254334    22.128444    9306.2842    1634.3697    2869.5227    1074.3858   -586.26605    793.53507    52.361325   -3630.7726 
 6415000    245.88667   -4294.6708   -3873.2295   -4294.6708            0    2267.4472    18.089873    23.560658    21.717535    9256.2158    2346.8661    1048.3307    3407.1448    164.91393   -3.0795474   -525.70002   -3567.1413 
 6416000    233.81623   -4259.1251   -3858.3721   -4259.1251            0    2687.9323    17.916171     23.43156    22.119016     9285.648    2672.1144     4204.382    1187.3006   -319.69897   -949.08177   -229.92674   -3494.3678 
 6417000    228.56588   -4296.4198   -3904.6657   -4296.4198            0    1266.5962    18.055869    23.579078     21.92775    9335.5365    1698.0259     1648.487    453.27567    422.81316   -430.02571   -94.255513   -3732.2196 
 6418000    237.64187    -4247.528    -3840.218    -4247.528            0    1882.9638    18.128724    23.320163    22.021951    9310.1055    1891.3718    2209.0373    1548.4823   -670.75584     422.5161   -377.60153   -3584.5523 
 6419000    236.54448   -4249.3076   -3843.8785   -4249.3076            0    1071.7903    18.079161    23.480771    22.165169    9409.3943     2435.227    355.43797    424.70585   -1185.5936     264.8925   -715.92076   -3696.8006 
 6420000    239.06284   -4278.5774   -3868.8318   -4278.5774            0     2254.174    18.059599    23.531116    21.811645    9269.1314    2408.9455    1317.5491    3036.0275   -304.08657     506.3486    367.18554   -3564.1109 
 6421000    246.18117   -4298.5595   -3876.6134   -4298.5595            0    1170.3282    17.848223    23.488371    22.254771     9329.772    1929.1794    1287.2436    294.56159    95.948828    871.10947    541.58425   -3717.3726 
 6422000    241.78402   -4296.0883   -3881.6788   -4296.0883            0    1713.6982    18.077313    23.504676    21.987556    9342.5433    543.65657    2960.3778    1637.0602    864.22259    411.51806    165.07063    -3648.185 
 6423000    232.34559   -4277.7471   -3879.5147   -4277.7471            0    3271.4791    18.203556    23.055499    21.988783    9228.5174      2551.68    3100.5184     4162.239    46.451943   -165.10657    229.24292   -3439.2114 
 6424000    229.64804   -4282.0759    -3888.467   -4282.0759            0    2955.6817    18.100389     23.22576    22.054236    9271.4971    2426.7821    3473.7953    2966.4677   -404.54777    9.3933101    537.51445   -3488.8137 
 6425000    252.64914   -4295.6456   -3862.6136   -4295.6456            0    2301.1099    18.116687    23.501264    21.892296    9320.9743    2361.9395    3482.0487    1059.3415   -486.04621    1492.0785    229.09078   -3549.8079 
 6426000     230.5946   -4283.9941   -3888.7628   -4283.9941            0    2299.3073    17.904401    23.603252    22.122609    9349.0608    2845.0049    1667.9972    2384.9199   -350.46825    249.06757    302.22361   -3575.2604 
 6427000    246.61174   -4272.9073   -3850.2232   -4272.9073            0    1366.7081    18.021226    23.708641    21.908152    9360.4501    2016.1899    634.95208    1448.9823   -598.85559   -591.08236    119.82733   -3663.6504 
 6428000     249.8659   -4284.0191   -3855.7575   -4284.0191            0    1669.6951    18.216203    23.372417    21.965277    9351.8636    1393.5477    1077.8129    2537.7247   -301.58271     85.18091    -280.2416   -3628.0323 
 6429000    227.65244   -4262.6922   -3872.5037   -4262.6922            0    1264.7911    18.189154    23.272423    22.027409    9324.3272    806.93695    1966.2331    1021.2031   -1497.2316   -274.62646    693.49786   -3700.5102 
 6430000    238.72322   -4293.9044    -3884.741   -4293.9044            0    1468.5487    18.044096    23.564413    21.951919    9333.9235    1153.4422    1702.5922    1549.6117   -213.70943   -598.88014   -226.39965   -3684.8337 
 6431000    246.74455    -4290.326   -3867.4143    -4290.326            0    3363.2503    17.772737    23.546935     22.07712    9239.1309    3098.4954    3526.4151    3464.8404    953.75472   -252.09843    101.38552   -3414.2391 
 6432000    245.55955   -4258.7518   -3837.8711   -4258.7518            0    4022.4345    18.013231    23.450206    21.844934    9227.6054    3331.7632    5886.0294    2849.5109    151.38279     371.4587   -259.43166   -3296.5514 
 6433000    232.37945   -4295.5221   -3897.2317   -4295.5221            0    1856.8875    18.106177    23.371565    22.100944    9352.4498    2219.0627    1703.8606    1647.7392   -332.54446    -242.6515    290.73708   -3643.9599 
 6434000    234.61636   -4292.1978   -3890.0734   -4292.1978            0    1965.3866    18.205439    23.261688     21.92217    9283.8033    2043.7801    2385.1295    1467.2502   -564.23464   -55.906647    360.28146   -3623.9704 
 6435000    249.42737   -4293.6016   -3866.0916   -4293.6016            0    2289.4555    18.171842     23.37984    21.988959    9342.1139    1900.4368     3847.614    1120.3158   -151.19495    578.24519    -967.5049   -3554.1644 
 6436000    242.73297   -4270.6321   -3854.5961   -4270.6321            0     633.0493    17.931924    23.598709    22.223149    9404.1757    422.77496    508.36835    968.00461   -443.01125   -309.93904   -587.89107   -3767.7733 
 6437000    244.17765   -4301.6586   -3883.1465   -4301.6586            0    3570.0267    17.834797    23.660027    21.838892    9215.3959    3809.4113    2769.3624    4131.3065   -801.05507    344.38483     356.8547   -3403.3452 
 6438000    250.29774   -4280.6546   -3851.6529   -4280.6546            0    2297.9111    18.047375    23.525361    22.054485    9363.6952    2588.8213    1945.1294    2359.7825    308.29246     271.8638    533.64735   -3537.8504 
 6439000    235.00362   -4301.5899   -3898.8017   -4301.5899            0    2737.0923    18.109017     23.21345    22.042315     9265.989    1904.9702    3977.8188    2328.4879    89.288622   -609.02221    418.81182   -3528.9249 
 6440000    253.15795   -4271.8461   -3837.9421   -4271.8461            0    1451.7876    18.020928    23.531233    22.053292    9351.8011    2099.8309    1281.3567    974.17506   -677.07114    50.950092    271.62106   -3639.9379 
 6441000    248.67699   -4287.2317   -3861.0079   -4287.2317            0    2158.2657    17.954917    23.411391    22.013945    9253.5528    2145.5305    2626.9047    1702.3621     1079.633   -500.68281   -584.56396   -3569.7422 
 6442000    244.10124   -4283.7725   -3865.3914   -4283.7725            0    2112.8386    17.987226    23.512658    21.930506    9275.0138    718.18968    2988.2845    2632.0415    193.19863    546.16158    355.54306    -3579.595 
 6443000    244.24809   -4284.2962   -3865.6634   -4284.2962            0    3556.2372    18.000634     23.05552    22.189158    9208.8108    3194.3497    4493.5364    2980.8255    488.90973    220.59101    141.89407   -3388.0569 
 6444000    242.82698   -4267.9406   -3851.7434   -4267.9406            0    2626.2167    18.109464    23.454891    21.839868    9276.6045    1461.1865    2161.7866    4255.6771   -185.06358   -102.36528   -644.41798   -3496.4432 
 6445000    231.06609    -4268.313   -3872.2736    -4268.313            0    4009.1424    17.711686    23.275166    22.232708    9165.2658    4446.0514     4664.059    2917.3166    348.07716    40.286615   -236.65465   -3336.3876 
 6446000    238.74467   -4275.6387   -3866.4385   -4275.6387            0    2349.0424     17.95697    23.497882    21.817055    9205.7226    3359.4398    919.31648     2768.371    392.84551    538.06498   -430.67009   -3551.0654 
 6447000    238.03009   -4275.4836   -3867.5082   -4275.4836            0    2266.5539    18.121522    23.385679    21.949901    9302.0188    1701.7757    1516.5882    3581.2978   -399.76848    695.42736   -35.220323   -3560.0266 
 6448000    248.29722   -4288.7607   -3863.1877   -4288.7607            0    3304.8265    17.970966    23.373041    21.984574    9234.3154    4304.4134    2013.1829    3596.8833    351.27468    375.44756    401.28867   -3418.1168 
 6449000    252.82181   -4280.3524   -3847.0244   -4280.3524            0    2077.7184    18.090848    23.587775    21.782747    9295.1959    2169.6494    1604.5652    2458.9407   -125.42765   -74.814793   -146.34616   -3565.3671 
 6450000    240.43377   -4286.3794   -3874.2842   -4286.3794            0    1.7188312    18.050826    23.259042    22.388935    9399.8809    1530.5242    783.29199   -2308.6597   -51.344654   -168.87008    896.56595   -3874.0486 
 6451000    228.84903   -4261.1092   -3868.8698   -4261.1092            0    1802.6802    18.120947    23.429292    21.889184    9293.2929    1414.8845    1539.8351    2453.3211    202.61805   -1068.1721    533.04509   -3624.5469 
 6452000    241.22573   -4278.3965   -3864.9438   -4278.3965            0    1404.4865    17.919117    23.625848    22.161173    9382.0286    904.45421    2826.9613    482.04405   -620.11412   -87.764795   -1567.3883   -3672.7718 
 6453000    222.13524   -4271.9218   -3891.1896   -4271.9218            0    1231.8954    17.927675    23.533878    22.140935    9341.4314    1714.1332   -128.15496     2109.708    573.88197    67.967834    202.46012   -3723.3621 
 6454000    234.22241   -4296.9474   -3895.4982   -4296.9474            0    886.35017    18.117852     23.30874    22.145682    9352.2165    1091.2174    1292.0997    275.73346   -282.11295   -24.229569    603.26808   -3774.6067 
 6455000    234.29306   -4300.7233    -3899.153   -4300.7233            0    1494.0433    18.271936     23.45191    21.765705    9326.8612   -192.43182    1336.5676    3337.9939   -123.45374   -3.3356841    697.11096   -3695.9292 
 6456000    230.76134   -4286.2388   -3890.7218   -4286.2388            0    3408.2692    17.720662     23.38575    22.155699    9181.5648    2896.5235    3844.2149    3484.0691    296.64216    295.61915   -322.95449   -3434.3419 
 6457000    243.91129   -4300.6129   -3882.5573   -4300.6129            0    1576.5396    18.048502    23.660165    21.822245    9318.7647    549.03822   -624.14614    4804.7268    281.34387   -217.27939   -642.95673   -3668.2983 
 6458000    239.10644   -4263.7202   -3853.8999   -4263.7202            0    2317.1806    17.950522    23.328245    22.104595    9256.3914     2616.815    2564.0255    1770.7013   -396.03387   -402.45839    589.49585   -3541.0922 
 6459000    234.46025   -4282.1387   -3880.2818   -4282.1387            0    298.26073      18.0616    23.637543    22.088392    9430.2379    319.07842    975.80031   -400.09654    275.09903    294.47948    286.58449   -3839.2619 
 6460000    255.97341   -4288.4923   -3849.7626   -4288.4923            0    2804.0681    18.039592    23.492016    21.867219    9267.0295    4219.7529    1119.9134     3072.538    418.63752    318.82718   -915.51606   -3470.7925 
 6461000    236.62815   -4291.2162   -3885.6436   -4291.2162            0    199.18497    18.260101    23.150849    22.172409    9373.0941   -904.58304   -439.17833    1941.3163    180.73011   -9.0719908   -81.323416   -3858.4156 
 6462000    237.88115   -4278.0966   -3870.3765   -4278.0966            0    1672.6201    18.200351    23.445958    21.897139    9344.0495    1366.3254    2981.3951    670.13991   -1645.9959   -233.29122   -852.25131   -3642.4429 
 6463000    239.82449   -4268.7529   -3857.7019   -4268.7529            0    2430.5979    17.937276    23.520247    22.024596    9291.9383    2222.6454    2261.2115    2807.9367    719.71484   -415.73948    807.18432   -3528.3234 
 6464000    238.95664   -4294.8415    -3885.278   -4294.8415            0    2232.2245    17.758602    23.701557    21.993346    9257.1423    2207.0291    1757.5846    2732.0596   -475.47662   -851.15345    353.10555   -3583.9145 
 6465000    222.07446   -4306.8725   -3926.2444   -4306.8725            0    3145.3248    18.010418    23.300528    22.016855    9239.4227    2171.2513    3844.5991     3420.124    256.83123    -355.4566    82.783819   -3502.4198 
 6466000    226.50802   -4273.5344   -3885.3074   -4273.5344            0    1731.3394    18.114865    23.241426    22.048799    9282.8815    1474.7329    1743.0248    1976.2604    686.46962   -820.83106    1056.1472   -3650.9164 
 6467000     238.9627   -4313.6875   -3904.1136   -4313.6875            0    1828.8699    18.080041    23.383121    21.925531    9269.4083     2651.753    2218.9247    615.93204    825.18267    347.15928    527.43682   -3656.8782 
 6468000    245.78559   -4288.8177   -3867.5496   -4288.8177            0    2801.0467    17.799021     23.64115    21.966085    9243.0942    2408.4733    3381.6519    2613.0148   -931.31714    146.17218   -359.96314   -3489.9656 
 6469000    240.72215   -4276.1996   -3863.6101   -4276.1996            0    3020.0648    17.949986    23.357137    22.051136    9245.1656    2073.8264    1889.6254    5096.7426    141.36294   -384.33279    482.27171   -3456.4109 
 6470000     229.1906   -4298.0293   -3905.2044   -4298.0293            0    1119.1946    18.146484    23.462071    21.904291    9325.8415    -493.5829    3112.8084    738.35835   -796.04936   -399.07744    264.37447   -3752.9852 
 6471000    228.12715   -4263.8671    -3872.865   -4263.8671            0    1975.9872    17.869627    23.202217    22.404876    9289.3967    3738.7854    1110.4078    1078.7684   -369.02563    798.53227    650.85737   -3605.1655 
 6472000    249.12229   -4316.0852   -3889.0982   -4316.0852            0    2848.3773    17.983189    23.454918    21.842737    9213.1405    2472.8703    3642.2399    2430.0216    222.35322   -853.34526   -1038.8229   -3506.3782 
 6473000    234.52367   -4285.2084   -3883.2429   -4285.2084            0    2374.5622    17.946603    23.445536    22.037964    9272.8642    2486.6668    1947.9289    2689.0909    436.21023   -325.63553    1175.4711   -3562.1184 
 6474000    237.22167   -4277.5202   -3870.9304   -4277.5202            0    3027.3553    17.965786    23.514506    21.892662    9248.6987    3593.2614     2192.934    3295.8706   -659.29447    466.99466   -479.37986   -3462.5923 
 6475000    236.59341   -4291.7326   -3886.2196   -4291.7326            0    2302.5489    18.019626    23.453461    21.986892    9292.1574    3154.3053    3187.1824    566.15902    303.00691    373.23419    35.371367   -3574.1861 
 6476000     243.6769   -4289.2825   -3871.6286   -4289.2825            0    1871.9966    18.093338    23.200471     22.21298    9324.4303    949.23323    2967.9859    1698.7707   -790.57104   -1065.6673    576.38023   -3617.0609 
 6477000    260.32846   -4257.3006   -3811.1065   -4257.3006            0    768.92406    18.096708    23.456309    21.915235    9302.6222    1307.0029    92.657892    907.11134   -327.99569    15.483763    70.277753   -3706.7872 
 6478000    239.57315   -4257.5284   -3846.9082   -4257.5284            0    1238.7591     17.81163    23.549688    22.405083    9397.9984    635.67548    1391.7085    1688.8933   -1141.4686    7.5938452    191.11837   -3677.1236 
 6479000    237.60596   -4265.2179   -3857.9694   -4265.2179            0    2894.2861     18.05338    23.398092    21.899619    9250.7199    3250.4465    3392.2191    2040.1926   -603.22152   -114.25314    274.56556   -3467.4947 
 6480000    252.89636    -4268.841   -3835.3853    -4268.841            0     2334.025    17.999888    23.158835    22.298454    9295.2542     3599.285    2986.0067    416.78347   -511.30754    -383.0783   -593.52335   -3518.9808 
 6481000    242.54733   -4270.1453   -3854.4275   -4270.1453            0    2645.6465    18.065607    23.437002    22.031393    9328.1725    3713.5806    1290.9059    2932.4531   -66.491969   -493.55456    314.70122   -3494.5089 
 6482000    238.90214    -4277.781   -3868.3109    -4277.781            0    2648.7368    18.173782    23.451907    21.736908    9264.4843    2525.0806    958.58708    4462.5428    187.53746    105.43712   -145.14105   -3510.4321 
 6483000    231.93437    -4281.247   -3883.7195    -4281.247            0    3101.3035    17.776046    23.411781    22.225072    9249.3835    3435.3529    2190.0817    3678.4759    1372.3044   -375.66164   -202.62605    -3465.376 
 6484000     245.8665   -4274.3814   -3852.9746   -4274.3814            0     3914.037    17.923694    23.689302    21.797712    9255.3038    2807.2603    3076.7622    5858.0884   -486.53423    659.74302    0.7947358   -3324.6614 
 6485000    241.54506   -4311.0602   -3897.0602   -4311.0602            0    1855.0467    17.917248    23.399317    22.220798       9316.1    3331.0154    1248.0008      986.124    729.24596    603.05345    200.77338   -3645.0229 
 6486000    249.99616   -4300.9886   -3872.5037   -4300.9886            0    4189.5289     18.06156     23.21536    21.904842    9184.8232    3595.5057    4719.8674    4253.2137    90.295538    816.77347    368.24053   -3311.3112 
 6487000    237.65532   -4285.4034   -3878.0703   -4285.4034            0    2135.9986    18.114551    23.368388    21.880662    9262.2565    1195.2602    3300.2225    1912.5133   -952.49586   -243.19619    853.37732   -3589.5385 
 6488000    248.00828   -4280.6412   -3855.5635   -4280.6412            0    2000.4559    17.907839    23.312325    22.216785    9274.9164    2732.1914     2951.868    317.30824    409.56892   -589.57938   -542.45245   -3584.9715 
 6489000    235.64446    -4271.539   -3867.6525    -4271.539            0    1692.9343     17.94108    23.586477    21.967473    9295.9066    2830.7411    1360.0072    888.05443    -622.4975   -311.88048    331.13713   -3638.1393 
 6490000    237.79797   -4270.8595   -3863.2819   -4270.8595            0    2985.1925    17.793098    23.615119    21.985927    9238.1817    3223.5747    3038.3375    2693.6652   -1372.5447   -1311.6635   -193.35895   -3461.0887 
 6491000     227.8378    -4278.029   -3887.5228    -4278.029            0    2961.9458    18.045197     23.16808    22.061272    9223.2126    2201.8325    3601.1546    3082.8504    126.44889    32.034785   -620.41113   -3489.1082 
 6492000     233.0954   -4271.0336   -3871.5161   -4271.0336            0    1029.5593    18.212052     23.31891    22.070267    9372.9155    319.45639    1848.6494    920.57222   -749.22052    137.30348    465.05812   -3730.7811 
 6493000    241.95151   -4267.7655   -3853.0689   -4267.7655            0    1352.8797     17.92883    23.491447    22.243001    9368.1777    1252.8054    433.16867    2372.6651    35.745313   -215.76176   -44.061714   -3668.2314 
 6494000    240.98017    -4270.272   -3857.2403    -4270.272            0    2559.2594    18.077442    23.568339    21.725768    9256.3784    1237.0115    2544.5828    3896.1839    761.52866   -807.97458   -308.09823   -3511.7536 
 6495000    238.24259   -4245.1003   -3836.7607   -4245.1003            0    3639.3074    17.937138    23.233583    22.122257    9219.3175    4285.6107    3089.7138    3542.5976   -586.93859   -669.15015   -77.821223   -3347.4402 
 6496000    232.82766   -4276.6777   -3877.6191   -4276.6777            0    55.119539    18.149769    23.599492    21.992805    9420.0754   -333.39051    13.159105    485.59002    512.44176    50.733721    27.971945   -3870.0467 
 6497000    234.32742   -4272.7152   -3871.0861   -4272.7152            0    2683.8223    17.709704    23.357835    22.277292    9215.2324    4426.2137    2701.1052    924.14808   -598.95808   -31.543162    1150.8698   -3510.3945 
 6498000    256.69256   -4279.3696   -3839.4073   -4279.3696            0    2807.0342    18.005442    23.493042    21.988366    9301.1362    2387.2655     4555.754    1478.0831    930.13381   -349.06756    419.34269   -3458.6401 
 6499000    239.90056   -4309.4712   -3898.2898   -4309.4712            0     1404.945    18.233692    23.338643    22.020793    9370.9405    1002.7861    2000.1046    1211.9443    980.39821    624.03114    1204.4668   -3706.2822 
 6500000    241.33524   -4249.5423   -3835.9019   -4249.5423            0    2204.3137     17.99834    23.435693     21.99582    9277.9153    1736.7057    3272.8468    1603.3886     434.1012   -126.22372   -279.06452   -3537.6387 
Loop time of 457.933 on 64 procs for 250000 steps with 864 atoms

Performance: 94.337 ns/day, 0.254 hours/ns, 545.931 timesteps/s
185.1% CPU use with 32 MPI tasks x 2 OpenMP threads

MPI task timing breakdown:
Section |  min time  |  avg time  |  max time  |%varavg| %total
---------------------------------------------------------------
Pair    | 16.769     | 25.21      | 36.167     | 110.3 |  5.51
Bond    | 0.749      | 1.0461     | 1.5226     |  17.2 |  0.23
Kspace  | 224.87     | 243.38     | 255.65     |  46.0 | 53.15
Neigh   | 1.6397     | 1.7558     | 1.8889     |   5.2 |  0.38
Comm    | 71.489     | 77.242     | 94.951     |  43.8 | 16.87
Output  | 0.49998    | 0.50029    | 0.50191    |   0.0 |  0.11
Modify  | 77.753     | 80.662     | 85.296     |  18.9 | 17.61
Other   |            | 28.14      |            |       |  6.14

Nlocal:        27.0000 ave          39 max          17 min
Histogram: 2 8 4 2 2 4 2 2 0 6
Nghost:        2121.16 ave        2224 max        2025 min
Histogram: 11 5 0 0 0 0 0 1 8 7
Neighs:        6554.41 ave        9378 max        4186 min
Histogram: 4 7 2 3 2 3 2 3 0 6

Total # of neighbors = 209741
Ave neighs/atom = 242.75579
Ave special neighs/atom = 2.0000000
Neighbor list builds = 5448
Dangerous builds = 0

unfix		3
unfix		2
unfix		1

write_data	data.final.${pid} nocoeff
write_data	data.final.0 nocoeff
System init for write_data ...
PPPM initialization ...
  extracting TIP4P info from pair style
  using 12-bit tables for long-range coulomb (../kspace.cpp:340)
  G vector (1/distance) = 0.37169544
  grid = 24 27 25
  stencil order = 5
  estimated absolute RMS force accuracy = 0.0031593401
  estimated relative force accuracy = 9.5142588e-06
  using double precision FFTW3
  3d grid and FFT values/proc = 4410 672
Last active /omp style is kspace_style pppm/tip4p/omp

write_restart   restart.lmp.${pid}
write_restart   restart.lmp.0
System init for write_restart ...
PPPM initialization ...
  extracting TIP4P info from pair style
  using 12-bit tables for long-range coulomb (../kspace.cpp:340)
  G vector (1/distance) = 0.37169544
  grid = 24 27 25
  stencil order = 5
  estimated absolute RMS force accuracy = 0.0031593401
  estimated relative force accuracy = 9.5142588e-06
  using double precision FFTW3
  3d grid and FFT values/proc = 4410 672
Last active /omp style is kspace_style pppm/tip4p/omp
Total wall time: 0:07:38
