LAMMPS data file via write_data, version 30 Jul 2021, timestep = 36000000

1296 atoms
2 atom types
864 bonds
1 bond types
432 angles
1 angle types

-10.527573658548837 12.507573658548838 xlo xhi
-9.126881321531584 12.116879321531584 ylo yhi
0.24804134506370268 21.611957654929032 zlo zhi
-9.320720654490987 1.611930114976213 2.949160863906261 xy xz yz

Masses

1 1.008
2 15.999

Pair Coeffs # lj/cut/tip4p/long/omp

1 0 0
2 0.21084 3.1668

Bond Coeffs # harmonic/omp

1 450 0.9572

Angle Coeffs # harmonic/omp

1 55 104.52

Atoms # full

315 105 1 0.5897 -8.728159385297147 -5.342497318821322 5.311445355409066 1 1 0
298 100 2 -1.1794 -5.845060149884662 -6.983361659135149 4.068363098930357 1 1 0
280 94 2 -1.1794 -9.574030073203918 -4.4519451857401116 1.5707459640032575 1 1 0
299 100 1 0.5897 -6.425251534435105 -7.74426672159789 4.042059112456735 1 1 0
270 90 1 0.5897 -8.597288690569709 -7.391639210788021 2.155236667573739 1 1 0
163 55 2 -1.1794 -7.243133553458952 -8.02557917090797 1.057992102193124 1 1 0
164 55 1 0.5897 -6.362286551448237 -8.265017313562698 1.3462186885385339 1 1 0
269 90 1 0.5897 -9.397330852728885 -6.11447899786251 2.2987902742441895 1 1 0
268 90 2 -1.1794 -9.328775220245522 -7.00690442275277 2.638091386847199 1 1 0
313 105 2 -1.1794 -8.98156039996109 -6.265370454093414 5.329688637589667 1 1 0
282 94 1 0.5897 -10.452239115014097 -4.085392065912468 1.6740264125612903 1 1 0
281 94 1 0.5897 -9.002202802646655 -3.687903746949786 1.4962596944286088 1 1 0
314 105 1 0.5897 -9.068429371328342 -6.508580852383971 4.4080204098725355 1 1 0
73 25 2 -1.1794 -8.26924817358207 -3.6569437347811684 4.828487660540294 1 0 0
324 108 1 0.5897 -7.0519171168349715 -4.29245906848668 3.65443080346674 1 1 0
260 87 1 0.5897 -7.020687330375802 -6.350288266283849 0.502907853689602 1 1 0
165 55 1 0.5897 -7.472730997569016 -8.691190644267097 0.409609880663136 1 1 0
323 108 1 0.5897 -6.254269093805338 -5.525706941233729 3.2875040785273297 1 1 0
322 108 2 -1.1794 -6.413872163483445 -4.6203949438219 3.0207247080072537 1 1 0
275 92 1 0.5897 -10.571564733316908 -7.753691144005986 3.5775778333477386 1 1 0
259 87 2 -1.1794 -6.815767408741545 -5.42078389961007 0.40158358169114217 1 1 0
261 87 1 0.5897 -6.829228262928202 -5.073537087467662 1.2934305506564425 1 1 0
429 143 1 0.5897 -6.437692416435027 -7.16400766841012 8.587415515155516 1 0 0
428 143 1 0.5897 -6.81450605622397 -7.103381730605057 10.052398702620932 1 0 0
427 143 2 -1.1794 -6.085844284748729 -6.948797399657701 9.451171749276318 1 0 0
419 140 1 0.5897 -9.095655368874471 -5.546976180512226 8.909414713495906 1 0 0
418 140 2 -1.1794 -9.793675748479895 -5.832880983489151 9.498785806470389 1 0 0
413 138 1 0.5897 -7.916918016085288 -3.671636892412013 7.811799423686858 1 0 0
627 209 1 0.5897 -10.398743643488137 -6.596600896762404 6.540229947464338 1 1 0
420 140 1 0.5897 -9.373080985280478 -6.46770442434679 10.078743438957007 1 0 0
618 206 1 0.5897 -8.029415091327166 -7.304014933431304 6.65540541044295 1 1 0
350 117 1 0.5897 -7.393711974979503 -4.205517074564216 9.869507945174599 0 0 0
414 138 1 0.5897 -6.907971338013178 -4.796872028393346 7.723972988359018 1 0 0
412 138 2 -1.1794 -7.723891489037716 -4.543777093241262 8.15581701934725 1 0 0
349 117 2 -1.1794 -7.296435659743429 -3.890424847590735 10.768071193079289 0 0 0
616 206 2 -1.1794 -7.599605693301218 -7.912916592513584 7.2560354799437805 1 1 0
351 117 1 0.5897 -7.197650390703242 -2.9423705969457963 10.68050855454773 0 0 0
335 112 1 0.5897 -5.127254581247099 -5.503498302682985 9.520805227828815 0 0 0
631 211 2 -1.1794 -5.654905495992194 -5.507367378737477 6.361045665174167 1 1 0
633 211 1 0.5897 -5.93449232540941 -6.077784548811554 5.645077341577887 1 1 0
684 228 1 0.5897 -8.826839512735763 -6.112790459810004 14.330606226033611 0 0 0
740 247 1 0.5897 -10.832757652484831 -3.1139014320750267 12.15585862784096 1 0 0
652 218 2 -1.1794 -5.990602699831301 -5.441583956963303 12.747455567238847 0 0 0
682 228 2 -1.1794 -8.154504529396991 -6.506234088808492 13.774380252416835 0 0 0
780 260 1 0.5897 -7.757689388274717 -3.732917018502663 15.179190830031104 0 0 0
779 260 1 0.5897 -7.4443145599670295 -2.7354361359423347 14.0842594559354 0 0 0
778 260 2 -1.1794 -8.173937482560648 -3.1663829502165157 14.529552704643669 0 0 0
768 256 1 0.5897 -9.642309134948132 -2.273832550701817 14.87668098738766 0 0 0
654 218 1 0.5897 -6.251028342550024 -4.891535205489344 12.008618303941121 0 0 0
653 218 1 0.5897 -6.815243546322666 -5.776873438819866 13.099456406213614 0 0 0
661 221 2 -1.1794 -9.421004236640236 -4.2157569662621786 12.29370448866213 0 0 0
766 256 2 -1.1794 -10.538304926839746 -1.9380831230496858 14.904167780946322 0 0 0
662 221 1 0.5897 -9.017186044897326 -3.949483678302488 13.119667867337661 0 0 0
663 221 1 0.5897 -8.695457581049801 -4.243630404700505 11.669926502076102 0 0 0
727 243 2 -1.1794 -8.22962316670156 -7.372190442786508 11.127842784344349 1 0 0
788 263 1 0.5897 -5.040627602816765 -4.519401633258553 15.553751499033554 0 0 0
729 243 1 0.5897 -8.267911304920123 -6.996765771200497 12.007468385929608 1 0 0
767 256 1 0.5897 -11.08882339965033 -2.7143135161085254 14.800868167153292 0 0 0
758 253 1 0.5897 -9.753551374488021 -4.874078058638075 16.13026378487247 0 0 0
789 263 1 0.5897 -4.928650807951619 -4.659605336933229 14.050553611939854 0 0 0
739 247 2 -1.1794 -11.647977108345673 -2.7081333148186992 11.860826539710471 1 0 0
678 226 1 0.5897 -4.430971248807526 -6.33151098879156 12.452433241743513 0 0 0
1110 370 1 0.5897 -10.352858764788198 -3.444678470704247 17.739110227494123 0 0 0
1097 366 1 0.5897 -8.823386410243726 -5.412950341748184 18.575998047581194 0 0 0
1221 407 1 0.5897 -10.92959898661693 -2.1091839311247105 19.365978044790687 0 0 0
1129 377 2 -1.1794 -7.846311669318371 -1.519354234141911 17.574994786065233 0 0 0
1152 384 1 0.5897 -6.9879977468954575 -3.814685719767917 19.509600692055734 0 0 0
1225 409 2 -1.1794 -8.158566561536118 -3.4006692571237336 20.8391977090226 0 0 0
1227 409 1 0.5897 -8.939868465326635 -2.9723389199676564 20.489381565198393 0 0 0
1109 370 1 0.5897 -8.899478223784616 -3.0438063897563685 17.600635060639384 0 0 0
1108 370 2 -1.1794 -9.473516091469035 -3.8089389632386546 17.637358667012045 0 0 0
1089 363 1 0.5897 -6.6777654015602685 -4.300661245786385 17.213220038900047 0 0 0
1151 384 1 0.5897 -6.1668056231737385 -5.084657680262483 19.441675940712635 0 0 0
1248 416 1 0.5897 -6.00451396541213 -1.398011150240885 20.54147006176295 0 0 0
1150 384 2 -1.1794 -6.308867775108967 -4.250296726573142 18.994577184846243 0 0 0
1219 407 2 -1.1794 -10.350465934293293 -2.003073298258947 20.120678760828383 0 0 0
1096 366 2 -1.1794 -8.8132170849149 -6.3476545250321 18.78204103758565 0 0 0
1130 377 1 0.5897 -7.338170672846742 -1.3645688574336567 18.371264190191667 0 0 0
1088 363 1 0.5897 -6.874330115394448 -5.591121285891378 16.4465492227396 0 0 0
1121 374 1 0.5897 -4.795725862916117 -3.521391738000281 18.489901849579496 0 0 0
1087 363 2 -1.1794 -6.718745466171003 -4.654522896484684 16.324819402917996 0 0 0
1131 377 1 0.5897 -7.191963584370997 -1.5646462027474826 16.87781860334922 0 0 0
1226 409 1 0.5897 -7.765486008502157 -2.7474358652226814 21.41792783536973 0 0 0
1141 381 2 -1.1794 -8.758196617807846 -5.948707002079887 21.559522951708402 0 0 0
1143 381 1 0.5897 -8.47363902921817 -5.0400749034681755 21.461266066377718 0 0 0
301 101 2 -1.1794 -8.014572693169974 -1.9821998222502648 1.6485246282183101 1 1 0
69 23 1 0.5897 -10.91979206680503 -2.566019186532545 3.525990268622749 1 0 0
272 91 1 0.5897 -9.53485113639019 -1.2982753899495636 1.2909637285840811 1 1 0
271 91 2 -1.1794 -10.362667315657262 -0.9125069576023428 1.0042869863801842 1 1 0
82 28 2 -1.1794 -9.015127817489422 0.17990340070884514 4.1593101801019134 1 0 0
256 86 2 -1.1794 -11.935483384570892 -3.2459603112910784 2.213637353155893 1 1 0
258 86 1 0.5897 -12.345859538304493 -2.572414010711019 1.6712569991178357 1 1 0
83 28 1 0.5897 -9.582075086064592 -0.5839058685893317 4.266418608128952 1 0 0
67 23 2 -1.1794 -10.421061469277626 -2.222213583320774 4.26711164243029 1 0 0
99 33 1 0.5897 -11.753369675877133 1.8912127807126051 5.287887999300026 1 0 0
68 23 1 0.5897 -10.98500567521574 -2.3719752559624068 5.025945697214508 1 0 0
52 18 2 -1.1794 -12.290898409475755 0.14098590935921074 2.747414197974124 1 0 0
98 33 1 0.5897 -11.94973918256144 0.6191091044868156 4.491092148938809 1 0 0
53 18 1 0.5897 -12.492853813218797 0.9942682016829263 2.3635292075748597 1 0 0
54 18 1 0.5897 -11.658375961540628 -0.24971160097850031 2.1445132139579535 1 0 0
107 36 1 0.5897 -9.45573113849971 1.67268615649032 3.3670856323747866 1 0 0
74 25 1 0.5897 -7.949236635822109 -3.0869782667447847 5.527697053613989 1 0 0
97 33 2 -1.1794 -11.921915411797311 0.9542203522877557 5.3872417357015365 1 0 0
44 15 1 0.5897 -10.087426877297188 0.8935037294308259 0.5677805463574503 1 0 0
59 20 1 0.5897 -13.598954859590833 -0.8628556353730641 3.5736744301313776 1 0 0
417 139 1 0.5897 -8.745873578847382 1.3728586181840026 5.523549866845134 1 0 0
302 101 1 0.5897 -7.677761213967842 -1.7966817534374124 2.5250690218655 1 1 0
75 25 1 0.5897 -9.010343906345465 -3.182204951418387 4.452106099558461 1 0 0
1249 417 2 -1.1794 -13.207378081448542 -1.7331157079018427 0.30782264600057746 0 0 1
273 91 1 0.5897 -10.625310571904274 -1.4407031563281762 0.2505060625292522 1 1 0
1010 337 1 0.5897 -12.526866337437914 1.419605505404343 0.2991891087960739 0 -1 1
527 176 1 0.5897 -11.875195315656804 1.6810191596852757 8.658728316140365 1 0 0
526 176 2 -1.1794 -12.680798843681599 1.2800774742777339 8.985232995817707 1 0 0
426 142 1 0.5897 -8.847645070589712 -1.5864799756090138 6.990919614767024 1 0 0
410 137 1 0.5897 -13.700497127978338 0.5221769183408753 7.725398548672822 1 0 0
424 142 2 -1.1794 -7.991522810473681 -1.995152681187446 7.11868924623959 1 0 0
402 134 1 0.5897 -10.83267407118575 0.03280563762076305 6.531306152165858 1 0 0
401 134 1 0.5897 -11.134331643515818 -0.9987750474931723 7.59755625598401 1 0 0
400 134 2 -1.1794 -10.418574866141155 -0.6380338562288301 7.074206380328495 1 0 0
537 179 1 0.5897 -9.64990358815821 -0.0058417629756135625 8.501402823897505 1 0 0
536 179 1 0.5897 -9.847367398636875 0.02179522578317261 10.002095874727466 1 0 0
535 179 2 -1.1794 -9.211405608544922 0.23215500911677367 9.318271997569015 1 0 0
528 176 1 0.5897 -12.38382554452625 0.6232413136980703 9.615015732693568 1 0 0
435 145 1 0.5897 -7.86628008285367 -0.7579005368258436 9.694720789368091 0 0 0
411 137 1 0.5897 -13.474798900521499 0.3392516404873458 6.239668019956889 1 0 0
522 174 1 0.5897 -9.778937882220124 2.4013920805107283 7.496760823742246 1 0 0
433 145 2 -1.1794 -7.116793809264641 -1.213983673295849 10.077511940064657 0 0 0
425 142 1 0.5897 -7.362447432178346 -1.3138563950605233 6.881151165275976 1 0 0
790 264 2 -1.1794 -11.258608497916727 0.5333737699387839 13.825675871155553 0 0 0
896 299 1 0.5897 -8.338264057871385 2.345942269823997 15.608109509301103 0 0 0
762 254 1 0.5897 -9.197330627252732 2.3523460605926036 11.995977833912484 0 0 0
761 254 1 0.5897 -9.733076678817067 1.475516064885424 13.107833367684893 0 0 0
760 254 2 -1.1794 -8.917479502025163 1.7709160124926218 12.702996594214612 0 0 0
769 257 2 -1.1794 -12.549515497220778 2.859425351584367 12.233823782984908 0 0 0
792 264 1 0.5897 -11.848901328967681 0.8914737813218085 14.488646747245198 0 0 0
770 257 1 0.5897 -12.127193480597485 3.107217230358261 13.056274659547165 0 0 0
837 279 1 0.5897 -11.417117837915864 0.26815040161944736 11.825083085911162 1 0 0
791 264 1 0.5897 -10.983559651776464 -0.3119144098782094 14.180727355278588 0 0 0
771 257 1 0.5897 -11.837056020949934 2.839179937621614 11.59485496623067 0 0 0
888 296 1 0.5897 -10.60044584169773 3.252589168339245 15.020234733071845 0 0 0
835 279 2 -1.1794 -11.367636900336997 -0.15490744265473566 10.967923695985277 1 0 0
836 279 1 0.5897 -11.574182224079738 -1.0733346742341894 11.141374037042974 1 0 0
865 289 2 -1.1794 -12.92693408480706 1.3229791681525462 15.743070585708976 0 0 0
897 299 1 0.5897 -8.027736533604234 2.3241410678050443 14.12657647409232 0 0 0
1218 406 1 0.5897 -13.390295436836652 3.4310422545968535 17.75981797559802 0 0 0
1260 420 1 0.5897 -10.00691499183093 3.212008280434617 19.756255083877406 0 0 0
1011 337 1 0.5897 -11.99148202635827 4.254826230291112 20.60480407997678 0 -1 0
1259 420 1 0.5897 -9.331268314057821 2.002252470162306 19.146574126549922 0 0 0
1258 420 2 -1.1794 -9.519113311139614 2.9265973279751876 18.98373509363377 0 0 0
1204 402 2 -1.1794 -12.01394874452077 0.6619160829436375 18.95246846157277 0 0 0
1009 337 2 -1.1794 -11.163377702258051 3.8664786733469345 20.887126933074434 0 -1 0
1205 402 1 0.5897 -12.156153529404813 1.5212905340302925 18.555612993993805 0 0 0
1236 412 1 0.5897 -7.896617960711349 -0.004005748167392298 20.137176379445684 0 0 0
1216 406 2 -1.1794 -12.52077014925497 3.033839375930601 17.809166333851927 0 0 0
1235 412 1 0.5897 -9.333299480160747 -0.47947490259096526 20.091930826227347 0 0 0
1234 412 2 -1.1794 -8.79978295993314 0.31138602229574097 20.170498195680814 0 0 0
1099 367 2 -1.1794 -10.323142250021238 -0.441882189720193 17.159658535799423 0 0 0
1100 367 1 0.5897 -9.424390404339 -0.6917968048299183 17.374307375437418 0 0 0
1206 402 1 0.5897 -11.396311608116635 0.22580851609399133 18.36548896467653 0 0 0
1251 417 1 0.5897 -11.511592483924519 2.1657393437571493 21.586487230558937 0 0 0
1197 399 1 0.5897 -9.820467822684119 2.580576766070571 17.32296868488565 0 0 0
1250 417 1 0.5897 -11.806094783334393 0.9135239556050205 20.7884135346753 0 0 0
1246 416 2 -1.1794 -6.373908904782747 -0.793176781534191 19.89806093687676 0 0 0
866 289 1 0.5897 -12.685551384152664 1.9007760614543532 16.466977405219303 0 0 0
1217 406 1 0.5897 -11.919994676950518 3.777133619059601 17.862773676422655 0 0 0
1229 410 1 0.5897 -7.968346410946662 3.592176597115568 18.477681536958208 0 0 0
1196 399 1 0.5897 -10.11302110759855 1.3446286008117507 16.499223063116226 0 0 0
1195 399 2 -1.1794 -9.97521895712013 2.288909269112441 16.424555340674203 0 0 0
1101 367 1 0.5897 -10.547338125053479 -0.9805436278680801 16.40088975437358 0 0 0
40 14 2 -1.1794 -15.11225422929365 3.827763910567164 1.8735038752936763 1 0 0
177 59 1 0.5897 -14.261704830342978 4.551922357447452 3.2600048422191064 1 0 0
42 14 1 0.5897 -15.510585947668698 4.490860367392338 1.3096889190174703 1 0 0
190 64 2 -1.1794 -12.275356682695529 7.117435408132913 4.0722557209032635 1 0 0
175 59 2 -1.1794 -13.82941429781507 4.8611592769900405 4.0560478691364255 1 0 0
55 19 2 -1.1794 -13.219290281426865 6.505219646623164 0.885064310047345 1 0 0
56 19 1 0.5897 -12.522087143679844 5.993683808415129 1.2955523998506606 1 0 0
66 22 1 0.5897 -13.514928957528236 2.9678762877169618 1.7070920139738857 1 0 0
65 22 1 0.5897 -12.075202656922187 3.4329512340059214 1.7625457014679724 1 0 0
64 22 2 -1.1794 -12.614600600515496 2.6431518409705372 1.723166415190862 1 0 0
108 36 1 0.5897 -10.339153865389418 2.892497936413653 3.5201522301055395 1 0 0
85 29 2 -1.1794 -11.182152348441734 4.90910421225894 1.862242903013785 1 0 0
191 64 1 0.5897 -12.90075167179258 6.4033247549353725 3.948907527822877 1 0 0
167 56 1 0.5897 -16.70356166480515 6.042534823820231 3.2514776958753218 1 0 0
183 61 1 0.5897 -12.393808420761816 4.009519560576377 4.4371610469872875 1 0 0
181 61 2 -1.1794 -11.579972556484876 3.6456013850186455 4.78575373941729 1 0 0
176 59 1 0.5897 -14.45669617698038 4.679247303779672 4.755855278705493 1 0 0
106 36 2 -1.1794 -9.599056195320877 2.5521570682194614 3.0174859761044406 1 0 0
192 64 1 0.5897 -11.417062110340483 6.702320697048041 3.986911273582246 1 0 0
45 15 1 0.5897 -9.877015345298638 2.186499368933358 1.3264627742266748 1 0 0
43 15 2 -1.1794 -9.940626109299348 1.8307368950530378 0.4401555648750143 1 0 0
182 61 1 0.5897 -11.357999023886642 4.215766270579584 5.5218191254448685 1 0 0
508 170 2 -1.1794 -13.632715965196219 6.358059029225579 7.439631624917053 1 0 0
645 215 1 0.5897 -12.602214505800042 6.876880622798257 8.746761206998924 1 0 0
644 215 1 0.5897 -12.886833248655755 7.142175693593046 10.209771030725275 1 0 0
643 215 2 -1.1794 -12.180837781920525 7.14486299566331 9.563351663958615 1 0 0
509 170 1 0.5897 -14.35889656913216 5.879720612973566 7.839886580148068 1 0 0
543 181 1 0.5897 -10.656427798188377 6.314723317209683 9.974873363818928 0 0 0
532 178 2 -1.1794 -11.26496149815987 5.131850807267872 7.1627942405418805 1 0 0
636 212 1 0.5897 -15.50575408503087 8.004009804317775 9.739701407730056 1 0 0
510 170 1 0.5897 -14.023294074148124 6.800817758995928 6.686202299983896 1 0 0
534 178 1 0.5897 -12.040996196110033 5.6918970152387605 7.181861896642194 1 0 0
521 174 1 0.5897 -10.724914072950554 3.5515835124088735 7.7687852788668375 1 0 0
518 173 1 0.5897 -16.770782538108953 7.667430380932505 7.695282832513636 1 0 0
457 153 2 -1.1794 -10.249578488345007 3.2837761518628863 10.721673889730178 0 0 0
519 173 1 0.5897 -16.768138618504256 7.332967759856398 6.218842903310704 1 0 0
520 174 2 -1.1794 -10.550497165740893 2.641793776624569 8.009767154376593 1 0 0
459 153 1 0.5897 -10.081650613376038 4.218627483504726 10.602990950000079 0 0 0
533 178 1 0.5897 -10.550171466917282 5.720294898473927 6.919574117702539 1 0 0
458 153 1 0.5897 -10.15408275704267 2.9097792944858973 9.845796711342903 0 0 0
887 296 1 0.5897 -10.244506448209737 4.281066281294933 13.967814502879675 0 0 0
874 292 2 -1.1794 -13.40972839678917 4.893593324773356 14.984539029249154 0 0 0
876 292 1 0.5897 -12.611123523176612 4.435815842410246 14.722020812015954 0 0 0
869 290 1 0.5897 -12.712329617655453 8.127075613790119 13.138827973879414 0 0 0
945 315 1 0.5897 -14.489879927373458 7.44751072292803 11.958967741626033 1 0 0
649 217 2 -1.1794 -16.02427057327309 8.551461676035537 15.53837864378223 0 -1 0
900 300 1 0.5897 -14.849878814673723 7.7760492865010065 14.37061563633005 0 0 0
899 300 1 0.5897 -14.127602293010199 6.466838224158337 14.133837204000612 0 0 0
898 300 2 -1.1794 -14.160871451528696 7.377004704553201 13.839331391942254 0 0 0
848 283 1 0.5897 -14.03031071317029 4.078653095775866 11.91993020262341 1 0 0
886 296 2 -1.1794 -10.977530745692578 3.7668848885234922 14.306407981564815 0 0 0
944 315 1 0.5897 -14.781710197887664 6.141404515169949 11.251404727448982 1 0 0
943 315 2 -1.1794 -14.710392584152755 7.084081473166279 11.10138248456552 1 0 0
965 322 1 0.5897 -16.554196636320825 8.397920974777048 12.446367106548617 1 0 0
847 283 2 -1.1794 -14.885835099043732 4.472812941378541 11.749641540889122 1 0 0
875 292 1 0.5897 -14.031943255772395 4.194595210806334 15.185976771415877 0 0 0
1209 403 1 0.5897 -13.351215523218153 6.163132352592996 16.22663665938179 0 0 0
1018 340 2 -1.1794 -12.090397421563342 7.530350223968721 20.259633747480528 0 -1 0
1019 340 1 0.5897 -12.578861062271365 6.712847699650268 20.356502100164185 0 -1 0
1020 340 1 0.5897 -11.196952455560837 7.253513823818629 20.056138405521473 0 -1 0
989 330 1 0.5897 -15.078534318165481 8.645514303370678 18.399813850199045 0 -1 0
1237 413 2 -1.1794 -10.920135893809944 5.431594742969402 17.865773843017934 0 0 0
980 327 1 0.5897 -12.987815591786406 8.431158609806136 16.45383305596725 0 -1 0
1030 344 2 -1.1794 -9.605962952565525 6.467214960306286 20.074387004606045 0 -1 0
1032 344 1 0.5897 -9.206418242114193 5.813048972915162 20.647691416674398 0 -1 0
1003 335 2 -1.1794 -13.594425815854876 5.2475904289534 20.19766121963714 0 -1 0
1207 403 2 -1.1794 -13.251757224726838 6.7021354506209185 17.01131965403745 0 0 0
1208 403 1 0.5897 -12.48963116606574 6.335275385512624 17.45948225851666 0 0 0
1239 413 1 0.5897 -10.1692885321563 5.412468765866969 17.272362635175796 0 0 0
1238 413 1 0.5897 -10.541157134676714 5.609395368817589 18.726553965768062 0 0 0
990 330 1 0.5897 -14.467498156603884 7.27003558677551 18.23713297248171 0 -1 0
1043 348 1 0.5897 -12.805783397227986 9.071583622982104 19.462553515392578 0 -1 0
1034 345 1 0.5897 -14.83243330767272 7.94147251683362 20.596900346233227 0 -1 0
988 330 2 -1.1794 -15.128885752537244 7.75038624369488 18.735168311950908 0 -1 0
1033 345 2 -1.1794 -14.88269150029138 8.202224859380824 21.51649325329649 0 -1 0
1035 345 1 0.5897 -14.889732872564206 9.159133722016612 21.494496463012112 0 -1 0
1005 335 1 0.5897 -14.011460101385513 5.044568158278903 19.360371483230097 0 -1 0
57 19 1 0.5897 -11.978596201601434 8.868334630101945 21.589504131036556 1 0 -1
291 97 1 0.5897 -15.678244106795532 10.890242653724435 4.7277598355215655 1 0 0
174 58 1 0.5897 -16.53977179272355 10.258433676317726 1.8764724350184987 1 0 0
173 58 1 0.5897 -15.135466771852407 10.579991536186899 1.4109391851789184 1 0 0
172 58 2 -1.1794 -15.734024607959185 9.84841000990211 1.5619744205727926 1 0 0
283 95 2 -1.1794 -17.116210392966213 11.997677079583806 4.3605023306972335 1 0 0
161 54 1 0.5897 -15.413253669982137 8.251812000047202 2.2395101014732375 1 0 0
216 72 1 0.5897 -13.591372345214651 10.03594852370529 3.761090931999739 1 0 0
151 51 2 -1.1794 -12.904233204476334 9.070590332083896 0.4730712011814 1 0 0
285 95 1 0.5897 -17.45656555927349 11.765713735000045 3.4964813415517355 1 0 0
148 50 2 -1.1794 -18.29235012719427 10.860396737069557 2.159968363053297 1 0 0
289 97 2 -1.1794 -14.874549975313165 10.451781293635314 5.0072170618064895 1 0 0
150 50 1 0.5897 -18.692471240739707 11.384971410660153 1.466444421028692 1 0 0
284 95 1 0.5897 -17.842141087673035 11.822355874344627 4.959341834922659 1 0 0
205 69 2 -1.1794 -15.007745576800826 7.68472559407013 5.258707469822285 1 0 0
193 65 2 -1.1794 -14.053476078363829 12.09312266566322 1.6759546167047839 1 0 0
153 51 1 0.5897 -12.871894571201574 9.36710789134931 1.3825715379243289 1 0 0
152 51 1 0.5897 -13.094102155728866 8.134300077104161 0.5325794812535397 1 0 0
207 69 1 0.5897 -15.073715749060028 8.638820857914212 5.298064954230072 1 0 0
214 72 2 -1.1794 -12.871924883411877 9.742738814805257 3.2019199312709916 1 0 0
215 72 1 0.5897 -12.669402105791656 8.860865887034997 3.514194995246097 1 0 0
160 54 2 -1.1794 -15.266544879480195 7.340414707369725 2.4926097604683215 1 0 0
1118 373 1 0.5897 -16.268522002035596 8.554979110262458 0.3799513899981716 0 -1 1
162 54 1 0.5897 -14.510869253610522 7.065822328668844 1.9731726460877217 1 0 0
206 69 1 0.5897 -15.089399572233393 7.476779744512424 4.327974602878941 1 0 0
640 214 2 -1.1794 -14.34891425183445 12.03380115734073 7.152650865334724 1 0 0
630 210 1 0.5897 -13.060791695956368 9.305039658589095 7.400365218643963 1 0 0
629 210 1 0.5897 -13.8768128646483 10.51040961118688 7.816246747582961 1 0 0
628 210 2 -1.1794 -13.672537039052024 9.61042210109531 8.070243306884654 1 0 0
566 189 1 0.5897 -13.568780098740987 9.773030572857238 9.899767619751938 0 0 0
635 212 1 0.5897 -15.18800930811257 8.941703183866885 8.594361515052832 1 0 0
634 212 2 -1.1794 -15.918407832844412 8.581439823623473 9.097404671756525 1 0 0
567 189 1 0.5897 -13.305379618341824 11.149142203663143 10.473058433739068 0 0 0
642 214 1 0.5897 -15.230561062297612 12.40657812056983 7.149230993375928 1 0 0
617 206 1 0.5897 -17.638143774323495 12.832910668098748 7.647382431374106 1 0 0
565 189 2 -1.1794 -13.39264869525407 10.229168326840451 10.722606092262938 0 0 0
325 109 2 -1.1794 -13.15639993835742 12.848054072836234 10.120704444053178 0 -1 0
641 214 1 0.5897 -13.766998636409884 12.79335728394621 7.125455070844252 1 0 0
327 109 1 0.5897 -13.963356675729713 13.14898065803532 9.702921638295342 0 -1 0
290 97 1 0.5897 -14.56758103526868 10.966234826130563 5.753723763237056 1 0 0
525 175 1 0.5897 -12.106550775134014 8.076330735518848 5.6197641854186084 1 0 0
658 220 2 -1.1794 -16.604629389653127 12.315268720623514 14.785101308082204 0 -1 0
870 290 1 0.5897 -12.568401391287491 9.21585248014475 12.096775337019324 0 0 0
728 243 1 0.5897 -17.49642615232413 12.926876077971926 11.272309898526203 1 -1 0
671 224 1 0.5897 -13.646839229912883 11.115281606449102 14.014397942200663 0 -1 0
670 224 2 -1.1794 -14.34514519536847 10.786260707386148 14.58048184258947 0 -1 0
672 224 1 0.5897 -13.892141940915593 10.259531887583368 15.238952500596929 0 -1 0
956 319 1 0.5897 -17.15446050434795 10.947470815294707 12.127275316657297 1 0 0
660 220 1 0.5897 -15.769472718706673 11.859074023964087 14.68189314742551 0 -1 0
879 293 1 0.5897 -14.951470893604135 10.109305441668866 11.631692785225646 0 0 0
878 293 1 0.5897 -15.224589086281686 10.101889425826041 13.120720478155297 0 0 0
877 293 2 -1.1794 -15.619508193330155 9.87952660493929 12.277638886791985 0 0 0
680 227 1 0.5897 -11.2831900977886 9.502453050610121 15.551532387349638 0 -1 0
659 220 1 0.5897 -17.246004475593107 11.61611635086031 14.912152727001498 0 -1 0
683 228 1 0.5897 -17.26763683991171 13.905979795171053 14.200594086176709 0 -1 0
868 290 2 -1.1794 -12.057626181196564 8.64825552809609 12.674001031023277 0 0 0
681 227 1 0.5897 -11.191017650322362 9.446351820935352 14.04151033582539 0 -1 0
664 222 2 -1.1794 -12.29842361872415 12.02663537732164 13.258333313978966 0 -1 0
993 331 1 0.5897 -16.59135698783441 13.39325677917903 16.226083421196726 0 -1 0
710 237 1 0.5897 -12.227487638183968 12.339700837815531 14.98696899972494 0 -1 0
1140 380 1 0.5897 -12.354572073420199 12.744106786917929 20.64098578422763 0 -1 0
1138 380 2 -1.1794 -12.80975088780628 13.24522160472544 19.964265746880045 0 -1 0
1128 376 1 0.5897 -14.33239419913972 14.253881138420887 20.23128820767858 0 -1 0
1127 376 1 0.5897 -15.792411411192422 13.862935573368127 20.14402465807619 0 -1 0
1022 341 1 0.5897 -13.705284233772332 12.71044522919686 18.4750083256841 0 -1 0
1119 373 1 0.5897 -15.518085198582485 11.336042279288229 20.510401293970702 0 -1 0
1117 373 2 -1.1794 -14.848988780301795 10.893335571391464 21.032496383086723 0 -1 0
1044 348 1 0.5897 -13.433772609733833 10.390350768734091 19.86032467129734 0 -1 0
1042 348 2 -1.1794 -12.859165434945083 9.992328999459247 19.206404772329613 0 -1 0
1111 371 2 -1.1794 -16.87298004890156 12.368774364926107 20.09094746089599 0 -1 0
1126 376 2 -1.1794 -15.217253870355066 14.615028204969065 20.284739161748753 0 -1 0
1098 366 1 0.5897 -17.503478912477625 14.52165672037933 18.16679245793044 0 -1 0
991 331 2 -1.1794 -16.32247782895621 13.953303513638794 16.954239997788726 0 -1 0
992 331 1 0.5897 -15.472582966324438 13.605030434163208 17.22380209716973 0 -1 0
981 327 1 0.5897 -13.093441710158785 9.704870384522899 17.265107525419552 0 -1 0
1023 341 1 0.5897 -13.488333735755354 12.419867816080313 17.005224383721007 0 -1 0
1021 341 2 -1.1794 -14.176186098462647 12.52528232002145 17.662500332500443 0 -1 0
1001 334 1 0.5897 -15.263403647385108 11.03155642408235 17.82420572511551 0 -1 0
1000 334 2 -1.1794 -15.811359910421594 10.25762633206876 17.693646472018017 0 -1 0
1013 338 1 0.5897 -11.211370011398625 10.719591363671391 18.468718363526918 0 -1 0
1002 334 1 0.5897 -16.689305913011438 10.607824311806674 17.54243947690985 0 -1 0
979 327 2 -1.1794 -12.895955674141979 9.381529275556474 16.38612191224577 0 -1 0
1142 381 1 0.5897 -17.942046444141354 14.906049155583087 20.695755734851225 0 -1 0
650 217 1 0.5897 -15.916402927900464 9.116992564440473 16.303024029345714 0 -1 0
305 102 1 0.5897 -1.4700418049732829 -6.031650572801071 2.506773553774724 1 1 0
311 104 1 0.5897 -2.806244531372039 -7.794913081952873 3.4401817854973102 1 1 0
318 106 1 0.5897 -2.7575525842199387 -4.168867004432608 1.8007793601516753 1 1 0
306 102 1 0.5897 -0.6932869182661943 -7.271143153571201 2.116852663217605 1 1 0
201 67 1 0.5897 0.34532776716955915 -8.50476822000973 0.2910440871896365 1 1 0
304 102 2 -1.1794 -1.4005194770161786 -6.969173441167921 2.686832112520917 1 1 0
316 106 2 -1.1794 -1.8506020421304452 -4.461070631701994 1.7093814088130843 1 1 0
242 81 1 0.5897 -1.1321564116263776 -6.721227315764267 4.558148642531396 0 1 0
1 1 2 -1.1794 -0.8094087147083933 -3.7548663276279832 5.004544323600766 0 0 0
293 98 1 0.5897 -4.940744667168908 -3.6044353896487475 2.4065531514513334 1 1 0
310 104 2 -1.1794 -3.5127344813739247 -8.17132516472593 3.9650914525879757 1 1 0
3 1 1 0.5897 -1.607133718290699 -3.2960094364275294 4.741187864138893 0 0 0
317 106 1 0.5897 -1.3466057899130135 -3.6530095745869353 1.6128459910321964 1 1 0
199 67 2 -1.1794 0.5041514312656421 -7.810130574753721 0.9301057846998664 1 1 0
300 100 1 0.5897 -4.962671699477891 -7.354368770228675 4.0739499108980795 1 1 0
241 81 2 -1.1794 -1.210558896264418 -6.428926266222216 5.466210181071489 0 1 0
243 81 1 0.5897 -0.9119376886994353 -5.519599295770746 5.452178055315272 0 1 0
1262 421 1 0.5897 -1.9066083253895076 -5.573873317789602 0.2571101421687966 0 0 1
359 120 1 0.5897 -4.993535120643804 -3.1385022715305615 8.747263369616503 0 0 0
555 185 1 0.5897 -2.721809607538863 -7.022221187702633 6.431703732632122 0 1 0
554 185 1 0.5897 -2.874402711421098 -6.701214900366457 7.90324458904944 0 1 0
553 185 2 -1.1794 -3.378210008819174 -6.930582199315264 7.122363248412997 0 1 0
546 182 1 0.5897 -0.08413932034668115 -7.380225991876955 6.569122781752543 0 1 0
356 119 1 0.5897 0.9537371355385051 -7.208267038270686 9.93399679273156 0 0 0
632 211 1 0.5897 -4.808339164310719 -5.86147641097331 6.633476031296257 1 1 0
348 116 1 0.5897 -1.4250606230243648 -6.316075470507725 10.026085223801969 0 0 0
347 116 1 0.5897 -1.215381899371172 -5.47386132104762 8.785629731734277 0 0 0
346 116 2 -1.1794 -1.9004483914952814 -5.843623816021929 9.34267658869614 0 0 0
336 112 1 0.5897 -3.6713367681370963 -5.090254482286 9.47943383230561 0 0 0
334 112 2 -1.1794 -4.557529658935662 -4.734715399249875 9.546784666449357 0 0 0
404 135 1 0.5897 -5.404530669863933 -3.8533489704499297 5.742820833730381 1 0 0
544 182 2 -1.1794 0.2919490581280808 -8.11817076800975 7.048957100656956 0 1 0
357 119 1 0.5897 1.1335593768440368 -7.321392894957835 8.435108471316438 0 0 0
794 265 1 0.5897 -2.0149513913370765 -5.375761815891735 16.17466443354941 0 0 0
793 265 2 -1.1794 -2.2536085665154513 -6.045181189513844 15.533514793439483 0 0 0
795 265 1 0.5897 -2.99395181832568 -5.668685276654809 15.057683798118756 0 0 0
803 268 1 0.5897 -3.326638851921431 -2.9374460465440553 14.848760167954593 0 0 0