LAMMPS data file via write_data, version 30 Jul 2021, timestep = 10500000

1008 atoms
2 atom types
672 bonds
1 bond types
336 angles
1 angle types

-3.1682299801555374 14.778228979710985 xlo xhi
-0.1553655908729521 22.73536459086628 ylo yhi
-0.0027438881756793876 19.23274188817249 zlo zhi
-0.08958234784237855 -6.386952014672419 0.09707077989425995 xy xz yz

Masses

1 1.008
2 15.999

Pair Coeffs # lj/cut/tip4p/long/omp

1 0 0
2 0.21084 3.1668

Bond Coeffs # harmonic/omp

1 450 0.9572

Angle Coeffs # harmonic/omp

1 55 104.52

Atoms # full

122 41 1 0.5897 -2.132693035804437 1.9295005127284308 1.5181559283840704 1 0 0
86 29 1 0.5897 -2.1530535561211774 1.4004442145734166 3.7334773021522634 1 0 0
56 19 1 0.5897 -0.9331158151011327 3.8417378689594255 2.963604779235148 0 0 0
101 34 1 0.5897 -2.7185339205241346 4.34861248913224 0.05065152947271004 1 0 0
158 53 1 0.5897 -4.156023934775613 4.124936331620249 4.522121702976017 1 0 0
55 19 2 -1.1794 -0.44512612044156796 4.3340022079106575 3.6236913330733715 0 0 0
121 41 2 -1.1794 -2.2979496921839306 2.5346729262040384 2.2411532434063335 1 0 0
123 41 1 0.5897 -3.2511947000914447 2.55321970477828 2.3254898001940405 1 0 0
482 161 1 0.5897 -0.9405398904071545 0.08532039441357023 0.7330406843740608 1 1 0
602 201 1 0.5897 -0.6735637810819592 5.530967070819155 0.42475880785875986 1 0 1
85 29 2 -1.1794 -2.138046854444417 0.9980183570625878 4.601917949683071 1 0 0
113 38 1 0.5897 -3.7975727721118924 5.533113322324849 3.304684809499905 1 0 0
114 38 1 0.5897 -3.351678406925097 5.352562180870743 1.8691494803146462 1 0 0
87 29 1 0.5897 -3.0605085776610954 0.909841418772189 4.841529439920237 1 0 0
69 23 1 0.5897 -2.428617127621423 0.9763969685320908 8.944233203760662 0 0 0
134 45 1 0.5897 -1.5492271797030823 2.480263982031182 6.120732018907801 1 0 0
159 53 1 0.5897 -3.0785469872935023 4.1391749770795245 5.585507871095792 1 0 0
135 45 1 0.5897 -1.44792868058394 3.708241753881375 7.000334459597831 1 0 0
67 23 2 -1.1794 -2.165050874342953 0.20828085811132802 8.437502590952894 0 0 0
133 45 2 -1.1794 -2.073602409328015 3.064363466579185 6.668564519810729 1 0 0
126 42 1 0.5897 -3.702862455587492 2.6728871043292566 7.320844841765861 1 0 0
669 223 1 0.5897 -4.862890411232213 1.6338900743185862 8.89182649531042 1 0 0
124 42 2 -1.1794 -4.551988830491645 2.234510601258996 7.26710634810193 1 0 0
157 53 2 -1.1794 -3.8102179038581228 4.652140474394903 5.242315141134676 1 0 0
68 23 1 0.5897 -2.9708517151459413 -0.0882745642255036 8.014548132548763 0 0 0
125 42 1 0.5897 -5.157416161838103 2.9183837446910084 6.980717949848366 1 0 0
606 202 1 0.5897 -5.319150329443339 4.363731585860473 9.394105217081526 1 0 0
97 33 2 -1.1794 -3.633912680555321 4.911638253418736 8.74101190160213 1 0 0
90 30 1 0.5897 -4.831203248908546 1.132076808331052 5.759621168548601 1 0 0
98 33 1 0.5897 -3.671680434890383 5.538115794714934 8.01823679988185 1 0 0
604 202 2 -1.1794 -6.202394454744308 4.6839417433778125 9.577214159469172 1 0 0
99 33 1 0.5897 -3.365799890819164 5.433537071100895 9.497277090994032 1 0 0
524 175 1 0.5897 -2.452258951536001 3.5410065351808266 9.429992094846856 0 0 0
663 221 1 0.5897 -6.526919973799505 5.334295394302417 13.616257150040415 1 0 0
561 187 1 0.5897 -4.43824908123368 4.0018507237012555 12.729544682158497 0 0 0
559 187 2 -1.1794 -3.8256048825294195 4.539611154731156 13.231175349151357 0 0 0
625 209 2 -1.1794 -5.555771351724092 2.8151286630832364 12.001677265655655 1 0 0
986 329 1 0.5897 -4.3293809342169265 0.016545951340616316 10.699958103479885 1 1 0
662 221 1 0.5897 -7.200536216085881 4.1828375050714115 14.33186628825328 1 0 0
626 209 1 0.5897 -5.371957224352519 2.0174222412581706 12.497840906834057 1 0 0
668 223 1 0.5897 -5.2128655677548865 2.0161119862608947 10.314352296945717 1 0 0
627 209 1 0.5897 -6.508559715989723 2.901696434895886 12.030774484364201 1 0 0
560 187 1 0.5897 -3.256916209286169 3.9080709292943547 13.671666313692171 0 0 0
523 175 2 -1.1794 -2.0534257254408557 2.7041774808505026 9.668372525582573 0 0 0
667 223 2 -1.1794 -5.168113362442602 1.2661417340090488 9.721240128119618 1 0 0
618 206 1 0.5897 -6.282436626194969 5.327974541351008 11.226825182692124 1 0 0
589 197 2 -1.1794 -5.4725068728605155 0.8100857549807794 13.791256961160991 1 0 0
591 197 1 0.5897 -5.060377495667491 -0.018603428542051104 14.035581019804695 1 0 0
593 198 1 0.5897 -7.1418875191472235 0.8826057286981628 14.385920290004094 1 0 0
549 183 1 0.5897 -4.377906094013255 4.131538959926855 16.7249769257591 0 0 0
661 221 2 -1.1794 -6.641517542467325 4.944879658811998 14.483173081906912 1 0 0
637 213 2 -1.1794 -5.230241914542912 2.805157701232229 15.78787757691176 1 0 0
20 7 1 0.5897 -5.613949458001924 2.3029680957526932 18.7247731527701 0 0 -1
630 210 1 0.5897 -8.241291179794096 2.2300544283669694 16.124957435412092 1 0 0
628 210 2 -1.1794 -7.962001223071819 2.720977768478185 16.897786072140068 1 0 0
638 213 1 0.5897 -5.952475542283268 2.396758424512144 16.26511619034494 1 0 0
639 213 1 0.5897 -5.64561481935935 3.4903510724221376 15.2641565710051 1 0 0
165 55 1 0.5897 -9.173579035515779 0.6717828787401862 18.778858775714244 1 0 -1
164 55 1 0.5897 -8.260626187844856 1.7917774362234964 18.3274165507439 1 0 -1
590 197 1 0.5897 -5.265359988533275 1.4031922436479276 14.51345709661339 1 0 0
629 210 1 0.5897 -8.492124285018951 3.517789974706818 16.88044021797047 1 0 0
571 191 2 -1.1794 -5.602782682942145 0.5520351072775321 17.925328304628078 0 0 0
163 55 2 -1.1794 -8.482651608860134 1.2567897792971159 19.0895211025113 1 0 -1
573 191 1 0.5897 -5.219499367809917 -0.018433045648448665 18.591636393345183 0 0 0
603 201 1 0.5897 -6.46060522672936 4.417950961420151 18.976332306554262 1 0 0
601 201 2 -1.1794 -7.223471411625303 4.995876465192479 18.960190180608922 1 0 0
572 191 1 0.5897 -6.266225014326089 0.010204371027020431 17.49826201236878 0 0 0
19 7 2 -1.1794 -5.3814976522221425 3.0892204438326245 19.21871760999747 0 0 -1
332 111 1 0.5897 -2.3196860438301767 8.959100727510487 1.0195635356801547 1 0 0
255 85 1 0.5897 -2.514679190114162 8.832088451117507 4.227539941508214 1 0 0
187 63 2 -1.1794 0.8339331721409433 10.024507496436982 0.14181198520688737 0 0 0
289 97 2 -1.1794 -2.7686972234463694 9.744427303464006 2.540765804655815 1 0 0
145 49 2 -1.1794 -0.6003038911049599 6.744911427860758 1.6894305445542468 1 0 0
146 49 1 0.5897 -1.2293965917924576 6.387496050252376 2.316068916537317 1 0 0
147 49 1 0.5897 -1.1187787447241888 7.327702731143958 1.134621056603723 1 0 0
112 38 2 -1.1794 -3.1776538906380347 5.867977545513982 2.656770718301095 1 0 0
291 97 1 0.5897 -2.146720376407469 10.39455765673698 2.8672810495661887 1 0 0
290 97 1 0.5897 -3.6235936745755577 10.166529766259607 2.625469894677079 1 0 0
224 75 1 0.5897 -0.08349284607961494 10.983207587148076 3.9418194893495024 0 0 0
331 111 2 -1.1794 -1.9183060102063254 8.48724644974992 0.289835243944774 1 0 0
188 63 1 0.5897 0.6238331368149868 9.712166613625927 1.021949590114055 0 0 0
200 67 1 0.5897 0.4403878857892005 7.898417421856221 2.5278302530855794 0 0 0
9 3 1 0.5897 -0.7478201253572783 5.654320469963688 4.645783968618881 0 0 0
7 3 2 -1.1794 -0.827150479871952 6.403926752057704 5.235741611481388 0 0 0
109 37 2 -1.1794 -3.9569673805734524 6.796949551426705 6.680424734220145 1 0 0
237 79 1 0.5897 -1.6501238831628307 8.489708110461073 8.70693080924875 0 0 0
292 98 2 -1.1794 -5.324005775811671 10.275384998699124 7.550303182900822 1 0 0
294 98 1 0.5897 -5.350332489629887 9.776198396775042 8.366679882006645 1 0 0
236 79 1 0.5897 -2.0798645413754917 7.805421772122697 7.426659247214257 0 0 0
111 37 1 0.5897 -4.853978756305628 6.74511499021274 7.010298649898182 1 0 0
293 98 1 0.5897 -4.391222272461336 10.394754126391167 7.372013712317998 1 0 0
301 101 2 -1.1794 -2.5916139549241413 10.731971180020302 6.788741251308045 1 0 0
302 101 1 0.5897 -2.2709218335032597 9.964905811809757 6.314391713613212 1 0 0
235 79 2 -1.1794 -1.4271905221915464 7.762689882654575 8.125551914823891 0 0 0
837 279 1 0.5897 -5.6801449653639455 7.824152597769675 8.992878504241434 1 0 0
303 101 1 0.5897 -1.8124790684971983 11.098973280804074 7.206326974932027 1 0 0
110 37 1 0.5897 -3.8874025095775107 6.072085127565801 6.05914896877808 1 0 0
254 85 1 0.5897 -1.773862571256263 7.771296769882043 5.013667383234638 1 0 0
253 85 2 -1.1794 -2.271315873880888 8.582260518462235 5.119018986887391 1 0 0
257 86 1 0.5897 -4.4887144498053075 8.468183672588673 5.390767413196496 1 0 0
835 279 2 -1.1794 -5.239516553267668 8.4400547377915 9.578263660282571 1 0 0
8 3 1 0.5897 -0.7977199627962968 6.022842743129399 6.113390098619469 0 0 0
793 265 2 -1.1794 -6.006503907734928 10.092870524694705 11.862702478883634 1 0 0
650 217 1 0.5897 -2.7429384812754347 7.323034449062829 11.581201104389766 1 0 0
794 265 1 0.5897 -5.243172912152053 10.658999416879267 11.976403683692771 1 0 0
759 253 1 0.5897 -5.774470200045668 9.180593170130054 13.33250684409328 1 0 0
649 217 2 -1.1794 -3.322994556183498 6.877382178191381 10.963836688529526 1 0 0
513 171 1 0.5897 -4.0617020746637404 5.950987124401212 14.333741512639266 0 0 0
651 217 1 0.5897 -3.933177233820667 6.389869939917826 11.517191240620956 1 0 0
795 265 1 0.5897 -5.7563694591691394 9.490571830790705 11.162031525382133 1 0 0
836 279 1 0.5897 -4.569009409240305 7.916395830484046 10.016949049753052 1 0 0
616 206 2 -1.1794 -6.193308338116077 5.943289351516389 11.954626028892754 1 0 0
617 206 1 0.5897 -6.767420148633147 6.6734370524825835 11.723221919552033 1 0 0
757 253 2 -1.1794 -5.712530237772377 8.680735340561371 14.146546032472482 1 0 0
615 205 1 0.5897 -7.2520509777058955 6.017074981993682 16.053492724476452 1 0 0
741 247 1 0.5897 -5.713563870849114 8.80214923529512 18.109944922394817 0 0 0
796 266 2 -1.1794 -7.924031252227012 10.026037907804575 17.17968254018899 1 0 0
512 171 1 0.5897 -4.48179218114676 7.378747492947248 14.611072931345623 0 0 0
797 266 1 0.5897 -6.986800714638834 10.220098593382898 17.17314110929127 1 0 0
613 205 2 -1.1794 -7.747242967867518 6.372456669381363 16.791572375166755 1 0 0
798 266 1 0.5897 -8.046682043859644 9.410490352554135 16.456983805520697 1 0 0
740 247 1 0.5897 -6.380434470443419 7.768034172540146 17.228073439981245 0 0 0
739 247 2 -1.1794 -5.531693398887993 8.168706182288428 17.41571935367265 0 0 0
758 253 1 0.5897 -5.344842134424437 9.297434931063597 14.779558214579723 1 0 0
762 254 1 0.5897 -7.523472482001147 8.176630310408546 14.582929719240735 1 0 0
333 111 1 0.5897 -8.23468264891611 9.236099920612421 18.827818249814232 1 0 -1
805 269 2 -1.1794 -5.232429316203776 10.857799919178534 15.792363093578652 1 0 0
511 171 2 -1.1794 -3.9395070925074913 6.66887317257002 14.954991938849549 0 0 0
614 205 1 0.5897 -7.451362200460105 5.863574359825149 17.546449929683043 1 0 0
806 269 1 0.5897 -5.877614253000186 11.363548659731297 15.298153169340095 1 0 0
315 105 1 0.5897 -1.1132860804550746 13.95207116661998 1.2229374212775324 1 0 0
281 94 1 0.5897 -3.9135498474691115 13.36239226775043 3.271680544331029 1 0 0
314 105 1 0.5897 -0.6244945877278911 14.945620201873748 2.2553251744236813 1 0 0
280 94 2 -1.1794 -3.917763520705417 13.720864505982224 2.384078213582182 1 0 0
223 75 2 -1.1794 -0.6662428227372192 11.49821008022036 3.383725352533477 0 0 0
282 94 1 0.5897 -3.061363969640613 14.137675156068015 2.289532380807516 1 0 0
313 105 2 -1.1794 -1.4188442197970514 14.632728814863981 1.8225832737941157 1 0 0
770 257 1 0.5897 -1.6761687286374982 12.225130748871134 0.21904811139284414 1 0 1
225 75 1 0.5897 -0.8467996304525061 12.289575274640377 3.8909930253637754 0 0 0
423 141 1 0.5897 -2.2268537915298143 16.57623355474695 3.6737731360933186 1 0 0
356 119 1 0.5897 0.18666415877421105 16.952751810625685 1.2840270054167795 0 0 0
357 119 1 0.5897 -0.9828146122423731 16.857408693694566 0.3274010757627838 0 0 0
421 141 2 -1.1794 -2.1497221710859478 15.97852239860263 4.4175006666063625 1 0 0
771 257 1 0.5897 -0.3628541410944446 11.499244125976643 0.01896836885910934 1 0 1
422 141 1 0.5897 -2.1045705635707264 16.55190376404539 5.182652958758857 1 0 0
267 89 1 0.5897 -3.8447720421108027 12.248667351497376 8.795595675234432 1 0 0
403 135 2 -1.1794 -2.3696916677940543 15.506274634081358 8.268419186592242 0 0 0
405 135 1 0.5897 -2.530791754512668 16.331139937376314 8.726552440693885 0 0 0
277 93 2 -1.1794 -4.606723081193047 13.898586262045416 7.611584089379512 1 0 0
278 93 1 0.5897 -4.015285113227145 14.560223628604348 7.970161596558241 1 0 0
176 59 1 0.5897 -1.4700333560490808 14.41429015747016 5.057923611591002 0 0 0
326 109 1 0.5897 -3.3997156280181278 12.23799140816441 5.653000440028513 1 0 0
327 109 1 0.5897 -4.387352247209003 13.354162948637676 5.918721322479137 1 0 0
425 142 1 0.5897 -4.135102722640179 16.040742987225492 4.8534760718461145 1 0 0
279 93 1 0.5897 -5.482865697125359 14.217123520756973 7.828492458780993 1 0 0
175 59 2 -1.1794 -0.9077191295011295 13.656999605405035 5.220856260999101 0 0 0
424 142 2 -1.1794 -4.940393173505215 16.38322261949107 5.241299193380327 1 0 0
325 109 2 -1.1794 -3.9588467556473095 12.875608431744402 5.209038200304372 1 0 0
1004 335 1 0.5897 -5.21718334525449 16.953578828196015 9.08082488625518 1 0 0
404 135 1 0.5897 -1.6630967096867062 15.706640016250208 7.654607227788297 0 0 0
786 262 1 0.5897 -6.497781278928441 13.609586089610195 12.70432874266159 1 0 0
819 273 1 0.5897 -4.413205840639774 14.347008652835763 11.558005055256439 1 0 0
784 262 2 -1.1794 -6.1039134318890795 14.039535174324184 11.945191546773579 1 0 0
729 243 1 0.5897 -4.3159365962393785 12.482379495768868 13.295305799684382 0 0 0
818 273 1 0.5897 -3.551211675880699 13.758463541443698 10.461377048690254 1 0 0
266 89 1 0.5897 -2.9156791406072173 11.416337295309956 9.653499791872694 1 0 0
727 243 2 -1.1794 -3.9675791536771237 11.661417344071676 12.947595708906666 0 0 0
831 277 1 0.5897 -7.47757205183109 12.245345807110066 13.947204270645456 1 0 0
817 273 2 -1.1794 -3.649253683846382 14.534763512221936 11.012738112066792 1 0 0
925 309 2 -1.1794 -5.458300889990513 15.99394268793525 14.272572326337661 1 0 0
265 89 2 -1.1794 -3.6469388368271245 12.031689662891912 9.70667150007248 1 0 0
773 258 1 0.5897 -6.337484952827681 12.641062303676904 10.484353302912552 1 0 0
1005 335 1 0.5897 -4.921637086571503 15.938631952114813 10.16465469208771 1 0 0
1003 335 2 -1.1794 -5.624995399243629 16.479574008948617 9.805583968271465 1 0 0
728 243 1 0.5897 -3.279447432676018 11.931155175631636 12.339405363823012 0 0 0
785 262 1 0.5897 -6.756295317323717 14.683022342437315 11.668471069755688 1 0 0
926 309 1 0.5897 -4.762929112910815 15.33663424115251 14.29785236651939 1 0 0
829 277 2 -1.1794 -6.849374823305728 12.89445993456343 14.26366358196182 1 0 0
929 310 1 0.5897 -7.28470051483001 15.886457351902086 14.480797919184946 1 0 0
908 303 1 0.5897 -5.792364514494944 16.222785004024367 18.132048731439887 0 0 0
907 303 2 -1.1794 -5.307446585718052 15.476843889286844 17.77907540267615 0 0 0
783 261 1 0.5897 -7.442696252887268 13.395173545002981 17.66025536793173 1 0 0
781 261 2 -1.1794 -7.419376260404261 13.881211794163146 16.835887760055606 1 0 0
807 269 1 0.5897 -4.824298677286199 11.495971687845733 16.37746771682767 1 0 0
782 261 1 0.5897 -6.710616366756826 14.514164903995939 16.950510941110174 1 0 0
499 167 2 -1.1794 -9.282907828212906 16.989222348981016 19.005525810348942 1 0 -1
927 309 1 0.5897 -5.1220371319213545 16.71943138156717 14.798610567626405 1 0 0
830 277 1 0.5897 -7.28132856407264 13.299883869889625 15.01555189052772 1 0 0
769 257 2 -1.1794 -7.168596932127416 12.44919503801453 19.13859502209461 1 0 0
966 322 1 0.5897 -7.925108626602222 16.908041665483864 16.07766580808632 1 0 0
457 153 2 -1.1794 -2.7844025497914715 17.678522456848874 2.4146856429017935 1 0 0
450 150 1 0.5897 -3.548651330787137 22.197466369659665 2.3649072576980443 1 0 0
392 131 1 0.5897 0.1632562396296402 19.553618869511467 2.7025403690106917 0 0 0
391 131 2 -1.1794 -0.6897855255169896 19.408109015303822 3.1115689175566854 0 0 0
483 161 1 0.5897 -1.2486329170689814 22.097748373310587 1.9466811475565629 1 0 0
355 119 2 -1.1794 -0.22193062785884576 17.397278090469598 0.541196782823783 0 0 0
481 161 2 -1.1794 -0.5596645462316658 22.48701388948055 1.4082015678604078 1 0 0
393 131 1 0.5897 -0.774366678830261 20.117047251779503 3.749154734945523 0 0 0
448 150 2 -1.1794 -3.0739540036840443 21.369884054010406 2.4417970691633095 1 0 0
459 153 1 0.5897 -2.2503158916605557 18.452486235270207 2.5931904723870423 1 0 0
939 313 1 0.5897 -0.08294389912241629 20.660887909984716 0.7848929114146709 1 0 1
495 165 1 0.5897 -3.265787240598663 20.718293515660406 4.03127445262648 1 0 0
458 153 1 0.5897 -2.6998884738852085 17.541004814058695 1.4711308602081228 1 0 0
449 150 1 0.5897 -3.3561921664606116 20.859839520692205 1.6825635121177471 1 0 0
938 313 1 0.5897 -0.3819001081514597 19.25269678183613 0.3165599338261959 1 0 1
493 165 2 -1.1794 -3.495885735377459 20.1558316388519 4.770867921304956 1 0 0
937 313 2 -1.1794 -0.2846754240522671 20.150904907715102 0.0003617311604235691 1 0 1
494 165 1 0.5897 -3.6605769077839296 20.763144792422324 5.492203805115312 1 0 0
447 149 1 0.5897 -5.212784568221727 21.66236674718774 7.289669950110862 1 0 0
471 157 1 0.5897 -3.0281160774726823 18.148388060969786 6.921821736872065 1 0 0
470 157 1 0.5897 -2.6716335158022586 18.86756617207866 5.6381574329372075 1 0 0
445 149 2 -1.1794 -4.259996055547014 21.578493510694237 7.3253723054383455 1 0 0
446 149 1 0.5897 -4.09741129085501 21.005284203689918 8.074600188552905 1 0 0
344 115 1 0.5897 -0.9528094783053054 21.401864681047137 5.913869418126431 0 0 0
469 157 2 -1.1794 -2.2919056869518712 18.340135221299988 6.340959165839566 1 0 0
460 154 2 -1.1794 -4.9425768814198054 17.782232265900277 7.484665165072815 1 0 0
462 154 1 0.5897 -4.901793436526123 17.184227178152966 6.738332970729813 1 0 0
461 154 1 0.5897 -5.355533294024727 18.57254325698996 7.136596741368366 1 0 0
859 287 2 -1.1794 -2.3963811746415367 18.01269353022419 9.611326321520975 0 0 0
345 115 1 0.5897 -1.2564607175134301 22.426018534202555 4.840996957805096 0 0 0
343 115 2 -1.1794 -0.8938768146337615 21.54956498213624 4.969895790937253 0 0 0
860 287 1 0.5897 -3.0404652720245773 18.716679086937177 9.535135025805069 0 0 0
433 145 2 -1.1794 -3.914929867534732 20.28237997262498 9.580879278462652 1 0 0
435 145 1 0.5897 -4.842539084077231 20.046827352609228 9.591289264971136 1 0 0
848 283 1 0.5897 -3.894561805458029 20.822549577545516 14.066335025403724 0 0 0
985 329 2 -1.1794 -4.124046220797332 22.26685599057776 11.347431277708548 1 0 0
953 318 1 0.5897 -7.148081580327712 21.99891072139758 12.060048087437398 1 0 0
941 314 1 0.5897 -6.715502086880884 20.277440588774105 10.645194317239143 1 0 0
895 299 2 -1.1794 -3.6979392927541612 19.454092138055124 13.099236135997995 0 0 0
896 299 1 0.5897 -4.441717085464324 19.029281095645437 12.672105139515038 0 0 0
998 333 1 0.5897 -6.750456761556075 20.647937991444763 13.83915375366304 1 0 0
952 318 2 -1.1794 -6.558841175515516 21.247580675463325 12.127509027721427 1 0 0
954 318 1 0.5897 -5.681095421257225 21.625495857042303 12.07458445695116 1 0 0
434 145 1 0.5897 -3.8233223249720405 20.927583534463658 10.282013633099101 1 0 0
961 321 2 -1.1794 -5.790464221893936 17.94130521398955 12.117393073467918 1 0 0
962 321 1 0.5897 -5.678700508807928 17.224928654496054 12.742400310340365 1 0 0
963 321 1 0.5897 -5.7592596227616655 17.518283598305423 11.259270681159649 1 0 0
897 299 1 0.5897 -3.369867271078493 18.800039354108804 13.716398739815403 0 0 0
987 329 1 0.5897 -3.215220649513085 22.507780696785424 11.52660358599709 1 0 0
964 322 2 -1.1794 -7.972488156395847 17.565727546116385 16.771541313039222 1 0 0
965 322 1 0.5897 -8.650446509101158 18.174834413881307 16.478939796850014 1 0 0
975 325 1 0.5897 -5.000573976135085 18.76719975150992 16.440260336867162 1 0 0
974 325 1 0.5897 -6.209508032837883 17.857479836502463 16.489503555271476 1 0 0
973 325 2 -1.1794 -5.49442171285091 18.13569531025437 15.917292530011881 1 0 0
949 317 2 -1.1794 -7.490896105577016 21.57531459080883 16.910366662727125 1 0 0
950 317 1 0.5897 -7.158786868849472 21.022983550329933 16.20262660065198 1 0 0
951 317 1 0.5897 -7.182546918292413 21.15081924820668 17.711023888775916 1 0 0
999 333 1 0.5897 -6.269485016197582 19.63312173842663 14.854505648035463 1 0 0
847 283 2 -1.1794 -3.8742704262520062 21.564513412763844 14.670756954104506 0 0 0
997 333 2 -1.1794 -7.045717365574155 20.123125082755415 14.58325661661438 1 0 0
500 167 1 0.5897 -8.824990894080116 17.121873293269296 18.17545133458488 1 0 -1
71 24 1 0.5897 3.0675992086630153 0.9544922518779522 1.7776694622966098 0 0 0
54 18 1 0.5897 3.2116656749285912 3.608447641991384 3.088578505004702 0 0 0
52 18 2 -1.1794 3.7243577154230625 3.041765152282666 3.6650620416966015 0 0 0
46 16 2 -1.1794 1.9772232182499119 5.010196782478378 2.408452773160029 0 0 0
70 24 2 -1.1794 3.940193142986274 0.7859625082525188 1.4222094452774814 0 0 0
6 2 1 0.5897 3.5203751868697077 1.6350037162944664 4.661814261734275 0 0 0
18 6 1 0.5897 4.579035531175476 4.1039036701594 0.2283095654745272 0 0 0
53 18 1 0.5897 4.530470448476903 2.870512947307237 3.178183004809924 0 0 0
78 26 1 0.5897 -0.021243171041823494 2.5260344863588298 4.623801983413827 0 0 0
32 11 1 0.5897 1.3093914683484105 1.5852063429043772 3.1750441207437623 0 0 0
31 11 2 -1.1794 1.3723297109856256 1.4706399899528764 2.226748393050517 0 0 0
47 16 1 0.5897 1.8353684556698955 5.4857455186860165 1.5898570486596724 0 0 0
21 7 1 0.5897 1.107178920809405 2.68774186493544 0.8851000326100006 0 0 0
528 176 1 0.5897 4.196582423342128 1.92613457589664 0.10565803993174785 0 0 1
72 24 1 0.5897 4.313871320338137 0.12597621677282334 2.006256347772051 0 0 0
16 6 2 -1.1794 5.105978960928981 4.756509340354473 0.6894020386155881 0 0 0
33 11 1 0.5897 0.6926981354871624 0.8302642143812516 2.0167428712227355 0 0 0
57 19 1 0.5897 0.4381759994090064 4.408843243662162 3.262684779286921 0 0 0
36 12 1 0.5897 -0.7097627815595438 0.6179496965577274 7.500806617066223 0 0 0
58 20 2 -1.1794 2.03835816065022 4.0934869525621815 6.132989349961112 0 0 0
44 15 1 0.5897 -0.3418066502687762 5.156172381616869 8.267612098120225 0 0 0
34 12 2 -1.1794 0.17352963975979696 0.9143258555853759 7.281557541186131 0 0 0
35 12 1 0.5897 0.3253265933983984 1.663207089776053 7.858066703725329 0 0 0
45 15 1 0.5897 0.6453634473377363 4.728200397181894 7.202577730708373 0 0 0
401 134 1 0.5897 2.832782338194816 -0.10435665490761424 8.713000077223858 0 1 0
522 174 1 0.5897 2.5299246012363135 5.27845270869197 9.24489034923738 0 0 0
59 20 1 0.5897 1.706256688204915 3.452014299554415 5.504942411272897 0 0 0
77 26 1 0.5897 0.493265202650254 1.59475080091289 5.7008842221886775 0 0 0
43 15 2 -1.1794 -0.29227810579677405 4.8108480563919445 7.376189167898419 0 0 0
60 20 1 0.5897 2.7322658027182616 3.631645979000003 6.603575240893926 0 0 0
4 2 2 -1.1794 3.574134764146864 0.8263711128517163 5.171229952964928 0 0 0
525 175 1 0.5897 -1.1118477916155758 2.8550702981907796 9.586256044580674 0 0 0
22 8 2 -1.1794 0.6445183026024646 2.597451875927644 9.425288913711126 0 0 0
24 8 1 0.5897 1.3786681939915475 3.193962253232748 9.571214203880647 0 0 0
76 26 2 -1.1794 0.7151588637582997 1.954831251086639 4.842148145855772 0 0 0
402 134 1 0.5897 1.6609009098738872 -0.0729119450367568 7.755155943560636 0 1 0
5 2 1 0.5897 2.8410208377219366 0.29651204650843416 4.858307043526806 0 0 0
536 179 1 0.5897 -1.990173772828963 1.407493403193315 12.692016698706002 0 0 0
575 192 1 0.5897 1.4090042603435364 0.03637014844651909 11.737868488039096 0 0 0
574 192 2 -1.1794 0.8276228084884796 0.6170248525268953 11.246812938714035 0 0 0
558 186 1 0.5897 -0.005063162278760913 3.745760805601808 12.885308420995525 0 0 0
557 186 1 0.5897 0.39580092719917914 2.495380433326459 13.638906990512048 0 0 0
23 8 1 0.5897 0.8279688263962441 1.8480117079901266 9.991848134273765 0 0 0
550 184 2 -1.1794 -1.2060823004406167 5.1210641321817345 12.405206789406591 0 0 0
556 186 2 -1.1794 0.7602037629327647 3.2476878150435002 13.172579264419019 0 0 0
576 192 1 0.5897 0.043198108491392606 0.6872005246431591 11.790838764520501 0 0 0
537 179 1 0.5897 -1.9379957917820563 1.8002389689682508 11.230768627280762 0 0 0
535 179 2 -1.1794 -1.9765337429575096 1.0383224818444028 11.80892982395299 0 0 0
552 184 1 0.5897 -2.1369807094233604 4.9452791671021865 12.541709044135597 0 0 0
580 194 2 -1.1794 -2.0516418084970027 2.480399027559825 14.243747799926174 0 0 0
520 174 2 -1.1794 2.5082760467123677 4.548533378019969 9.863737661678858 0 0 0
539 180 1 0.5897 -2.7288611077993705 1.7198735091954847 17.1645536395855 0 0 0
582 194 1 0.5897 -2.4798168246312677 1.9420631133226838 14.909363134447638 0 0 0
510 170 1 0.5897 0.5487512362870675 1.4765342714329415 15.519034468578873 0 0 0
564 188 1 0.5897 -2.079186573007876 4.398898050645198 16.50079107812194 0 0 0
562 188 2 -1.1794 -1.1808449765100866 4.316209048002722 16.18093784632961 0 0 0
538 180 2 -1.1794 -3.11688764181752 1.153334100281527 16.497700221632222 0 0 0
548 183 1 0.5897 -3.9963611310340506 5.579542281709543 16.502531703746495 0 0 0
540 180 1 0.5897 -4.06039394153884 1.2238378564603647 16.642449989213013 0 0 0
547 183 2 -1.1794 -3.7852900187395253 4.814800396306155 17.03815787538265 0 0 0
563 188 1 0.5897 -1.0295361057124772 5.118004180943935 15.680495000228808 0 0 0
581 194 1 0.5897 -1.4932338507449856 3.0777846973740477 14.741172506107711 0 0 0
508 170 2 -1.1794 0.6632528477900452 1.038185973812622 14.67580404390188 0 0 0
527 176 1 0.5897 -3.246581884638845 2.9357305404406 18.754912601229982 0 0 0
526 176 2 -1.1794 -2.310931928618758 2.7377993296673346 18.7157536602214 0 0 0
546 182 1 0.5897 0.14025794316921125 3.376425962169755 16.901459391866414 0 0 0
221 74 1 0.5897 4.391910044324282 10.521553936123139 3.2999239027828846 0 0 0
694 232 2 -1.1794 3.6109321258016163 10.212192640915545 0.19336373190323694 0 0 1
240 80 1 0.5897 3.3289816585216743 7.235194686876211 1.0527878195409024 0 0 0
48 16 1 0.5897 2.044385587726431 5.694061546245248 3.0748203135867724 0 0 0
238 80 2 -1.1794 3.5665779933670834 7.923502567526375 1.6740762559432605 0 0 0
220 74 2 -1.1794 3.6146525788631827 10.81948194913274 3.772498646748617 0 0 0
239 80 1 0.5897 3.5190215342011193 8.73286952425461 1.165204993685831 0 0 0
201 67 1 0.5897 1.915462874683028 8.228965275609307 2.6083997914460033 0 0 0
245 82 1 0.5897 1.1127533674651833 9.591689506029093 4.21153348161257 0 0 0
199 67 2 -1.1794 1.048001036412364 8.588186657917207 2.7945770785670203 0 0 0
189 63 1 0.5897 1.7903292638816914 10.055706810350678 0.12024204947388333 0 0 0
696 232 1 0.5897 4.275280268612762 10.895023198721521 0.2855283064238731 0 0 1
10 4 2 -1.1794 1.8685664137798241 6.579999556476159 4.6364871810773165 0 0 0
222 74 1 0.5897 3.041548757999954 11.173736474151855 3.092524316995496 0 0 0
12 4 1 0.5897 0.9809654641974603 6.903905064367348 4.789554313850925 0 0 0
192 64 1 0.5897 1.3694451575503601 9.952095535074326 9.129743514238859 0 0 0
64 22 2 -1.1794 2.2770329692307376 6.737263524209881 8.086608565626076 0 0 0
246 82 1 0.5897 0.7821500138356843 9.436466188917437 5.680789420532187 0 0 0
202 68 2 -1.1794 0.9360729947596402 8.958593495473067 7.442557444923231 0 0 0
204 68 1 0.5897 1.4981606097323006 8.203455460421663 7.615972063432807 0 0 0
203 68 1 0.5897 0.06644568528176498 8.681688613996489 7.730954998949125 0 0 0
65 22 1 0.5897 2.5981015909651823 7.366169158555294 8.732846652800012 0 0 0
244 82 2 -1.1794 0.9365768762790596 10.096851769429925 5.005292545276889 0 0 0
588 196 1 0.5897 -0.817944457748593 6.786669617385031 9.405389813317731 0 0 0
172 58 2 -1.1794 3.798017525293221 8.534264483036731 5.45088927667132 0 0 0
11 4 1 0.5897 1.9579145546288697 5.834789909483449 5.230619469920959 0 0 0
66 22 1 0.5897 3.047725926035012 6.515263855764345 7.564156108471107 0 0 0
173 58 1 0.5897 3.2765776278808323 7.756600733906298 5.252213447221351 0 0 0
174 58 1 0.5897 3.337404490392527 9.250290807118906 5.013361126537003 0 0 0
190 64 2 -1.1794 0.9850578526725684 10.21994838067013 9.964500791923902 0 0 0
744 248 1 0.5897 0.3699007264562346 7.158718006508423 11.197463103034732 0 0 0
703 235 2 -1.1794 -1.8589011782746176 8.564278033034174 12.369609605978269 0 0 0
742 248 2 -1.1794 0.6949814905592908 7.779673397481475 11.849338175841526 0 0 0
705 235 1 0.5897 -1.8565891601665134 8.949083759427284 13.246088438855963 0 0 0
743 248 1 0.5897 1.0250701385374796 8.516453531369292 11.335107774518777 0 0 0
704 235 1 0.5897 -0.9815276955062258 8.195658499590692 12.26702208065593 0 0 0
551 184 1 0.5897 -0.9599816787970425 5.690352375981418 13.134319754525158 0 0 0
724 242 2 -1.1794 0.6403008437947983 10.714499828044506 13.197136462247736 0 0 0
726 242 1 0.5897 0.023142502647163887 11.202168407049559 12.651635022492497 0 0 0
586 196 2 -1.1794 -0.39550366928949643 6.139697227533134 9.970432738948656 0 0 0
191 64 1 0.5897 1.276070098990922 11.123985232347128 10.083638799502811 0 0 0
692 231 1 0.5897 -0.9548288609772784 10.231811513516076 9.945508721326249 0 0 0
693 231 1 0.5897 -1.9795303191362015 9.53527554377373 10.815345766829813 0 0 0
587 196 1 0.5897 -1.0571613324541103 5.927450813699163 10.628753893275634 0 0 0
691 231 2 -1.1794 -1.8622754779068234 9.927474383534616 9.950028461519441 0 0 0
749 250 1 0.5897 -2.9593456887971614 10.214504249317098 14.422440603303887 0 0 0
678 226 1 0.5897 0.5203790710286205 9.434909640604287 14.420391054774786 0 0 0
707 236 1 0.5897 -3.3680158976603183 8.699228636840182 17.018891547407346 0 0 0
695 232 1 0.5897 -2.5821963499205403 9.897966441958895 18.586483068554823 0 0 0
706 236 2 -1.1794 -2.4771806935235956 8.985309928353809 17.22059501204783 0 0 0
568 190 2 -1.1794 -0.6730971787947881 7.106469798278528 18.338079579374398 0 0 0
750 250 1 0.5897 -2.262476191890906 9.602776805701184 15.619245944287277 0 0 0
708 236 1 0.5897 -2.0138970880832945 8.180960691567405 17.454136890549883 0 0 0
515 172 1 0.5897 -2.061591717244381 6.886696419997901 14.559258745532007 0 0 0
748 250 2 -1.1794 -2.127255064026593 9.830961802022832 14.699460057303462 0 0 0