LAMMPS (30 Jul 2021)
Processor partition = 1
  using 2 OpenMP thread(s) per MPI task
using multi-threaded neighbor list subroutines
variable        pid world 0 1
variable        phase world IceII IceVI

shell cd ${phase}
shell cd IceVI
include Restart.lmp
echo both
log log.lammps
#include		in.partitions
include		in.temp
variable        temperature equal 95.49
variable	tempDamp equal 100.0
include		in.pressure
variable        pressure equal 7926.3
variable        pressureDamp equal 1000.0 # This is 1 ps
include		in.seed
variable        seed equal 745823

units		real
atom_style	full
read_restart	restart.lmp.${pid}
read_restart	restart.lmp.1
Reading restart file ...
  restart file = 30 Jul 2021, LAMMPS = 30 Jul 2021
  restoring atom style full from restart
  orthogonal box = (0.057838265 -0.024340184 -0.0050826346) to (24.672163 24.754341 22.815083)
  4 by 4 by 2 MPI processor grid
  restoring pair style lj/cut/tip4p/long/omp from restart
  restoring bond style harmonic/omp from restart
  restoring angle style harmonic/omp from restart
  1920 atoms
  1280 bonds
  640 angles
Finding 1-2 1-3 1-4 neighbors ...
  special bond factors lj:    0        0        0       
  special bond factors coul:  0        0        0       
     2 = max # of 1-2 neighbors
     1 = max # of 1-3 neighbors
     1 = max # of 1-4 neighbors
     2 = max # of special neighbors
  special bonds CPU = 0.002 seconds
  read_restart CPU = 0.009 seconds
include 	in.setup
variable	out_freq equal 1000
variable	out_freq2 equal 10000
variable	out_freq3 equal 1000

timestep	2.0

neigh_modify    delay 7 every 1

include		in.tip4p
# This is TIP4P/Ice

# create groups ###
group ox type 2
640 atoms in group ox
group hy type 1
1280 atoms in group hy

# set charges - beside manually ###
set group ox charge -1.1794
Setting atom values ...
  640 settings made for charge
set group hy charge 0.5897
Setting atom values ...
  1280 settings made for charge

# ### TIP3P Potential Parameters ###
pair_style lj/cut/tip4p/long/omp 2 1 1 1 0.1577 8.5
pair_coeff 1 1*2 0.000 0.000
pair_coeff 2 2 0.21084 3.1668
bond_style  harmonic
bond_coeff  1 450 0.9572
angle_style harmonic
angle_coeff 1 55 104.52
kspace_style pppm/tip4p/omp 1.0e-5
pair_modify tail yes

thermo          ${out_freq}
thermo          1000
thermo_style    custom step temp pe etotal epair emol press lx ly lz vol pxx pyy pzz pxy pxz pyz enthalpy

restart 	${out_freq3} restart.lmp.${pid} restart2.lmp.${pid}
restart 	1000 restart.lmp.${pid} restart2.lmp.${pid}
restart 	1000 restart.lmp.1 restart2.lmp.${pid}
restart 	1000 restart.lmp.1 restart2.lmp.1


include         in.dump
dump            myDump all atom ${out_freq2} dump.water.${pid}
dump            myDump all atom 10000 dump.water.${pid}
dump            myDump all atom 10000 dump.water.1
dump            myDump2 all dcd ${out_freq2} dump.dcd
dump            myDump2 all dcd 10000 dump.dcd
dump_modify     myDump append yes
dump_modify     myDump2 append yes


variable natoms 	equal  "count(all)"                        # NUMBER ATOMS
variable H      	equal  "enthalpy/v_natoms"                 # ENTHALPY-per-atom
variable Vol      	equal  "vol/v_natoms"                 # volume-per-atom
fix AVG all 		ave/time ${out_freq} 1 ${out_freq} v_Vol v_H file vol_enthalpy.dat
fix AVG all 		ave/time 1000 1 ${out_freq} v_Vol v_H file vol_enthalpy.dat
fix AVG all 		ave/time 1000 1 1000 v_Vol v_H file vol_enthalpy.dat




fix 		1 all shake 1e-6 200 0 b 1 a 1
Finding SHAKE clusters ...
       0 = # of size 2 clusters
       0 = # of size 3 clusters
       0 = # of size 4 clusters
     640 = # of frozen angles
  find clusters CPU = 0.001 seconds
fix             2 all nph aniso ${pressure} ${pressure} ${pressureDamp}
fix             2 all nph aniso 7926.3 ${pressure} ${pressureDamp}
fix             2 all nph aniso 7926.3 7926.3 ${pressureDamp}
fix             2 all nph aniso 7926.3 7926.3 1000
fix             3 all temp/csvr ${temperature} ${temperature} ${tempDamp} ${seed}
fix             3 all temp/csvr 95.49 ${temperature} ${tempDamp} ${seed}
fix             3 all temp/csvr 95.49 95.49 ${tempDamp} ${seed}
fix             3 all temp/csvr 95.49 95.49 100 ${seed}
fix             3 all temp/csvr 95.49 95.49 100 745823


run             250000
PPPM initialization ...
  extracting TIP4P info from pair style
  using 12-bit tables for long-range coulomb (../kspace.cpp:340)
  G vector (1/distance) = 0.37519101
  grid = 30 30 30
  stencil order = 5
  estimated absolute RMS force accuracy = 0.0031844418
  estimated relative force accuracy = 9.5898519e-06
  using double precision FFTW3
  3d grid and FFT values/proc = 5400 960
Last active /omp style is kspace_style pppm/tip4p/omp
Neighbor list info ...
  update every 1 steps, delay 7 steps, check yes
  max neighbors/atom: 2000, page size: 100000
  master list distance cutoff = 10.8154
  ghost atom cutoff = 10.8154
  binsize = 5.4077, bins = 5 5 5
  1 neighbor lists, perpetual/occasional/extra = 1 0 0
  (1) pair lj/cut/tip4p/long/omp, perpetual
      attributes: half, newton on, omp
      pair build: half/bin/newton/omp
      stencil: half/bin/3d
      bin: standard
Setting up Verlet run ...
  Unit style    : real
  Current step  : 3250000
  Time step     : 2
Per MPI rank memory allocation (min/avg/max) = 10.55 | 10.56 | 10.57 Mbytes
Step Temp PotEng TotEng E_pair E_mol Press Lx Ly Lz Volume Pxx Pyy Pzz Pxy Pxz Pyz Enthalpy 
 3250000     94.67422   -9787.8492   -9426.9079   -9787.8492            0    7860.8254    24.614324    24.778681    22.820165    13918.258    9915.9151    6584.8824    7081.6789   -95.690839   -595.32655    55.725783   -7831.2899 
 3251000    95.571185   -9800.8161   -9436.4551   -9800.8161            0    7565.5287    24.721434    24.627181    22.868824    13922.979    7475.1271    8511.3006    6710.1584    187.70635    56.823811    138.77459   -7900.2566 
 3252000    95.355419   -9793.3183   -9429.7799   -9793.3183            0    8332.8992    24.629224    24.707199    22.817871    13885.111    9288.2661    7904.6636    7805.7679   -260.65227    454.64723    231.35795    -7742.367 
 3253000     97.11344   -9807.6896   -9437.4489   -9807.6896            0    7537.8962    24.697224     24.69616    22.827444    13923.065    7684.5247    7872.7055    7056.4585   -156.21309    117.19794      276.518   -7906.8517 
 3254000    97.119705   -9810.4998   -9440.2351   -9810.4998            0    8836.5707    24.662177    24.629329    22.830567     13867.58    9090.5586    9103.7893    8315.3641   -78.785291   -1356.6391   -133.29613   -7653.0879 
 3255000      98.2087   -9801.7418   -9427.3255   -9801.7418            0    8395.4201    24.626495    24.743521    22.814718    13902.062    8922.2178    8173.6231    8090.4192    59.811247   -199.86989   -144.21796   -7725.1767 
 3256000    98.011083   -9794.3689    -9420.706   -9794.3689            0    7396.2264    24.752686    24.697831     22.78311    13928.173    7109.6416    7941.9604    7137.0774    397.22527    530.54489    797.46776   -7918.3244 
 3257000    94.671673   -9801.0455   -9440.1139   -9801.0455            0    8376.8119    24.642739    24.784564      22.7311    13883.236    8617.1712    8145.6535    8367.6111   -356.44635    35.987035    708.34261   -7744.0376 
 3258000    97.055928   -9812.1551   -9442.1337   -9812.1551            0    7718.8696    24.737809    24.725221    22.744433    13911.582    7607.7873    7363.5965    8185.2249   -90.739756    332.00269   -587.99527   -7876.0819 
 3259000    99.176983   -9793.4565   -9415.3486   -9793.4565            0    8447.5972    24.711367     24.71907    22.759659    13902.556    7819.2682    8508.5596    9014.9638    169.23939   -213.48283    272.36235   -7702.5601 
 3260000    93.905062   -9787.6857   -9429.6768   -9787.6857            0    7077.1029    24.813702    24.692592    22.745406    13936.442    6827.6751    7625.0688    6778.5647    471.67109    41.163823    745.07496   -7991.2647 
 3261000    94.754487   -9796.4835   -9435.2362   -9796.4835            0     7947.823    24.634494    24.817439    22.746602    13906.477    8485.8326    7157.8362    8199.8003   -271.18307    293.18427   -272.31969   -7823.3247 
 3262000    100.43616   -9799.6173   -9416.7089   -9799.6173            0    7541.3744    24.750681    24.726729     22.73441    13913.536    7665.0535    7761.0513    7198.0184    390.09304   -382.82384    101.91529   -7886.4536 
 3263000    98.296973   -9796.8967   -9422.1439   -9796.8967            0    7395.0244    24.643578    24.824464    22.746795    13915.662     7947.638    6844.0716    7393.3635   -8.2973583   -1256.8954   -112.35999   -7921.3557 
 3264000    90.774808   -9794.1207   -9448.0458   -9794.1207            0    7999.4027    24.669886    24.729101    22.787891    13902.075      8354.81       7982.1    7661.2983    385.24494   -802.84823      447.304   -7826.1869 
 3265000     97.23553   -9803.6453   -9432.9391   -9803.6453            0    7892.8001    24.710568    24.683396    22.795948    13904.178    7933.6095    8265.2326     7479.558    182.71574    367.56177   -95.008384   -7832.4516 
 3266000    96.049454   -9796.3648   -9430.1805   -9796.3648            0    7556.4118    24.715086    24.678787     22.84749     13935.56     6365.467    8890.1541    7413.6142   -226.65865    121.85234   -66.623275   -7894.4467 
 3267000    93.668758   -9782.4369   -9425.3289   -9782.4369            0    8648.9861    24.659995    24.672772    22.820415    13884.635    8241.7517    9456.9907    8248.2158    350.48424   -382.63322    378.45084   -7673.9684 
 3268000    94.260133   -9809.1915   -9449.8289   -9809.1915            0    7210.1296    24.699995    24.724865     22.82188    13937.415    6901.3705    7472.1634    7256.8547    345.58641    147.80104   -368.86374   -7984.2771 
 3269000    95.973533   -9802.5677   -9436.6728   -9802.5677            0    7740.9735    24.610867    24.777514    22.805351    13906.614    9126.0281    6604.1058    7492.7867   -582.65616    -195.9216    478.00943   -7866.6973 
 3270000    95.574633   -9808.2835   -9443.9094   -9808.2835            0    7689.1979    24.782808    24.683513    22.737151    13908.924    7524.4609    7873.2672    7669.8656   -339.87934   -831.99158    67.627362   -7884.1757 
 3271000    94.933959    -9803.036   -9441.1044    -9803.036            0    7499.5705    24.601471    24.837898    22.794363    13928.469    8937.8004    6559.2553    7001.6559    17.869812   -714.31479    143.76204   -7917.6984 
 3272000    95.071111   -9781.6767   -9419.2223   -9781.6767            0    8172.6011    24.776468    24.672473    22.746483    13904.851    7370.6217    8643.5602    8503.6215   -407.34424    389.15292    274.48985    -7761.917 
 3273000    92.365396   -9802.9833   -9450.8443   -9802.9833            0    7679.1106    24.658808    24.821397    22.730442    13912.532    7973.1954    7302.4729    7761.6634   -581.21933    538.06901    1038.3004   -7892.7527 
 3274000    97.316823    -9784.644   -9413.6279    -9784.644            0    6845.0877    24.677348    24.788004    22.798299    13945.769    7626.1238    6930.2337    5978.9058   -404.16603   -241.24001   -88.378025   -8021.4415 
 3275000    94.832987   -9791.8171   -9430.2705   -9791.8171            0    7896.7431    24.768461    24.695388    22.740711    13909.737    7189.9426    8328.8438    8171.4431   -704.66134    220.08226    818.52228   -7828.3431 
 3276000    96.810179    -9791.543   -9422.4585    -9791.543            0    7823.7372    24.694503    24.738477    22.788006    13921.293    7705.7129    7680.5608    8084.9379    26.552329    -456.9302   -1101.9101   -7834.0225 
 3277000    95.718734   -9794.9149   -9429.9915   -9794.9149            0    8171.6028    24.682994    24.725563    22.770749     13897.01     8732.336     7827.142    7955.3302   -7.2189022   -456.76611   -138.28475   -7773.8231 
 3278000    99.551615   -9810.7305   -9431.1944   -9810.7305            0    8959.1089    24.713663    24.645739    22.743713    13852.888    8532.4667    9041.2668    9303.5931   -452.69135    570.18276     459.2847   -7621.1841 
 3279000    94.959765   -9804.6389   -9442.6089   -9804.6389            0    8249.3429     24.71258    24.721582    22.720752    13880.882    7998.7658    8299.6884    8449.5745   -104.19854    64.207748    261.35672   -7772.6249 
 3280000    96.803315   -9792.2589   -9423.2006   -9792.2589            0    7822.3083    24.744852    24.746702    22.732991    13920.626    7478.4342    7782.0514    8206.4394   -643.86075   -201.31573   -11.117746   -7835.1308 
 3281000    97.635659   -9785.2821   -9413.0505   -9785.2821            0    8297.7265    24.716153    24.826949    22.648547    13897.753    8127.3295    6961.7457    9804.1044    610.80038   -150.39132    725.30729   -7731.2302 
 3282000    96.450268   -9781.0628   -9413.3504   -9781.0628            0    8491.7682    24.699785    24.719842    22.734304    13880.993     8453.346    8673.0944    8348.8641    323.89376   -780.02244    317.00305   -7694.2765 
 3283000    96.400211   -9791.9443   -9424.4227   -9791.9443            0    8421.9299    24.741271    24.735562    22.693349    13888.085    7903.6212    8002.3127    9359.8557   -380.18779   -868.43358   -147.76529   -7718.6157 
 3284000    91.833799   -9795.3926   -9445.2803   -9795.3926            0    8286.5863    24.715613    24.713331    22.747483     13894.28    7475.4935    8457.0059    8927.2594    -1122.194    59.472164   -440.57605   -7766.1377 
 3285000     93.66488   -9810.6302   -9453.5369   -9810.6302            0    7786.4587    24.675782     24.76945    22.746637    13902.871    7994.1404    7519.4637    7845.7719   -226.53959   -174.04919    67.609221   -7874.7615 
 3286000    94.086237   -9791.0282   -9432.3285   -9791.0282            0    8508.0464     24.69381    24.712845    22.743096    13879.071    8396.0418    8424.1012    8703.9962     277.0596   -14.417264   -333.61036   -7710.1977 
 3287000    96.423128   -9800.6813   -9433.0723   -9800.6813            0    7788.8884    24.753809    24.791259    22.670707    13912.516    6904.6057    7704.1943    8757.8652   -167.58899    28.978645   -163.21644   -7852.7086 
 3288000     96.83853   -9793.2719   -9424.0793   -9793.2719            0    8112.6786     24.72651    24.726887    22.736198     13901.13    8010.9775    8373.1536    7953.9046   -304.63682    211.45429   -483.24948   -7779.3657 
 3289000    93.903998   -9801.9466   -9443.9417   -9801.9466            0    7585.4306    24.733326    24.738222    22.754401    13922.474    8219.5642    6644.8311    7891.8965   -4.7890626    265.41707   -253.09678   -7903.7579 
 3290000    93.171947   -9796.6874   -9441.4735   -9796.6874            0    7982.1716    24.735098    24.748015    22.722992    13909.757    7777.0053    7713.5731    8455.9365     408.6878   -496.11245   -614.82859   -7822.2139 
 3291000    90.787876   -9802.2056   -9456.0809   -9802.2056            0    7440.4435    24.701039    24.806339    22.720515    13921.822    7483.5332    6847.9945    7989.8027   -676.91774   -783.64512     269.6645   -7945.4068 
 3292000     95.73411   -9799.1921     -9434.21   -9799.1921            0    8315.6575    24.747265    24.733152     22.70939    13899.915    7931.8292    7929.5869    9085.5562    85.607985   -64.761488   -74.486722   -7748.4932 
 3293000     96.76255   -9794.2234   -9425.3204   -9794.2234            0    7435.1601    24.700545    24.804929    22.748212    13937.722    7866.9659    6550.1571    7888.3573     791.8616    242.11903    377.57717   -7913.9949 
 3294000     93.60443   -9787.2257   -9430.3629   -9787.2257            0    8338.9401    24.688727    24.734292    22.760995    13899.188    8903.2836    7844.7288    8268.8079   -489.46728   -429.42647    452.26905   -7740.0148 
 3295000    94.668115   -9813.1376   -9452.2196   -9813.1376            0    8069.3991    24.768273    24.700732    22.690832    13882.126    7084.9414    8308.5077    8814.7481   -135.66882   -492.35556    83.136822   -7818.5168 
 3296000    98.159187   -9788.4868   -9414.2592   -9788.4868            0    7878.1911    24.690333    24.764213     22.73884     13903.36    7756.4157    8129.9023    7748.2552   -683.74968   -404.93263    107.72145    -7816.828 
 3297000    95.982619   -9805.5514   -9439.6219   -9805.5514            0    8270.6316    24.749481    24.739313    22.696568    13896.772     7883.537    8382.3688    8545.9891   -688.15879    1035.8693     26.63218   -7763.4117 
 3298000    94.687308   -9797.2522    -9436.261   -9797.2522            0    8055.2743    24.721168    24.760026     22.70109    13895.264    8451.9399     7984.843    7729.0401    485.75163    -443.5559    159.37694   -7803.8744 
 3299000     93.71127   -9780.8804   -9423.6103   -9780.8804            0    8579.9146    24.627835    24.806579    22.740003    13892.603    8997.0199    7943.5179    8799.2061    18.372778   -61.469705    811.80983   -7685.2392 
 3300000    96.849798   -9789.2086    -9419.973   -9789.2086            0    7516.5693    24.792766    24.705949    22.729323    13922.365    7250.3815    7358.7791    7940.5474    14.022543   -533.16029    779.78922   -7893.7831 
 3301000    94.540826   -9793.2305   -9432.7978   -9793.2305            0     7239.081     24.69097    24.788818    22.772305    13938.016    7239.5422    6875.3516    7602.3491    131.10781    -347.2794    271.62899   -7961.2977 
 3302000    95.070439   -9803.5196   -9441.0677   -9803.5196            0    6619.2085    24.740798    24.704707     22.85376    13968.542    6416.5823    7280.7637    6160.2796    -407.8024   -458.99961   -330.17774   -8092.6234 
 3303000    93.449849   -9790.7155    -9434.442   -9790.7155            0    7623.8235    24.693875    24.730253    22.810403    13929.989    7568.3103    8053.1197    7250.0406   -108.90906    737.48582    77.275518   -7885.6272 
 3304000    97.066985   -9800.6219   -9430.5583   -9800.6219            0    7463.3907    24.726715    24.739121    22.770821    13929.303    7460.7386    7753.5042    7175.9292    66.454485   -356.75768    224.68385   -7914.4108 
 3305000    98.094914   -9798.7103   -9424.7277   -9798.7103            0    7939.8721    24.674178    24.782019    22.758294     13916.15    8287.6551    7441.3679    8090.5934    -263.2967    -195.1208    574.19698   -7813.3087 
 3306000    94.496494   -9789.0472   -9428.7834   -9789.0472            0    6488.3197    24.700253    24.791675    22.820776    13974.545    6835.7438    6239.5506    6389.6647   -303.65069   -56.430783    124.38755   -8106.4353 
 3307000    95.934346   -9802.4168   -9436.6713   -9802.4168            0    6805.3302    24.786157    24.672988    22.821673    13956.561    6017.4661    7774.3675    6624.1572   -15.127825   -246.90019    374.85131   -8051.4999 
 3308000    94.143976   -9798.7036   -9439.7838   -9798.7036            0    7433.7667    24.681632    24.750706    22.794322    13924.773    7649.0512    7164.7258    7487.5232   -205.00033   -519.27199    30.501594   -7930.1454 
 3309000    95.873766    -9797.047   -9431.5325    -9797.047            0    7998.0319    24.729586    24.719285    22.752939    13908.819    7784.6541     8071.107    8138.3347   -459.26011   -501.79691    52.494152   -7809.1648 
 3310000    92.504752   -9808.1126   -9455.4423   -9808.1126            0    6854.9723    24.699339    24.705068    22.868138    13954.111    6747.6854    7188.7487    6628.4828    313.66201   -72.608081   -158.27311   -8060.4115 
 3311000    95.192916   -9806.2407   -9443.3219   -9806.2407            0    7820.8224    24.596607    24.744499    22.837669    13899.707    9072.9929    7178.2886    7211.1858   -539.58486    98.921821    578.71403   -7857.9398 
 3312000    94.892089   -9801.5269    -9439.755   -9801.5269            0      6888.71    24.741001      24.6716    22.860754    13954.206    7348.9222    7389.1593    5928.0484   -554.47557    94.833446     389.1086   -8037.8489 
 3313000    94.730212   -9774.0817    -9412.927   -9774.0817            0    7987.8971    24.639381    24.751682    22.812123    13912.342    8042.2742    8703.8069    7217.6103   -192.62461   -305.93398    127.93673   -7792.2048 
 3314000    95.204748   -9793.2354   -9430.2715   -9793.2354            0    8132.9307    24.673761    24.721775    22.781514    13896.249    8153.4747    7763.8019    8481.5155    95.784473   -363.43668   -159.72496   -7782.0311 
 3315000    95.316491   -9815.3837   -9451.9938   -9815.3837            0    7940.2592    24.716235    24.681529    22.788153    13901.559    7618.1054    8318.8555    7883.8166    103.80408    455.55298    295.11491   -7842.1858 
 3316000    96.446809   -9776.1453   -9408.4461   -9776.1453            0    7462.3907    24.657691    24.758268    22.822268    13932.577    7885.9623    7857.0854    6644.1243   -640.92534   -820.18006   -28.130688   -7892.1454 
 3317000    95.036677   -9806.5933   -9444.2701   -9806.5933            0    8699.9702    24.742018    24.648152    22.751159    13874.681     7990.936    9007.0065     9101.968    -509.2252   -475.10264    749.16955   -7683.8486 
 3318000    90.494056   -9788.3842   -9443.3796   -9788.3842            0    8302.3671    24.638893    24.751578    22.788194    13897.414    8922.8613    7857.6688    8126.5713   -144.01239   -45.215599   -440.96806   -7760.6598 
 3319000    91.742596    -9802.015   -9452.2504    -9802.015            0    6913.3359    24.720029    24.752257    22.781006    13939.162    6731.5679    6952.8895    7055.5504   -461.60847   -152.66728    203.72914   -8046.8495 
 3320000    89.664464   -9785.6653   -9443.8235   -9785.6653            0     7733.862    24.654642    24.769188    22.798435    13922.445    7854.4401    7885.6113    7461.5346    251.15774   -522.49596   -3.2297009   -7873.5047 
 3321000      94.3089   -9790.8282   -9431.2796   -9790.8282            0    8121.5247    24.709911    24.698632     22.78895    13908.119    8002.8389    8334.5328    8027.2024   -405.34267   -313.48859    824.87056   -7783.9449 
 3322000    96.536277    -9789.009   -9420.9687    -9789.009            0    8093.9217    24.613373    24.745361    22.830508    13905.305     9207.604    7615.7497    7458.4113   -85.883544   -668.34982    40.440003    -7779.565 
 3323000    89.923846   -9803.4367    -9460.606   -9803.4367            0    7567.1652    24.729869    24.693761    22.796775    13921.385    7665.4789    7140.7458     7895.271    22.625186    80.571413    273.05926    -7924.251 
 3324000    95.142387   -9790.7184   -9427.9923   -9790.7184            0    7466.7117    24.640742    24.763915    22.832866    13932.643    7623.9294    7230.2728    7545.9328    191.32774   -873.61142   -124.15464   -7910.8065 
 3325000    97.048369   -9786.0614   -9416.0687   -9786.0614            0    8286.2364    24.664416    24.693982    22.828685    13904.098    8621.2857     8150.072    8087.3514      151.141   -160.79511   -10.897283   -7735.8104 
 3326000    96.270803   -9801.3677   -9434.3395   -9801.3677            0    7656.6073    24.718357    24.666642    22.812749    13909.364    7487.0915    8024.6882    7458.0424   -253.43614   -491.27512    705.90233   -7881.1676 
 3327000    92.748016   -9798.5739   -9444.9761   -9798.5739            0     8322.696    24.649146    24.820793    22.693037    13883.858    8987.3465    7412.6188    8568.1226   -658.78612    185.93867   -72.843472   -7759.7814 
 3328000    96.335495   -9786.0984   -9418.8236   -9786.0984            0    8372.1842    24.770292    24.757806    22.657869    13895.122    7683.9549    7956.9622    9475.6354    -22.63409   -350.87448    172.89537   -7722.2332 
 3329000      94.4275   -9797.9125   -9437.9118   -9797.9125            0    8126.1057    24.702893    24.758459    22.724515     13898.44    8103.5858    8018.8813      8255.85   -652.32738   -859.85788    -683.4845    -7790.795 
 3330000    95.646021   -9798.8023   -9434.1561   -9798.8023            0    7858.6929     24.76791     24.71632    22.721091    13909.206    6997.0572    8911.6433    7667.3782   -345.59794    551.03924    497.16549   -7840.0084 
 3331000    97.499937   -9789.6497   -9417.9355   -9789.6497            0    8381.4227    24.730413     24.78846    22.678197     13902.39    8677.6665    7662.9862    8803.6153   -33.393197   -196.58803    459.52997   -7718.5845 
 3332000    93.512577   -9790.8402   -9434.3276   -9790.8402            0    8190.9686    24.775365    24.733097    22.679349    13897.258    6887.6743    8835.4095    8849.8219   -224.51152   -848.64522   -132.38317   -7774.2046 
 3333000     91.12679   -9802.3814   -9454.9645   -9802.3814            0    7499.7993    24.735021    24.782348    22.698994    13914.299    6992.1753    7508.4429    7998.7798   -264.66777   -728.43304    319.03137   -7933.0618 
 3334000    98.989691   -9791.5271   -9414.1332   -9791.5271            0    8378.2772    24.788066    24.693806    22.673556    13878.748     7739.128    8123.5738    9272.1298   -198.79128    150.66788    741.36297   -7718.3087 
 3335000    93.013685   -9789.6879   -9435.0773   -9789.6879            0    8384.2496    24.675788    24.784088    22.700467    13882.854    8306.1374    7699.1728    9147.4386   -136.81193     151.1805   -567.21224   -7737.5419 
 3336000    96.586052   -9798.9559   -9430.7258   -9798.9559            0    8084.0826    24.643746     24.78754    22.749263    13896.566    9096.1202    7536.3268    7619.8009    239.98078   -838.91138   -12.500388   -7792.3478 
 3337000    94.526103   -9796.1856   -9435.8089   -9796.1856            0    7849.1944    24.764005    24.718971    22.739931    13920.037    7144.8791    8856.8263    7545.8778     380.8064    78.390617    80.572368   -7842.3482 
 3338000    96.808479   -9782.0205   -9412.9424   -9782.0205            0    8591.1799     24.68299    24.758358    22.715922    13881.934    9414.1295    8023.2117    8336.1986   -758.57378    411.49065      213.679   -7673.6257 
 3339000    91.905282   -9802.2974   -9451.9126   -9802.2974            0    8080.4936    24.718974    24.766034    22.685423     13887.81    8006.8902    8236.0934    7998.4971     447.3311   -21.142953    448.09403   -7815.2937 
 3340000    97.578973   -9800.7136    -9428.698   -9800.7136            0    7723.9997    24.732702    24.810671     22.67542     13914.43    7281.4609     7357.993    8532.5454   -85.072606    788.74904   -122.43039   -7861.2846 
 3341000    93.805907   -9801.2907   -9443.6598   -9801.2907            0     8381.828    24.731539    24.764123    22.664484    13880.974    8101.3811    8337.9328    8706.1699   -276.29389    54.638062   -640.45058   -7746.8445 
 3342000    96.427236   -9799.6169   -9431.9923   -9799.6169            0    7826.0813    24.777226    24.727197    22.697556    13906.142    6433.1908    8447.6048    8597.4483   -149.60841    661.70272    326.85159   -7844.8097 
 3343000    96.263968   -9795.7047   -9428.7025   -9795.7047            0    7870.6447    24.723908    24.790568    22.674454     13897.62    7611.0423    7793.8341    8207.0578   -760.69267    94.059258    102.31506   -7833.4603 
 3344000    95.404559   -9798.1929   -9434.4672   -9798.1929            0    8137.8364     24.75068    24.700177    22.732204    13897.246    7596.8035    8879.6057    7937.1001    25.990479   -399.21508   -189.61028   -7785.1143 
 3345000    93.292904   -9810.7366   -9455.0615   -9810.7366            0    8662.8583    24.608897    24.764132    22.774675    13879.296    8775.8759    8786.7891      8425.91   -412.43587   -379.69899   -5.5777946   -7701.5664 
 3346000     94.51038   -9794.6087    -9434.292   -9794.6087            0     7530.831    24.762678    24.667377    22.800189    13927.047    6841.9963    8228.0767      7522.42   -74.126658   -42.396581    1262.0539   -7904.6922 
 3347000    95.202444   -9788.9838   -9426.0287   -9788.9838            0    7637.1392    24.667374    24.769212    22.793053    13926.359    7662.4887    7429.8321    7819.0967    119.74222    -3.120506   -898.72105    -7874.913 
 3348000    92.909384   -9809.8108   -9455.5979   -9809.8108            0    7934.6301    24.671577    24.704512    22.812359    13904.116    8519.3084    7498.6041    7785.9779   -530.24475    241.76291    174.44493   -7846.6353 
 3349000    95.022287   -9788.1414   -9425.8731   -9788.1414            0    7715.8413    24.764985    24.677492    22.779626    13921.489    6351.4802    8925.5113    7870.5323   -166.55781    317.57836    4.0249885   -7859.3209 
 3350000    96.269003   -9813.2735   -9446.2521   -9813.2735            0     8557.345     24.58102    24.756989     22.79944    13874.646    9379.8678    8125.6261     8166.541    448.93543   -518.55265     -119.532    -7714.695 
 3351000    95.891756   -9811.1696   -9445.5865   -9811.1696            0    7456.0761    24.817588    24.649559    22.778694    13934.697    6617.8679    7861.0735     7889.287   -416.32581    -602.5485     233.8048   -7930.3383 
 3352000    94.522042   -9783.7235   -9423.3624   -9783.7235            0    8023.2324    24.688551    24.748544    22.771584    13913.568    7379.3101    7584.7798    9105.6074   -243.02661   -162.90363    326.29513   -7795.3273 
 3353000    92.255847   -9782.7616   -9431.0402   -9782.7616            0      8323.17      24.7011     24.73284    22.772603    13912.429    8152.7624    8094.1822    8722.5654   -191.85127    -54.21961    329.98032   -7742.2815 
 3354000     95.26696    -9794.794    -9431.593    -9794.794            0    8754.3288    24.670568    24.694313     22.78585    13881.658    8224.1662    9457.1204    8581.6999   -178.18943    247.79454   -270.91898   -7659.2813 
 3355000    95.196603   -9793.5506   -9430.6177   -9793.5506            0    7892.0162    24.646974    24.747225    22.831577    13925.989    7915.3798    8302.9966    7457.6721    22.655764   -586.47299    177.79056   -7827.7787 
 3356000    94.596986   -9806.0553   -9445.4084   -9806.0553            0    7840.5722    24.715046    24.689007    22.801232    13913.083    7392.5895    8406.0635    7723.0634   -387.46939   -1037.8881   -66.727613   -7854.4933 
 3357000    97.174751   -9805.8587   -9435.3842   -9805.8587            0    7401.0964    24.632415    24.751205    22.857555    13935.838    7821.9148    7063.0276    7318.3468   -476.12884   -102.33657   -269.88115    -7931.186 
 3358000    94.388971    -9790.486   -9430.6322    -9790.486            0    8245.4467    24.688688    24.658088    22.821637    13893.261    8417.7509    8915.7983    7402.7909    -662.1987    23.983426   -90.287648   -7759.9483 
 3359000    95.771496   -9800.9354   -9435.8108   -9800.9354            0    7880.7401    24.622157    24.728538    22.821381    13895.253    8329.1774    8035.4318    7277.6112   -379.23097   -338.31046    272.50062   -7838.7944 
 3360000    92.100294   -9796.4329   -9445.3046   -9796.4329            0    7622.6594    24.694504    24.660349    22.835326    13906.145    7961.0442    7796.9733    7109.9606    447.91136   -4.7704285    570.95168    -7899.377 
 3361000    95.330588   -9793.5969   -9430.1533   -9793.5969            0    8259.3196    24.660618    24.657839    22.847901    13893.295    8278.9636    8553.5179    7945.4772    222.57805   -182.72727   -537.87056   -7756.6544 
 3362000    95.195456   -9786.6747   -9423.7462   -9786.6747            0    9149.7466    24.667553    24.654448    22.797102    13864.397     9121.009    9682.7267     8645.504   -196.87817    262.65426    24.295763   -7573.6856 
 3363000    95.990995   -9805.2979   -9439.3364   -9805.2979            0    7094.0465    24.691218    24.767294    22.807335    13947.476    7735.2258    6303.4044    7243.5092    -424.9819    159.70215   -107.43981   -7996.3391 
 3364000    95.658045   -9772.3276   -9407.6355   -9772.3276            0    8377.8529     24.70785    24.739429     22.76398    13914.667    8256.8488    8517.8245    8358.8853    208.72205   -148.86212    821.59967   -7707.5082 
 3365000    98.461524     -9788.82   -9413.4397     -9788.82            0    7989.1679    24.710656     24.69543    22.797581    13912.002     7213.255    8824.2004    7930.0482    100.65755   -523.30964   -154.91046   -7792.4992 
 3366000     97.31197    -9811.804   -9440.8064    -9811.804            0    8416.0938    24.656926    24.752402    22.758515    13889.935    9307.8064    7048.1201    8892.3551   -205.06269    706.94579   -29.394175   -7735.9544 
 3367000    92.683968   -9805.9756   -9452.6221   -9805.9756            0    7944.6539    24.695723    24.661728    22.815886    13895.769    8158.6803    8234.7952    7440.4862   -137.11782    205.00139   -15.953677   -7842.5939 
 3368000    93.931749   -9814.6732   -9456.5626   -9814.6732            0     7102.667    24.626274    24.758464    22.874094    13946.535     6770.054    7610.6865    6927.2604   -96.108328   -185.56962    272.30313   -8011.9092 
 3369000    92.786467   -9789.7836   -9436.0392   -9789.7836            0    7611.5329    24.757764    24.681094     22.80881    13937.294    7045.4135     8094.443    7694.7423    141.05874    299.76396    570.39845   -7888.9104 
 3370000    94.725272   -9799.3764   -9438.2405   -9799.3764            0    8438.6912    24.658193    24.773571    22.733263    13887.102    8841.0271    7931.5589    8543.4876    306.81245   -26.057335    188.53773   -7729.1597 
 3371000    93.508931   -9799.2689   -9442.7702   -9799.2689            0    6912.8734    24.812299    24.732471    22.737186    13953.116    6108.4684    7660.9418    6969.2099    766.28646   -170.56722    390.19947   -8036.0566 
 3372000    97.667567   -9799.8456   -9427.4923   -9799.8456            0    7568.8125    24.763487    24.722064    22.761283     13934.56    6744.3452    8068.7788    7893.3135    -1017.862   -514.50821    80.376942   -7889.3486 
 3373000    90.530934   -9794.5837   -9449.4385   -9794.5837            0    6864.4842    24.755135     24.72525    22.808537    13960.578    6670.0603    7064.5224    6858.8699    233.20731   -128.89347    981.18126   -8051.8246 
 3374000    99.469738   -9798.4041   -9419.1801   -9798.4041            0    7791.5702    24.727292    24.734259    22.748977     13913.53    8011.2944    7280.4589    8082.9573   -320.23397    184.17764    805.75804   -7838.1571 
 3375000    97.557362   -9786.6975   -9414.7643   -9786.6975            0    8376.5806    24.742555    24.752286    22.692444    13897.642    7612.2597    8258.8506    9258.6315   -954.94979   -58.018771    855.49995   -7716.9751 
 3376000    96.504141   -9801.5364   -9433.6186   -9801.5364            0    8295.4103    24.691111    24.801007    22.694956    13897.584    8816.0879    7499.3226    8570.8204    240.53543   -571.37921   -107.25898   -7752.2883 
 3377000    94.187594   -9782.6984   -9423.6123   -9782.6984            0    9047.6339    24.773081     24.63289    22.733102    13872.479    8037.4923     9595.424    9509.9854   -73.596067    226.95091    741.77983   -7593.1323 
 3378000    95.797202   -9804.9026     -9439.68   -9804.9026            0    7943.9926     24.67864    24.721553    22.793888    13906.421    8019.9972    7956.9738    7855.0068    -259.4363   -528.17879    486.70602   -7828.5518 
 3379000    94.155522   -9787.9839   -9429.0201   -9787.9839            0    7389.6915    24.751027    24.692509    22.794908    13931.449     6984.299    7861.3723    7323.4033   -490.66664   -831.60243   -70.368416    -7927.613 
 3380000    96.224829   -9812.4916   -9445.6386   -9812.4916            0    8386.6507    24.663914    24.703224    22.797951    13890.294    8234.0617    8555.0357    8370.8548   -128.56703   -297.85218   -233.45435   -7746.7071 
 3381000    95.064276   -9805.4788   -9443.0505   -9805.4788            0    8742.4086     24.63051    24.723374    22.769304    13865.352    9097.8013    9124.1578    8005.2667   -457.41652    12.223327   -620.83006    -7675.231 
 3382000     94.98412   -9801.1406   -9439.0178   -9801.1406            0    7329.0099    24.796466     24.63426    22.817707    13938.027    6821.3819    7434.5024    7731.1453   -41.945736   -287.37725   -527.91431   -7949.2366 
 3383000    96.416694   -9805.6716   -9438.0871   -9805.6716            0    7796.7722    24.673035    24.725819    22.798679    13908.585    8141.7306    8051.1661    7197.4199    107.70637    425.21165    102.39138   -7856.5707 
 3384000    93.849262   -9803.3694   -9445.5732   -9803.3694            0    8695.1909    24.599808    24.772421    22.756858    13867.956    9031.5959    8732.8791    8321.0976   -238.38842     585.0646    397.37326   -7686.9716 
 3385000    95.014973   -9812.3706   -9450.1302   -9812.3706            0    7987.3174    24.730619     24.69388    22.736199    13884.882    7647.8145    8458.2088     7855.929    126.40444     164.7605   -177.34312   -7832.7243 
 3386000    95.288975   -9791.6557   -9428.3707   -9791.6557            0    8858.6863    24.658931    24.771866    22.693213    13862.097    9079.8889    7827.5668    9668.6033   -368.08707   -598.09287    -652.9996    -7637.459 
 3387000    94.460771   -9803.4711   -9443.3436   -9803.4711            0    7820.5084    24.736836      24.6944    22.757729    13901.816    7854.8105    8511.9718     7094.743   -64.921193   -515.60328   -250.70296   -7857.7845 
 3388000     98.25151   -9805.2164   -9430.6368   -9805.2164            0    7951.3958    24.641511    24.807109     22.76175    13913.908    8955.8918    7120.0729    7778.2226    -400.8948   -53.398269   -201.35129   -7817.1389 
 3389000    95.725819   -9812.4014   -9447.4509   -9812.4014            0    7773.4746    24.660789    24.738924    22.804613     13912.67    8828.5421    6542.6483    7949.2335    150.37652     108.2577    550.26893   -7870.1972 
 3390000    97.223818   -9804.0294   -9433.3679   -9804.0294            0    8014.7458    24.693818    24.682621    22.810144    13902.969    8311.5794    8254.1016    7478.5562   -30.661534   -168.92514     586.5284   -7808.2938 
 3391000    93.160123   -9805.8665   -9450.6976   -9805.8665            0    7746.9757    24.628604    24.755998    22.817035    13911.676    8676.8695     7283.633    7280.4247     267.6732   -323.58988    532.10556   -7878.9329 
 3392000    93.127944   -9804.4811   -9449.4349   -9804.4811            0     7872.048    24.707132    24.667694    22.830646    13914.548    8727.4245     7719.095    7169.6245   -348.64586   -361.75464    78.488741   -7851.9649 
 3393000    94.627529   -9791.9138   -9431.1505   -9791.9138            0    8393.7868    24.646915    24.714798    22.790701    13882.808    8275.8836    8750.7823    8154.6946   -363.60336    104.61511    348.18461   -7731.6898 
 3394000    94.427179   -9801.6003   -9441.6009   -9801.6003            0    7444.6891    24.756132    24.764324    22.732136    13936.365    6297.9081     7313.854    8722.3051   -98.532194    -288.6224    184.56735   -7928.4857 
 3395000    99.834436   -9796.3716   -9415.7572   -9796.3716            0    7038.7793    24.675155    24.760485    22.810705    13936.629    7387.5086    6978.6872    6750.1422    13.494378    328.73055    734.54561   -7985.1152 
 3396000    93.556432   -9800.6907   -9444.0109   -9800.6907            0    7721.9031     24.78677    24.696766    22.741762    13921.439    7007.2195    8076.2234    8082.2664   -22.845233    603.65253    23.541783   -7876.2335 
 3397000    93.428681   -9795.9164   -9439.7236   -9795.9164            0    7773.4047    24.702819    24.720153    22.788361    13915.883    6656.1291    9124.6779     7539.407   -227.45533    7.3001054     43.53234   -7862.1199 
 3398000    91.529275   -9805.6009   -9456.6496   -9805.6009            0    6487.6902    24.721368    24.839316    22.734957     13960.67    6588.7309    6531.0769    6343.2629    10.348896   -404.20213    85.109308   -8135.7426 
 3399000    92.280783    -9785.777   -9433.9605    -9785.777            0    8174.8836    24.709005    24.718552     22.75476    13897.943    8275.3527    8162.2183    8087.0799    341.25078    1185.6445    219.74984   -7777.0159 
 3400000    94.760956   -9801.1182   -9439.8462   -9801.1182            0    8350.5326    24.633187    24.721622    22.803165    13886.496    9198.7255    7888.2382    7964.6342    48.485349    120.11357    33.852791   -7748.6937 
 3401000    95.271917    -9794.363    -9431.143    -9794.363            0    7917.4748    24.680613    24.676675    22.842155    13911.682     7832.219    8382.5152    7537.6902   -278.54001    291.86092   -119.80792   -7824.7854 
 3402000     94.76609   -9807.2789   -9445.9874   -9807.2789            0    7662.5903    24.690109    24.679031    22.827915    13909.687    7452.8667    8840.3842    6694.5201    92.949767   -767.35105    296.50664   -7891.5656 
 3403000    96.751778   -9800.3806   -9431.5187   -9800.3806            0    7083.0651    24.615227    24.775509    22.873525    13949.528    7363.2804     7415.622    6470.2928   -94.422951   -28.120882    419.30184   -7990.5431 
 3404000    94.813275   -9808.6671   -9447.1956   -9808.6671            0    7877.3649    24.673705    24.664013    22.851701    13906.461    8081.5578    7857.3552    7693.1817   -213.95985   -746.66219    31.947974   -7849.5756 
 3405000    96.045446   -9801.5125   -9435.3435   -9801.5125            0    8106.2027    24.696782    24.689172     22.81091    13908.795    8071.7308    8151.2517    8095.6255   -117.50611    182.75564   -683.98182   -7791.0367 
 3406000    88.506823   -9804.9701   -9467.5417   -9804.9701            0    8301.0223    24.625405    24.714963    22.804639    13879.268      9007.27    7893.6546    8002.1423   -199.29003    259.43372    174.90572   -7787.2913 
 3407000    94.160255   -9800.4471   -9441.4652   -9800.4471            0    8108.2565     24.68916    24.667504    22.825713    13901.315    8112.3938    8580.5515    7631.8242    133.65514   -192.43974    161.28011   -7797.6263 
 3408000    97.560796   -9803.1332    -9431.187   -9803.1332            0    8140.6187    24.600587    24.758466     22.79374    13883.047    8746.2613    7521.9223    8153.6724    -13.77452   -105.66798   -96.959452    -7782.956 
 3409000    97.891987   -9794.8714   -9421.6625   -9794.8714            0    8593.1543    24.654043    24.660003    22.837347    13884.393    8895.6954    9194.0576    7689.7099   -20.232519   -311.56374   -379.15373   -7681.6378 
 3410000    94.040178   -9793.9489   -9435.4248   -9793.9489            0    8126.0364     24.69476    24.644978    22.849154    13906.036     8448.294    8530.3509    7399.4642    35.924653    213.96751    629.99338   -7787.4218 
 3411000    95.541942   -9818.6462   -9454.3968   -9818.6462            0    7547.3912    24.678607    24.764827    22.776498    13920.117    8522.9672    6377.9125    7741.2938   -266.80678   -364.52392    660.94328   -7922.1961 
 3412000    97.735835   -9813.6777   -9441.0641   -9813.6777            0    7677.4783    24.798722    24.685825     22.71049    13902.838    7167.5086    8043.0796    7821.8467    -87.17618    458.98841    12.043478   -7884.3891 
 3413000    97.896923   -9801.4251   -9428.1974   -9801.4251            0    8225.4459     24.69105      24.7332     22.73821    13885.967    8786.3449    8127.2275    7762.7654    139.91844   -270.03394   -267.25421   -7762.4411 
 3414000    90.866679   -9791.6888   -9445.2636   -9791.6888            0    8350.3913    24.707632     24.81709    22.646162    13885.982    7960.5156    7640.5606    9450.0977   -170.06188   -297.81626    90.691877   -7754.2025 
 3415000    94.382007   -9794.4587   -9434.6315   -9794.4587            0    7954.9048    24.746499    24.762737    22.696409    13908.156    7603.4345    8181.4831    8079.7969    -460.3146    235.19716   -12.031667   -7821.0889 
 3416000    96.166073   -9789.9685   -9423.3395   -9789.9685            0    7967.2945     24.67965     24.80402    22.707965    13900.783    8321.7555    7381.2342    8198.8938    136.45178    20.379674   -651.47136   -7808.1405 
 3417000    95.670082   -9817.9259   -9453.1879   -9817.9259            0    8629.9592    24.754732    24.703773    22.672833    13865.238    8258.0562    8506.3834    9125.4382    -389.5337   -683.45478    274.08832   -7708.1215 
 3418000    94.938018    -9781.768    -9419.821    -9781.768            0    7008.8338    24.704914    24.826898    22.754362    13956.306     7924.415    6278.8062    6823.2802    -487.7411   -178.65699   -139.83571   -7993.2542 
 3419000    92.528926   -9783.9867   -9431.2243   -9783.9867            0    8239.4322    24.749583    24.703888    22.710279    13885.313    7630.4016    8261.8114    8826.0834    462.56256   -203.53951    155.22789   -7762.7142 
 3420000    95.549413   -9800.8705   -9436.5925   -9800.8705            0    8584.0221    24.624813     24.77209    22.737869    13870.284    9251.5613    7550.1739     8950.331    57.322839    546.62286   -148.14331   -7700.1834 
 3421000    94.921162   -9799.8632   -9437.9804   -9799.8632            0    8131.6446    24.702869    24.716645    22.773443    13904.828    7594.7489    8436.3368    8363.8483   -191.46718      -38.106    552.46207   -7788.9833 
 3422000    97.626205    -9809.494   -9437.2984    -9809.494            0    7687.1755    24.670592    24.706978    22.842115    13923.086    8023.6545    7583.6433    7454.2288    48.708114   -136.34775    741.36838   -7876.3872 
 3423000    93.800568   -9791.3114   -9433.7009   -9791.3114            0    7837.6089    24.693611    24.726191    22.778761    13908.231    7919.4777    8537.9333    7055.4156    234.17385   -357.51588    123.30596   -7843.9416 
 3424000    95.866252   -9811.3298   -9445.8439   -9811.3298            0    7774.5905    24.741801    24.675876    22.782183    13909.106    7324.8392    8315.4726    7683.4599   -67.936268   -267.48253   -250.02029   -7868.7679 
 3425000    95.690577   -9803.6095   -9438.7933   -9803.6095            0    7687.4332    24.706792    24.783506    22.737876    13922.877     7739.228    7438.8379    7884.2337   -181.08625    50.726209   -134.39966   -7877.8533 
 3426000    97.045414   -9811.0468   -9441.0654   -9811.0468            0    7552.6335    24.733395    24.679252     22.79021    13911.182    6617.0013    8388.1494    7652.7498   -192.08608   -166.71166    77.153665   -7908.7847 
 3427000    92.396092   -9783.0107   -9430.7547   -9783.0107            0    7890.5112    24.705736    24.719126     22.78459    13914.645    8012.3798    8179.2415    7479.9122   -373.43602   -456.96893   -115.54588   -7829.5267 
 3428000    94.612098   -9799.1646   -9438.4601   -9799.1646            0    7582.2346    24.691611    24.745375    22.774554    13915.325    7675.0706    7497.9052    7573.7278   -27.568364   -277.06103    311.14178   -7899.7158 
 3429000    95.114572   -9803.8222   -9441.2021   -9803.8222            0    7718.6837    24.705648    24.737382    22.769017    13915.354    7738.2491     7357.827    8059.9752   -285.51754   -278.21239    422.48311   -7874.7634 
 3430000    94.061103   -9807.7038      -9449.1   -9807.7038            0    7490.2243    24.627574    24.814744    22.769545    13915.082    8050.2444    7153.2956    7267.1328    160.62906   -232.96913    425.09689   -7929.0549 
 3431000    97.441651    -9811.568    -9440.076    -9811.568            0    7176.7141    24.718823    24.770975    22.758006     13934.94    7780.0619    6463.7789    7286.3016    583.07779   -664.74788   -525.79094   -7981.5753 
 3432000    98.375643   -9792.6048    -9417.552   -9792.6048            0    8421.8825    24.739409    24.703084    22.716238    13882.795    7597.0287    8994.7593    8673.8596   -909.38847   -422.55925    603.42368   -7712.4044 
 3433000    93.061756   -9791.8441   -9437.0502   -9791.8441            0    7879.7437    24.729923    24.746323    22.726079    13907.784    7030.2638    8004.1033    8604.8639    -64.48804   -762.87455    415.11354   -7838.7958 
 3434000    95.840743    -9795.127   -9429.7384    -9795.127            0    8524.4366    24.699522    24.774892     22.68515    13881.678    8186.4346    8366.0361    9020.8391   -147.57831   -903.71673   -601.47128   -7703.9659 
 3435000    96.268744   -9782.5483    -9415.528   -9782.5483            0    8222.3293    24.707662    24.791509    22.703452    13906.778    8195.1788    7714.1924    8757.6167   -493.18237    22.843269   -908.81775   -7747.9073 
 3436000    96.393569   -9785.9811   -9418.4849   -9785.9811            0    8073.9842    24.734775    24.799164    22.657927    13898.412    7646.6791    7809.7144    8765.5589    -25.92914    404.04368    357.47023   -7781.9361 
 3437000    95.047501   -9817.0107   -9454.6462   -9817.0107            0    7871.6417    24.745612     24.77502    22.662857    13893.987    7726.5248    7483.5113    8404.8888   -405.35035    140.83864    129.69928   -7859.6191 
 3438000    94.680015   -9782.6802   -9421.7168   -9782.6802            0    7574.2591    24.788206    24.744089    22.691644    13918.183     7014.946    7485.3532    8222.4782   -854.64992   -390.59134   -478.20256   -7884.2754 
 3439000     93.00955   -9809.7452   -9455.1504   -9809.7452            0    7852.5281    24.729483    24.744384     22.73217    13910.175    7648.3895    7461.3623    8447.8325   -437.41905   -502.29857   -99.864608   -7862.1423 
 3440000    95.543288   -9784.5082   -9420.2536   -9784.5082            0    7345.5502    24.726659     24.76021    22.765882    13938.122    7209.4825    7553.8628    7273.3053   -73.982618   -332.95532    572.26409   -7927.1001 
 3441000    94.426317   -9788.3229   -9428.3267   -9788.3229            0    7920.3832    24.684457    24.730816    22.784789    13909.356    8157.3213    8123.3688    7480.4596    63.457988   -692.67952   -93.057533   -7821.6477 
 3442000    96.061288   -9794.6082   -9428.3787   -9794.6082            0    7243.9703    24.702682     24.75024    22.812398    13947.439    7535.9578    6880.8982    7315.0548   -263.69774   -281.29514    5.2057589   -7954.8893 
 3443000    93.114054   -9794.0718   -9439.0785   -9794.0718            0    7570.5434    24.691779    24.717612     22.81392    13923.833    7595.8768    8170.7317    6945.0216   -199.21621    -469.8793   -560.84705   -7901.7675 
 3444000     93.33075   -9789.2798   -9433.4605   -9789.2798            0    8299.2302    24.617125    24.697061    22.851352    13892.951    8770.0367    9021.2073    7106.4465    59.859581     138.9351   -415.52359   -7751.9166 
 3445000    96.014407   -9798.1803   -9432.1295   -9798.1803            0    8115.6404    24.645012    24.701519    22.825817    13895.655    8347.2885    8334.8962    7664.7364   -598.88215    389.91978    27.262094   -7787.4636 
 3446000    96.067521   -9794.7947   -9428.5415   -9794.7947            0    8270.5271    24.701063    24.692763    22.777568    13892.893    8253.8452    8644.7609    7912.9752    -115.3765   -509.38204   -78.611065   -7752.8203 
 3447000    94.799414   -9793.9993   -9432.5807   -9793.9993            0    7903.2537    24.693084    24.664571    22.822307    13899.796    8550.5959    8601.9489    6557.2162    226.57469   -183.61875    811.72205   -7830.4784 
 3448000    97.507891   -9797.7828   -9426.0382   -9797.7828            0    8386.9448    24.659224    24.725453    22.781223     13889.95    9456.3886    7528.4975    8175.9484   -218.13114   -52.484943   -128.12582   -7727.0891 
 3449000     97.16438    -9797.201   -9426.7661    -9797.201            0    7548.1514    24.648717     24.77068    22.823779    13935.411    8392.8232    6764.4365    7487.1944   -892.98107   -167.82255    200.32777   -7892.7275 
 3450000    94.639835   -9797.0545   -9436.2443   -9797.0545            0    7886.7669    24.733629    24.711221    22.774287    13919.602    7268.0453    8270.3199    8121.9355   -242.27254    381.00797   -464.06096    -7835.206 
 3451000    97.609123   -9792.0125    -9419.882   -9792.0125            0    7708.5032    24.706204    24.724399    22.780534    13915.399    7202.2653    8442.7504    7480.4939   -439.42796   -487.89071   -68.284622   -7855.5044 
 3452000    93.122633   -9793.9173   -9438.8914   -9793.9173            0    7855.4819    24.777892    24.739514    22.682477      13904.2    7416.3237    8131.1666    8018.9553    828.33219   -733.38042    773.91209   -7845.9686 
 3453000     95.53322   -9814.8935   -9450.6773   -9814.8935            0    8405.6089    24.754595     24.72493     22.66144    13870.062    8252.4256    8217.8296    8746.5716   -418.53444    -52.99402   -37.263504   -7750.3855 
 3454000    100.29031     -9811.47   -9429.1176     -9811.47            0    7414.5163    24.713702    24.812303    22.708893    13925.181    7507.5316    6713.6391    8022.3781   -526.45094   -248.94524   -321.44936   -7923.3443 
 3455000     92.01569   -9797.0028   -9446.1971   -9797.0028            0    8461.4175    24.797091     24.68693    22.680154    13883.975    8215.7386    8679.0912    8489.4227      320.824   -453.91378    350.36841   -7732.8993 
 3456000    89.063897   -9807.2315   -9467.6793   -9807.2315            0    7240.4116    24.753823    24.782973    22.703575    13928.037    6402.7923    7550.3589    7768.0836    -382.7108    126.61837    286.11227   -7996.9624 
 3457000    96.107706   -9798.3798   -9431.9734   -9798.3798            0    8927.3669    24.631463    24.782264     22.71325    13864.699    9736.9668    8112.2432    8932.8906   -133.08677    72.956873    619.67565   -7626.8383 
 3458000    95.406868   -9800.5117   -9436.7772   -9800.5117            0    7872.5367    24.753295     24.71706    22.738139    13911.845    7940.6634    7656.8146    8020.1323   -349.22878   -623.33572    337.49598   -7839.5183 
 3459000    96.608366   -9790.1115   -9421.7964   -9790.1115            0      7908.01    24.784538    24.603204    22.817373    13913.556    7334.5521    9357.5149    7031.9628   -86.673396   -429.12299    392.14786    -7817.143 
 3460000    98.506423    -9806.097   -9430.5456    -9806.097            0    7495.7538    24.665243    24.726251    22.831531    13924.471    7627.1713    7586.5491     7273.541    443.61145    -219.4315   -94.810818   -7908.3519 
 3461000    100.18288   -9804.5187   -9422.5758   -9804.5187            0    8198.6062    24.651372    24.681146     22.83995    13896.376    8091.0819    8697.9282    7806.8087    138.62519    361.80092    -180.2293   -7761.0103 
 3462000    97.232361   -9810.2379   -9439.5438   -9810.2379            0    7601.3219    24.660114    24.728156    22.817411    13914.038    8804.4278     7148.201    6851.3369     588.9873   -371.89324    162.05557   -7897.0685 
 3463000    96.598766   -9805.8573   -9437.5787   -9805.8573            0    8902.6739    24.664192    24.604584    22.839663    13860.299     8924.932    9598.6803    8184.4095   -197.89929   -186.86447    -168.3219   -7638.0078 
 3464000    97.246177   -9796.9856   -9426.2388   -9796.9856            0    8399.3851    24.652285    24.657334    22.862829    13897.391    8213.0231    8689.4346    8295.6977    27.855612   -593.23572    137.57795   -7723.8582 
 3465000    94.183812   -9804.2912   -9445.2196   -9804.2912            0    7367.4098    24.753414    24.645012    22.857132    13943.952    6392.1215    8379.4901    7330.6178    253.52999   -4.8552416    307.76037   -7946.9962 
 3466000    94.307391   -9807.6217   -9448.0789   -9807.6217            0    8257.0928    24.656995    24.728894    22.778192    13888.779    8195.2147    8207.4497    8368.6138   -260.75952    339.09216   -1075.6201    -7775.575 
 3467000    97.390606   -9799.6173   -9428.3199   -9799.6173            0    7581.6872     24.72501    24.707303    22.815971     13938.01    7335.4673    8070.1589    7339.4355    111.28629    227.85426   -55.160596   -7887.1784 
 3468000    95.088878   -9797.4666   -9434.9444   -9797.4666            0    7419.8664    24.731008    24.732541    22.776181    13931.294    6901.7247    7835.9894    7521.8851   -65.627369    -516.9322   -695.58668   -7927.4233 
 3469000    95.482976   -9809.7405   -9445.7158   -9809.7405            0    8615.6385    24.646889     24.76949     22.71245    13865.743    8988.8282    8524.2212    8333.8662    148.28712    34.547071    713.08115   -7703.4817 
 3470000    94.581379   -9798.0525   -9437.4652   -9798.0525            0     7734.528    24.737759    24.728489    22.745291    13913.917    8380.5365    6796.8938    8026.1538    188.43672   -4.1982838   -501.58417   -7867.9731 
 3471000     96.37647   -9807.1679   -9439.7368   -9807.1679            0    7780.8824    24.677592    24.758535    22.760362    13906.149    8178.5753    7770.1008    7393.9711    32.171034   -152.21477    845.64901     -7861.72 
 3472000    94.151308   -9802.3777     -9443.43   -9802.3777            0    8112.3822    24.730509     24.66778    22.759514    13884.368    8041.9713     8601.202    7693.9733   -405.75011    -726.9963   -52.426119   -7800.7596 
 3473000    96.229539   -9805.4819    -9438.611   -9805.4819            0    7667.2082    24.727568    24.753371    22.747777    13923.702    7250.7062    7193.0916    8557.8268     183.5547   -23.058227    645.17468   -7881.6855 
 3474000    97.131894   -9778.5798   -9408.2687   -9778.5798            0    8476.6019    24.677001    24.729858    22.770364    13895.813    8344.8783    8268.8468    8816.0805   -726.58559    208.78126   -821.42996   -7690.4329 
 3475000    96.903791   -9814.0449   -9444.6034   -9814.0449            0    7514.8932     24.68338    24.800697    22.715348    13905.541    8245.5672    6688.7225    7610.3899   -380.25942   -593.94053    315.62798   -7920.5977 
 3476000    95.531997   -9803.1239   -9438.9123   -9803.1239            0    7208.8657    24.688789    24.739691     22.78956    13919.704    7333.4399    7432.5053    6860.6519   -475.31541   -259.71539   -36.956133   -7975.4794 
 3477000    98.231039   -9798.5487   -9424.0472   -9798.5487            0    8514.6702    24.687792     24.73842    22.718539    13875.051    9048.0041    8373.2428    8122.7636    327.84764    23.187909    422.62881   -7701.0748 
 3478000      98.0503   -9797.6562   -9423.8438   -9797.6562            0    8196.6044    24.750119    24.700475    22.731419    13896.619    7119.3114    8904.9211    8565.5806   -546.66167   -319.26572    1017.0228   -7762.6549 
 3479000     94.48704   -9806.4728   -9446.2451   -9806.4728            0    6955.9639    24.670959    24.805588     22.77963    13940.625    7061.7495    6620.6297    7185.5126   -223.93883    -710.9173    273.76392   -8032.0301 
 3480000     97.27191   -9799.4104   -9428.5655   -9799.4104            0    8190.8332     24.73537    24.723698    22.712845    13890.036    7351.4242    8806.2499    8414.8254   -469.87057    625.09892   -153.52451   -7769.3327 
 3481000    95.656396    -9784.148   -9419.4622    -9784.148            0    8189.6814    24.738152    24.768619    22.687094     13901.06    7426.4941     8328.762     8813.788   -80.398946    82.524447   -270.54809    -7759.146 
 3482000    93.706609   -9787.9918   -9430.7395   -9787.9918            0    7822.0348    24.734907    24.740758    22.747141    13920.349    7797.0198    7475.9651    8193.1196   -723.85253    175.33845   -528.36666   -7842.7568 
 3483000    94.784964   -9783.6825    -9422.319   -9783.6825            0    7771.8516      24.7558    24.798536    22.671857    13918.425    7220.2608    7455.1293    8640.1648   -58.845616   -307.27891   -413.10555   -7844.7423 
 3484000    97.415772   -9796.9458   -9425.5524   -9796.9458            0    8107.2182    24.763301    24.748972    22.671929     13894.86    7516.7623    8319.2503     8485.642    59.289235    667.59892    39.101191   -7782.6872 
 3485000    93.906999   -9804.5327   -9446.5164   -9804.5327            0    8147.1908    24.728873    24.749116     22.71119    13899.651    7961.7168    7779.9516    8699.9041   -270.19059   -314.09805    429.71242   -7794.9817 
 3486000    96.368569   -9792.5942   -9425.1933   -9792.5942            0    8554.5111    24.796254     24.69292    22.684046    13889.258    7297.5788    9344.2856    9021.6687    -105.4377    564.82417    60.797754   -7692.3866 
 3487000    93.558893   -9801.2688   -9444.5796   -9801.2688            0    7776.8912    24.696698    24.784711    22.734537    13915.822    7292.7988    8521.3672    7516.5075    146.99382   -926.21224   -615.20765   -7866.2751 
 3488000    98.516338   -9791.3093   -9415.7201   -9791.3093            0     7491.986    24.724313    24.720793    22.780755    13923.703    8057.2653    7325.2043    7093.4884    430.37664   -340.97335   -86.703272   -7894.3755 
 3489000    95.263011    -9797.524    -9434.338    -9797.524            0    7490.5043    24.715375    24.762476    22.748967    13922.684    7622.1894    7526.0942    7323.2293   -497.24149   -263.15419    590.47035   -7913.4056 
 3490000     97.29314    -9788.761   -9417.8352    -9788.761            0    8505.6448    24.721988    24.712248    22.724009    13882.913    8188.6107    8596.4512    8731.8725    -409.0706   -590.87198   -10.800925   -7695.7139 
 3491000     96.22453        -9798   -9431.1482        -9798            0    7556.2154    24.754767    24.772173    22.712965    13928.258    6909.1251    7295.5175    8464.0036    -285.8797   -502.61432   -708.16827   -7896.2591 
 3492000    93.933873   -9785.7956   -9427.6768   -9785.7956            0    7783.9312    24.765222    24.798369    22.665416    13919.673    7739.2697     7033.998    8578.5258    318.21705   -619.71249    189.68355   -7847.5065 
 3493000    96.038991   -9803.9817   -9437.8373   -9803.9817            0    7916.9379    24.697806    24.797831    22.699845    13902.566    7842.3655    7266.7869    8641.6613    29.237675   -505.78001   -361.40149   -7832.6412 
 3494000    97.848537   -9814.0717   -9441.0285   -9814.0717            0    8268.4248    24.695458    24.783031    22.677948    13879.546    8636.2425    7412.2255    8756.8065    343.98479   -508.07507    -3.252919   -7767.3426 
 3495000    94.373844   -9791.1142   -9431.3181   -9791.1142            0    7876.9109    24.718125    24.750504    22.721981    13900.991    7946.0488    7614.8817    8069.8021    516.37747   -937.23414   -355.86227   -7834.4186 
 3496000     94.22147    -9804.717   -9445.5018    -9804.717            0    7884.6267    24.714158    24.784678    22.717947     13915.48    8448.4513    6685.0571    8520.3717   -241.70922   -590.48779   -89.903824    -7845.372 
 3497000    100.66973   -9800.6671   -9416.8682   -9800.6671            0    7645.4108    24.752324     24.73686    22.731224     13918.21    7747.3178    7562.3499    7626.5647   -589.01831     643.9401    164.66798   -7864.9812 
 3498000    91.534024   -9798.2227   -9449.2532   -9798.2227            0    8325.8684    24.674579    24.753928     22.73575    13886.831    8415.0524    8069.3181    8493.2347   -247.79402   -590.00329    731.69895   -7763.0552 
 3499000    90.605369   -9796.8247   -9451.3957   -9796.8247            0    9201.5716    24.671546    24.750409    22.671791    13844.095    9136.7423    9022.3776    9445.5949   -174.54408     281.3919    321.37548   -7593.5807 
 3500000    96.771195   -9791.6828   -9422.7469   -9791.6828            0    7891.4162    24.732686    24.769659    22.710225    13912.742    7494.9299    7201.6355    8977.6834   -215.18106   -270.19194    462.05408   -7821.5543 
Loop time of 514.818 on 64 procs for 250000 steps with 1920 atoms

Performance: 83.913 ns/day, 0.286 hours/ns, 485.609 timesteps/s
196.2% CPU use with 32 MPI tasks x 2 OpenMP threads

MPI task timing breakdown:
Section |  min time  |  avg time  |  max time  |%varavg| %total
---------------------------------------------------------------
Pair    | 71.812     | 73.57      | 76.205     |  11.9 | 14.29
Bond    | 0.85877    | 1.0433     | 1.5587     |  14.8 |  0.20
Kspace  | 238.65     | 246.09     | 253.51     |  22.4 | 47.80
Neigh   | 0.15905    | 0.17194    | 0.18715    |   1.9 |  0.03
Comm    | 71.882     | 80.124     | 85.536     |  36.6 | 15.56
Output  | 0.63067    | 0.63097    | 0.63274    |   0.0 |  0.12
Modify  | 87.845     | 92.938     | 96.76      |  27.9 | 18.05
Other   |            | 20.25      |            |       |  3.93

Nlocal:        60.0000 ave          62 max          58 min
Histogram: 3 0 6 0 0 13 0 8 0 2
Nghost:        3512.91 ave        3537 max        3476 min
Histogram: 1 1 2 2 1 8 4 8 3 2
Neighs:        21850.4 ave       22967 max       21083 min
Histogram: 2 3 7 7 3 4 3 1 1 1

Total # of neighbors = 699212
Ave neighs/atom = 364.17292
Ave special neighs/atom = 2.0000000
Neighbor list builds = 272
Dangerous builds = 0

unfix		3
unfix		2
unfix		1

write_data	data.final.${pid}
write_data	data.final.1
System init for write_data ...
PPPM initialization ...
  extracting TIP4P info from pair style
  using 12-bit tables for long-range coulomb (../kspace.cpp:340)
  G vector (1/distance) = 0.37514383
  grid = 30 30 30
  stencil order = 5
  estimated absolute RMS force accuracy = 0.0031932768
  estimated relative force accuracy = 9.6164581e-06
  using double precision FFTW3
  3d grid and FFT values/proc = 5400 960
Last active /omp style is kspace_style pppm/tip4p/omp
WARNING: Not all mixed pair coeffs generated from mixing. Use write_data with 'pair ij' option to store all pair coeffs. (../write_data.cpp:312)

write_restart   restart.lmp.${pid}
write_restart   restart.lmp.1
System init for write_restart ...
PPPM initialization ...
  extracting TIP4P info from pair style
  using 12-bit tables for long-range coulomb (../kspace.cpp:340)
  G vector (1/distance) = 0.37514383
  grid = 30 30 30
  stencil order = 5
  estimated absolute RMS force accuracy = 0.0031932768
  estimated relative force accuracy = 9.6164581e-06
  using double precision FFTW3
  3d grid and FFT values/proc = 5400 960
Last active /omp style is kspace_style pppm/tip4p/omp
Total wall time: 0:08:34
