LAMMPS (30 Jul 2021)
Processor partition = 0
  using 2 OpenMP thread(s) per MPI task
using multi-threaded neighbor list subroutines
variable        pid world 0 1
variable        phase world IceII IceVI

shell cd ${phase}
shell cd IceII
include Restart.lmp
echo both
log log.lammps
#include		in.partitions
include		in.temp
variable        temperature equal 95.49
variable	tempDamp equal 100.0
include		in.pressure
variable        pressure equal 7926.3
variable        pressureDamp equal 1000.0 # This is 1 ps
include		in.seed
variable        seed equal 745823

units		real
atom_style	full
box tilt large
read_restart	restart.lmp.${pid}
read_restart	restart.lmp.0
Reading restart file ...
  restart file = 30 Jul 2021, LAMMPS = 30 Jul 2021
  restoring atom style full from restart
  triclinic box = (-10.500774 -9.1148841 0.17862358) to (12.480774 12.104882 21.681375) with tilt (-9.1334628 2.0052627 2.6647026)
  2 by 4 by 4 MPI processor grid
  restoring pair style lj/cut/tip4p/long/omp from restart
  restoring bond style harmonic/omp from restart
  restoring angle style harmonic/omp from restart
  1296 atoms
  864 bonds
  432 angles
Finding 1-2 1-3 1-4 neighbors ...
  special bond factors lj:    0        0        0       
  special bond factors coul:  0        0        0       
     2 = max # of 1-2 neighbors
     1 = max # of 1-3 neighbors
     1 = max # of 1-4 neighbors
     2 = max # of special neighbors
  special bonds CPU = 0.002 seconds
  read_restart CPU = 0.007 seconds
include 	in.setup
variable	out_freq equal 1000
variable	out_freq2 equal 10000
variable	out_freq3 equal 1000

timestep	2.0

neigh_modify    delay 7 every 1

include		in.tip4p
# This is TIP4P/Ice

# create groups ###
group ox type 2
432 atoms in group ox
group hy type 1
864 atoms in group hy

# set charges - beside manually ###
set group ox charge -1.1794
Setting atom values ...
  432 settings made for charge
set group hy charge 0.5897
Setting atom values ...
  864 settings made for charge

# ### TIP3P Potential Parameters ###
pair_style lj/cut/tip4p/long/omp 2 1 1 1 0.1577 8.5
pair_coeff 1 1*2 0.000 0.000
pair_coeff 2 2 0.21084 3.1668
bond_style  harmonic
bond_coeff  1 450 0.9572
angle_style harmonic
angle_coeff 1 55 104.52
kspace_style pppm/tip4p/omp 1.0e-5
pair_modify tail yes

thermo          ${out_freq}
thermo          1000
thermo_style    custom step temp pe etotal epair emol press lx ly lz vol pxx pyy pzz pxy pxz pyz enthalpy

restart 	${out_freq3} restart.lmp.${pid} restart2.lmp.${pid}
restart 	1000 restart.lmp.${pid} restart2.lmp.${pid}
restart 	1000 restart.lmp.0 restart2.lmp.${pid}
restart 	1000 restart.lmp.0 restart2.lmp.0


include         in.dump
dump            myDump all atom ${out_freq2} dump.water.${pid}
dump            myDump all atom 10000 dump.water.${pid}
dump            myDump all atom 10000 dump.water.0
dump            myDump2 all dcd ${out_freq2} dump.dcd
dump            myDump2 all dcd 10000 dump.dcd
dump_modify     myDump append yes
dump_modify     myDump2 append yes


variable natoms 	equal  "count(all)"                        # NUMBER ATOMS
variable H      	equal  "enthalpy/v_natoms"                 # ENTHALPY-per-atom
variable Vol      	equal  "vol/v_natoms"                 # volume-per-atom
fix AVG all 		ave/time ${out_freq} 1 ${out_freq} v_Vol v_H file vol_enthalpy.dat
fix AVG all 		ave/time 1000 1 ${out_freq} v_Vol v_H file vol_enthalpy.dat
fix AVG all 		ave/time 1000 1 1000 v_Vol v_H file vol_enthalpy.dat


timer           timeout 10:00:00 every 1000
New timer settings: style=normal  mode=nosync  timeout=10:00:00

fix 		1 all shake 1e-6 200 0 b 1 a 1
Finding SHAKE clusters ...
       0 = # of size 2 clusters
       0 = # of size 3 clusters
       0 = # of size 4 clusters
     432 = # of frozen angles
  find clusters CPU = 0.001 seconds
fix             2 all nph tri ${pressure} ${pressure} ${pressureDamp}
fix             2 all nph tri 7926.3 ${pressure} ${pressureDamp}
fix             2 all nph tri 7926.3 7926.3 ${pressureDamp}
fix             2 all nph tri 7926.3 7926.3 1000
fix             3 all temp/csvr ${temperature} ${temperature} ${tempDamp} ${seed}
fix             3 all temp/csvr 95.49 ${temperature} ${tempDamp} ${seed}
fix             3 all temp/csvr 95.49 95.49 ${tempDamp} ${seed}
fix             3 all temp/csvr 95.49 95.49 100 ${seed}
fix             3 all temp/csvr 95.49 95.49 100 745823


run             250000
PPPM initialization ...
  extracting TIP4P info from pair style
  using 12-bit tables for long-range coulomb (../kspace.cpp:340)
  G vector (1/distance) = 0.3690529
  grid = 30 40 32
  stencil order = 5
  estimated absolute RMS force accuracy = 0.0041948692
  estimated relative force accuracy = 1.2632724e-05
  using double precision FFTW3
  3d grid and FFT values/proc = 7752 1200
Last active /omp style is kspace_style pppm/tip4p/omp
Neighbor list info ...
  update every 1 steps, delay 7 steps, check yes
  max neighbors/atom: 2000, page size: 100000
  master list distance cutoff = 10.8154
  ghost atom cutoff = 10.8154
  binsize = 5.4077, bins = 7 5 4
  1 neighbor lists, perpetual/occasional/extra = 1 0 0
  (1) pair lj/cut/tip4p/long/omp, perpetual
      attributes: half, newton on, omp
      pair build: half/bin/newton/tri/omp
      stencil: half/bin/3d/tri
      bin: standard
Setting up Verlet run ...
  Unit style    : real
  Current step  : 3250000
  Time step     : 2
  Walltime left : 9:59:59.95
Per MPI rank memory allocation (min/avg/max) = 10.66 | 10.66 | 10.66 Mbytes
Step Temp PotEng TotEng E_pair E_mol Press Lx Ly Lz Volume Pxx Pyy Pzz Pxy Pxz Pyz Enthalpy 
 3250000    98.744263   -6757.2373   -6503.2237   -6757.2373            0    8302.0848    22.981548    21.219766    21.502752    10486.098    8444.0672    8215.0323    8247.1548   -266.22697   -172.38837    278.26031   -5233.5943 
 3251000    94.326604   -6765.3721   -6522.7226   -6765.3721            0    7738.9503      23.0347    21.211253    21.474549    10492.354    7878.6429    8053.3378    7284.8702    -1.791043     137.6841    84.056831   -5338.5068 
 3252000    97.686125   -6764.3476    -6513.056   -6764.3476            0    8686.9227    23.045819    21.154614    21.431233     10448.27    9121.4268    8870.7167    8068.6245    445.56757   -375.00084    122.38278   -5189.3661 
 3253000    98.578348   -6775.4624   -6521.8756   -6775.4624            0    7539.5873     23.10355    21.207494    21.376163    10473.645    7417.1642    7653.4726    7548.1252   -504.70783    53.156617    442.96814   -5370.2235 
 3254000    94.101737   -6774.3763   -6532.3053   -6774.3763            0    7781.7774    23.123972    21.153601    21.421525    10478.452     7124.852    8235.8441    7984.6361    633.02331    840.35856    689.77777   -5343.1138 
 3255000    93.890755   -6768.9975   -6527.4692   -6768.9975            0    7308.3829    23.108249    21.116346    21.535648    10508.573    7046.6125    8155.6431    6722.8932    53.089169     88.32109    260.11168   -5407.4101 
 3256000    96.629605   -6760.1449   -6511.5711   -6760.1449            0    8656.3735    23.000382    21.204328    21.431793    10452.449      9725.59     8037.879    8205.6514   -1208.1559    557.19071    650.26902   -5192.0087 
 3257000    93.719331    -6771.863   -6530.7758    -6771.863            0    7369.5642    23.024358    21.272189      21.4328    10497.325    7369.6377     8081.327    6657.7281   -275.00639    -66.23089     249.3711   -5402.5492 
 3258000    96.471802   -6761.1099    -6512.942   -6761.1099            0    8279.5682    23.077058    21.132834    21.458963    10465.185    8096.3459    9156.7189    7585.6396    473.40866    284.68417    479.94918   -5249.2813 
 3259000    97.871387   -6763.5139   -6511.7457   -6763.5139            0    7394.5671    23.172626    21.200305    21.426507     10526.13    6919.9461    7635.5378    7628.2175    364.46691   -719.33264    514.99088   -5376.5849 
 3260000    96.542633    -6760.213    -6511.863    -6760.213            0    9287.0109     23.05567    21.162486     21.40622    10444.422    9659.0946    9699.5442    8502.3939   -163.74691   -330.78488    519.43422   -5097.2544 
 3261000    93.246932   -6759.8314   -6519.9593   -6759.8314            0    7982.0333    23.075659     21.18103     21.43635    10477.363    8141.6418    7229.8966    8574.5614    603.20535   -200.28709    678.72245   -5300.2919 
 3262000    97.851689   -6755.4726   -6503.7551   -6755.4726            0    8081.8336    23.099068    21.204511    21.389868    10476.853    7566.9735     8015.667    8662.8605    301.15254    702.04812    256.77876   -5268.8982 
 3263000    98.765382   -6765.5451   -6511.4772   -6765.5451            0    7891.9168    23.116135      21.2253    21.353977    10477.262     7740.088    7590.7535     8344.909    174.33253   -563.99677    1168.1757   -5305.5914 
 3264000    90.719972   -6766.2931   -6532.9215   -6766.2931            0    7560.7411    23.118707     21.13556    21.468907    10490.284     6871.524    8560.2436    7250.4556      448.411   -102.95707    673.52969   -5376.2035 
 3265000    95.647434   -6767.0321   -6520.9849   -6767.0321            0    7760.8893     23.04144     21.19094    21.483529    10489.758    8118.3968    7531.4904    7632.7807    551.77927   -450.34179    988.54474   -5333.7057 
 3266000    98.433506   -6775.6968   -6522.4826   -6775.6968            0    7435.1746    23.027757    21.195166    21.498838    10493.091     7073.408    7320.5087     7911.607      -79.391    436.43077   -73.409289   -5384.6706 
 3267000    95.003515   -6761.4285   -6517.0377   -6761.4285            0    8558.5275    23.021603     21.14886    21.453792    10445.436    9306.3399    8011.1492    8358.0934   -165.37118   -162.15519    497.31531   -5213.2661 
 3268000    93.178981   -6772.1971   -6532.4998   -6772.1971            0    8327.5098    23.163514    21.131641    21.392301    10471.169    7899.0677    8201.1277    8882.3339    -1015.834    -325.0904    627.97022   -5260.7953 
 3269000    95.458015   -6773.1959    -6527.636   -6773.1959            0     7591.551    23.131857    21.217327    21.376073    10491.295    7133.5481    7508.9437    8132.1612    562.38924   -148.90381   -159.06843   -5366.0924 
 3270000    97.793171   -6776.7738   -6525.2068   -6776.7738            0    8290.2128    23.065695    21.255284    21.333868    10459.311    7237.3227    9402.3655    8230.9503    187.29897    107.40587   -233.90603   -5260.6317 
 3271000    94.752033   -6780.1114   -6536.3675   -6780.1114            0    7883.3166     23.05962    21.234308    21.428338    10492.494    8225.8977    7811.6367    7612.4156   -658.75805    727.06635   -405.32317   -5330.0446 
 3272000    95.041905   -6762.4148   -6517.9253   -6762.4148            0    7488.5853    23.181406    21.169455     21.38525    10494.549    7050.3231    8050.0639    7365.3689   -421.57325   -847.21804   -582.09806   -5371.7806 
 3273000     94.92668    -6769.426   -6525.2329    -6769.426            0     8307.192    23.118806    21.114227    21.463736    10477.216    9267.1728     8551.728    7102.6751   -383.03537   -129.48083   -961.09703   -5255.8985 
 3274000    103.12913   -6761.4954    -6496.202   -6761.4954            0    7861.4646    23.098765    21.212399    21.416092    10493.461    8054.0237    8001.9936    7528.3765   -672.01254    475.85535   -879.83647    -5293.112 
 3275000    99.207703   -6763.3882   -6508.1824   -6763.3882            0    7879.9346    23.058181    21.230148    21.438899    10494.954      7743.08    7969.2063    7927.5174    276.75847    249.97695   -47.202452   -5302.0943 
 3276000     98.33431   -6757.0672   -6504.1082   -6757.0672            0    9107.7753    23.021909     21.21648    21.386139    10445.928    9644.9465    8858.9983     8819.381   -631.36169    64.061712   -115.77418    -5116.601 
 3277000    95.876758    -6759.732   -6513.0949    -6759.732            0    8167.4466    23.111851    21.205703    21.377423     10477.14    7415.9915    8338.2577    8748.0905   -273.82038   -19.482171     35.12096   -5265.1226 
 3278000    89.872124   -6766.4732   -6535.2827   -6766.4732            0    7480.9774    23.165752    21.184093    21.406875    10505.326     6597.374    7585.0329    8260.5253    545.42345    450.98938    623.40533   -5389.1265 
 3279000    96.371717   -6781.6929   -6533.7825   -6781.6929            0    8143.3044    23.107105    21.187351    21.403403    10478.643    7942.9996     7929.664    8557.2497    570.15573   -355.66863    642.75522   -5289.3206 
 3280000    97.932975   -6755.0809   -6503.1542   -6755.0809            0    8300.6159    22.981423    21.255355    21.411798    10459.199    8946.1528    7490.6369    8465.0578   -736.36179    325.83924   -1.2219204   -5237.0058 
 3281000    98.891293    -6767.009   -6512.6172    -6767.009            0    7707.1202     22.90796    21.262296    21.567711     10505.11    8808.9903     7503.744    6808.6263   -449.13474   -785.97807    395.79969   -5331.8381 
 3282000    98.758899   -6772.8981   -6518.8469   -6772.8981            0    7482.4108    23.113919    21.133104    21.508455    10506.211    6835.4361    7998.4643    7613.3321   -11.678605    400.19215    206.93386   -5372.3747 
 3283000    97.385299   -6766.9858    -6516.468   -6766.9858            0    8399.5829    23.172125    21.116953    21.354101    10449.089    7287.6506    8486.3062    9424.7919    408.40554   -324.43992    490.59506    -5236.462 
 3284000    94.096831    -6767.396   -6525.3376    -6767.396            0    7905.3208    23.083054    21.318034    21.285062    10474.067    7585.3647    7730.4232    8400.1746    33.922831    625.61882    389.68165    -5317.772 
 3285000     92.85381    -6769.261   -6530.4002    -6769.261            0    8051.5813    23.064242    21.281686    21.340118    10474.711    8237.8582    7907.0243    8009.8614   -455.03432   -317.83991    -76.49365   -5300.4172 
 3286000    94.422814   -6772.9906   -6530.0937   -6772.9906            0    8077.9486    23.087556    21.118622    21.499902    10482.866    8273.9478    8371.6495    7588.2486    279.39768    451.20777   -51.516579    -5295.122 
 3287000    95.569898   -6768.7862   -6522.9384   -6768.7862            0    7205.4668    23.050789    21.173639    21.560633    10523.078    7585.1771    7734.0681    6297.1553    138.51901   -663.70781    414.18426   -5417.1276 
 3288000    94.883881    -6764.358    -6520.275    -6764.358            0    8394.5648    23.051839    21.228023    21.377969    10461.201    7950.7485    8157.1011    9075.8449    349.20208   -538.87671    398.52111   -5239.5507 
 3289000    96.799899   -6765.5397   -6516.5279   -6765.5397            0    7933.4654    23.162282    21.149284    21.374522    10470.645    6854.8418    8392.3617    8553.1928    312.56203    242.51916    143.85125    -5305.059 
 3290000      92.0188   -6766.3361   -6529.6234   -6766.3361            0    7816.9509    23.167226    21.158809    21.407192    10493.611     6929.969    7758.8111    8762.0726    538.73318    510.25466    285.95331   -5333.3286 
 3291000    93.462685   -6769.7677   -6529.3407   -6769.7677            0    7984.0798    23.005421    21.197678    21.476431    10473.228    9126.0232    7942.1827    6884.0336   -993.37651   -353.63637    -258.5129    -5309.842 
 3292000    94.826449   -6771.6107   -6527.6754   -6771.6107            0    7224.7797    23.083707    21.177183    21.492001    10506.319     7578.345    7957.1511    6138.8431    490.11154   -374.50832   -693.56808   -5420.6666 
 3293000    98.395243   -6765.9276   -6512.8118   -6765.9276            0    8239.9074    23.097735    21.111718    21.454062    10461.706    8235.2323    8047.9822    8436.5077   -196.16603   -40.916158    826.68215   -5255.6224 
 3294000    97.514976   -6766.1505   -6515.2992   -6766.1505            0    8032.5931    23.071416    21.212713    21.376541    10461.836    8475.6183    7381.7235    8240.4374   -208.65572    259.99739    413.10139   -5289.7252 
 3295000     87.63127   -6769.3074   -6543.8813   -6769.3074            0     8072.642    23.067989    21.257854    21.343666     10466.42    8081.8136    7836.5274    8299.5849    249.37224    139.37133     281.6765   -5311.6571 
 3296000    95.670286   -6766.2481   -6520.1421   -6766.2481            0    7372.2086    23.239515    21.146575    21.369227     10501.61    6657.6724    7221.9082    8237.0452    14.441247   -531.58749   -29.388582   -5391.0499 
 3297000    94.693813   -6774.7912   -6531.1971   -6774.7912            0    8061.6314    23.085515     21.13403    21.470134    10475.063    7190.3273    9288.5631    7706.0037    505.29966   -187.64434   -691.66729   -5299.6374 
 3298000     97.81628   -6762.9073   -6511.2809   -6762.9073            0    8414.5909    23.001226    21.267558    21.424786    10480.575     9491.491    7507.7031    8244.5784    -1022.481   -272.20312   -271.87515   -5225.1238 
 3299000    95.783124    -6764.876   -6518.4797    -6764.876            0    6845.1822    23.099408    21.261847    21.451846    10535.776    7496.1507    6916.7216    6122.6745    156.17385    63.150318   -543.47728   -5466.6937 
 3300000     95.43506   -6759.1832   -6513.6823   -6759.1832            0    8675.5101     23.24507    21.051708    21.336179    10440.826    8286.1398     7863.239    9877.1514   -594.84289    653.18463    928.79261   -5192.6734 
 3301000     99.77315   -6766.3245   -6509.6641   -6766.3245            0    7945.4687    23.109207    21.216426    21.362782    10474.061    8047.7633    8218.4838    7570.1589     399.7724   -156.33737    109.78294   -5295.9666 
 3302000    92.629666   -6769.5855   -6531.3013   -6769.5855            0    8353.7615    22.973686    21.328194    21.388642    10480.162    8388.3587    8001.2753    8671.6506    2.9394955   -808.53886   -320.21596   -5254.4923 
 3303000    93.669837   -6774.1345   -6533.1745   -6774.1345            0     7051.463    23.050485    21.229156     21.50216    10521.917    7865.2863    6827.5539    6461.5489    490.80588   -358.43086   -558.30467   -5451.1178 
 3304000    95.474369   -6757.6562   -6512.0542   -6757.6562            0    8109.9588    23.117127    21.143322    21.430365    10474.581    7763.6543     8738.683     7827.539   -14.508626   -107.56579    -451.7724   -5273.1687 
 3305000    97.161091   -6773.4905   -6523.5495   -6773.4905            0    6518.9933    23.198979    21.227007    21.395342    10536.027    6173.7677    6652.3469    6730.8654   -871.84451   -387.20878   -28.052211   -5521.8596 
 3306000    98.162822   -6757.8468   -6505.3289   -6757.8468            0    8279.2781    23.022465    21.242412    21.418497    10474.774    9154.8895    8010.5796    7672.3652   -444.92921   -964.04005    -625.5691   -5240.5547 
 3307000    93.947751   -6760.3076   -6518.6327   -6760.3076            0    8676.4914    22.985808    21.263226    21.406145    10462.305    9534.3673    8011.6034    8483.5034   -188.25987    561.87022   -344.87426   -5194.7564 
 3308000    96.588066   -6774.4389    -6525.972   -6774.4389            0    7574.6022    23.064686    21.223951     21.45402    10502.253    7749.7574      7596.66    7377.3891     380.2933    -1025.171   -219.13397   -5365.8112 
 3309000    95.382986   -6765.8459    -6520.479   -6765.8459            0    7865.2984    23.152147    21.183423    21.370803    10481.133    7383.7874    8034.9457    8177.1621    -435.6389   -789.05983   -263.87275   -5318.2164 
 3310000    92.858384   -6777.5289   -6538.6564   -6777.5289            0    7297.1962     23.17411    21.282772    21.288517    10499.695    7316.9802    6555.3341    8019.2743    336.94338   -669.78366   -254.31556   -5421.2566 
 3311000    96.923861   -6772.3493   -6523.0186   -6772.3493            0    8391.3724    23.114701    21.239584    21.341454    10477.515    8235.9821    8339.2497    8598.8854    688.21183   -211.90776   -650.40582    -5240.785 
 3312000    94.475913   -6758.6298   -6515.5963   -6758.6298            0     8074.042    23.115483    21.205843    21.385629    10482.878    7284.5353     8465.095    8472.4956   -203.26766    508.85758    276.20784   -5281.2204 
 3313000    98.811682   -6764.6671     -6510.48   -6764.6671            0    6835.4132    23.105879    21.205078    21.482669    10525.691    6500.5303    6731.9763    7273.7328   -188.53091   -433.76747    55.143145   -5461.2004 
 3314000    95.719742    -6770.893   -6524.6598    -6770.893            0    8816.9614    23.003294    21.183567    21.458331     10456.47    9645.3935    8740.6001    8064.8907    368.02506   -846.02091   -958.01679   -5180.1007 
 3315000    89.249395   -6774.4105   -6544.8219   -6774.4105            0    6743.3145    23.094048    21.252444    21.437904     10521.83    6579.6538    6746.8148     6903.475    560.30656    366.46225     71.46192   -5510.0596 
 3316000     97.37306   -6757.4196   -6506.9333   -6757.4196            0    8807.8715    23.144657     21.23316    21.284522    10459.942    8549.9399    7995.7536    9877.9209    148.22594   -465.13786   -344.63875   -5163.3143 
 3317000    92.294134   -6773.2155   -6535.7945   -6773.2155            0    8148.2564    23.100878    21.199249    21.352747    10456.894    8411.7117    8201.5467    7831.5108   -212.98479   -162.70864     198.9606   -5293.1603 
 3318000    94.401515   -6773.3535   -6530.5114   -6773.3535            0      8471.31     23.05977    21.155925    21.460713    10469.625    9059.2618     8654.327    7700.3413   -367.90801    288.11428   -470.60639   -5237.0377 
 3319000    90.959801   -6775.9821   -6541.9935   -6775.9821            0    7602.9771    23.119936    21.186339     21.43711    10500.471    7173.9587    8072.0596    7562.9128   -208.04027    724.42909   -607.51725   -5377.6843 
 3320000    97.805037   -6775.9768   -6524.3793   -6775.9768            0    8016.1597    23.122613    21.226622    21.319094     10463.73    7739.1486    8166.7241    8142.6065    334.93199    391.02644   -120.99217   -5301.0911 
 3321000     95.55105   -6763.4489   -6517.6496   -6763.4489            0    8431.4907    23.089542    21.242099    21.345284    10469.229    8542.1129    7481.0245    9271.3345    223.34044    425.90477    534.73426   -5230.3046 
 3322000    97.150941   -6753.4964   -6503.5816   -6753.4964            0     7490.416     23.11685    21.186043    21.463516    10511.855     7272.852    7751.3836    7447.0125   -346.02042     727.1951    302.24377   -5355.2661 
 3323000    96.890047    -6783.247   -6534.0033    -6783.247            0    7813.6989    23.041489    21.098235    21.545915    10474.218      8347.88    8286.7613    6806.4555    1041.2147   -551.77945    259.66026    -5340.416 
 3324000     94.57774   -6760.1253   -6516.8298   -6760.1253            0    9023.0326    22.998176     21.18384    21.415287    10433.307    9585.4751    8922.2029    8561.4199   -400.23468    493.19311     176.1891   -5143.8935 
 3325000    93.323451    -6764.694   -6524.6251    -6764.694            0    7148.1654    23.070726    21.290053    21.379014    10500.879    7262.9637    6182.1076    7999.4248   -222.11716    162.85293    1540.3996   -5429.9225 
 3326000    98.480711   -6774.6878   -6521.3522   -6774.6878            0    8600.2978    23.142058    21.157314    21.339103    10448.133    7332.0998    8844.0701    9624.7234     491.4888     1171.005     768.0121   -5210.8792 
 3327000    95.955714   -6771.1405   -6524.3003   -6771.1405            0    8787.9762    23.130511    21.076476    21.427084    10445.911    8969.0152     8472.626    8922.2876    362.95788   -770.03043    1231.5455   -5185.5145 
 3328000     101.1462   -6771.3286   -6511.1362   -6771.3286            0    6925.1054    23.055182    21.227579    21.507815    10526.047    7612.6776    6638.9587      6523.68   -75.492087     361.5527    842.97837   -5448.0521 
 3329000    92.369508   -6767.9518   -6530.3369   -6767.9518            0    7902.8531    22.926219    21.319924    21.418581    10469.087    7469.9783    7742.7427    8495.8383    1137.4803    346.89268    558.32478   -5323.7222 
 3330000    97.365399    -6761.413   -6510.9464    -6761.413            0    7633.6091    23.113623    21.189143    21.426968    10494.026    8320.0928    7281.5388    7299.1958   -540.56344   -7.4619032    -169.3607   -5342.6637 
 3331000    91.904243   -6765.9248   -6529.5067   -6765.9248            0    7904.6687    23.236495    21.072429    21.415207    10485.943    7073.6809    8383.0037    8257.3213   -469.08128    375.27341    290.05747   -5320.6716 
 3332000    95.725001   -6772.6558   -6526.4091   -6772.6558            0    7874.3268    23.056101    21.226063      21.4096    10477.649    7119.9884    7916.6265    8586.3655    489.44739   -151.39974    515.89754   -5323.1665 
 3333000    96.438489   -6776.1003   -6528.0181   -6776.1003            0    7499.7119    22.955154    21.321945    21.463617    10505.335    7419.1476    6857.9002    8222.0881    338.92297    688.54378    582.37768   -5378.9907 
 3334000    100.47685    -6754.071   -6495.6005    -6754.071            0    8794.5627    23.096484    21.180635     21.34101    10439.984    8491.5031    8560.1843    9332.0008    167.47485   -547.23258    744.22726   -5156.5715 
 3335000    99.496265   -6784.3258   -6528.3777   -6784.3258            0    7765.3448     23.18982    21.150369    21.381737     10487.17     6894.737    8197.6779    8203.6197    40.779965   -237.06786    552.92199     -5340.71 
 3336000    95.827562   -6774.0786   -6527.5681   -6774.0786            0    8013.3095    23.014836    21.209204    21.434424    10462.707    8417.8966    8247.5111    7374.5208   -504.03169     443.5927   -279.45526   -5304.8344 
 3337000    95.800153   -6780.1689   -6533.7288   -6780.1689            0     7754.398    22.935609    21.260291    21.516544    10491.848     8434.059    6740.9391    8088.1959    1236.0694   -97.600715    406.86097   -5347.2063 
 3338000    96.427803   -6771.1449   -6523.0902   -6771.1449            0    8087.0808    23.114402    21.165721    21.436552    10487.469    7682.2379    8282.4592    8296.5452    133.54553    419.54102    355.80843   -5286.1795 
 3339000    90.864105   -6774.9465   -6541.2041   -6774.9465            0    7488.3154    23.221653    21.184205    21.297067    10476.714    6275.8011    7883.5861    8305.5588   -273.78021    -163.6579   -523.57209   -5397.0484 
 3340000    95.866642   -6772.1545   -6525.5434   -6772.1545            0    8626.6203    23.105484    21.215191    21.323033     10452.28    8828.0641    8015.2321    9036.5647   -637.76076    716.23986   -432.98731   -5210.5379 
 3341000    95.587809   -6782.7026   -6536.8088   -6782.7026            0    6627.7971    23.057143    21.269657    21.449194     10519.06    6483.8439     7022.208    6377.3394   -52.085081     755.5622   -476.63879   -5520.0404 
 3342000    93.407188   -6757.4578   -6517.1735   -6757.4578            0    8840.5297    23.010254    21.187975    21.437028    10451.424     8402.983    9350.7741    8767.8321   -478.42558    501.08117    497.38994   -5169.6708 
 3343000    95.755239   -6773.2471   -6526.9226   -6773.2471            0    7573.3329    23.183699    21.126944    21.415764    10489.457    6499.2581    8253.6447    7967.0959    345.51749    388.83674   -2.6167068   -5368.3695 
 3344000    94.280861   -6758.6989   -6516.1672   -6758.6989            0    8030.1457    23.141823    21.130281    21.404477    10466.644     8398.642    8244.7268    7447.0683    117.00222    304.56406   -494.83754   -5290.4034 
 3345000    92.190938   -6776.5553   -6539.3997   -6776.5553            0    8134.6563    22.890787    21.368288    21.427245    10480.857    9159.0236    6604.0782     8640.867   -242.48595   -227.27448    663.71604   -5295.9968 
 3346000    96.550697   -6765.8583   -6517.4875   -6765.8583            0     6746.315    23.078644    21.234861    21.494399    10533.799     6855.835    6674.2684    6708.8417    267.74197    263.73307    326.54516   -5481.0872 
 3347000    95.609614   -6769.3098   -6523.3599   -6769.3098            0    8575.4116     23.13809    21.084513    21.461095     10469.91    8250.6865    9605.8991    7869.6492    364.66834   -372.12985   -652.86797   -5213.9555 
 3348000    91.702163   -6778.7447   -6542.8465   -6778.7447            0    6762.3435    23.133311    21.224906    21.431442    10522.888     6253.221    6821.5206    7212.2889    179.70186   -695.31373    216.52743   -5505.0598 
 3349000    97.503312   -6773.1716   -6522.3503   -6773.1716            0    8026.8226    22.982839    21.376419    21.331472    10479.956    8152.3844    7088.5832    8839.5002    317.76863   -53.287938     151.6556   -5295.5355 
 3350000    93.725061    -6769.862     -6528.76    -6769.862            0    8779.1527    23.076826    21.241564    21.336479    10458.883    9749.3938    8030.7001    8557.3642    111.42623   -1060.7483   -349.42577   -5189.6575 
 3351000    93.111185   -6773.0897   -6533.5668   -6773.0897            0    8556.8178    23.174014    21.119103    21.383128    10465.211    7918.4317     8565.086    9186.9357   -594.12556   -76.763717    198.93058   -5227.5879 
 3352000     95.74952   -6771.5671   -6525.2573   -6771.5671            0    7855.9102    23.028294    21.211299    21.467289    10485.913    8019.1194    8099.9988    7448.6124   -634.96071    78.691129    246.91883   -5323.8821 
 3353000    93.914034    -6756.376   -6514.7879    -6756.376            0    7497.4721    23.010353     21.26598    21.476498     10509.26     7395.634    7685.2046    7411.5776   -27.651143   -305.90909   -316.90131   -5365.6745 
 3354000     98.38305   -6774.4309   -6521.3465   -6774.4309            0    7825.8402    23.138437    21.116808    21.456808     10484.01     7734.667     7932.988    7809.8656    596.52552   -412.73455   -252.14851    -5324.787 
 3355000    94.935391   -6761.0323   -6516.8168   -6761.0323            0    7867.2482    23.133295    21.161417    21.435398    10493.341     7280.326    8634.6997    7686.7188   -509.77352   -185.98488   -58.923857   -5312.8555 
 3356000    92.254492   -6772.3741   -6535.0551   -6772.3741            0    6994.7103    23.116262     21.16486    21.507615    10522.653    6529.4235    7255.4055    7199.3019    522.78624   -474.94654    719.78595   -5461.6321 
 3357000    90.930449   -6759.8155   -6525.9025   -6759.8155            0    8208.5794    23.042998    21.203436    21.429417    10470.215    8726.3988    8411.4268    7487.9126    475.70164    6.1361384    328.00601   -5272.4742 
 3358000    89.649283    -6756.986   -6526.3686    -6756.986            0    8011.2045    23.023506    21.262657     21.41271    10482.398    8819.9372    7089.4075    8124.2688   -59.295317     779.6402   -377.42207   -5301.6556 
 3359000    88.029031   -6759.0057   -6532.5563   -6759.0057            0    8248.0772    23.116297    21.188397    21.405016    10484.119    8140.2176    8069.2872    8534.7268    2.7754313   -454.20626    1225.4525   -5271.4244 
 3360000    94.419461   -6775.2459   -6532.3576   -6775.2459            0    7781.9895    23.132502    21.187377    21.404899    10490.906    8091.8584    7120.3332    8133.7768   -948.92401   -438.80495   -621.49283   -5341.7202 
 3361000    94.637835   -6766.0834   -6522.6333   -6766.0834            0    7528.7221    23.045123     21.21586    21.478791    10501.455    7300.3755    8406.8927    6878.8981     1370.248   -787.29567   -466.05915   -5369.5873 
 3362000    96.732875   -6773.9811   -6525.1417   -6773.9811            0    7065.4715    23.026967    21.213119     21.53722    10520.367    7658.9883    7348.6545    6188.7718   -781.91609    -83.12218    -228.5526   -5441.0951 
 3363000    97.395099   -6767.2258   -6516.6829   -6767.2258            0    8441.5193    23.006681    21.212948    21.425905    10456.689    9409.5462    8128.0074    7787.0043    56.871074   -1008.8541    311.71438   -5229.3505 
 3364000    94.604442   -6761.3512    -6517.987   -6761.3512            0    7523.8347    23.179661    21.181665    21.387499    10500.916    7296.7694    8154.9325    7119.8022    368.18135    323.88218   -227.70146   -5365.7486 
 3365000     98.63066   -6774.3387   -6520.6173   -6774.3387            0    7691.6927    23.098821    21.268718    21.363366    10495.444    8116.8428     6614.954    8343.2814   -328.38457    176.80712    289.18196   -5343.2862 
 3366000     93.81497      -6780.8   -6539.4667      -6780.8            0    8227.5775    23.063706    21.230395    21.416925    10486.831    7393.7816    8934.5216    8354.4294    1403.4654   -387.14566   -737.28083   -5281.1437 
 3367000      89.0835   -6777.1578   -6547.9959   -6777.1578            0    7820.1413     23.09666    21.236625    21.385545    10489.505    8022.0012    7370.8341    8067.5885   -93.987772   -255.76201   -220.42239    -5351.681 
 3368000    92.545608   -6771.2033   -6533.1354   -6771.2033            0    8076.5228    23.096156    21.244747     21.37691    10489.051    7546.5858    8461.9437    8221.0389    186.47636    435.64331   -507.78841   -5297.6532 
 3369000    96.652356   -6778.5302   -6529.8979   -6778.5302            0     7827.839    23.078744    21.243389    21.412978    10498.156    8176.2985    7917.6341    7389.5845   -312.13558   -243.93749   -419.87369   -5331.4178 
 3370000    91.841505   -6762.8076    -6526.551   -6762.8076            0    7989.8478    23.165146     21.10449    21.451547    10487.417    7622.5497     7921.734    8425.2597    61.094304   -109.15278   -141.09306   -5304.5179 
 3371000    95.082353   -6774.3473   -6529.7538   -6774.3473            0    7519.8644    23.131454    21.156228    21.451671    10497.897    7144.6695    7831.1523    7583.7712    397.03047     100.3407    326.01365   -5378.4546 
 3372000    100.75965   -6768.3739   -6509.1758   -6768.3739            0     7714.162    23.045886    21.302717     21.34518    10479.202    7431.1686    7206.1044    8505.2129   -156.33011    1010.4675    784.67118   -5330.2327 
 3373000    90.318191   -6757.6406   -6525.3026   -6757.6406            0    8041.6776    23.011854    21.266565    21.408325    10476.873    7948.6485    7985.9975    8190.3867    1225.1256    240.27971     1199.892    -5296.579 
 3374000    94.045076   -6764.0513    -6522.126   -6764.0513            0    7204.6425    23.078437    21.183612    21.525799    10523.633     7775.469    6922.9319    6915.5266   -92.047081     358.5884    73.484358   -5416.3835 
 3375000    97.203077   -6764.9645   -6514.9155   -6764.9645            0     7908.166    22.998953    21.140824    21.554478    10480.149    8745.6013    8501.5462    6477.3504    127.50845   -940.10991   -175.37555   -5306.2138 
 3376000    98.107778   -6775.6204   -6523.2441   -6775.6204            0    7997.5115    23.027953    21.215265    21.417244    10463.269    7713.8384    8567.3398    7711.3565   -611.87631   -458.03376   -376.99182   -5302.8555 
 3377000    94.671176   -6772.8863   -6529.3505   -6772.8863            0    7179.3842    23.160288    21.199299     21.39007    10502.137    7099.1431    6453.3006    7985.7089   -121.69728    417.03662    677.36024   -5429.7353 
 3378000    91.087504   -6758.4659   -6524.1488   -6758.4659            0    8239.4024    23.156211    21.176221    21.346957    10467.716    8670.2323    7616.4807    8431.4942    -15.94851   -604.87534    317.25093   -5266.3142 
 3379000    98.707371   -6766.0154   -6512.0967   -6766.0154            0    6925.5547    23.074311    21.273951     21.43639    10522.733    7258.5879    6342.7788    7175.2975   -3.4451493    217.46052    305.95731   -5449.2785 
 3380000    92.467505   -6778.3132   -6540.4462   -6778.3132            0    8803.8422    22.933039     21.16277    21.555678    10461.544    10205.337    9377.2925    6828.8974   -141.98457   -331.22345   -965.13472   -5197.2362 
 3381000    92.270785   -6774.9225   -6537.5615   -6774.9225            0    7516.6204    23.070737     21.14744    21.503939    10491.493    7600.5666    8211.0351    6738.2595    435.78178    560.41202   -520.33641    -5387.461 
 3382000    96.513987   -6760.9107   -6512.6344   -6760.9107            0    7862.4109    23.129625    21.251877     21.34954    10494.323    7748.5334    7499.7005    8338.9988   -160.49596    168.29784     308.5465   -5309.3008 
 3383000    97.644744   -6768.4883   -6517.3031   -6768.4883            0    7666.2493    23.186015    21.276341     21.25695    10486.341    7520.5121     7764.828    7713.4076   -851.33286    394.92968   -379.80407   -5344.8842 
 3384000    91.867763   -6773.0389   -6536.7147   -6773.0389            0    7900.5399    23.118158    21.282634    21.327487     10493.45    7518.6447    7902.1299     8280.845   -103.90911     473.8396   -977.08267   -5327.6461 
 3385000    91.948152   -6777.4555   -6540.9245   -6777.4555            0     7409.785    23.138388    21.205329     21.42514    10512.398    7165.6348     6554.441    8509.2791    102.81729    173.97089    235.85675   -5404.9115 
 3386000    99.568591   -6765.8244   -6509.6903   -6765.8244            0    8713.8227     23.13537    21.160779    21.374041    10463.928    8120.0492    8501.6473    9519.7716   -152.58726    791.06633   -111.67474   -5179.9116 
 3387000    92.298564   -6765.7616   -6528.3292   -6765.7616            0     6937.399    23.157507    21.324284    21.290421    10513.577    6379.1166    6555.1787    7877.9016   -124.67447    5.0693913    -375.8752   -5464.6196 
 3388000     91.50831   -6772.1947   -6536.7951   -6772.1947            0    7691.9472    23.088909    21.316398    21.312399    10489.374    7552.8232    7461.4502    8061.5681    534.27163   -132.81638    106.25826    -5360.106 
 3389000    94.807777   -6775.7699   -6531.8827   -6775.7699            0    7935.3601    23.093172    21.213875    21.432462    10499.671     7663.658    8688.4742     7453.948    246.26023   -520.80336   -325.64192   -5316.7654 
 3390000    97.839958   -6778.3104   -6526.6231   -6778.3104            0    7734.4791    23.140954    21.145444    21.447816    10494.969    6890.3231    8691.4824    7621.6318    50.269938   -3.0327683    121.55201   -5342.7964 
 3391000    91.685833   -6769.0772    -6533.221   -6769.0772            0    7631.2591    23.088644    21.266054    21.381494    10498.406    7588.7222    7739.8124    7565.2427    385.83813   -8.3084017   -585.86106   -5364.8105 
 3392000    98.594721   -6777.9762   -6524.3473   -6777.9762            0    7754.5953    23.001955    21.313798    21.391731    10487.489    8002.0971    7203.5041    8058.1848    646.35363    80.952497    37.817617   -5338.2876 
 3393000    91.522782   -6757.9441   -6522.5074   -6757.9441            0    8241.1293    23.131056    21.202605    21.376979    10484.097    7778.6506     8397.991    8546.7464     502.5719   -420.41526   -505.99815   -5262.4404 
 3394000     95.94302   -6769.9723   -6523.1647   -6769.9723            0    7918.2891    23.235767    20.995854    21.463908     10471.27    7239.1635    9051.5233    7464.1806    251.42499   -569.01714   -267.16916   -5313.9412 
 3395000    100.52306   -6772.5813   -6513.9919   -6772.5813            0    7362.6688    22.998068    21.299221     21.46246    10513.191    8145.4928    6754.1269    7188.3867   -191.69265   -13.393737   -97.050753   -5385.1172 
 3396000    94.145838   -6769.5076   -6527.3231   -6769.5076            0    8331.5041    22.985933    21.272334    21.409324    10468.398    8744.6467    7933.7001    8316.1656    32.610126    407.59492    149.15587   -5255.3454 
 3397000    92.535123   -6772.3961   -6534.3552   -6772.3961            0    8073.3165    23.156166    21.073759    21.444218     10464.51    8404.1929    8125.4756    7690.2809   -662.56438    339.19626    392.18533   -5302.2529 
 3398000    90.634139   -6764.9667   -6531.8159   -6764.9667            0    7963.9725    23.168542    21.049123    21.486705    10478.583    7754.1586     7464.058    8673.7009    152.75252   -315.17011    806.61077   -5314.7665 
 3399000    98.149145   -6769.0229   -6516.5402   -6769.0229            0     7122.269    23.035993    21.288656    21.446075     10517.27    7443.5881    7078.7305    6844.4885    184.16271   -77.606028     385.8819    -5424.101 
 3400000    91.306336   -6757.8942   -6523.0142   -6757.8942            0    9294.9167    22.927688    21.287639    21.359032    10424.838    9419.8507    9270.2635    9194.6358    211.90931    390.61784   -65.982939   -5109.8563 
 3401000    98.811339   -6770.8377   -6516.6516   -6770.8377            0    6713.6599    23.173518    21.143134     21.48028    10524.495    6419.3864    6906.0658    6815.5273   -644.56198   -253.73967    883.81834   -5486.1789 
 3402000    91.357245   -6769.0777   -6534.0667   -6769.0777            0    8373.9874    23.044297    21.110186     21.51409    10465.946    9225.3165    8456.0839    7440.5618    975.63719   -310.31642    763.73451   -5255.9024 
 3403000    95.907658   -6753.9341   -6507.2175   -6753.9341            0    8206.4928    23.050029    21.186779    21.442535    10471.588    8326.7696    8421.7252    7870.9836    463.25991   -111.19758    520.65527   -5253.9435 
 3404000    92.348384   -6760.8942   -6523.3336   -6760.8942            0    7836.6389    23.085442     21.27099    21.328525    10473.377     7805.652    7098.4769    8605.7879   -98.225248    350.68826    476.64453   -5326.3383 
 3405000    90.919081   -6768.5636   -6534.6798   -6768.5636            0    8084.5224    23.103071    21.194259    21.385366    10471.397    7661.7501    8719.1228    7872.6942    562.85989    -222.3988    598.75261   -5300.0553 
 3406000     93.54858   -6785.0036   -6544.3556   -6785.0036            0    7769.7811    23.129408    21.060057    21.504791    10475.127    7596.7178    8061.9992    7650.6265   -162.00977   -166.54849    97.102599   -5357.3741 
 3407000    90.584732   -6766.1519   -6533.1282   -6766.1519            0    8059.9958    23.057481     21.17648     21.51148    10503.546    7310.3927     8518.181    8351.4136     101.6158    109.56499   -89.113319   -5298.4703 
 3408000    99.466668   -6783.9735   -6528.1016   -6783.9735            0    8326.5929    22.983256    21.278006    21.386764    10458.937     9007.199    8147.5769    7825.0029   -111.22471   -581.90553   -392.95081   -5258.0225 
 3409000    94.746366   -6765.3629   -6521.6336   -6765.3629            0    8051.8251     23.11758     21.22252    21.370843     10484.82    8029.9889    7729.1127    8396.3736    673.68371    376.07118     -283.512   -5290.4263 
 3410000    94.610251   -6772.1785   -6528.7994   -6772.1785            0     7863.508     23.25469    21.127373    21.338849    10484.001    7064.7308    7749.5604     8776.233    764.52944   -320.34249    263.73828   -5326.4816 
 3411000    91.648624   -6770.8102   -6535.0497   -6770.8102            0    7894.7469    23.095149    21.193034    21.400517    10474.618    8253.6224     7540.803    7889.8152   -322.92671   -1235.5377    256.93119   -5329.0359 
 3412000    95.438996   -6772.1041   -6526.5931   -6772.1041            0    7705.1548    23.023591    21.284646    21.429318    10501.416    7283.3919    8198.1935     7633.879    326.70617    615.70857   -330.60166   -5346.5303 
 3413000     92.16219   -6761.1299   -6524.0483   -6761.1299            0    7664.0623    23.015247    21.285471    21.393813    10480.623    9323.0218    6178.1274    7491.0378    420.13367   -887.15189   -370.92522    -5352.603 
 3414000    91.646124   -6770.0596   -6534.3055   -6770.0596            0    7928.5701    23.190303    21.169483    21.381391    10496.696    6927.6685    8987.2237     7870.818   -818.66189    143.31221   -824.19034   -5320.5719 
 3415000    92.854917   -6764.6627   -6525.7991   -6764.6627            0    7998.5903    23.147428    21.181912    21.400801    10492.958    7870.0035     7666.398    8459.3694    164.55842   -294.15072    300.32098   -5301.7826 
 3416000    97.178211    -6759.741   -6509.7559    -6759.741            0    8680.4555    23.011639    21.262887    21.371616        10457    9019.6436    8172.2855    8849.4375    -86.79269    525.27783    212.12059   -5185.9463 
 3417000    96.487868   -6776.0502   -6527.8411   -6776.0502            0    7137.3366    22.954702    21.326522    21.466759    10508.922    8032.1746    6583.5762    6796.2588    660.83875   -392.80471    -128.2071   -5433.9597 
 3418000     97.68971   -6765.5855   -6514.2847   -6765.5855            0    7806.5831    23.051662    21.255235    21.411923    10491.168    8004.5504    7233.8715    8181.3273   -263.97485    -110.0693    580.16635   -5319.8547 
 3419000    101.94727   -6763.3935   -6501.1403   -6763.3935            0    7964.3792    23.170464    21.205781    21.314927    10473.042    7320.4454     7984.532    8588.1603   -67.685442   -70.805034     356.9027   -5284.6724 
 3420000    93.263904   -6762.6301   -6522.7144   -6762.6301            0    8305.5207     23.20792    21.165961    21.291222     10458.63    7012.5904    9135.3327    8768.6391   -143.14818    932.75986   -259.25931   -5255.8867 
 3421000    98.694551   -6781.7473   -6527.8616   -6781.7473            0    7504.3979    23.097022    21.225343    21.414889    10498.483     7603.248    7216.1372    7693.8086    209.91291   -102.97838    30.655439   -5378.8662 
 3422000    95.587814    -6767.633   -6521.7392    -6767.633            0    8335.6259      22.9281    21.267874    21.511599    10489.743    10065.241    7856.4932     7085.143   -123.20779   -796.64029    42.653695   -5246.5374 
 3423000    93.742375   -6769.1589   -6528.0124   -6769.1589            0    8351.1731    23.051744    21.120475    21.495398    10465.331    8400.0526    9039.6356     7613.831   -51.792626   -23.307218   -66.180122   -5253.4053 
 3424000    93.456971   -6775.2797   -6534.8673   -6775.2797            0     8078.269    23.172548    21.098171    21.443101    10483.498    7605.2508     8375.776    8253.7801    883.06823    138.06878   -218.78501   -5299.7722 
 3425000    95.797589   -6767.0823   -6520.6489   -6767.0823            0    8124.0418    23.090334    21.242227     21.36345    10478.561    7167.0103    8803.5267    8401.5885    603.84665    525.69848    31.675038   -5279.1404 
 3426000    93.779801   -6773.4884   -6532.2456   -6773.4884            0    8233.5182    23.017692    21.279655    21.353211    10458.985    8556.5003    8196.3838    7947.6705   -109.91237   -550.08227   -446.21669   -5276.3577 
 3427000    96.823917   -6754.7239   -6505.6502   -6754.7239            0    8535.0908    23.105439    21.117245    21.471385    10476.387    7848.5587    8984.5348     8772.179    1060.2768   -24.634427    322.50767   -5201.5962 
 3428000     95.70479   -6766.0987    -6519.904   -6766.0987            0    7905.0878    23.143217    21.122849    21.449336    10485.522    7635.9907    8516.1913    7563.0814   -479.09133    147.34704    410.71506   -5311.0534 
 3429000    96.436698   -6764.7731   -6516.6956   -6764.7731            0    8912.6319    23.046021    21.221042    21.332256    10432.765    9078.4316    8820.1355    8839.3287    1327.3455   -84.205838   -279.62128   -5160.6281 
 3430000    95.818757   -6768.4944   -6522.0065   -6768.4944            0    7054.2196    23.041652    21.246442    21.472946    10512.147    7167.0994    7320.1164     6675.443   -365.79931     1011.759   -393.38938    -5440.532 
 3431000     96.71774   -6771.8818   -6523.0813   -6771.8818            0    8464.7417    23.048789    21.168324    21.438261    10459.818    8366.4321    8903.8565    8123.9366    525.21236   -719.78611    5.9280545   -5231.8212 
 3432000    96.180049   -6764.3746   -6516.9572   -6764.3746            0     7782.074    23.130727    21.138413    21.462668    10494.104      7371.74    8416.6622    7557.8197   -581.57849    239.48424   -86.035953   -5325.9439 
 3433000    91.335671   -6768.2703   -6533.3149   -6768.2703            0    8328.4047    23.088178    21.191972    21.406918    10474.063    8335.0639    8138.6106    8511.5396   -35.770241   -146.41984   -187.09711   -5261.1222 
 3434000    94.492421   -6774.8583   -6531.7823   -6774.8583            0    8291.5343    22.986335     21.32172    21.349347     10463.49    8926.9482    7598.7632    8348.8914   -292.72225    438.76245    3.9007141   -5266.5002 
 3435000    93.273465   -6755.0897   -6515.1494   -6755.0897            0    8282.7316    23.121955    21.186706    21.375588    10471.432    7691.1641    8678.4346    8478.5963    453.48928    -666.8859   -122.35519   -5250.2513 
 3436000    97.534896   -6765.8748   -6514.9722   -6765.8748            0    7822.6803     23.22465    21.041776    21.474735    10494.443    7028.9475    8585.5356    7853.5578    66.079163   -424.82388    122.77932   -5317.7056 
 3437000    94.999748   -6778.8745   -6534.4934   -6778.8745            0    8543.9555    23.090504    21.212329    21.349523    10457.068    7901.1853    8869.5329    8861.1484   -525.11697    632.23731    302.84053   -5231.4922 
 3438000     96.91392   -6760.4429   -6511.1377   -6760.4429            0    7844.6125    23.016853    21.302616    21.392863    10489.331     8842.661    7156.5036    7534.6728    122.35537   -167.27616   -160.21492   -5311.0992 
 3439000    89.741694   -6770.3173   -6539.4622   -6770.3173            0    7958.5755    22.964084    21.317476    21.419529    10485.637    7990.5261    7702.8811    8182.3194   -4.2080474    383.81839   -42.960447   -5322.4189 
 3440000    96.080041    -6752.024    -6504.864    -6752.024            0    7674.7588    23.228482     21.08953    21.426029    10496.135    6616.5401    8748.9792    7658.7572   -532.81454   -380.81944   -14.036163   -5330.0475 
 3441000    96.336646   -6761.3839   -6513.5637   -6761.3839            0    7857.4388    23.121958    21.160208    21.432162    10486.016    8341.8971    7755.4022     7475.017   -98.884509    122.94395   -14.801506    -5311.943 
 3442000     95.64997   -6766.7911   -6520.7374   -6766.7911            0    7432.1698    22.928651    21.397523    21.399483    10498.936    8207.7849     6877.758    7210.9666   -3.4827822   -402.15623   -31.949145   -5382.7518 
 3443000     94.55304   -6771.6619     -6528.43   -6771.6619            0    8153.3652    23.099056    21.245066    21.324575    10464.843    8414.6773    8284.7808    7760.6376   -5.0239547   -354.96554   -323.13543   -5284.0716 
 3444000    94.860967   -6766.1882   -6522.1641   -6766.1882            0    8050.5081    23.241395    21.062713    21.418335    10484.849    7137.9445    9361.9007    7651.6792   -404.78023    141.57372   -720.11705   -5291.1547 
 3445000    97.932772   -6771.1267   -6519.2006   -6771.1267            0    7577.5506    23.122597    21.210962    21.412635    10501.881    7109.9951    8110.2673    7512.3894   -23.835406   -5.8906345    228.99688   -5358.6294 
 3446000    100.16127   -6784.5492   -6526.8905   -6784.5492            0      7887.45    22.888289    21.370993    21.386659    10461.187    8333.8549    7178.5209    8149.9743    -636.2328    447.50004   -17.717869   -5323.5363 
 3447000    93.660302   -6759.0952   -6518.1598   -6759.0952            0    8062.2688    23.097414    21.159691    21.427977    10472.584    6868.6712    8275.1646    9042.9705    1084.6052    275.76409    283.86513   -5286.7942 
 3448000    91.117859    -6754.415   -6520.0198    -6754.415            0    7280.0839    23.252074    20.997681    21.532319    10512.931    7277.4372    7595.3766    6967.4377    99.698597   -777.92057     592.0679    -5403.835 
 3449000    97.620469   -6768.1297    -6517.007   -6768.1297            0    7595.7236    23.036279    21.214124    21.466247    10490.437     7031.814    7827.1401    7928.2166    19.359456    496.73132   -96.213831   -5354.9201 
 3450000    92.847787   -6770.9544   -6532.1091   -6770.9544            0     7668.891    22.978048    21.288163     21.42584    10480.673    8273.3629    7687.9997    7045.3104    176.19056    394.31684    -272.8444   -5359.9201 
 3451000    99.258239    -6771.791   -6516.4552    -6771.791            0    8775.3028    23.087224    21.145902    21.398244    10446.627    8998.5048     8662.201    8665.2027    418.33149    309.17028    483.71356   -5179.5086 
 3452000    95.675498   -6766.3732   -6520.2538   -6766.3732            0    8452.2731    23.148253    21.099342    21.396814    10450.481    8320.0533     9019.332    8017.4339     60.16086   -240.69155    983.51855   -5232.0468 
 3453000    92.691268   -6784.1273   -6545.6847   -6784.1273            0    7323.7048    23.104819    21.159949    21.464276    10493.816    7253.7496    7514.1935    7203.1713    -252.3422    571.64514    246.92718   -5424.8536 
 3454000    94.259095   -6769.9268    -6527.451   -6769.9268            0     8101.145     22.99514    21.238239    21.440589    10471.075    8179.7951    8256.2094    7867.4304   -47.902977    987.38567     415.6318   -5290.3261 
 3455000    96.076735   -6777.3347   -6530.1832   -6777.3347            0    8356.3461    22.965021    21.203243    21.494496    10466.377    8324.6341     8568.875    8175.5292    75.542828    162.80535    1085.2966    -5254.659 
 3456000    93.078529   -6778.1976   -6538.7587   -6778.1976            0    7679.5098    23.140616     21.06934    21.499676    10482.328    7769.2262    7977.9503    7291.3531   -268.58534    -738.5499   -40.974519   -5364.7613 
 3457000     94.44548   -6776.3635   -6533.4083   -6776.3635            0    7926.0089    23.104193    21.171406    21.401879    10468.692    8649.9976     7223.344    7904.6852    -806.3192   -298.49334    212.37595   -5323.3038 
 3458000    99.965071   -6779.3552   -6522.2012   -6779.3552            0    7830.5333    23.125182    21.295088    21.285164    10481.939    6832.4736    7738.7315    8920.3947     736.7071     490.2066    699.86991   -5325.1607 
 3459000    96.720753    -6766.884   -6518.0758    -6766.884            0    6969.2812    23.073816    21.298368    21.396822    10515.139     7480.094    6189.9662    7237.7835    -359.8501   -292.51712    201.17336    -5449.319 
 3460000    95.848474   -6770.4738   -6523.9095   -6770.4738            0    8534.5547    23.114132     21.13616    21.395693    10452.738    8414.3549    9560.1055    7629.2036   -19.114128    52.849393   -548.18578    -5222.881 
 3461000    91.540674   -6753.3918    -6517.909   -6753.3918            0    7552.2007    23.113237    21.143703    21.509027    10511.449    7633.1321    7922.3193    7101.1509   -1144.2484    1361.7274    84.962584   -5360.1664 
 3462000    93.299507   -6772.4951   -6532.4878   -6772.4951            0    7632.6277    23.077121    21.240317    21.399624    10489.355    7528.1638    7671.8697    7697.8497    312.05863   -431.45565    295.60937   -5364.8752 
 3463000    92.677012   -6766.1454   -6527.7394   -6766.1454            0     8037.341    23.060469    21.276753    21.350523    10475.675    8146.1379    7207.3819    8758.5031   -27.611365    48.729043    -296.6163   -5299.8188 
 3464000     95.86652    -6769.404   -6522.7933    -6769.404            0    8122.5052    23.129028    21.169176    21.379156    10467.715    8763.4258     6886.529    8717.5609   -242.13184   -330.93091    521.45776   -5282.8045 
 3465000    88.661982   -6770.8293   -6542.7518   -6770.8293            0    7164.0658    23.196523    21.112468    21.483155    10521.071    7021.7915    7732.0051    6738.4008   -952.66368    498.23907   -175.17669   -5443.5045 
 3466000     91.97968   -6760.8943   -6524.2822   -6760.8943            0    8809.6921    23.022712    21.203515    21.405652    10449.435    8851.7139    8299.5261    9277.8362    671.54123   -523.85727    476.09324   -5181.7354 
 3467000    93.038453   -6762.1706   -6522.8348   -6762.1706            0     8469.191    22.948877    21.370246    21.342068    10466.644    9995.0399    6959.5885    8452.9446    70.143574     -296.272    82.491928   -5230.0529 
 3468000    99.479272   -6776.7183   -6520.8139   -6776.7183            0    7296.1557    23.147151    21.204773    21.422148    10514.635    6516.0933    7316.3441    8056.0296   -594.95014    -19.66655    612.32323   -5401.9837 
 3469000    95.432416   -6771.6915   -6526.1974   -6771.6915            0    8193.0249    23.197363     21.13033    21.386236    10482.847    7811.1832    8434.1417    8333.7499    366.71914    18.070396   -348.93571   -5273.6349 
 3470000    91.104978   -6771.9257   -6537.5637   -6771.9257            0    8511.3413    23.038979    21.259166    21.357455    10460.657    8213.2381    8899.4066    8421.3793   -234.90211    192.64676    -164.4574   -5239.0909 
 3471000    96.765448   -6782.2311   -6533.3079   -6782.2311            0    7311.8206     23.02349    21.330663    21.365614    10492.787    6495.3153    7849.9382    7590.2084    725.70601    439.40225    49.082228   -5414.4052 
 3472000    94.110998   -6774.8555   -6532.7607   -6774.8555            0    8126.6848    23.102554    21.122228    21.456911    10470.488    8229.0687    8214.2934    7936.6923   -578.85466    160.98097   -463.63754   -5291.8051 
 3473000    91.794591   -6770.8299   -6534.6939   -6770.8299            0    8040.7097    23.167509    21.148584    21.420378    10495.128    8308.9835    8003.0829    7810.0626    1154.8546   -962.51568    411.71516   -5303.9774 
 3474000    97.794087   -6763.9743    -6512.405   -6763.9743            0    8100.0865    22.994088    21.291945     21.40873    10481.476    9102.6846    7780.4462    7417.1287   -1139.6738    275.63041   -859.51009    -5274.213 
 3475000    94.785805   -6771.5753   -6527.7446   -6771.5753            0    8039.6495    23.020902    21.317683    21.332048    10468.751    8543.5962    7373.7644    8201.5878   -995.51312     390.7289     165.0269   -5300.2831 
 3476000    96.414782   -6775.8767   -6527.8555   -6775.8767            0    7671.4226    23.187256    21.167973    21.360128    10484.132    6760.3576    8134.1477    8119.7625   -79.112436    495.51095    190.53665   -5354.8926 
 3477000    99.314117   -6762.8982   -6507.4187   -6762.8982            0    7637.6557    23.123907    21.150272      21.4722    10501.558    7605.4143    7875.6742    7431.8787    129.17163   -437.07772    165.17934   -5337.6778 
 3478000    98.884425   -6763.1793   -6508.8052   -6763.1793            0    7712.3928    22.880343    21.338974    21.509245    10501.739     7928.863    7692.0634    7516.2519    991.44351    -500.2926    267.29738   -5327.5975 
 3479000    95.331754    -6761.308   -6516.0728    -6761.308            0    8418.8788    22.997637    21.259406    21.411209    10468.285    8559.6438    8021.0228    8675.9698    211.00709    12.703572    12.099601   -5230.7694 
 3480000    101.11186   -6770.3056   -6510.2015   -6770.3056            0    7753.0557    23.151764    21.173159    21.387832    10484.229    8354.3549     6511.641     8393.171   -1169.6766    126.03323   -273.34867   -5324.7459 
 3481000     98.16065    -6762.139   -6509.6267    -6762.139            0    7861.4649    23.243832    21.010898    21.447575    10474.433    7046.7459    8812.9296    7724.7192   -318.83713   -37.051108   -126.00202   -5308.7182 
 3482000    95.278283    -6761.894   -6516.7964    -6761.894            0    8744.0758    22.977443    21.312719    21.355598    10458.088    9030.8145    8012.4091    9189.0038   -479.11047   -279.19932    359.80482   -5183.1457 
 3483000    91.277364   -6765.1285    -6530.323   -6765.1285            0    7516.7918    23.037536    21.338915    21.343753    10492.504    8152.6111    5982.7092    8415.0551   -189.95359    -800.0853    84.627669   -5380.0854 
 3484000    96.424213   -6770.8208   -6522.7754   -6770.8208            0    8875.7366    23.089972    21.164048     21.38682    10451.253    9285.0297    8764.4172    8577.7628   -58.521854    32.453856    8.8784949   -5169.9285 
 3485000    95.896665   -6775.1728   -6528.4845   -6775.1728            0    7633.9156    23.148674    21.077045    21.509522    10494.617    7196.6875    8127.3648    7577.6945   -412.13655    537.27019    301.72305   -5360.0891 
 3486000    92.997335   -6769.2941   -6530.0641   -6769.2941            0    7501.9608    22.973636    21.316683    21.455997    10507.468    8505.6435    7215.2205    6785.0183   -299.81325    51.339687   -372.91354   -5380.4589 
 3487000    92.338358   -6771.5965   -6534.0617   -6771.5965            0    7696.1988    23.050965    21.232328    21.432187    10489.462    8769.2033    7707.1917    6612.2014   -282.76314    -653.0902   -358.69182   -5356.7123 
 3488000    96.823453     -6760.84   -6511.7675     -6760.84            0    7890.0276    23.243796    21.098826    21.386082    10488.094    6922.0167    7909.7354    8838.3306    623.57277    411.75958    1118.2517    -5304.924 
 3489000    96.763597   -6778.6746   -6529.7561   -6778.6746            0    7528.4616    23.079956    21.203063    21.455314    10499.496     6991.647    7878.5032    7715.2347    324.13537   -135.05875    560.49366   -5376.9651 
 3490000    96.495929   -6763.3671   -6515.1372   -6763.3671            0    8031.3994    22.984752    21.275337    21.407201      10468.3    8612.1042    8056.3882    7425.7058   -620.84501    263.71843    44.907571   -5288.9881 
 3491000    93.332276   -6769.6665   -6529.5749   -6769.6665            0    7550.6073    23.143207    21.221089    21.340303    10480.736    7979.9548    7023.1422     7648.725    179.39507   -368.74311    857.87669   -5375.4587 
 3492000    93.097193   -6765.2495   -6525.7627   -6765.2495            0    8793.3469    23.152228    21.079597    21.420802    10454.201    9060.4458    9687.7397    7631.8551    -469.3444    17.191041   -746.22106   -5185.0956 
 3493000    91.755799    -6755.289   -6519.2528    -6755.289            0    8131.1904    23.055199    21.238491    21.417817    10487.398    8898.7144     7320.667    8174.1897   -544.29999    42.892085    333.37571    -5275.604 
 3494000    96.165789   -6771.7526   -6524.3719   -6771.7526            0    7883.1371    23.026022    21.236297    21.445771    10486.713     8418.405    7403.7866    7827.2197   -208.75479     504.6578   -600.72223   -5318.7411 
 3495000     100.8306   -6764.7567   -6505.3761   -6764.7567            0    7853.7145    23.098553    21.212146    21.395967    10483.379    8421.3497     7031.025    8108.7687   -625.23677    511.34161    371.44696   -5304.6269 
 3496000     93.65123    -6766.127    -6525.215    -6766.127            0    8403.8022     23.18465    21.128746    21.313671     10440.77    7499.0522    8380.1683    9332.1861    434.26533   -440.07157    110.67475   -5245.5855 
 3497000    95.923223   -6769.3487    -6522.592   -6769.3487            0    8084.8463    23.095552    21.186266    21.398575    10470.505    8180.6063     8855.187    7218.7457    1146.1597   -33.376391   -293.74542   -5288.0233 
 3498000    94.300398    -6763.737    -6521.155    -6763.737            0    7861.8178    22.938933    21.191076    21.596382    10498.016    8880.8953    7736.8653    6967.6927   -107.98227    276.30862    609.30665   -5317.4887 
 3499000    96.398397   -6776.6738   -6528.6948   -6776.6738            0    8462.6158    22.967258     21.18303    21.503754    10461.923    8364.1275    9709.8376    7313.8822    425.78109    726.94246    457.46679   -5237.4992 
 3500000    100.85988    -6764.379   -6504.9231    -6764.379            0    7723.0518     23.12221    21.211976    21.388227    10490.235    7878.6444     6776.244     8514.267   -403.05305    1153.4107     576.8195   -5323.3786 
Loop time of 601.601 on 64 procs for 250000 steps with 1296 atoms

Performance: 71.808 ns/day, 0.334 hours/ns, 415.558 timesteps/s
193.3% CPU use with 32 MPI tasks x 2 OpenMP threads

MPI task timing breakdown:
Section |  min time  |  avg time  |  max time  |%varavg| %total
---------------------------------------------------------------
Pair    | 37.163     | 49.747     | 59.231     |  80.6 |  8.27
Bond    | 0.88235    | 1.0887     | 1.6603     |  12.8 |  0.18
Kspace  | 303.28     | 315.75     | 330.54     |  38.1 | 52.49
Neigh   | 1.0316     | 1.1298     | 1.2389     |   6.0 |  0.19
Comm    | 74.304     | 92.041     | 101.43     |  71.8 | 15.30
Output  | 0.55579    | 0.55606    | 0.55777    |   0.0 |  0.09
Modify  | 120.26     | 123.52     | 126.32     |  13.3 | 20.53
Other   |            | 17.76      |            |       |  2.95

Nlocal:        40.5000 ave          51 max          28 min
Histogram: 1 1 0 6 5 8 3 4 1 3
Nghost:        3176.47 ave        3208 max        3151 min
Histogram: 1 5 4 7 3 6 0 3 1 2
Neighs:        13315.7 ave       16759 max        9279 min
Histogram: 1 1 2 4 5 8 3 4 1 3

Total # of neighbors = 426101
Ave neighs/atom = 328.78164
Ave special neighs/atom = 2.0000000
Neighbor list builds = 2205
Dangerous builds = 0

unfix		3
unfix		2
unfix		1

write_data	data.final.${pid}
write_data	data.final.0
System init for write_data ...
PPPM initialization ...
  extracting TIP4P info from pair style
  using 12-bit tables for long-range coulomb (../kspace.cpp:340)
  G vector (1/distance) = 0.37087926
  grid = 30 40 32
  stencil order = 5
  estimated absolute RMS force accuracy = 0.0038038011
  estimated relative force accuracy = 1.1455034e-05
  using double precision FFTW3
  3d grid and FFT values/proc = 7752 1200
Last active /omp style is kspace_style pppm/tip4p/omp
WARNING: Not all mixed pair coeffs generated from mixing. Use write_data with 'pair ij' option to store all pair coeffs. (../write_data.cpp:312)

write_restart   restart.lmp.${pid}
write_restart   restart.lmp.0
System init for write_restart ...
PPPM initialization ...
  extracting TIP4P info from pair style
  using 12-bit tables for long-range coulomb (../kspace.cpp:340)
  G vector (1/distance) = 0.37087926
  grid = 30 40 32
  stencil order = 5
  estimated absolute RMS force accuracy = 0.0038038011
  estimated relative force accuracy = 1.1455034e-05
  using double precision FFTW3
  3d grid and FFT values/proc = 7752 1200
Last active /omp style is kspace_style pppm/tip4p/omp
Total wall time: 0:10:01
