LAMMPS data file via write_data, version 30 Jul 2021, timestep = 9750000

1920 atoms
2 atom types
1280 bonds
1 bond types
640 angles
1 angle types

0.08620199561343789 24.64379900438523 xlo xhi
0.025900240610885916 24.70410075938902 ylo yhi
0.08338366174219836 22.72661633826069 zlo zhi

Masses

1 1.008
2 15.999

Pair Coeffs # lj/cut/tip4p/long/omp

1 0 0
2 0.21084 3.1668

Bond Coeffs # harmonic/omp

1 450 0.9572

Angle Coeffs # harmonic/omp

1 55 104.52

Atoms # full

1 1 2 -1.1794 4.632037355269906 1.4296191371921645 4.220160504308678 0 0 0
2 1 1 0.5897 4.723156083303601 2.1315781084594954 4.864453519595057 0 0 0
3 1 1 0.5897 5.354535778353017 1.570281498901091 3.608258263438817 0 0 0
4 2 2 -1.1794 2.9362124623670716 1.6637420487019008 2.0554681026358437 0 0 0
5 2 1 0.5897 3.349140302564723 1.564931092801427 2.9133035844546544 0 0 0
6 2 1 0.5897 2.002228652824129 1.5372643956436358 2.2226540932760153 0 0 0
9 3 1 0.5897 5.108952465412811 4.477882206784572 3.659281969301537 0 0 0
10 4 2 -1.1794 3.333068957472037 4.553519447455482 3.719271482054213 0 0 0
11 4 1 0.5897 2.8612834865088326 5.237007890554948 4.195146955987375 0 0 0
12 4 1 0.5897 2.8913709277543442 4.502787606366582 2.8716351235389124 0 0 0
13 5 2 -1.1794 1.5945284579412864 2.9018509915055697 5.09361922724633 0 0 0
14 5 1 0.5897 2.3259248311527894 3.244099567909616 4.579664893004938 0 0 0
15 5 1 0.5897 1.7119864190788572 1.9520864254488315 5.075229949006104 0 0 0
19 7 2 -1.1794 4.610639039393184 3.34420759881729 0.6862861166153206 0 0 0
20 7 1 0.5897 3.8359504222467273 2.941899135037837 1.0790243461426232 0 0 0
21 7 1 0.5897 5.344806516845352 2.994565749783123 1.1912369253990862 0 0 0
22 8 2 -1.1794 1.6788521338756766 4.510560628183958 1.492933286350423 0 0 0
23 8 1 0.5897 0.9589634156846711 4.555757531387341 2.12216449950056 0 0 0
24 8 1 0.5897 1.4990305360913736 5.216035750564437 0.8715371261260154 0 0 0
27 9 1 0.5897 4.617014491263633 5.125119985705562 0.710196010084819 0 0 0
28 10 2 -1.1794 1.765115570912032 0.14979228320658375 5.0344287545946855 0 0 0
387 129 1 0.5897 4.023497060286113 0.4038719263764979 1.30068794166314 0 1 0
7 3 2 -1.1794 6.065211399673267 4.452232748832334 3.624783712352566 0 0 0
98 33 1 0.5897 0.4822399001038122 5.348239140514788 4.004866871477615 1 0 0
16 6 2 -1.1794 0.20667414161828723 1.4882066730450476 2.1160409068431956 0 0 0
25 9 2 -1.1794 4.576586776174309 6.081178561832067 0.7326395734972336 0 0 0
47 16 1 0.5897 6.055370000416759 0.979248352282482 1.6051346661293677 0 0 0
99 33 1 0.5897 0.37524086630753717 3.843583343671849 4.13270536097683 1 0 0
867 289 1 0.5897 4.651231670596472 0.13425851053292814 5.593260682285473 0 1 0
1455 485 1 0.5897 1.64790577718813 3.3602577514872958 0.1270159235552839 0 0 1
150 50 1 0.5897 1.6015496821934012 6.056531301207634 5.8060230240837445 0 0 0
503 168 1 0.5897 0.7976781766933237 4.729714221743904 7.717889971029977 0 0 0
496 166 2 -1.1794 0.21783873312514754 1.7121715637961643 7.838296593866554 0 0 0
502 168 2 -1.1794 1.5706274127381163 4.812221735597022 7.159348230436933 0 0 0
500 167 1 0.5897 3.9414692836885665 2.853988926628914 6.81887705666371 0 0 0
1347 449 1 0.5897 4.707505316423154 0.2576846232629067 11.247988270114035 0 1 0
494 165 1 0.5897 1.6320815563374993 1.9852286697438082 10.63692968867379 0 0 0
484 162 2 -1.1794 2.9279655290254665 1.5803363539629038 7.752847693417039 0 0 0
482 161 1 0.5897 5.318851510555683 1.6353982419573172 9.44066963367096 0 0 0
505 169 2 -1.1794 4.629732875404771 5.949280085573231 6.461160924917104 0 0 0
491 164 1 0.5897 2.8242820998652647 4.7868926604497375 8.418517041595065 0 0 0
579 193 1 0.5897 0.25119258417786056 5.302625003054806 9.829927207425335 1 0 0
486 162 1 0.5897 3.3530850116133006 0.8625279709753029 7.283576994933949 0 0 0
485 162 1 0.5897 3.3466165203636526 1.5855184362579724 8.613579732536584 0 0 0
499 167 2 -1.1794 4.675879418094986 3.2343963468005015 6.337049822567275 0 0 0
481 161 2 -1.1794 4.536155284670453 1.4864348822325961 9.971166678699632 0 0 0
504 168 1 0.5897 1.5418002845176257 4.040246753723881 6.5942035493680065 0 0 0
487 163 2 -1.1794 5.998600885093989 4.773674319936164 9.230057827638825 0 0 0
492 164 1 0.5897 2.8536818314988888 4.028288029771421 9.728221612702663 0 0 0
508 170 2 -1.1794 1.4916313408510962 0.14956880006580625 10.57110914327844 0 0 0
528 176 1 0.5897 5.8999844964984565 2.3529270929697774 7.335810844366025 0 0 0
578 193 1 0.5897 0.33215135996035483 3.8125503372422886 9.575170059095422 1 0 0
489 163 1 0.5897 5.043077673797878 4.722264263809913 9.205324309540742 0 0 0
490 164 2 -1.1794 3.289441983109223 4.736065793193073 9.253505874498165 0 0 0
501 167 1 0.5897 4.546150038928002 4.17999612506439 6.409153030467597 0 0 0
483 161 1 0.5897 4.554316337328077 2.1836531229980896 10.626694129540477 0 0 0
498 166 1 0.5897 1.1733893492602572 1.6576368549199414 7.823174083466944 0 0 0
493 165 2 -1.1794 1.6667153554169714 2.9377692035877367 10.549450435812783 0 0 0
629 210 1 0.5897 2.264777019606842 5.946772171744509 10.182278249738301 0 0 0
527 176 1 0.5897 5.968388460529888 0.8427915402403372 7.4170300351584455 0 0 0
961 321 2 -1.1794 4.597146409361545 1.8541145524165683 15.61070594520059 0 0 0
962 321 1 0.5897 5.294090356403952 1.726887949190916 14.967052233694973 0 0 0
963 321 1 0.5897 4.631756057717836 1.0708952784886892 16.159829473126358 0 0 0
964 322 2 -1.1794 2.938886929231503 1.473667246293647 13.461806800585558 0 0 0
965 322 1 0.5897 3.327530750138959 1.5881104127265113 14.32899305091211 0 0 0
966 322 1 0.5897 1.9999396432891838 1.3909807967619023 13.628585368291889 0 0 0
970 324 2 -1.1794 3.2271584634004316 4.644965119143262 14.869976872153817 0 0 0
971 324 1 0.5897 4.181147395639945 4.588825230286648 14.814913212363113 0 0 0
972 324 1 0.5897 2.9684021322504988 3.8624964477030863 15.356767585175806 0 0 0
973 325 2 -1.1794 1.5509699982223273 2.9091919672561524 16.32160242430301 0 0 0
975 325 1 0.5897 0.8593973961163044 3.3096986956248813 15.794783980544446 0 0 0
979 327 2 -1.1794 4.564147280014887 3.293640728946199 12.048774837382897 0 0 0
980 327 1 0.5897 3.794914485618178 2.9117416103638547 12.471466702804967 0 0 0
981 327 1 0.5897 5.308484629546967 2.8831286704273182 12.488860237795594 0 0 0
982 328 2 -1.1794 1.4976468559302836 4.473172978028911 12.803171917134748 0 0 0
983 328 1 0.5897 1.5137966375998129 5.265513703772304 12.266419573348744 0 0 0
984 328 1 0.5897 2.175309087748499 4.6169509922521295 13.463707184143145 0 0 0
987 329 1 0.5897 4.629465415471554 5.06027401777291 12.061596910170262 0 0 0
990 330 1 0.5897 1.6550455622162366 1.1337908808477233 16.348489270064704 0 0 0
967 323 2 -1.1794 5.9231259663989295 4.71751254582008 14.808949151003686 0 0 0
1109 370 1 0.5897 0.7698735091711932 5.876070648229838 15.865816985952852 0 0 0
1346 449 1 0.5897 3.9528403016099825 0.1672906185181469 12.55719974536687 0 1 0
1008 336 1 0.5897 5.992403613028682 0.8980628296019487 12.96940797702658 0 0 0
988 330 2 -1.1794 1.5898539306803097 0.18494590376114567 16.240647090097404 0 0 0
1110 370 1 0.5897 2.283042343570111 5.912569261068771 15.897481278184175 0 0 0
985 329 2 -1.1794 4.795291440424846 6.002968627566788 12.06581552828764 0 0 0
495 165 1 0.5897 1.576391750748833 3.2644154234747385 11.444591869783302 0 0 0
1058 353 1 0.5897 0.1470316808780901 4.58776426798367 14.072827058206117 1 0 0
976 326 2 -1.1794 0.1788122592032261 1.4975955071375442 13.585842506800208 0 0 0
1460 487 1 0.5897 4.656078348683358 2.8965045455189142 17.020719188213683 0 0 0
1454 485 1 0.5897 2.346863662943018 3.433470102027388 21.429424361288063 0 0 0
1468 490 2 -1.1794 1.66223976341453 0.15326909939174133 21.866916769274333 0 0 0
974 325 1 0.5897 1.5689918547310073 3.4261627146981612 17.12693490352092 0 0 0
1441 481 2 -1.1794 4.787415691571726 1.5335009407920503 21.311186520706556 0 0 0
1452 484 1 0.5897 2.953020392925611 4.748253095237851 19.797485668871502 0 0 0
1442 481 1 0.5897 4.010680668236896 1.6036048148587465 20.756212795868016 0 0 0
1539 513 1 0.5897 0.29480593907157737 5.477519273585699 21.03755324055333 1 0 0
386 129 1 0.5897 4.783094343468471 0.34841140627521805 22.635615504296112 0 1 -1
1444 482 2 -1.1794 3.0381815885633996 1.431028553732794 19.169358786382674 0 0 0
1451 484 1 0.5897 4.228997443814411 4.904949191418199 20.5970109778657 0 0 0
1465 489 2 -1.1794 4.4702226620799586 6.042723953360251 17.68900411604711 0 0 0
1590 530 1 0.5897 2.203437994215577 6.01881454932847 21.62786831866535 0 0 0
1469 490 1 0.5897 1.616970608764198 1.1044924823773015 21.963406477311132 0 0 0
1488 496 1 0.5897 5.949745018493021 0.8496491471622166 18.523978932721676 0 0 0
1461 487 1 0.5897 5.410908239698006 2.8810995716633765 18.33286213194888 0 0 0
1464 488 1 0.5897 0.9688954905082752 4.783463273843253 19.10158350035219 0 0 0
1826 609 1 0.5897 3.987187717002563 0.21870588734424143 18.1414799996936 0 1 0
1443 481 1 0.5897 4.704143401675972 2.256473387661798 21.9329085522906 0 0 0
1459 487 2 -1.1794 4.690455879669824 3.3184888487414614 17.879139417237596 0 0 0
1446 482 1 0.5897 3.350801643703406 2.226865150266205 18.739130415656994 0 0 0
1445 482 1 0.5897 2.092816740450357 1.5575149133169888 19.250372571216793 0 0 0
1487 496 1 0.5897 6.009320575191934 1.4553495457165788 19.910065742697718 0 0 0
1450 484 2 -1.1794 3.2801824177105483 4.823396611247952 20.693847689243405 0 0 0
1538 513 1 0.5897 0.332611244004997 3.964149932049451 21.029496315178335 1 0 0
1453 485 2 -1.1794 1.6856366584071674 2.937642467522888 21.912279726505737 0 0 0
1447 483 2 -1.1794 6.011835873462775 4.751320931164025 20.41578572406791 0 0 0
1466 489 1 0.5897 4.606363575925011 5.100788987425431 17.791046086663826 0 0 0
1456 486 2 -1.1794 0.28470644612972434 1.557243012492546 19.24508078846538 0 0 0
1462 488 2 -1.1794 1.6640055264812197 4.647712355242792 18.457687414452394 0 0 0
1463 488 1 0.5897 1.5590561487927042 5.367791262184135 17.83588828873218 0 0 0
121 41 2 -1.1794 4.548605661316573 7.710014247319837 4.331488185850633 0 0 0
122 41 1 0.5897 3.7822919524312764 7.707313481951838 3.7579191375727095 0 0 0
123 41 1 0.5897 5.295278447819749 7.6588263040096765 3.7347648817991903 0 0 0
124 42 2 -1.1794 2.91081914812742 7.782938347176649 2.0707780629223103 0 0 0
125 42 1 0.5897 3.3414184963236675 7.028074047877367 1.6695814442836143 0 0 0
126 42 1 0.5897 3.4167226809213336 8.536874743593447 1.767713825159098 0 0 0
129 43 1 0.5897 5.04310615468531 10.86480970249355 3.624023229994455 0 0 0
130 44 2 -1.1794 3.238496635860869 10.819863058878504 3.587821817753811 0 0 0
131 44 1 0.5897 2.8610583633803284 11.59070218267357 4.01153891956525 0 0 0
132 44 1 0.5897 2.7879225775645278 10.078724590005539 3.992658414568787 0 0 0
133 45 2 -1.1794 1.4803175186989102 9.081363830382681 4.923638218127496 0 0 0
135 45 1 0.5897 0.8180100726238142 9.57549014190197 4.440520323778437 0 0 0
137 46 1 0.5897 1.1389882231450954 7.8313765996680065 2.1610168149917413 0 0 0
139 47 2 -1.1794 4.841592101404098 9.478836069783515 0.9042498243873632 0 0 0
140 47 1 0.5897 4.762009354004662 10.428830258234306 0.8184381657606111 0 0 0
142 48 2 -1.1794 1.4845790742635285 10.808048085530542 1.4495163614484867 0 0 0
143 48 1 0.5897 2.23358364407395 10.938747910342018 2.031009742244717 0 0 0
144 48 1 0.5897 1.5596048173863262 11.507689712460818 0.8006447931894308 0 0 0
149 50 1 0.5897 1.4891284753200666 7.309380868632681 4.963723694252056 0 0 0
148 50 2 -1.1794 1.6487874615826723 6.367627823229989 4.90207568458483 0 0 0
127 43 2 -1.1794 5.997748011634735 10.80213802074926 3.592235906842527 0 0 0
218 73 1 0.5897 0.25997308011774173 10.889153519356478 2.7103452172487916 1 0 0
136 46 2 -1.1794 0.1896531197008496 7.917665498161554 2.2481676653697673 0 0 0
26 9 1 0.5897 5.3311636240763445 6.340935903265721 1.261190842958287 0 0 0
507 169 1 0.5897 4.620088002030698 6.419238666727377 5.627382041031975 0 0 0
145 49 2 -1.1794 4.665196723029951 12.182571013537359 0.7116637123663133 0 0 0
621 207 1 0.5897 4.548180348242893 8.997683527960547 5.66957000049052 0 0 0
168 56 1 0.5897 6.044217396554497 8.29965096446334 1.8195034438230553 0 0 0
270 90 1 0.5897 0.9392011342044424 12.27525714587279 4.5385110981134575 0 0 0
1574 525 1 0.5897 1.619522406524516 9.515194427450131 0.08869264827563939 0 0 1
603 201 1 0.5897 3.9612678759747735 7.618208822108569 9.388172427603367 0 0 0
134 45 1 0.5897 1.5269517098250294 9.513048541007933 5.7766406243829005 0 0 0
602 201 1 0.5897 4.7134228033242636 7.007832742663336 10.551552096118602 0 0 0
647 216 1 0.5897 5.88991567223753 7.710673528498126 8.639494655081988 0 0 0
606 202 1 0.5897 1.9984834288550966 7.715696092862787 7.944398129209922 0 0 0
613 205 2 -1.1794 1.7430799534242956 9.036387412759472 10.53402353768356 0 0 0
626 209 1 0.5897 4.700512298047724 11.224550958779677 6.449026974978336 0 0 0
619 207 2 -1.1794 4.56614903639533 9.443314295876991 6.516464009814088 0 0 0
607 203 2 -1.1794 6.035328145072302 10.93842197396185 9.339890102633944 0 0 0
699 233 1 0.5897 0.3765745545696013 10.793458583632095 8.456124200044236 1 0 0
610 204 2 -1.1794 3.33679160667382 10.772738465421343 9.143634191500597 0 0 0
614 205 1 0.5897 2.433959352667377 9.428239064024488 9.999835396410388 0 0 0
612 204 1 0.5897 3.0008867378051045 11.511810170235929 9.650706008556574 0 0 0
1101 367 1 0.5897 4.714303505748467 8.964922847579542 11.250314934273522 0 0 0
605 202 1 0.5897 3.246919796022212 8.422080559068068 7.460299387913238 0 0 0
611 204 1 0.5897 4.2877192231900265 10.880564961056846 9.163339975166267 0 0 0
625 209 2 -1.1794 4.662528975469591 12.178760417823868 6.38400723044419 0 0 0
601 201 2 -1.1794 4.724434668278331 7.75237126736611 9.950134270998301 0 0 0
622 208 2 -1.1794 1.5517904926732953 10.745921780223826 7.097407130872056 0 0 0
604 202 2 -1.1794 2.9531618500514676 7.646238275856322 7.937745834688692 0 0 0
624 208 1 0.5897 1.6467494323824514 11.493368794190047 6.50709398694943 0 0 0
506 169 1 0.5897 3.968607179320075 6.391602679217683 6.99358446630392 0 0 0
616 206 2 -1.1794 0.22135393807271772 7.71792024279454 7.9258104475106705 0 0 0
623 208 1 0.5897 2.2964578099161916 10.815795761071868 7.694740477360637 0 0 0
698 233 1 0.5897 0.294312327713597 11.47020021123337 9.807759297976885 1 0 0
620 207 1 0.5897 5.260841719557933 9.001959639940914 7.005163405070372 0 0 0
648 216 1 0.5897 5.918835927413942 6.991657209252366 7.307637619428084 0 0 0
615 205 1 0.5897 0.9340983460212534 9.42890486110882 10.205808197175559 0 0 0
630 210 1 0.5897 1.6351221272314878 7.220627192418047 10.704424858573873 0 0 0
628 210 2 -1.1794 1.5685384756067327 6.267147123939729 10.755712117797708 0 0 0
1081 361 2 -1.1794 4.729990513752365 7.731449401933304 15.594970738751742 0 0 0
1082 361 1 0.5897 4.759641681522092 8.47399006177425 16.198225614282684 0 0 0
1083 361 1 0.5897 4.685206079895981 6.962368339737244 16.163014418530572 0 0 0
1084 362 2 -1.1794 3.046435465710213 7.708050686187667 13.43162832021013 0 0 0
1085 362 1 0.5897 3.5412353334201385 7.6956373871934955 14.25088760634986 0 0 0
1086 362 1 0.5897 3.4789503500003907 8.376419364878082 12.900214640042202 0 0 0
1089 363 1 0.5897 5.098818840992864 10.759049525062306 14.840262584460435 0 0 0
1090 364 2 -1.1794 3.3254341539901997 10.876365480836357 14.86641030784582 0 0 0
1091 364 1 0.5897 2.8131928483974327 11.602921319279739 15.221276143654103 0 0 0
1092 364 1 0.5897 3.0523272688756773 10.116568590661485 15.38050954612314 0 0 0
1093 365 2 -1.1794 1.8212406390430718 9.067170674285023 16.379660869161867 0 0 0
1094 365 1 0.5897 1.7448016794232757 8.11305146201601 16.380420630773735 0 0 0
1095 365 1 0.5897 1.0744122004721066 9.36733483583392 15.861609004538062 0 0 0
1097 366 1 0.5897 1.2328067202159028 7.795243321363566 13.472425876940923 0 0 0
1099 367 2 -1.1794 4.700783016792087 9.423300438027645 12.090461907091463 0 0 0
1100 367 1 0.5897 5.394396492910013 9.006993666541467 12.60213264588731 0 0 0
1102 368 2 -1.1794 1.5827568832952348 10.779682428164694 12.679294006177924 0 0 0
1103 368 1 0.5897 1.765062570443882 10.092665207101449 12.038252173368964 0 0 0
1104 368 1 0.5897 2.2937623680648564 10.708395254589112 13.31616333844322 0 0 0
1107 369 1 0.5897 4.802683946510045 11.241127718182183 11.982189963114923 0 0 0
1087 363 2 -1.1794 6.0522218120977795 10.675260856444748 14.85703590221043 0 0 0
1179 393 1 0.5897 0.39883009529162144 10.64359466919792 14.062645112182164 1 0 0
1127 376 1 0.5897 5.999726007105092 7.836049409592256 14.284532480162609 0 0 0
1178 393 1 0.5897 0.40868005566472804 11.337975881871152 15.40778437900816 1 0 0
1105 369 2 -1.1794 4.896234025738012 12.174496624684677 12.172598508703068 0 0 0
1128 376 1 0.5897 6.0846548618898675 7.059704352511573 12.987710677789414 0 0 0
1096 366 2 -1.1794 0.27913286003495585 7.804282736948429 13.390554222268028 0 0 0
1108 370 2 -1.1794 1.5077585873376185 6.330595177961907 16.272219553908307 0 0 0
986 329 1 0.5897 4.027884397931681 6.3796881062697635 12.496400837394392 0 0 0
750 250 1 0.5897 1.6167187582553417 12.115767505900411 11.444414071032167 0 0 0
1230 410 1 0.5897 1.6502737605984625 12.149133912378861 17.088416037264793 0 0 0
1567 523 2 -1.1794 6.108451257475597 10.796785351422454 20.658196149708196 0 0 0
1562 521 1 0.5897 4.674853345383762 7.169350998941397 21.97021979461931 0 0 0
1573 525 2 -1.1794 1.6274776796149515 9.131943249774576 21.854890041713602 0 0 0
141 47 1 0.5897 4.851924331678114 9.156498484012031 22.64630271355277 0 0 -1
1658 553 1 0.5897 0.36158569875522284 10.12444582377595 20.962298562910924 1 0 0
1566 522 1 0.5897 3.3462350556136733 7.117761261119521 18.68044816017523 0 0 0
1583 528 1 0.5897 1.0584399289886601 10.917364978307482 19.003452455576358 0 0 0
1589 530 1 0.5897 1.5890168820386463 7.329686571731955 22.070487898883854 0 0 0
1575 525 1 0.5897 2.3719670862690263 9.546305494977274 21.418691086615354 0 0 0
1571 524 1 0.5897 3.0232668770763 10.91431243065454 19.789655090759553 0 0 0
1709 570 1 0.5897 0.861875621047323 12.143234965431091 21.518678298903055 0 0 0
1579 527 2 -1.1794 4.754766710750865 9.467376959296017 17.736215155958234 0 0 0
1584 528 1 0.5897 1.6674868154891156 10.228950335868157 17.800592376402 0 0 0
1581 527 1 0.5897 5.4769609498453145 8.973992507651 18.125106956814 0 0 0
1580 527 1 0.5897 3.966330673000657 9.072730577915955 18.10886164994774 0 0 0
1570 524 2 -1.1794 3.412497053208909 10.944381027369017 20.66358127766548 0 0 0
1576 526 2 -1.1794 0.26650406718716746 7.644802093836545 19.141161221002903 0 0 0
1564 522 2 -1.1794 3.0074417868619725 7.8548621307790905 19.18846700364785 0 0 0
1608 536 1 0.5897 6.007759386953964 7.656241444616581 19.88117267851129 0 0 0
1467 489 1 0.5897 5.207657160693377 6.443064410639673 18.14960113890603 0 0 0
1572 524 1 0.5897 4.354979462138624 10.880508665434483 20.508908356274283 0 0 0
1710 570 1 0.5897 2.37387679203705 12.076792764291245 21.556803150005322 0 0 0
1585 529 2 -1.1794 4.727238029925185 12.206752318808329 17.642284482690073 0 0 0
1563 521 1 0.5897 4.138129636182842 7.840313098999333 20.72384678136605 0 0 0
1587 529 1 0.5897 4.761370025993933 11.252222208165536 17.70468337350396 0 0 0
1565 522 1 0.5897 2.0558321260544647 7.768374576227843 19.131560812314547 0 0 0
1561 521 2 -1.1794 4.893008167199467 7.829422567028441 21.31228659412095 0 0 0
1582 528 2 -1.1794 1.8077057646394077 10.95449387748238 18.408942100535448 0 0 0
1588 530 2 -1.1794 1.4753898487896053 6.381309746727531 22.13261219611769 0 0 0
241 81 2 -1.1794 4.578931578597149 14.015632660530903 4.304706396259401 0 0 0
242 81 1 0.5897 4.492731563198736 13.317927386773658 4.954272365624749 0 0 0
243 81 1 0.5897 3.88666633948621 13.837638218740787 3.6680774514935583 0 0 0
244 82 2 -1.1794 2.8762333409293332 13.762252393734226 2.1728811271966135 0 0 0
245 82 1 0.5897 1.9308013905821289 13.897595503807839 2.237052277435017 0 0 0
246 82 1 0.5897 3.208549868980781 14.570929408061604 1.7832720923357834 0 0 0
250 84 2 -1.1794 3.3239977646728813 17.150724365211374 3.828763876833416 0 0 0
251 84 1 0.5897 2.92490971502465 16.99093117470578 2.9735734044515767 0 0 0
252 84 1 0.5897 4.2662425843157665 17.132895166587943 3.6610392972846526 0 0 0
253 85 2 -1.1794 1.5858913533932533 15.289649994094617 5.014521770090844 0 0 0
254 85 1 0.5897 0.9037308932758815 15.71919836398884 4.4984191666043785 0 0 0
255 85 1 0.5897 2.404973905494844 15.659130040128456 4.6846194794278695 0 0 0
259 87 2 -1.1794 4.554105520175727 15.694103202604595 0.9302513455084254 0 0 0
260 87 1 0.5897 4.708021729089874 16.627339083666016 0.7833926786657213 0 0 0
262 88 2 -1.1794 1.6597189742242178 17.001201950676567 1.633479684139091 0 0 0
263 88 1 0.5897 1.7508500170936803 16.227828715138678 1.0769229224105223 0 0 0
264 88 1 0.5897 1.652989543137382 17.73752553935843 1.0219701784958133 0 0 0
269 90 1 0.5897 1.627799687160776 13.503866808653958 5.093637188127611 0 0 0
288 96 1 0.5897 5.837670683656657 14.724969104095448 1.7208398526516688 0 0 0
268 90 2 -1.1794 1.7109395781734598 12.552277095566033 5.032387227694899 0 0 0
247 83 2 -1.1794 6.038846532535874 17.08596134262762 3.5548270103913397 0 0 0
146 49 1 0.5897 5.435210874817623 12.576199945021878 1.121993636048504 0 0 0
338 113 1 0.5897 0.25228600716035304 17.006750640371884 2.8338849804797928 1 0 0
147 49 1 0.5897 3.9218657083054658 12.58127872263414 1.1641239326937294 0 0 0
265 89 2 -1.1794 4.772290912231758 18.378374909321977 0.8764522670605158 0 0 0
389 130 1 0.5897 2.1428229199635944 18.365739626303522 4.562643755435298 0 0 0
287 96 1 0.5897 5.866439294150151 13.934000202250187 3.0112708621987476 0 0 0
256 86 2 -1.1794 0.15367176667478052 14.03112840294539 2.112597481848139 0 0 0
740 247 1 0.5897 4.789308855596175 15.23366993480827 5.703876504453603 0 0 0
339 113 1 0.5897 0.19060709455408104 17.6354221891039 4.209611831236152 1 0 0
627 209 1 0.5897 5.369958272460894 12.486266223100955 6.950753783536824 0 0 0
748 250 2 -1.1794 1.6799871021684787 12.499635512670226 10.569896777894755 0 0 0
733 245 2 -1.1794 1.7317157708394677 15.248229809030912 10.701333674203111 0 0 0
737 246 1 0.5897 1.242584599326576 14.011296734591385 7.884613052950868 0 0 0
818 273 1 0.5897 0.2712571643460004 16.96027022685317 8.577492558705496 1 0 0
721 241 2 -1.1794 4.786053843761547 13.925688578541248 9.963443167238072 0 0 0
768 256 1 0.5897 6.16681162633133 14.461443247986775 7.411711366338934 0 0 0
732 244 1 0.5897 2.9344623278605737 16.338735421321886 9.882191678226258 0 0 0
749 250 1 0.5897 1.6702865725625293 13.444701818669046 10.721356609287334 0 0 0
1106 369 1 0.5897 4.882593726742591 12.597147589788051 11.313926458450721 0 0 0
730 244 2 -1.1794 3.3679270572680045 16.993689261825708 9.335081933569338 0 0 0
731 244 1 0.5897 2.866965956785497 16.994570781621753 8.519479796125193 0 0 0
735 245 1 0.5897 1.0097625769468812 15.668800089087968 10.234290178515215 0 0 0
723 241 1 0.5897 5.490980474748341 13.893133392736125 9.316737107510976 0 0 0
743 248 1 0.5897 1.536411924208084 17.7633106997448 6.683955375565901 0 0 0
870 290 1 0.5897 2.3986123385114757 18.158951363761382 10.319872947020452 0 0 0
742 248 2 -1.1794 1.5379793220986042 16.974739721148893 7.226468563275891 0 0 0
726 242 1 0.5897 3.3849204630788448 13.172102057403105 7.367511407643541 0 0 0
722 241 1 0.5897 3.98246517940186 13.910527020606029 9.44358786891197 0 0 0
1221 407 1 0.5897 4.851126014414087 15.259130046067426 11.328706922221281 0 0 0
728 243 1 0.5897 5.194040581438286 16.94737321382972 9.272369724333334 0 0 0
869 290 1 0.5897 0.8885297822466265 18.156953721372595 10.427851846922998 0 0 0
724 242 2 -1.1794 3.031092466764053 13.925087109362822 7.840803840491647 0 0 0
741 247 1 0.5897 4.8322718241991165 16.539687209497373 6.468215995631323 0 0 0
736 246 2 -1.1794 0.2928588204040216 14.008938074210459 7.7650603941893115 0 0 0
745 249 2 -1.1794 4.8237938309501684 18.331954411754154 6.422287882045916 0 0 0
739 247 2 -1.1794 4.860462994408395 15.590597792790792 6.5891305916924505 0 0 0
744 248 1 0.5897 1.5287800842901291 16.251843008254696 6.599176021943861 0 0 0
725 242 1 0.5897 3.5749833936633824 14.661445246466949 7.5612134963276505 0 0 0
727 243 2 -1.1794 6.145792130341467 16.845224986707187 9.276143492361562 0 0 0
1201 401 2 -1.1794 4.59029968779888 13.982004787330146 15.579918676745367 0 0 0
1202 401 1 0.5897 5.328449572630913 13.907672428620884 14.975082437307666 0 0 0
1203 401 1 0.5897 4.718500638473538 13.267596797354015 16.203896286965914 0 0 0
1204 402 2 -1.1794 3.043887903443448 13.885881123039706 13.366349398178654 0 0 0
1205 402 1 0.5897 3.418874713459731 14.004454562751958 14.2389748551224 0 0 0
1206 402 1 0.5897 3.579564935450991 13.201045827685235 12.966028549982392 0 0 0
1210 404 2 -1.1794 3.3265201324172593 16.94053719176683 15.023966393458819 0 0 0
1211 404 1 0.5897 2.9973857541787745 17.676314035793048 15.54018612726481 0 0 0
1212 404 1 0.5897 4.279135711998224 17.01084444383732 15.0860894867608 0 0 0
1213 405 2 -1.1794 1.6009731436820729 15.190305290603998 16.278911835822797 0 0 0
1214 405 1 0.5897 0.866040969667825 15.689856836272028 15.923164695888088 0 0 0
1215 405 1 0.5897 2.378497306865151 15.622912275568227 15.925999624413118 0 0 0
1218 406 1 0.5897 1.230565074262209 13.821940945186848 13.530622279257452 0 0 0
1219 407 2 -1.1794 4.71206517793042 15.666467943392492 12.183621100021076 0 0 0
1220 407 1 0.5897 4.010355794139031 15.152406803570305 12.58308500862982 0 0 0
1222 408 2 -1.1794 1.5685958863125347 16.878461892691902 12.90424673199072 0 0 0
1223 408 1 0.5897 1.7229592026770968 17.56455572283712 12.254933379704816 0 0 0
1224 408 1 0.5897 2.2950888761140664 16.964448322796862 13.521521778990726 0 0 0
1227 409 1 0.5897 4.7382266328801075 17.415445150413582 12.246587455656485 0 0 0
1229 410 1 0.5897 1.541498394624688 13.453395951814661 16.327617557540975 0 0 0
1298 433 1 0.5897 0.35287372248779936 17.082614473696594 14.212691821602148 1 0 0
1228 410 2 -1.1794 1.4888921743766963 12.504394979858832 16.21441108377548 0 0 0
1225 409 2 -1.1794 4.638896791665069 18.364747447724866 12.174851214995178 0 0 0
1247 416 1 0.5897 6.021848127389811 14.724940928417906 13.110966645573106 0 0 0
1216 406 2 -1.1794 0.2743918504383498 13.777756731802103 13.538410163395731 0 0 0
1248 416 1 0.5897 6.0912273859157695 13.212962499963192 13.140787046819637 0 0 0
734 245 1 0.5897 1.710914476323659 15.637288426411601 11.575597682241204 0 0 0
1207 403 2 -1.1794 6.056658938847175 17.0668211352979 15.068312136396806 0 0 0
1700 567 1 0.5897 4.711076747787181 15.133919451525072 16.976279178246592 0 0 0
1350 450 1 0.5897 1.0493992161978192 18.405914125229465 15.904591626238425 0 0 0
1691 564 1 0.5897 2.8934837342621025 16.365671480267153 21.141635950804663 0 0 0
261 87 1 0.5897 4.521536898650679 15.315111418355631 22.695167436447377 0 0 -1
1701 567 1 0.5897 4.0584312073902495 15.161457062646924 18.341929069599892 0 0 0
1704 568 1 0.5897 1.7114589999457126 17.6962973574611 17.849708405998364 0 0 0
1707 569 1 0.5897 4.786097438462572 17.46499614564589 17.737200410211685 0 0 0
1682 561 1 0.5897 5.303943491347022 13.906429573169632 20.786564930909087 0 0 0
1708 570 2 -1.1794 1.6253301022386573 12.51981943753774 21.95634985329086 0 0 0
1695 565 1 0.5897 1.7902371999583675 14.337722847368193 21.927239544863525 0 0 0
1728 576 1 0.5897 6.026303637491832 14.491114772649373 18.746648840109003 0 0 0
1699 567 2 -1.1794 4.7069226165835625 15.615206764117417 17.803616208050826 0 0 0
1681 561 2 -1.1794 4.535658575273013 14.012818026752752 21.347497441804798 0 0 0
1684 562 2 -1.1794 2.9781395434479165 13.918621873279754 19.124710214732005 0 0 0
1694 565 1 0.5897 0.9967106511265034 15.58427485695205 21.59820977168716 0 0 0
1685 562 1 0.5897 3.4187150059191747 13.209704268339573 18.656180387294896 0 0 0
1689 563 1 0.5897 5.088874524308064 17.132481830816296 20.573793570113793 0 0 0
1696 566 2 -1.1794 0.2387229226189104 13.770295223878884 19.05461466139017 0 0 0
1697 566 1 0.5897 1.194565085746825 13.820778092729478 19.044761325691184 0 0 0
1683 561 1 0.5897 4.585115498930076 13.281760077866057 21.963346806908227 0 0 0
1703 568 1 0.5897 1.678963788932105 16.185575003711776 17.757795834195086 0 0 0
1690 564 2 -1.1794 3.2996923657827666 17.057735549861 20.619880842013707 0 0 0
1693 565 2 -1.1794 1.7578479106905747 15.279971418716396 22.09247532355525 0 0 0
1830 610 1 0.5897 2.3202406972650613 18.4143029192591 21.584147639346142 0 0 0
1779 593 1 0.5897 0.40635569832975 17.66784829799517 21.158443435807705 1 0 0
1778 593 1 0.5897 0.4380773256259992 16.901397932036822 19.85337020288268 1 0 0
1686 562 1 0.5897 3.3757266677287374 13.914240714084118 19.995375636671305 0 0 0
1586 529 1 0.5897 5.440689489256031 12.509627389430605 18.203953811540295 0 0 0
1705 569 2 -1.1794 4.784551018943034 18.406419244494565 17.91012927450486 0 0 0
1692 564 1 0.5897 2.8452082069519338 17.021837410320572 19.77826548148287 0 0 0
1687 563 2 -1.1794 6.032429512443441 17.0762636411444 20.724852343445157 0 0 0
1702 568 2 -1.1794 1.6674464671654528 16.905991485163277 18.38789839010984 0 0 0
361 121 2 -1.1794 4.7807553863276375 20.120099933558286 4.296085354152712 0 0 0
362 121 1 0.5897 4.0286251697288105 20.0278157047738 3.7112734919860486 0 0 0
363 121 1 0.5897 4.70129768157793 19.38725884689004 4.906652641398794 0 0 0
364 122 2 -1.1794 2.984819690318757 20.045656676110568 2.173130425242183 0 0 0
365 122 1 0.5897 3.2520618971403623 20.79735956085502 1.6442642552856415 0 0 0
366 122 1 0.5897 2.033933755765494 20.12876863219686 2.2451454794480474 0 0 0
370 124 2 -1.1794 3.288902298523612 23.166805134998157 3.4692451405865556 0 0 0
371 124 1 0.5897 4.2422725866633755 23.08142338240227 3.477869989511079 0 0 0
372 124 1 0.5897 2.9771418967387797 22.429353163186143 3.9937910714175753 0 0 0
373 125 2 -1.1794 1.7985585143823315 21.398477726827373 4.906803837686678 0 0 0
375 125 1 0.5897 1.098227046901301 21.848849300941474 4.434657017349371 0 0 0
379 127 2 -1.1794 4.576729684236513 21.839252272019316 0.7803780440818023 0 0 0
380 127 1 0.5897 4.6629130979487545 22.78651823849974 0.8873679369017106 0 0 0
381 127 1 0.5897 5.3020905972768615 21.47358072631306 1.2866979476475096 0 0 0