LAMMPS data file via write_data, version 7 Jan 2022, timestep = 500000

2592 atoms
2 atom types
1728 bonds
1 bond types
864 angles
1 angle types

-10.860485166669552 36.18048316844832 xlo xhi
-9.315611498952016 12.305609498952016 ylo yhi
-0.08282693768855172 21.942825937688372 zlo zhi
-9.073956718581513 -21.6428842758321 3.0141072899535217 xy xz yz

Masses

1 1.008
2 15.999

Pair Coeffs # lj/cut/tip4p/long/omp

1 0 0
2 0.21084 3.1668

Bond Coeffs # harmonic/omp

1 450 0.9572

Angle Coeffs # harmonic/omp

1 55 104.52

Atoms # full

145 49 2 -1.1794 -16.37517057611992 -3.4606103835097866 4.646801591092869 1 0 0
381 127 1 0.5897 -7.761236316649689 -8.898736265362993 0.0030503114586185125 1 1 0
176 59 1 0.5897 -11.540751104149505 -2.2986177885820056 4.710793047276828 1 0 0
612 204 1 0.5897 -14.971557062256197 -4.18800568243796 3.346632555693271 1 1 0
175 59 2 -1.1794 -10.90403785949739 -2.2917441436674917 3.996013950428065 1 0 0
587 196 1 0.5897 -14.545406537850479 -8.154892435063333 3.987964154933719 1 1 0
177 59 1 0.5897 -11.38142159707501 -2.646424292065777 3.245991016847346 1 0 0
206 69 1 0.5897 -11.96154068919425 0.1548317788026454 4.481189801464575 1 0 0
598 200 2 -1.1794 -11.43188717312299 -8.473807668730638 3.8264198325898624 1 1 0
599 200 1 0.5897 -10.795977755221475 -7.965723408261636 3.322637543419304 1 1 0
147 49 1 0.5897 -17.274304892014303 -3.288238715203111 4.367334648533168 1 0 0
625 209 2 -1.1794 -8.588242073969607 -2.465905431479887 1.4121201807490993 1 1 0
380 127 1 0.5897 -6.598439451536563 -8.66959245219767 0.944994006012549 1 1 0
627 209 1 0.5897 -7.881307944686325 -2.1598167726927637 0.8438723388283267 1 1 0
606 202 1 0.5897 -10.901743116235883 -4.474067970478428 1.2923255612149618 1 1 0
605 202 1 0.5897 -9.452806579451961 -4.065827594986357 1.130807441588381 1 1 0
604 202 2 -1.1794 -10.029452419921927 -4.8298230706259675 1.122408173519916 1 1 0
603 201 1 0.5897 -16.61864869541512 -5.2288627816858995 5.100197390982612 1 1 0
611 204 1 0.5897 -14.355380995552338 -5.567140924557982 3.245508569791276 1 1 0
601 201 2 -1.1794 -16.826420824613578 -6.1632454140668935 5.099022105638927 1 1 0
610 204 2 -1.1794 -14.328500252303328 -4.6953383845122225 2.8512312632860133 1 1 0
638 213 1 0.5897 -8.626073016743725 -6.918699336615065 4.381754839699397 1 1 0
580 194 2 -1.1794 -12.178571909692348 -3.3162782842185843 1.8163439856827188 1 1 0
581 194 1 0.5897 -12.938022245231501 -3.649925500697549 2.294118603306324 1 1 0
582 194 1 0.5897 -12.538769569070151 -2.9869439225695427 0.9929486390383206 1 1 0
596 199 1 0.5897 -9.826246656787626 -1.1479127753484728 1.2647121493375078 1 1 0
167 56 1 0.5897 -13.838669173919817 -0.818731578196631 3.324895269098702 1 0 0
585 195 1 0.5897 -7.171275422771011 -5.2788390074231675 0.7704347595068212 1 1 0
586 196 2 -1.1794 -13.88568820265804 -7.471439393383913 4.106048244503076 1 1 0
168 56 1 0.5897 -14.164460655895697 -1.7574211755726612 4.467114453396081 1 0 0
588 196 1 0.5897 -13.048837579943152 -7.930005353288007 4.0305848921332394 1 1 0
166 56 2 -1.1794 -14.561868477894222 -1.3014547785130721 3.7252681754009584 1 0 0
592 198 2 -1.1794 -9.109469592878023 -7.010042867536906 2.610362362828086 1 1 0
593 198 1 0.5897 -9.361930185807186 -6.34981566881393 1.9649574728932324 1 1 0
594 198 1 0.5897 -8.436228122731627 -7.52982819802141 2.171165121272727 1 1 0
595 199 2 -1.1794 -10.434410733030642 -0.7103758788133896 0.6689938600292997 1 1 0
154 52 2 -1.1794 -17.16822332178053 -0.4004851934718269 3.859721422346632 1 0 0
379 127 2 -1.1794 -7.420368150857787 -8.279072180767281 0.6480826156921436 1 1 0
156 52 1 0.5897 -16.26279258133884 -0.7091296201402921 3.8246033049811605 1 0 0
160 54 2 -1.1794 -12.455914330844502 0.160109550071724 2.678476924333273 1 0 0
161 54 1 0.5897 -12.490958022844106 1.012337174192858 2.244095501723784 1 0 0
162 54 1 0.5897 -11.910300640457844 -0.3789153961415768 2.1056968466036867 1 0 0
155 52 1 0.5897 -17.695643125938847 -1.188112047502741 3.726516187847434 1 0 0
152 51 1 0.5897 -10.191232897567529 1.1514032353095132 0.3709621980693627 1 0 0
590 197 1 0.5897 -15.478636377891801 -2.014081384135844 2.099055898832615 1 1 0
179 60 1 0.5897 -17.303147880713652 1.106696007125857 2.9727844682788085 1 0 0
2581 861 2 -1.1794 -6.309941149334601 -1.6972854785492364 -0.08179143917404998 1 0 1
813 271 1 0.5897 -17.072241929281596 0.861429087521982 5.35400769814792 1 0 0
171 57 1 0.5897 -19.868658091744553 1.9616657710745375 5.159112663952747 1 0 0
146 49 1 0.5897 -16.17501122120642 -2.7539189725752355 5.260619924846977 1 0 0
169 57 2 -1.1794 -19.96474916324619 1.0113605421652212 5.0964823486940745 1 0 0
597 199 1 0.5897 -10.671793782005228 -1.3835977016177472 0.031287932771258686 1 1 0
584 195 1 0.5897 -7.471354890512487 -6.496621347434295 -0.07744194032077063 1 1 0
626 209 1 0.5897 -8.247593321960842 -2.355280850715887 2.2997751346007016 1 1 0
183 61 1 0.5897 -9.378998562463366 -3.548905569590818 4.116873298974463 1 0 0
1245 415 1 0.5897 -13.822422165819948 -5.882346069457706 5.218300124052709 1 1 0
1009 337 2 -1.1794 -22.425394021695446 -1.289171272681978 10.300193129254167 1 0 0
1243 415 2 -1.1794 -13.552365560774764 -5.306204625928466 5.933405654444406 1 1 0
843 281 1 0.5897 -13.634718684292285 0.6521488426950841 6.341938609142389 1 0 0
1019 340 1 0.5897 -23.524127574107663 1.4135253302380064 9.24960421229361 1 0 0
823 275 2 -1.1794 -14.015822778818222 -6.680246633268901 9.140529787963224 1 0 0
1018 340 2 -1.1794 -23.02180775525439 2.2253458340729533 9.319556660903206 1 0 0
841 281 2 -1.1794 -14.292345831594947 0.4440508963344747 7.005696395556127 1 0 0
1244 415 1 0.5897 -12.846834644486677 -5.782073158757704 6.37156415965011 1 1 0
1026 342 1 0.5897 -18.11353208970169 2.246411071826362 7.317450591565433 1 0 0
854 285 1 0.5897 -15.340876824446214 -4.2417074797588015 9.754935992180114 1 0 0
1230 410 1 0.5897 -15.645893515757692 -7.603494527019417 6.2719619685928985 1 1 0
803 268 1 0.5897 -20.76961970113578 -5.466885324597836 9.42982883550535 1 0 0
827 276 1 0.5897 -20.375400829990667 -3.0834572470175816 8.755530748305304 1 0 0
796 266 2 -1.1794 -18.535506395650376 -0.5056279171290785 7.065864856917991 1 0 0
824 275 1 0.5897 -14.683222198777246 -6.90170277380875 9.79005974847856 1 0 0
797 266 1 0.5897 -19.329326940951006 -0.847777735930325 7.477126582151717 1 0 0
798 266 1 0.5897 -18.840897174110996 -0.10237624743619683 6.253270975094615 1 0 0
1041 347 1 0.5897 -17.489352105714563 0.4543963806233382 8.688119955144606 1 0 0
819 273 1 0.5897 -22.782623023858108 -3.0263134702451424 10.569845065261134 1 0 0
1039 347 2 -1.1794 -16.972003865406194 0.31520618012102714 9.481313183659186 1 0 0
806 269 1 0.5897 -21.62075478157527 0.35572031569081264 7.568032622873633 1 0 0
801 267 1 0.5897 -13.370201894393938 -2.27109022367156 6.557634908891297 1 0 0
802 268 2 -1.1794 -20.170622348899357 -4.723927727806525 9.50393027227655 1 0 0
1032 344 1 0.5897 -20.18598884639982 0.8975977883024842 9.777228675111017 1 0 0
1031 344 1 0.5897 -19.821255511202402 1.6723908867036652 8.52877537496033 1 0 0
1030 344 2 -1.1794 -20.551711189830304 1.2240666350798652 8.955130354080387 1 0 0
811 271 2 -1.1794 -16.82969089464375 1.53007777026876 5.994573958418929 1 0 0
814 272 2 -1.1794 -17.684946776493156 -5.734669022092328 9.20756607134141 1 0 0
825 275 1 0.5897 -14.379251775520697 -6.98558326642876 8.309319117765167 1 0 0
1228 410 2 -1.1794 -15.301745465215644 -7.9639034265396695 7.0891814444359875 1 1 0
812 271 1 0.5897 -16.001588573485535 1.221166322247676 6.362052860320191 1 0 0
804 268 1 0.5897 -19.312378923733586 -5.1213338966366395 9.651451931216371 1 0 0
1238 413 1 0.5897 -18.52214795871941 -6.4737925321831495 7.785458290228128 1 1 0
810 270 1 0.5897 -14.928179315250008 -4.805670354224083 7.013500725328619 1 0 0
1273 425 2 -1.1794 -11.176803794301806 -6.876230204962706 6.662798235440992 1 1 0
828 276 1 0.5897 -21.37441653697022 -1.946427965664409 8.788365728272598 1 0 0
815 272 1 0.5897 -16.964177604626222 -5.308136242099287 8.743987093043327 1 0 0
1020 340 1 0.5897 -22.109092258256148 1.9514482828355373 9.228810037328122 1 0 0
816 272 1 0.5897 -17.258256990063735 -6.372700226504703 9.779430682065142 1 0 0
1040 347 1 0.5897 -17.621417500367155 0.15975838444769147 10.167205591409418 1 0 0
826 276 2 -1.1794 -20.524069203051592 -2.1967920264947214 8.427010387628435 1 0 0
822 274 1 0.5897 -16.791781818537483 -1.5031808159731646 6.8897270865713995 1 0 0
821 274 1 0.5897 -15.362596178448584 -1.0092632629581584 6.964288996628207 1 0 0
820 274 2 -1.1794 -15.884037480940796 -1.8062289076977776 6.86831204381339 1 0 0
809 270 1 0.5897 -15.764302540741935 -3.5787761380054093 7.309482413009385 1 0 0
808 270 2 -1.1794 -15.553764640257308 -4.450204008484065 7.644873894194782 1 0 0
1011 337 1 0.5897 -23.265783720440098 -0.9776441216717088 9.964174853366332 1 0 0
1253 418 1 0.5897 -12.285159121658065 -8.36098663121496 6.763344188388218 1 1 0
799 267 2 -1.1794 -13.158347313153973 -2.6516085632831516 5.705216434890312 1 0 0
1275 425 1 0.5897 -10.567599263432982 -7.009108788325698 5.9364591811857474 1 1 0
853 285 2 -1.1794 -15.372923793724597 -3.9193164333978276 10.655660175942957 1 0 0
817 273 2 -1.1794 -23.05355038845357 -3.9357416423363896 10.695484150243372 1 0 0
800 267 1 0.5897 -13.317323561604534 -3.589141682565991 5.814733473364396 1 0 0
1447 483 2 -1.1794 -16.26066797945883 -7.5333483701392865 10.864637114674991 1 0 0
1449 483 1 0.5897 -16.144425003170397 -7.2564473510827545 11.773514123254257 1 0 0
1461 487 1 0.5897 -20.03427299786987 -3.540447078081224 11.089980749728875 1 0 0
1896 632 1 0.5897 -26.106884256835112 3.368437690272103 15.358740345309608 1 0 0
1688 563 1 0.5897 -20.707850255674067 -4.736828054747692 15.94766728601139 1 0 0
1665 555 1 0.5897 -19.23569926545634 -0.0754636763243233 12.016892165849542 1 0 0
1707 569 1 0.5897 -19.902200073650118 2.9231550888570212 11.976583283331216 1 0 0
1873 625 2 -1.1794 -28.856274114126585 1.0515718609998295 15.676983171970697 1 0 0
1660 554 2 -1.1794 -24.7965976469859 2.0655599855602245 12.962158938503771 1 0 0
1661 554 1 0.5897 -25.456908262230623 1.5825049228139174 13.459125669520647 1 0 0
1662 554 1 0.5897 -25.179597038804353 2.1684044375166622 12.090995080729723 1 0 0
1454 485 1 0.5897 -24.703534329291788 -4.017486616295825 13.186150601035871 1 0 0
1476 492 1 0.5897 -24.53992923451035 -6.531053658743231 14.03847092034288 1 0 0
1491 497 1 0.5897 -16.596380801726557 -4.249060790093786 11.998945648454193 1 0 0
1460 487 1 0.5897 -18.821926948027674 -3.250579345377392 11.949097184435136 1 0 0
1444 482 2 -1.1794 -21.562395998536537 -5.693481792192745 12.36343582086769 1 0 0
1705 569 2 -1.1794 -20.53435375531673 2.57862586084079 12.607471415632823 1 0 0
1691 564 1 0.5897 -26.444573246601266 -0.6421495543377985 14.458990986117984 1 0 0
1692 564 1 0.5897 -27.318533153370407 0.5937340656879451 14.432978990718196 1 0 0
1689 563 1 0.5897 -20.571812866005136 -4.741346852888114 14.439872202610974 1 0 0
1718 573 1 0.5897 -21.499716861486014 -1.4316443954268 15.60962453334052 1 0 0
1687 563 2 -1.1794 -20.07214424465536 -4.603293556873401 15.244531773436094 1 0 0
1686 562 1 0.5897 -23.113518817410977 0.8318639437481522 12.772132640378082 1 0 0
1685 562 1 0.5897 -21.63377695907345 1.0583754311079476 12.545814112225662 1 0 0
1684 562 2 -1.1794 -22.30336649451943 0.3743145955529421 12.547156729247215 1 0 0
1680 560 1 0.5897 -23.39273617213709 -3.996945326393991 15.53956174144887 1 0 0
1679 560 1 0.5897 -22.950434527484433 -3.1278417882428844 14.381541830022947 1 0 0
1678 560 2 -1.1794 -23.70234857397423 -3.6153238350939496 14.718166865526323 1 0 0
1674 558 1 0.5897 -20.873551081764006 -2.315028678528883 13.416728531415272 1 0 0
1673 558 1 0.5897 -21.902945505923253 -1.2054737604704349 13.451391412355193 1 0 0
1672 558 2 -1.1794 -21.604783401534128 -1.976674517843419 13.933614311722344 1 0 0
1668 556 1 0.5897 -25.16610022033485 -2.6592759599895515 14.906171823687295 1 0 0
1010 337 1 0.5897 -22.225014160230018 -0.7007592778248372 11.028112809236642 1 0 0
1666 556 2 -1.1794 -26.03345143345965 -2.3127566347545256 15.11579169807503 1 0 0
1670 557 1 0.5897 -27.670373724902593 3.1979796747132316 13.303915642396031 1 0 0
1667 556 1 0.5897 -26.595927440919528 -3.085873188702569 15.162644581715353 1 0 0
1904 635 1 0.5897 -23.728813455543456 2.949392546497247 15.580678985879677 1 0 0
1459 487 2 -1.1794 -19.733595171729327 -2.991760509165514 11.814395255529098 1 0 0
1903 635 2 -1.1794 -23.134714820003445 2.921227332707613 14.830608506946298 1 0 0
1445 482 1 0.5897 -22.34129297808455 -5.941097202793934 12.861800645082441 1 0 0
1468 490 2 -1.1794 -19.01563059310134 -6.696143319405697 12.13300892405291 1 0 0
1474 492 2 -1.1794 -23.948511923557362 -7.072403893523549 13.515502370417924 1 0 0
1657 553 2 -1.1794 -25.70149616687297 -5.9645677402739885 15.390540725444264 1 0 0
1446 482 1 0.5897 -21.894693199272144 -5.1352378818974085 11.660497338488469 1 0 0
1905 635 1 0.5897 -23.687939140458603 2.655226282185808 14.096170704206068 1 0 0
1470 490 1 0.5897 -19.89321548542954 -6.324560476057732 12.04337075278485 1 0 0
1469 490 1 0.5897 -18.45591862846249 -5.9450148478706994 12.329963395395607 1 0 0
1690 564 2 -1.1794 -26.52526244218571 0.21935230361674354 14.049714766389812 1 0 0
1489 497 2 -1.1794 -17.3778745135118 -4.363125264246909 12.539894101360455 1 0 0
1875 625 1 0.5897 -29.565135367989427 1.5517852317021448 15.272632227634645 1 0 0
1658 553 1 0.5897 -25.48402663671736 -5.335930594928965 16.07885086713089 1 0 0
1663 555 2 -1.1794 -19.438299853261373 -0.25430234233756305 11.09863341232111 1 0 0
1683 561 1 0.5897 -28.983969757998892 -0.7891095004989377 16.208809534537405 1 0 0
2325 775 1 0.5897 -26.214885420791312 -0.9926645344032169 16.280531771281098 1 0 0
2528 843 1 0.5897 -25.272138103533905 1.4591335071717637 16.344882075903538 1 0 0
1664 555 1 0.5897 -19.657809880950463 -1.1857771360860263 11.078296491853306 1 0 0
2338 780 2 -1.1794 -30.075046633080248 -4.600835218547947 19.391497378630735 1 0 0
2550 850 1 0.5897 -29.453317972657718 3.433926430724281 17.97293780660484 1 0 0
2531 844 1 0.5897 -32.965294186440346 -0.3388712733186607 20.486000846207993 1 0 0
2549 850 1 0.5897 -27.96232843185245 3.684136363931979 17.89250286066132 1 0 0
2554 852 2 -1.1794 -33.028351600287564 2.6124525740879814 19.443415142204685 1 0 0
2553 851 1 0.5897 -27.289075139299232 -2.3413389731925016 19.58924987712953 1 0 0
2522 841 1 0.5897 -31.88915543833689 -2.692585360590239 21.590327268750766 1 0 0
2308 770 2 -1.1794 -27.962334123977392 -3.225171518145608 18.270448696346282 1 0 0
2309 770 1 0.5897 -28.628894221525858 -3.7496712843727273 18.714210186154197 1 0 0
2310 770 1 0.5897 -28.404292515673376 -2.882951730337438 17.493443344500392 1 0 0
583 195 2 -1.1794 -28.98560120202739 -2.5355402115263597 21.894140502144566 1 1 -1
2323 775 2 -1.1794 -25.880400629363635 -0.38958676951247123 16.944351985172588 1 0 0
2324 775 1 0.5897 -25.123340310463153 -0.8403196699546188 17.318389158591287 1 0 0
2551 851 2 -1.1794 -26.704124478173036 -2.02328906538706 20.276924959375414 1 0 0
2334 778 1 0.5897 -26.29400320894141 -3.8479994248221274 17.8476920997702 1 0 0
2313 771 1 0.5897 -22.509584944403883 -4.879803086286662 17.883716192128055 1 0 0
2555 852 1 0.5897 -32.68357521228746 1.8541783143639319 19.914937990034865 1 0 0
2353 785 2 -1.1794 -23.588900300350215 -1.5990307656481135 18.022551275450578 1 0 0
2365 789 2 -1.1794 -24.685222526242985 -6.261029008230514 21.65150753196425 1 0 0
2089 697 2 -1.1794 -35.07953399147386 3.965640985658261 21.32045454239011 1 -1 0
2332 778 2 -1.1794 -25.388534123512898 -4.15321286728405 17.904759840663512 1 0 0
2340 780 1 0.5897 -30.79662816295867 -4.264360009535419 19.92296024995849 1 0 0
2548 850 2 -1.1794 -28.6187048930378 2.9913137242551078 17.818647479709185 1 0 0
2552 851 1 0.5897 -27.212547158960042 -2.1097182797066036 21.083381913589697 1 0 0
2544 848 1 0.5897 -29.909857644521992 -1.7724169253985138 20.599967748068167 1 0 0
2547 849 1 0.5897 -35.195271791794006 2.000049909982087 21.714048713291294 1 0 0
2525 842 1 0.5897 -31.5028317458429 4.028217541783359 18.976024084233615 1 0 0
2556 852 1 0.5897 -33.78581071046223 2.891083134129992 19.95817379833879 1 0 0
2530 844 2 -1.1794 -32.29658344764453 0.27460764624877665 20.790522828026596 1 0 0
2582 861 1 0.5897 -28.123754053288526 0.8551249320718262 21.12296843320672 1 0 0
2532 844 1 0.5897 -31.465867049416335 -0.1512861563836387 20.57877793430056 1 0 0
2543 848 1 0.5897 -29.368003624793946 -0.6437916267913438 19.748743675737646 1 0 0
2536 846 2 -1.1794 -28.059190573901315 0.6395135022248597 19.18409670616851 1 0 0
2537 846 1 0.5897 -28.04204355056085 1.4757310206378487 18.718630030315435 1 0 0
2538 846 1 0.5897 -27.31255099979167 0.1541289098267015 18.83301689899794 1 0 0
2542 848 2 -1.1794 -30.18511785098053 -1.0613072301255586 20.021403255050974 1 0 0
2521 841 2 -1.1794 -32.01841732681827 -3.4049830140894954 20.964200986131463 1 0 0
2529 843 1 0.5897 -25.20591200565161 2.462657172792769 17.476483424574734 1 0 0
2339 780 1 0.5897 -30.01549451403821 -5.526835121157301 19.626416704611554 1 0 0
2333 778 1 0.5897 -24.871755940458716 -3.353902177486489 18.006293988012924 1 0 0
2321 774 1 0.5897 -25.177607569165882 -5.857946786466584 18.583656967985466 1 0 0
2329 777 2 -1.1794 -32.27181716999907 -6.181340294632262 21.852647180301535 1 0 0
1874 625 1 0.5897 -28.692444573191544 1.4966856306661491 16.50841531191922 1 0 0
2312 771 1 0.5897 -22.65278128806634 -6.092110403520167 16.988305034456577 1 0 0
2355 785 1 0.5897 -22.782091434047295 -1.650681842377964 17.509953548980146 1 0 0
2527 843 2 -1.1794 -25.12171342606973 2.386934674199783 16.52598749821242 1 0 0
2331 777 1 0.5897 -32.412167153958585 -5.234537209554679 21.843274582320213 1 0 0
2311 771 2 -1.1794 -22.48235812761599 -5.1504646838001245 16.96596578270032 1 0 0
2559 853 1 0.5897 -25.231251657759955 -3.2192088963441363 20.900987719787718 1 0 0
2318 773 1 0.5897 -31.134172797436875 -1.8448203629469875 18.739916758110525 1 0 0
2545 849 2 -1.1794 -35.2842828864058 1.0469965355083917 21.71366460965232 1 0 0
148 50 2 -1.1794 -15.371415339765381 3.8325633684844793 1.7337720911096155 1 0 0
149 50 1 0.5897 -16.13809964361697 3.3626417890745492 2.061961791329934 1 0 0
150 50 1 0.5897 -15.725126322687265 4.4543199826275695 1.0977806964443173 1 0 0
158 53 1 0.5897 -18.81002463934208 5.042053506734796 2.2340884611143035 1 0 0
368 123 1 0.5897 -12.829605676413783 7.876306283657407 0.22162842059475937 1 0 0
422 141 1 0.5897 -14.87584393929596 7.588396616030437 4.670744834639642 1 0 0
395 132 1 0.5897 -19.80197822276384 8.756160655702176 3.1052996572795957 1 0 0
579 193 1 0.5897 -22.866552695322838 11.022884034436029 4.569256888519872 1 0 0
409 137 2 -1.1794 -14.250753692003949 11.842186975081773 1.4821356974918742 1 0 0
393 131 1 0.5897 -14.239171645127243 4.400999046933066 3.1120992745185583 1 0 0
371 124 1 0.5897 -20.469714348194938 6.607515901347527 4.15757483174747 1 0 0
391 131 2 -1.1794 -13.794960278442831 4.7500884839980895 3.8847770191125046 1 0 0
396 132 1 0.5897 -20.94522667826029 9.745428339966367 3.1847163084954953 1 0 0
164 55 1 0.5897 -12.708663747559765 5.7880749681664145 1.3260631431434982 1 0 0
374 125 1 0.5897 -21.344178885113493 12.379729265292475 2.200514413517199 1 0 0
390 130 1 0.5897 -16.51381309303008 10.022017304622809 1.3323115344375505 1 0 0
389 130 1 0.5897 -15.035659128689204 10.180530804304802 1.0458056715253365 1 0 0
388 130 2 -1.1794 -15.71473378808243 9.518614225484747 1.1762792121127985 1 0 0
384 128 1 0.5897 -17.1924619327769 5.30677487994358 4.478783112247328 1 0 0
383 128 1 0.5897 -16.817529237797316 6.228089536097331 3.3374833413037885 1 0 0
172 58 2 -1.1794 -12.86935680339094 2.702275680474405 1.3382707890006338 1 0 0
173 58 1 0.5897 -12.45487549364586 3.560137395429208 1.4306680142745485 1 0 0
174 58 1 0.5897 -13.80146444732493 2.8697870828085126 1.4776607681858167 1 0 0
195 65 1 0.5897 -10.752696295065226 5.231979695466011 1.1528665006395007 1 0 0
382 128 2 -1.1794 -17.569894430836158 5.90298468174465 3.832059792513661 1 0 0
577 193 2 -1.1794 -22.144934824327564 10.430892724049642 4.781464181154398 1 0 0
608 203 1 0.5897 -17.58649829170072 11.679156826139739 4.353041906370878 1 0 0
369 123 1 0.5897 -13.091235653666828 9.11459675753766 1.0523910696004193 1 0 0
378 126 1 0.5897 -14.646817164847391 6.809708777322459 2.3360518463867304 1 0 0
361 121 2 -1.1794 -19.482676163813284 3.516184676798056 4.32380122996637 1 0 0
411 137 1 0.5897 -13.531586138166514 11.972035869924678 0.863831661995975 1 0 0
392 131 1 0.5897 -14.461753460186074 4.7366750052915165 4.57148174816975 1 0 0
163 55 2 -1.1794 -13.427275617222987 6.192884792097912 0.8403486021193345 1 0 0
193 65 2 -1.1794 -11.28697846407193 5.0032113165294 1.9134853619670118 1 0 0
609 203 1 0.5897 -17.31764806767712 11.216499883974564 2.9368143144180037 1 0 0
370 124 2 -1.1794 -19.73478542907498 7.220393349019602 4.1339229865408145 1 0 0
394 132 2 -1.1794 -20.263510715512187 9.422039738881 2.595621694439091 1 0 0
372 124 1 0.5897 -18.958629762989688 6.662576093048107 4.0819099338224625 1 0 0
376 126 2 -1.1794 -15.24706330649217 7.351816148265505 2.8480519566388134 1 0 0
377 126 1 0.5897 -15.365330974286303 8.142149811094592 2.32119199896882 1 0 0
178 60 2 -1.1794 -17.417520854781014 2.0218460635684115 2.716611528398373 1 0 0
607 203 2 -1.1794 -16.883975134951633 11.574938160366244 3.7111995206888064 1 0 0
180 60 1 0.5897 -18.063644703349265 2.364921372357505 3.333999555222394 1 0 0
364 122 2 -1.1794 -18.167805465113197 10.788050522544957 1.3576783985428258 1 0 0
365 122 1 0.5897 -18.839774341327715 10.363921166147946 1.8914493280991522 1 0 0
366 122 1 0.5897 -18.658017560748398 11.34342910423095 0.7515250668477133 1 0 0
367 123 2 -1.1794 -12.97920975895078 8.81893187382885 0.1488925882628979 1 0 0
600 200 1 0.5897 -19.974762148238465 12.533145291023828 4.333185090192575 1 0 0
153 51 1 0.5897 -10.11888568871863 2.480601586402879 1.0920356172456596 1 0 0
151 51 2 -1.1794 -9.942066671739576 2.0672536825214727 0.24695112039017356 1 0 0
387 129 1 0.5897 -22.511398472356937 8.837336850424338 5.405782679406499 1 0 0
165 55 1 0.5897 -13.57696092491468 5.605588799630156 0.09945119238083107 1 0 0
362 121 1 0.5897 -19.257422501336702 4.002849842002091 5.116681527874824 1 0 0
1029 343 1 0.5897 -19.804599893972203 8.402234911450208 5.396293320144 1 0 0
1254 418 1 0.5897 -22.803523213560183 12.931987022071484 7.076553638870244 1 0 0
1042 348 2 -1.1794 -23.251185468839306 4.805977681803789 8.41197071691598 1 0 0
1038 346 1 0.5897 -19.722361327601387 5.425029890619962 6.725599354908248 1 0 0
1037 346 1 0.5897 -18.369934628928593 5.983141323304373 6.336212437923365 1 0 0
1036 346 2 -1.1794 -18.80107141346095 5.1819495776633495 6.633676224596428 1 0 0
1025 342 1 0.5897 -18.33770076796095 3.701204201774828 7.6713498707259875 1 0 0
1017 339 1 0.5897 -15.857185974110413 4.7107662972197435 6.491880591611238 1 0 0
1016 339 1 0.5897 -16.236165046145246 3.4129641653023346 5.810687803899827 1 0 0
793 265 2 -1.1794 -28.523604804166723 12.962137523066865 10.140260724796532 1 -1 0
1027 343 2 -1.1794 -19.53526357944586 8.96430046225155 6.122779492853486 1 0 0
1059 353 1 0.5897 -16.568150288396428 7.672660334997236 6.332496107830217 1 0 0
1286 429 1 0.5897 -20.96881991660505 9.987625407585861 9.982128186545676 1 0 0
1259 420 1 0.5897 -26.383105085518377 11.398157862147508 8.440833129134175 1 0 0
1235 412 1 0.5897 -26.578172070862905 9.103369860091288 9.347345424359473 1 0 0
1057 353 2 -1.1794 -17.329032527398994 7.762201520895933 6.906438402053373 1 0 0
1257 419 1 0.5897 -20.367784211355488 7.307046036974231 8.469789857881208 1 0 0
1044 348 1 0.5897 -24.031952628726337 5.090039396721696 8.88743868990031 1 0 0
1255 419 2 -1.1794 -19.9400323551241 7.777381638207395 9.185360858153315 1 0 0
1232 411 1 0.5897 -19.066996203062544 10.576750224985258 5.704039123567963 1 0 0
794 265 1 0.5897 -28.125951052732557 13.565225516248953 10.768271651630496 1 -1 0
1252 418 2 -1.1794 -21.921207036373776 12.56139266362081 7.097960839255302 1 0 0
1258 420 2 -1.1794 -26.648257823232758 12.233252904235913 8.05546968387157 1 0 0
1248 416 1 0.5897 -23.058136321427796 7.813908414990027 9.796054683536113 1 0 0
1247 416 1 0.5897 -22.87480092599598 8.830868561564007 8.689675038001694 1 0 0
1246 416 2 -1.1794 -23.5219942943671 8.240534552341309 9.075635434054112 1 0 0
1012 338 2 -1.1794 -21.303012476022122 6.54531107458373 7.221522917147712 1 0 0
1013 338 1 0.5897 -21.924706275218604 5.867860200080124 7.487723068642654 1 0 0
1014 338 1 0.5897 -21.78382332624541 7.076068265639186 6.586468974946658 1 0 0
1242 414 1 0.5897 -20.788708817685173 9.789495905104928 7.561625070968974 1 0 0
1241 414 1 0.5897 -21.635198182130736 10.984626931058585 7.9451529689478 1 0 0
1240 414 2 -1.1794 -21.57020887349282 10.036143454183005 8.056374593760241 1 0 0
1225 409 2 -1.1794 -25.19730419907803 5.944336184809332 10.107313708279003 1 0 0
1236 412 1 0.5897 -25.136551892978673 9.335841911037427 8.94749818675842 1 0 0
1256 419 1 0.5897 -20.52860528538598 7.665245759039188 9.931922929461145 1 0 0
1234 412 2 -1.1794 -25.92993920995787 9.796293146856467 9.221067878947425 1 0 0
1233 411 1 0.5897 -18.926573556071286 11.900483963920154 6.425118704591703 1 0 0
1022 341 1 0.5897 -24.717561914214166 7.487973699024592 7.7638703780648965 1 0 0
1028 343 1 0.5897 -18.757080915632923 8.537203702979832 6.480874952065403 1 0 0
1251 417 1 0.5897 -29.09347570192812 11.316795301293595 10.482757071702405 1 0 0
1043 348 1 0.5897 -23.161758152969824 3.878243647354759 8.629970507903433 1 0 0
1260 420 1 0.5897 -27.44137773531628 12.47683741656219 8.532949652506792 1 0 0
831 277 1 0.5897 -21.604617719616243 13.562221849454247 9.556088146889527 1 -1 0
1231 411 2 -1.1794 -18.946542706640685 11.51372176636783 5.549745976367166 1 0 0
1069 357 2 -1.1794 -18.42833642091822 3.457791962083601 10.733884468641161 1 0 0
1227 409 1 0.5897 -26.08314432024167 6.236435918803418 9.892323012782157 1 0 0
1035 345 1 0.5897 -25.576235574644855 4.179647781945051 10.86546661756969 1 0 0
1677 559 1 0.5897 -22.910041659271833 3.726180492134793 10.82756708024592 1 0 0
1024 342 2 -1.1794 -18.43646341829974 2.814161945162924 8.01721898709628 1 0 0
1070 357 1 0.5897 -18.251992344769082 3.167889666361411 9.838815876851768 1 0 0
795 265 1 0.5897 -29.25376833539679 13.453971689443563 9.764524864591147 1 -1 0
1033 345 2 -1.1794 -25.902109656134307 3.2907507973639296 10.724328172970258 1 0 0
1015 339 2 -1.1794 -15.863862067435976 4.277778446260883 5.638216916921707 1 0 0
1226 409 1 0.5897 -24.87990251244607 6.587278555741441 10.741446131867132 1 0 0
1229 410 1 0.5897 -25.115642606800396 13.188378543374043 7.475085624858292 1 0 0
1448 483 1 0.5897 -25.634118495186048 13.180833159366284 10.926531135825359 1 -1 0
1893 631 1 0.5897 -26.166285157111343 10.953410476741025 10.82909726121083 1 0 0
385 129 2 -1.1794 -22.788042369349245 7.921258592112082 5.42854218081617 1 0 0
578 193 1 0.5897 -21.806084027787453 10.755096773944349 5.615907757895238 1 0 0
1881 627 1 0.5897 -21.960401396447764 7.327988344128436 11.966830726011318 1 0 0
1467 489 1 0.5897 -35.29358854945589 14.016272451220765 16.19540870426338 1 -1 0
1443 481 1 0.5897 -32.63214560114261 9.031189752609855 15.68217580180598 1 -1 0
1878 626 1 0.5897 -27.82015106140372 9.745232181257116 12.55666184474916 1 0 0
1464 488 1 0.5897 -29.77955590454345 10.392918062034108 15.341283718590955 1 -1 0
1450 484 2 -1.1794 -32.52103953373906 12.205488418313182 14.74036843365929 1 -1 0
1934 645 1 0.5897 -24.368629730729012 5.3396386784484395 15.465767997431856 1 0 0
1452 484 1 0.5897 -31.66010733386938 11.799921224257847 14.843259075768106 1 -1 0
1463 488 1 0.5897 -29.310032503927292 11.462537516432683 14.37825117121707 1 -1 0
1456 486 2 -1.1794 -27.85001518241394 12.505113480184082 13.623003632381218 1 -1 0
1457 486 1 0.5897 -28.09179590825184 13.31758449835002 13.17845569436637 1 -1 0
1458 486 1 0.5897 -27.026856774083466 12.242055442175072 13.211225519273839 1 -1 0
1462 488 2 -1.1794 -30.068342096884642 10.920789960768822 14.596881197302155 1 -1 0
1676 559 1 0.5897 -21.85202524056106 3.865783291061862 11.901320873014079 1 0 0
1877 626 1 0.5897 -28.757512501819868 8.722142737094408 13.162236495836117 1 0 0
1675 559 2 -1.1794 -22.529213052136445 4.3581052523965305 11.437387772847886 1 0 0
1441 481 2 -1.1794 -31.92766382870463 8.590530497703668 16.157271211009043 1 -1 0
1475 492 1 0.5897 -32.97331356369049 13.719296955456503 13.990567172839773 1 -1 0
1472 491 1 0.5897 -27.10077790900351 9.833930847641835 15.957910550743964 1 -1 0
1465 489 2 -1.1794 -35.39484059865342 13.089773328379414 16.413524588254443 1 -1 0
1897 633 2 -1.1794 -32.15808460197124 5.890377521818729 16.327166697796155 1 0 0
1894 632 2 -1.1794 -26.666522976347473 3.8485525528090236 14.7484321255743 1 0 0
1906 636 2 -1.1794 -30.03899703712897 7.570744106583394 13.571925724118936 1 0 0
1886 629 1 0.5897 -30.970227814518644 10.100490687472403 13.040272067484116 1 0 0
1907 636 1 0.5897 -29.58043245997255 6.865551734227182 14.028664518145417 1 0 0
1902 634 1 0.5897 -26.010931089689457 8.178448132107988 12.540237640987844 1 0 0
1901 634 1 0.5897 -24.629530548182537 8.617763584987937 12.103285660169945 1 0 0
1900 634 2 -1.1794 -25.116146274980597 7.858627350113708 12.424533332581385 1 0 0
1473 491 1 0.5897 -26.865015771461586 9.304523871730137 14.55927737087323 1 -1 0
1502 501 1 0.5897 -27.15527491631081 13.118653783150501 15.306908930647667 1 -1 0
1471 491 2 -1.1794 -26.42764460125457 9.75479847056536 15.281901388423533 1 -1 0
1895 632 1 0.5897 -26.066169765116292 4.173996055369899 14.07761114414739 1 0 0
1876 626 2 -1.1794 -27.829557754278245 8.904206032691352 13.013608950191998 1 0 0
1882 628 2 -1.1794 -29.041638500758506 5.139635330957266 14.881437441279 1 0 0
1892 631 1 0.5897 -25.17145933134073 11.03932787387362 11.966977637093045 1 0 0
1891 631 2 -1.1794 -26.063014943604507 11.285835696039175 11.720768467734414 1 0 0