LAMMPS (30 Jul 2021)
  using 1 OpenMP thread(s) per MPI task
echo both

include		in.partitions
variable        pid world 0
include		in.temp
variable        temperature equal 245
variable	tempDamp equal 100.0
include		in.pressure
variable        pressure equal 1000
variable        pressureDamp equal 1000.0 # This is 1 ps
include		in.seed
variable        seed world 745823

units		real
atom_style	full
include		in.box
box tilt large
read_data       iceII.data
Reading data file ...
  triclinic box = (0.0000000 0.0000000 0.0000000) to (23.340000 21.468634 43.717812) with tilt (-9.1571470 3.9466400 5.9740430)
  4 by 4 by 8 MPI processor grid
  reading atoms ...
  2592 atoms
  scanning bonds ...
  2 = max bonds/atom
  scanning angles ...
  1 = max angles/atom
  reading bonds ...
  1728 bonds
  reading angles ...
  864 angles
Finding 1-2 1-3 1-4 neighbors ...
  special bond factors lj:    0        0        0       
  special bond factors coul:  0        0        0       
     2 = max # of 1-2 neighbors
     1 = max # of 1-3 neighbors
     1 = max # of 1-4 neighbors
     2 = max # of special neighbors
  special bonds CPU = 0.018 seconds
  read_data CPU = 0.067 seconds
include 	in.setup
variable	out_freq equal 500
variable	out_freq2 equal 500

timestep	2.0

neigh_modify    delay 7 every 1

include		in.tip4p
# This is TIP4P/Ice

# create groups ###
group ox type 2
864 atoms in group ox
group hy type 1
1728 atoms in group hy

# set charges - beside manually ###
set group ox charge -1.1794
Setting atom values ...
  864 settings made for charge
set group hy charge 0.5897
Setting atom values ...
  1728 settings made for charge

# ### TIP3P Potential Parameters ###
pair_style lj/cut/tip4p/long 2 1 1 1 0.1577 8.5
pair_coeff 1 1*2 0.000 0.000
pair_coeff 2 2 0.21084 3.1668
bond_style  harmonic
bond_coeff  1 450 0.9572
angle_style harmonic
angle_coeff 1 55 104.52
kspace_style pppm/tip4p 1.0e-5
pair_modify tail yes

thermo          ${out_freq}
thermo          500
thermo_style 	custom step temp pe etotal epair emol press lx ly lz xy xz yz vol pxx pyy pzz pxy pxz pyz cella cellb cellc cellalpha cellbeta cellgamma

restart 	${out_freq} restart.lmp.${pid} restart2.lmp.${pid}
restart 	500 restart.lmp.${pid} restart2.lmp.${pid}
restart 	500 restart.lmp.0 restart2.lmp.${pid}
restart 	500 restart.lmp.0 restart2.lmp.0


include         in.dump
dump            myDump all atom ${out_freq2} dump.water.${pid}
dump            myDump all atom 500 dump.water.${pid}
dump            myDump all atom 500 dump.water.0
dump            myDump2 all dcd ${out_freq2} dump.dcd
dump            myDump2 all dcd 500 dump.dcd
dump_modify     myDump append yes
dump_modify     myDump2 append yes


timer           timeout 05:00:00 every 1000
New timer settings: style=normal  mode=nosync  timeout=05:00:00

fix 		1 all shake 1e-6 200 0 b 1 a 1
       0 = # of size 2 clusters
       0 = # of size 3 clusters
       0 = # of size 4 clusters
     864 = # of frozen angles
  find clusters CPU = 0.002 seconds
fix             2 all nph tri ${pressure} ${pressure} ${pressureDamp}
fix             2 all nph tri 1000 ${pressure} ${pressureDamp}
fix             2 all nph tri 1000 1000 ${pressureDamp}
fix             2 all nph tri 1000 1000 1000
fix             3 all temp/csvr ${temperature} ${temperature} ${tempDamp} ${seed}
fix             3 all temp/csvr 245 ${temperature} ${tempDamp} ${seed}
fix             3 all temp/csvr 245 245 ${tempDamp} ${seed}
fix             3 all temp/csvr 245 245 100 ${seed}
fix             3 all temp/csvr 245 245 100 745823
velocity 	all create ${temperature} ${seed} dist gaussian
velocity 	all create 245 ${seed} dist gaussian
velocity 	all create 245 745823 dist gaussian

run             500000
PPPM initialization ...
  extracting TIP4P info from pair style
  using 12-bit tables for long-range coulomb (../kspace.cpp:340)
  G vector (1/distance) = 0.36656857
  grid = 30 40 60
  stencil order = 5
  estimated absolute RMS force accuracy = 0.0046837777
  estimated relative force accuracy = 1.4105057e-05
  using double precision FFTW3
  3d grid and FFT values/proc = 4864 640
Neighbor list info ...
  update every 1 steps, delay 7 steps, check yes
  max neighbors/atom: 2000, page size: 100000
  master list distance cutoff = 10.8154
  ghost atom cutoff = 10.8154
  binsize = 5.4077, bins = 7 6 9
  1 neighbor lists, perpetual/occasional/extra = 1 0 0
  (1) pair lj/cut/tip4p/long, perpetual
      attributes: half, newton on
      pair build: half/bin/newton/tri
      stencil: half/bin/3d/tri
      bin: standard
Per MPI rank memory allocation (min/avg/max) = 9.434 | 9.448 | 9.454 Mbytes
Step Temp PotEng TotEng E_pair E_mol Press Lx Ly Lz Xy Xz Yz Volume Pxx Pyy Pzz Pxy Pxz Pyz Cella Cellb Cellc CellAlpha CellBeta CellGamma 
       0          245   -13874.649   -12613.424   -13874.649            0   -972.66259        23.34    21.468634    43.717812    -9.157147      3.94664     5.974043     21906.03   -4898.7318    -3150.808    5131.5521     1930.886    3818.6302    1528.9564        23.34        23.34    44.300251    84.888832    84.888832        113.1 
     500    249.33356   -12651.344    -11367.81   -12651.344            0    1211.7236    23.511126    21.613482    44.058334   -9.2078223    3.9332757    5.9205086    22388.565    811.12906    1222.2817    1601.7601    51.398532    72.353672    274.90505    23.511126    23.493118    44.628017    84.979848    84.943695    113.07508 
    1000    242.61278    -12633.71   -11384.774    -12633.71            0     743.0785    23.537409    21.604357    43.949908   -9.3109037    3.8404878    5.8753075    22348.994      1079.44    793.56076     356.2347     494.3631   -130.89076    329.18125    23.537409     23.52533    44.506887    85.004485    85.049806    113.31476 
    1500    255.01508   -12654.671    -11341.89   -12654.671            0    1927.7252    23.434389    21.659798    43.722185   -9.1255717    4.0106459    5.9820002    22192.687    2657.3792     1928.055    1197.7414   -694.60083     972.6182    149.10199    23.434389    23.503679    44.311388    84.878581    84.807024    112.84636 
    2000    249.70414   -12645.321   -11359.879   -12645.321            0    1631.1407     23.53001     21.64144    43.653035   -9.3489611    3.8355326    5.7821282    22229.142    1618.9224    1186.0833    2088.4165   -251.46252    303.29185    590.78487     23.53001    23.574456    44.201038    85.085122    85.021914    113.36403 
    2500    257.80473   -12648.722    -11321.58   -12648.722            0    1273.1309    23.656755    21.564212    43.668029     -9.10311     4.013497    5.9166043    22276.778    104.53289    1878.9877    1835.8721    255.29268    56.558367   -339.08159    23.656755    23.406876    44.249419    84.956638    84.796024    112.88654 
    3000    241.13944   -12616.183   -11374.831   -12616.183            0    1289.9233    23.502753    21.633048    43.915154    -9.312591    3.7905378     5.994865    22328.054     1700.386     377.9214    1791.4624   -116.15913    307.72454    99.565422    23.502753    23.552348    44.484237    84.831246    85.111853     113.2909 
    3500    240.76156   -12644.116    -11404.71   -12644.116            0    1020.9558    23.432675    21.617113    44.181594   -9.2349808    3.8771833    5.7070851    22380.044    1354.7262     1672.033    36.108171    39.866539   -58.273172   -198.31597    23.432675    23.507114    44.717073    85.221584    85.025937    113.13251 
    4000    235.22565   -12625.894   -11414.986   -12625.894            0    149.52107     23.54035    21.571804    44.237134   -9.2503426    4.0926923     6.344162    22463.962    731.29103    424.28336   -707.01117   -134.23539    -594.9851   -1030.9601     23.54035    23.471505    44.876748    84.607125     84.76744    113.21045 
    4500    235.25394   -12586.658   -11375.604   -12586.658            0    1141.4335    23.541819    21.535616    44.099955   -9.2813385    3.7385963    5.6345898    22358.129    1466.0592    2150.2757   -192.03457   -49.869912   -34.016438    238.26761    23.541819    23.450501    44.615375    85.249623    85.193198    113.31489 
    5000    248.51236   -12640.347   -11361.041   -12640.347            0    469.58909    23.489142    21.794946    43.751738   -9.2370609     4.078515     5.938306    22398.465    439.72251   -590.40406    1559.4488    747.69029   -299.44356    241.46209    23.489142    23.671564    44.340865     84.98513     84.72242    112.96804 
    5500    248.57408   -12684.814   -11405.189   -12684.814            0    467.43368    23.598866     21.67477    43.696005   -9.2591794    3.7405385    6.0540114    22350.507   -60.912721    379.56911    1083.6447    2.6095344     579.2318   -128.44102    23.598866    23.569643    44.271702    84.689014    85.153272    113.13154 
    6000    246.60238   -12587.809   -11318.335   -12587.809            0    589.28893    23.706084    21.516673    43.913532   -9.3623085    4.0619358    5.4145615    22399.241     120.6386    1296.8749    350.35331   -432.21425    524.61384    160.71868    23.706084    23.465294     44.43214    85.683443    84.754761    113.51476 
    6500    248.04763   -12684.914       -11408   -12684.914            0    1054.4179    23.540476    21.611548    43.890893   -9.2470911    3.6843906    6.2156629    22329.321     370.5343     1200.662    1592.0574   -44.512454    247.25894   -271.38285    23.540476    23.506759    44.481678     84.49769    85.248782    113.16498 
    7000    241.81107   -12632.461   -11387.652   -12632.461            0    2173.8986    23.379501    21.681939    43.879237   -9.1818397    3.9828205    5.6803362    22242.952    2625.3952    2346.8788    1549.4218   -136.66783    39.244868   -350.69377    23.379501    23.545969    44.424278    85.251503     84.85629    112.95162 
    7500     244.3613   -12613.284   -11355.347   -12613.284            0    2157.6634    23.450763    21.559327    43.895308   -9.1450377     3.940093    6.0700459    22192.707    2710.0028    2383.2266    1379.7607   -347.52758   -574.67824   -1205.9504    23.450763    23.418717    44.487839    84.777446    84.918906    112.98569 
    8000    244.57572   -12642.722   -11383.681   -12642.722            0    1545.6533    23.624145    21.459008    43.868826   -9.2966804    3.8620579    5.7338356    22239.332    1903.6369    1462.6314    1270.6916   -1448.9134    492.67534    586.49571    23.624145    23.386263    44.410204    85.187198    85.011068     113.4237 
    8500    244.65849   -12660.702   -11401.235   -12660.702            0    368.12162    23.550302    21.717693    43.735121   -9.2407507    3.9557506    5.7778044    22368.687    348.88934   -281.07186    1036.5474   -767.17166   -212.10265   -314.31176    23.550302      23.6019    44.292119    85.120161    84.876059    113.04947 
    9000    244.88775   -12574.247   -11313.599   -12574.247            0    -77.42802    23.470744    21.848319    43.793507   -9.2626644    3.5422128    5.9936531    22457.149    178.99481   -1831.5835    1420.3046   -186.20178    549.35919    362.34033    23.470744    23.730697     44.34346    84.648639    85.418258    112.97467 
    9500    249.30457    -12633.24   -11349.855    -12633.24            0    172.78519    23.574048    21.540444    44.144757   -9.2321761    4.1123196     5.742358    22416.507    433.29518    427.28342   -342.22303   -239.72382    471.23798    169.36034    23.574048    23.435524    44.706212    85.306629    84.722163    113.19984 
   10000      247.284   -12631.048   -11358.065   -12631.048            0    654.58025    23.528134    21.503478    44.269776   -9.4420958    3.6876439    6.0136605    22397.704    580.13879    1567.8827   -184.28071    923.48744   -284.89963    -442.5891    23.528134     23.48516    44.828294    84.850406     85.28143     113.7061 
   10500    248.78217   -12597.379   -11316.683   -12597.379            0    32.472438    23.495753    21.681583    44.207221   -9.0405952    4.1389806    5.7347698    22520.269   -371.39105    893.04685   -424.23849   -415.15543     -367.689   -416.67893    23.495753    23.490922    44.769378     85.25914    84.695364    112.63473 
   11000    241.08953   -12616.738   -11375.644   -12616.738            0    955.83913    23.503647    21.661285    43.906257   -9.3345317    3.7227897    6.1787466    22353.518     795.8681    1293.0684     778.5809    263.98396    202.23215   -685.77137    23.503647    23.586962    44.494893    84.582316    85.200578    113.31274 
   11500    247.87611   -12654.308   -11378.277   -12654.308            0    1634.3025     23.54784    21.597619      43.6984   -9.2002806    3.8522215    5.6916491    22224.013    836.95512    2234.8094    1831.1429    277.61122    297.39685    226.85368     23.54784    23.475568    44.235559    85.167394    85.004111    113.07332 
   12000    252.43201    -12623.05   -11323.565    -12623.05            0    1800.2628    23.546941    21.618834    43.738844   -9.2727241    3.9940979    5.9268988    22265.582      1617.58    1814.8251    1968.3833    162.11878    228.24044   -174.20206    23.546941    23.523549    44.318929    84.987132    84.829391     113.2154 
   12500    257.19963   -12670.579   -11346.552   -12670.579            0    2227.4671    23.530898    21.500919    43.901512   -9.2085259    3.3553635    5.9808023    22211.352    1742.5881    3309.8425    1629.9708     379.1413    523.28155   -168.06805    23.530898    23.389879    44.433897    84.606219    85.669267    113.18474 
   13000    245.33424    -12592.97   -11330.024    -12592.97            0    819.65497    23.420306    21.683881    44.008101   -9.2038309    4.3914975    5.8308643    22349.211    950.21212    631.17107    877.58172    413.90915   -907.59681   -47.201145    23.420306    23.556341    44.609384    85.304737    84.350461    112.99904 
   13500    240.33849   -12651.169    -11413.94   -12651.169            0    1057.3592    23.400159    21.662575    44.061186   -9.2025257    3.5507986    6.0672596    22334.953    1133.7431     1519.471    518.86343    -445.8065    317.68988   -630.41559    23.400159    23.536219     44.61847     84.60393    85.435497    113.01638 
   14000    241.31412   -12662.698   -11420.447   -12662.698            0    705.93771    23.586603    21.564316    43.976654    -9.312834    4.6133153    5.5406349    22367.799    199.56496    886.08805    1032.1601    38.318327   -356.60335    572.36842    23.586603    23.489329    44.563745    85.808055    84.057997    113.35774 
   14500    235.59572   -12626.035   -11413.222   -12626.035            0    1266.7113    23.553267    21.592186    43.923179   -9.2194324    3.5080399    6.0826785    22337.858    1202.1153    813.11346    1784.9053   -103.23018    401.52839    669.30856    23.553267    23.478084    44.480906     84.56052    85.476602    113.12151 
   15000    250.23875   -12654.667   -11366.474   -12654.667            0    895.80084    23.546293    21.657041    43.712407   -9.3324853    4.2449008    5.7475451    22290.838    748.39003    762.54244    1176.4701   -290.89294   -243.03309   -18.236572    23.546293    23.582254    44.292528    85.340005    84.500455    113.31225 
   15500    251.33021   -12657.758   -11363.945   -12657.758            0    784.58682     23.46168    21.725073    43.725681   -9.0693407    3.5937759    5.8708849    22287.273    1797.2476    -823.7263    1380.2392   -1045.6449    640.71722    383.84348     23.46168    23.542127    44.264181    84.772038    85.343072    112.65857 
   16000    249.19147   -12629.577   -11346.775   -12629.577            0    731.38011    23.586829    21.629474    43.808699   -9.4019763    3.9228063    6.1944922    22349.915    383.45038    1027.4499    783.24007    887.81469    117.77749   -963.35616    23.586829    23.584557    44.418039    84.681548    84.933287    113.49379 
   16500    250.84257   -12616.146   -11324.844   -12616.146            0    974.79224    23.557786     21.59152    43.940258   -9.0372828    3.9622795    5.5112968    22350.142    521.19772    2085.9686    317.21046   -449.08043    -21.22264    112.50393    23.557786    23.406542    44.461447    85.415083    84.887178    112.71209 
   17000    252.18264   -12662.794   -11364.593   -12662.794            0    1970.6703    23.421624    21.636019    43.853065   -9.4297703     3.595638    6.2360186    22222.571    1840.8568    2387.0087    1684.1454    190.05355    1053.9143   -894.89859    23.421624     23.60165    44.439935    84.473207    85.359122    113.54934 
   17500     239.3888   -12617.078   -11384.738   -12617.078            0    1162.1346    23.473703    21.625712    44.069735   -9.0922114    4.1572395    5.7574779    22371.364    1874.8382    951.48678    660.07885   -286.12051   -469.95405    142.91262    23.473703    23.459321    44.638243    85.250235    84.656197     112.8036 
   18000    244.86653   -12681.841   -11421.302   -12681.841            0    640.25867    23.518531    21.515588    44.200743   -9.2385615     3.758162    5.9376782     22366.24    1034.1364    1646.0668    -759.4272   -109.36009   -64.063209   -982.25642    23.518531    23.415199    44.755843    84.906897    85.183184    113.23816 
   18500    243.23735   -12638.854   -11386.703   -12638.854            0    291.52807     23.54495    21.613954    43.994194   -9.3545674    3.8797639    5.7745104    22388.622   -476.60051    861.94582    489.23889    360.07479    570.71258    190.99966     23.54495    23.551453    44.540842    85.159531    85.002875    113.40307 
   19000    245.60962   -12644.643   -11380.279   -12644.643            0    880.63598    23.487442    21.687108    43.846934   -9.0759752    3.9342161    5.8788211    22334.519     489.0183    1076.0662    1076.8235    334.19749   -328.33613   -333.59891    23.487442    23.509657    44.413874    84.956832    84.918034    112.70913 
   19500    244.12493   -12636.012   -11379.292   -12636.012            0    620.82463    23.579494    21.616445    43.742079   -9.6006987    3.6609017    6.1030245    22295.549    151.74436    796.81832     913.9112    1030.0983    446.23379    75.057464    23.579494    23.652571    44.317249    84.702521    85.261585    113.94786 
   20000    239.78244   -12629.672   -11395.306   -12629.672            0    1501.5632    23.570538    21.559271    43.942311   -9.0695724    3.9550376    5.7593689    22329.885    2114.7512    1805.3226    584.61589   -1077.7538    702.70688    486.25519    23.570538    23.389299    44.494262    85.132889    84.900321    112.81556 
   20500    248.70158   -12660.888   -11380.607   -12660.888            0    1212.1909    23.490438    21.667611    43.942504   -9.4024747    3.9985734    6.0993678    22365.928    744.79487    1947.4133    944.36456     854.1936   -449.13487    134.83364    23.490438    23.619735    44.543625    84.843366    84.849764    113.45802 
   21000    240.06592   -12614.839   -11379.013   -12614.839            0    1373.7366    23.443454    21.622227    44.056972   -9.1899305    3.7309095    5.8364703    22332.466    1229.3309    1779.2429    1112.6361   -136.68809    374.26355    129.82298    23.443454     23.49416    44.598216    84.967662    85.201254    113.02658 
   21500    237.70168   -12656.332   -11432.678   -12656.332            0     1387.473    23.507368    21.558627    44.027316    -9.158448    4.3292758    6.0311437    22312.453    1790.8419    1610.3376    761.23952   -51.348159   -779.40658   -38.779716    23.507368    23.423313    44.648873    85.042668    84.435703    113.01656 
   22000     245.4481   -12584.557   -11321.024   -12584.557            0    434.93003    23.528788    21.586261    44.154707   -9.4108257    3.2158407    5.9128823    22426.112   -141.47385    698.16054     748.1034    285.81549    1013.1885    452.75218    23.528788    23.548467    44.664773    84.688012    85.871161    113.55545 
   22500    242.30512   -12618.373   -11371.021   -12618.373            0    286.56089    23.531892     21.74111    43.904726   -9.1952035    4.3143797    5.8319806    22462.073    665.36664   -72.892077     267.2081   -464.33185    377.45009    13.973546    23.531892     23.60567     44.50001    85.242554    84.436301    112.92549 
   23000    242.92221   -12682.489    -11431.96   -12682.489            0    440.89632    23.554354    21.640306    43.939871   -9.2063914    3.4829049    5.9982095    22397.182    646.12049    512.45092    164.11754   -648.16438    793.00983   -386.62868    23.554354    23.517239    44.483945    84.639186    85.509387    113.04626 
   23500    245.86175   -12646.807   -11381.146   -12646.807            0    765.51346    23.577593    21.544982     43.98567   -9.3896478    4.3091781    5.8162582    22343.789   -481.96424    2354.7349    423.76969    552.17092   -462.54646     148.6449    23.577593    23.502165    44.577315    85.354568    84.452697    113.54834 
   24000    251.69032    -12595.46   -11299.794    -12595.46            0    1099.8172    23.482507    21.631237    44.116739    -9.122419    3.7632106    6.0020388    22409.347    1265.6764    994.95402    1038.8213    -985.6846    401.47679    -172.3625    23.482507    23.476135    44.681908    84.776299    85.168698    112.86634 
   24500    245.04073   -12681.163   -11419.728   -12681.163            0    955.27817     23.39568    21.619469    44.183009   -9.4527891    4.2902816    5.7233259    22347.862    1494.4832    675.07605    696.27527   -326.25843     109.5411   -20.573503     23.39568    23.595691    44.758254    85.482622    84.499494    113.61663 
   25000     243.9155   -12614.907   -11359.265   -12614.907            0    1733.5206    23.468003    21.610609    43.956424   -9.0298734    3.6774062    6.0741033    22292.845    2388.9746    1921.6858     889.9012   -914.99768   -675.09108   -897.83299    23.468003    23.421295    44.526231    84.604604    85.262565    112.67734 
   25500    242.91863   -12642.997   -11392.486   -12642.997            0    969.07487    23.614632    21.585309    43.723943   -9.4026832    4.0246916    5.8049354    22287.367    1083.6278    1137.6203    685.97645   -282.09074   -666.48876   -158.76792    23.614632    23.544341    44.290841    85.189012    84.786363    113.53822 
   26000     243.5247   -12589.558   -11335.927   -12589.558            0    1619.7597    23.554865    21.680069    43.644312   -9.1303305    3.6170291    5.7868258    22287.889    1981.9296    1256.8866    1620.4628      547.388    -677.8999    -73.34849    23.554865    23.524207     44.17461    84.896812    85.303348    112.83787 
   26500    242.54839   -12690.783   -11442.178   -12690.783            0    157.96187    23.503901    21.744768    43.711728   -9.3316269    3.9857251    5.8964034    22340.491    733.09273   -844.82173     585.6146   -601.52167   -257.89192    -85.35559    23.503901    23.662506    44.287343    85.017134    84.836569    113.22628 
   27000    252.95468   -12667.934   -11365.759   -12667.934            0    749.57653    23.555258    21.586663    44.003365   -9.2434627    3.7934102    5.7763457    22374.804    698.13063    1240.1658    310.43316   -49.079212    483.30613   -88.903073    23.555258    23.482453    44.542701    85.084382    85.114576    113.18073 
   27500    240.45803   -12595.455   -11357.611   -12595.455            0    1217.9986    23.512765    21.676547    43.878321   -9.1388981    4.0451066    6.0161786    22363.707     696.9546    892.48468    2064.5566   -612.21304   -209.73495   -144.86956    23.512765    23.524288    44.473186    84.875755    84.781388    112.86044 
   28000    246.11341    -12666.13   -11399.172    -12666.13            0    851.98976    23.459666    21.645696    44.016351   -9.4336443    3.5358256    5.7384659    22351.537    907.49503    575.78221     1072.692    474.48734    629.59407    780.29903    23.459666    23.612069    44.529442     85.04272    85.445679    113.54857 
   28500    248.53886   -12633.461   -11354.018   -12633.461            0    337.13762    23.576507    21.587451    43.966056    -9.120075    4.0346649    5.7379775    22376.819   -235.41582    1432.5281   -185.69939   -503.91067   -235.74299   -194.00318    23.576507    23.434885    44.522095    85.212956     84.80063    112.90265 
   29000     242.8408   -12680.302   -11430.191   -12680.302            0    311.98315    23.611038    21.577331    43.910813   -9.4973571    3.7339833    6.1121059    22370.942   -180.84283    355.29846    761.49381    528.93334     986.8586   -306.67406    23.611038    23.575008    44.491123    84.725541    85.185704    113.75691 
   29500    244.98414   -12619.683   -11358.539   -12619.683            0    1014.9112     23.46444    21.670856    43.965345   -9.0433222    3.8227878    5.4759271    22356.137    748.37841    773.05224    1523.3028   -361.49122    507.97307    932.49764     23.46444    23.482072    44.469664    85.380711    85.068542    112.65094 
   30000     247.3167   -12614.709   -11341.557   -12614.709            0    1180.1745    23.524073    21.642518    43.974382    -9.363164    3.9425705    6.2013923    22388.245    1018.5517    1330.2365    1191.7353    1236.3515   -64.383436   -285.49069    23.524073    23.581082     44.58416    84.689838    84.926716    113.39467 
   30500     241.2325    -12654.16    -11412.33    -12654.16            0     1646.863    23.519842    21.567125    43.949128   -9.1917106    3.8272796    5.8349569    22293.431    1252.9633     2313.101    1374.5246    176.11972     878.4714   -110.73129    23.519842    23.444155     44.49967    85.014436    85.066071    113.08326 
   31000    249.49924    -12578.34   -11293.953    -12578.34            0   -80.037932    23.548518    21.597621    44.278889   -9.3539829    4.1336596    5.8160042    22519.887   -472.61497    636.08493   -403.58375    100.80178   -12.192219    267.66003    23.548518    23.536232    44.850118    85.275429    84.711767    113.41756 
   31500    247.03525   -12647.845   -11376.142   -12647.845            0   -12.727202    23.465272    21.696318    44.108807   -9.2017676    3.5848331    6.2936696    22456.234   -407.08645    1080.1091   -711.20423    415.62389    515.79045   -464.06013    23.465272    23.566984    44.699532    84.358159    85.400027    112.98261 
   32000    247.20761   -12609.417   -11336.827   -12609.417            0    319.72761    23.547602    21.655299    44.006847    -9.300736    4.3867469    5.3919788    22440.427    345.39314    382.20141    231.58828     10.11438    -192.4256    1021.0845    23.547602    23.568107    44.552436    85.851231    84.349355    113.24304 
   32500    247.50474   -12632.122   -11358.003   -12632.122            0    964.46661    23.560141    21.596452    43.903568   -9.2373222    3.5482876    6.3161686    22338.813    1191.6215     442.3376    1259.4407   -62.585425   -274.25485   -294.65184    23.560141    23.489037    44.497276    84.309843    85.426282    113.15756 
   33000    252.85998   -12635.556   -11333.868   -12635.556            0    1250.1438    23.509833    21.635858    43.907234   -9.2527297    4.1423659    5.7929871    22333.652    1589.3521    909.65231     1251.427   -378.36936   -348.12146    331.87944    23.509833    23.531327    44.481042    85.231716    84.656499    113.15432 
   33500    248.03507   -12680.525   -11403.676   -12680.525            0    1300.5363    23.449831    21.664398    43.818293   -9.0683087    3.3744236    5.6502069    22260.852    1765.1709    593.32253    1543.1156   -161.92432    401.05491    561.44754    23.449831    23.485748    44.309755    84.938672    85.632393    112.71327 
   34000     242.2251   -12649.626   -11402.685   -12649.626            0    612.36907    23.646185    21.530839    43.905014   -9.4282959    4.1856478    6.0960691    22353.018    641.08067    524.60365    671.42289   -92.600112   -822.19279   -365.29963    23.646185    23.504676    44.523387     84.96808    84.605653    113.64848 
   34500     244.7264   -12686.972   -11427.155   -12686.972            0     1198.081    23.444651    21.550018     44.08081   -9.0806946    3.8655032    5.6409656    22271.065    1313.5888    1636.6207    644.03352    -328.8262     503.8631     58.61242    23.444651    23.385087    44.608075    85.245649    85.028812    112.84947 
   35000    240.32698   -12659.061   -11421.891   -12659.061            0    1356.4049    23.367206    21.697465    44.039643   -9.4128395    3.7731951    6.2753692    22328.501    2224.6173     1157.988    686.60947    663.74398   -10.526584   -538.05671    23.367206    23.651248    44.644231    84.530506    85.151751    113.45226 
   35500    250.12296   -12629.713   -11342.116   -12629.713            0     707.6231    23.505021    21.632143     44.00525   -9.0491983    4.0275662    5.6215928    22375.084    1128.1404    519.42936    475.29956     -516.736   -505.03847    103.05824    23.505021    23.448616    44.545321    85.323449    84.812517    112.70062 
   36000    245.72631   -12662.336   -11397.372   -12662.336            0    1041.1944    23.576835    21.561187    43.893165   -9.3771377    3.7192156    5.9029063    22312.851     1211.002    166.06817    1746.5129    29.494387    749.69773    376.88815    23.576835    23.512029    44.444199    84.927198    85.199714    113.50462 
   36500    236.59048   -12589.095    -11371.16   -12589.095            0    2644.0828    23.558223    21.615858    43.702068    -8.996373    4.3265593    6.1590154    22254.456    2687.2636     1982.682    3262.3028   -824.01687   -589.88243   -176.09434    23.558223    23.413245    44.345499    84.794027    84.401043    112.59675 
   37000    242.68298   -12615.761   -11366.463   -12615.761            0    1992.3734    23.479476     21.62206     43.83308   -9.3350288    3.7214793    5.6708757    22252.943    1500.1773    2415.4454    2061.4976    266.55583    513.27671    605.78571    23.479476    23.551141    44.354788    85.174376     85.18708    113.35161 
   37500    245.84492   -12628.476   -11362.901   -12628.476            0    1455.3522    23.527578    21.576691    43.907359   -9.2676734    3.8514881    6.0777633    22289.451    1529.9722    1559.0499    1277.0346    281.16687   -548.56565    511.24278    23.527578    23.482831    44.493026    84.758769    85.034041    113.24461 
   38000    248.58703   -12598.711    -11319.02   -12598.711            0    1254.4191    23.523001    21.622845    43.974972   -9.0938771    4.1189922    5.7891982    22367.176    1310.3088    917.07813    1535.8705    375.91336   -908.92598    856.56272    23.523001    23.457324    44.545248      85.1843    84.694418    112.81006 
   38500    243.80941   -12603.715   -11348.618   -12603.715            0    434.05509    23.509874    21.740623    43.947411   -9.4603122     3.673381    5.9749271     22462.37    949.50631   -375.49061    728.14957    1326.8737    170.76284     253.8913    23.509874    23.709749    44.503577    84.826463    85.265348      113.516 
   39000    244.73181   -12667.227   -11407.382   -12667.227            0   -146.50666    23.525215    21.688932    44.034144   -9.0483351    4.0540927    5.8678556    22467.839    22.016908   -365.58153    -95.95536   -843.54202   -259.04351    245.11077    23.525215    23.500683    44.607995    85.042915    84.785613    112.64525 
   39500    254.35751   -12645.107    -11335.71   -12645.107            0    1412.9248    23.606097    21.458341    44.040733   -9.5665203    4.0395171    5.8807735    22308.731    1287.3095    1216.3035    1735.1615    649.83816   -812.68672   -97.641487    23.606097    23.494227    44.614878    85.208937    84.805215    114.02819 
   40000    239.36474   -12630.248   -11398.033   -12630.248            0    2000.5274    23.442501    21.680999    43.775717   -8.9628783    3.8409029    5.8659311    22249.308    2304.9437    1338.0086    2358.6298   -616.42629   -104.07806    627.24296    23.442501    23.460582    44.333679    84.883669    85.029879     112.4601 
   40500    238.52933   -12643.563   -11415.647   -12643.563            0    1235.6717    23.448386    21.731945    43.860846   -9.4098098    3.8288291    5.7839809    22350.567     1125.004    1021.3528    1560.6582    479.68792   -146.92417    204.22775    23.448386    23.681679    44.405948    85.108556    85.053625    113.41234 
   41000    236.31298   -12650.759   -11434.253   -12650.759            0    529.94969    23.662252    21.582374    43.863546   -9.1405276     3.711594    6.1912551    22400.568    795.46962   -3.7484731    798.12793   -1270.9026    557.27169   -99.243623    23.662252    23.438176    44.453551    84.509204    85.210584    112.95354 
   41500    246.31048   -12595.787   -11327.815   -12595.787            0     380.2197    23.657854     21.58303    43.920241   -9.3217716    4.1385901    5.6843515    22426.034    357.79942    173.72348    609.13618   -428.22896   -81.871585    377.83559    23.657854    23.510053    44.479516    85.386739      84.6612    113.35965 
   42000     243.8651   -12667.095   -11411.712   -12667.095            0    608.84264    23.390315    21.734044    43.938579   -9.2022896    3.6547197    6.1512039    22336.885     1562.042   -344.36239     608.8483   -156.52903   -188.57683   -280.97773    23.390315    23.601923    44.517334    84.535382    85.290914    112.94801 
   42500    245.83626   -12649.859   -11384.329   -12649.859            0    1659.5218    23.382655    21.620594    44.051094   -9.1204877    4.2068763    5.7519884    22269.894    2504.0022    1054.8568    1419.7062    234.79973   -359.71805    426.16349    23.382655    23.465579    44.623784    85.289406    84.590447    112.87209 
   43000    254.18389   -12657.756   -11349.253   -12657.756            0    1564.9897    23.541099    21.487934    44.034327   -9.3460184    3.5265284    5.9895593    22274.746    1312.7476    1432.9074    1949.3141   -654.94304    668.98435    7.8750596    23.541099    23.432442    44.579515     84.74113    85.462792    113.50628 
   43500    245.68534   -12592.618   -11327.864   -12592.618            0    1530.0678    23.528611    21.598996    43.853771   -9.1064341    4.2492431    5.9188109     22286.24    1069.0612     1710.846     1810.296    -143.9442    -455.3672    215.00764    23.528611    23.440217    44.454939    85.092404    84.514986    112.86096 
   44000     241.2998   -12618.055   -11375.878   -12618.055            0    1220.1042    23.478604    21.691156    43.905941   -9.3665133    3.6232512    5.9023739    22360.332    876.95308    1056.1444     1727.215    576.13654    564.94552    474.12863    23.478604    23.627057     44.44882    84.859698    85.324339    113.35529 
   44500     251.0021   -12648.798   -11356.675   -12648.798            0   -47.165085    23.639468    21.686271    43.890531   -9.1745887    3.9193688    5.9308616    22500.564   -31.246623   -490.33018    380.08155   -623.22292     340.6303    159.13684    23.639468    23.547132    44.462515      84.9225    84.942816    112.93127 
   45000    236.37217   -12632.158   -11415.347   -12632.158            0    295.23359    23.617282    21.569146    44.070521    -9.340355    4.0117317    5.8693279    22449.726    90.733786    636.38711    158.57986    -4.532493   -327.01533    529.58499    23.617282    23.504687    44.640272    85.127336    84.843987    113.41466 
   45500    240.17979   -12622.414   -11386.002   -12622.414            0    986.33933    23.477038    21.672824    43.953676   -9.3052254    3.5407129     5.937091    22364.233    1265.6825    1093.0915    600.24405    94.705486    -66.18745    -281.2012    23.477038    23.585982    44.493947    84.766363    85.435724    113.23626 
   46000    241.34632   -12601.645   -11359.228   -12601.645            0    1671.2265    23.482803     21.71293    43.740675   -9.0692877    4.6266905    5.8390858    22302.516    1487.6855    1390.7586    2135.2352   -419.27022   -329.15966    556.81193    23.482803    23.530901    44.370574    85.340054    84.014669    112.66984 
   46500    241.59317   -12610.006   -11366.319   -12610.006            0    1557.2823    23.559592    21.552433    43.951823   -9.3729829    3.3317706    6.0031476    22317.264    1453.9601    1765.6595    1452.2272    -245.6143    465.01926    81.029812    23.559592    23.502344    44.484842    84.613005    85.704709    113.50384 
   47000    250.29909   -12679.628   -11391.124   -12679.628            0    1503.4255    23.491825    21.594941    43.875024   -9.1735191     4.149247    5.7128728        22258    1562.2326    1420.1076    1527.9363    482.09707   -790.16505    22.724103    23.491825    23.462628    44.439519    85.307096    84.642581    113.01576 
   47500    245.42163   -12618.086    -11354.69   -12618.086            0    1268.5654    23.447679    21.619037    44.012918   -9.3103694    3.5671103    6.1779335    22310.863    919.58514    1249.1695    1636.9416    345.32501    847.46356    -505.4825    23.447679    23.538601    44.587308    84.513297    85.411272    113.29942 
   48000    239.00272   -12630.716   -11400.364   -12630.716            0    748.60767    23.563007    21.595761    43.973072   -9.2340155    3.9457802    5.9957089    22376.185   -856.04996    1313.5594    1788.3135     428.1636    790.09234   -82.106615    23.563007    23.487102    44.555009     84.89882    84.919244    113.15081 
   48500     243.1061    -12627.91   -11376.434    -12627.91            0    506.42646    23.536168     21.58341    44.027563   -9.2401181    3.9784435    5.5191191    22365.595    592.51042    681.84573    244.92321   -133.79349    259.30289    885.25611    23.536168    23.478146     44.55014    85.483765    84.876512    113.17635 
   49000    246.63185   -12615.646    -11346.02   -12615.646            0    800.30687    23.530479    21.717608    43.706983   -9.4191028    3.4899421    6.4914911    22335.393    811.43013   -175.88117    1765.3717    1104.9389    342.21342   -357.47242    23.530479     23.67222    44.324029     84.08613    85.484026    113.44677 
   49500    248.52745   -12621.908   -11342.524   -12621.908            0    1287.0314    23.492348    21.587289     44.00173    -9.142271    4.1599794    5.6263583    22314.865    1357.3853    1409.0243    1094.6846    236.32534   -1124.6344    410.01475    23.492348    23.443382    44.554613    85.418847    84.642599    112.95278 
   50000    253.63479   -12647.301   -11341.625   -12647.301            0    1806.7458    23.501748     21.53419    44.009962   -9.2757766    3.7733373    5.9636082    22273.051     2063.249    1971.4078    1385.5807    453.46823   -120.61448   -158.93333    23.501748    23.446991    44.572183     84.87144    85.143712    113.30379 
   50500    240.35525   -12629.057   -11391.742   -12629.057            0    1598.2711    23.444743    21.550732    44.238039   -9.0306069    4.3345484    6.2337327    22351.329    1573.4818    2315.3903    905.94125    -475.6361   -215.52129   -894.68689    23.444743    23.366341    44.884873    84.792162     84.45829    112.73561 
   51000    241.76182   -12618.885   -11374.329   -12618.885            0    1227.1211    23.457797    21.648529    43.963407   -9.2096731    3.7117466    5.7091394    22325.796    379.80377    1430.9287    1870.6309   -227.65689   -66.864632    95.864182    23.457797     23.52609    44.487667    85.099375    85.214069    113.04577 
   51500    252.45128   -12656.888   -11357.305   -12656.888            0     594.2954    23.637659    21.653418     43.71091   -9.4270925    4.1647976    6.2803962    22372.822   -505.31084    849.76578    1438.4312   -24.973194   -33.569508   -155.71159    23.637659    23.616532     44.35575     84.70169    84.612258    113.52652 
   52000    246.42199     -12670.4   -11401.854     -12670.4            0    427.29273     23.58472     21.58462    43.898284   -9.0532516    3.8366787    5.7234764    22347.177   -436.56106     1497.702    220.73729   -276.59816     166.1912    236.23884     23.58472    23.406349    44.435769    85.101975    85.046793    112.75467 
   52500    247.22979   -12594.565   -11321.861   -12594.565            0      1428.87    23.480702    21.733849    43.773946   -9.4708237    3.8763993     6.069111    22338.984    1828.1022    796.76925    1661.7384    426.06047   -569.49868    112.32221    23.480702    23.707735     44.36236    84.807038    84.987081    113.54583 
   53000    231.69303   -12591.863    -11399.14   -12591.863            0    1588.8858    23.421515    21.642617    43.977052   -8.9598642    3.6888163    5.9638789    22292.094    1348.5523    2000.7542    1417.3508   -168.96579   -92.523699   -29.351206    23.421515    23.423963    44.532643    84.718312    85.248518    112.48915 
   53500    240.76562   -12612.423   -11372.995   -12612.423            0    1142.6378    23.548411    21.548076    43.999576   -9.3575682    3.9093639    5.9178965    22326.394    463.42148    2145.8046    818.68726    360.54296    69.299132     -366.818    23.548411    23.492204    44.567559    85.017252    84.967678     113.4736 
   54000    248.46264    -12602.02   -11322.969    -12602.02            0    909.23025    23.621033    21.508753    44.008216   -9.1427025    3.6610573    5.9972514    22358.769    789.57737    873.57938     1064.534    171.67011   -107.16967   -346.25189    23.621033    23.371253    44.565608    84.737982    85.287851    113.02884 
   54500    241.57574   -12654.326   -11410.728   -12654.326            0    959.23402    23.467232    21.767425    43.684913   -9.2966008    4.1012169    5.7788395     22315.18    1287.0086    172.07133    1418.6221    335.29704    288.43287     471.6227    23.467232    23.669549    44.255921    85.199503    84.682744    113.12674 
   55000     246.3603   -12621.788    -11353.56   -12621.788            0    526.38614    23.531836    21.682447    43.844147   -9.3209364    3.4574144    5.9416261    22370.502    50.891371    -21.70048    1549.9675    346.84061    536.34241    568.00444    23.531836    23.601025    44.379791    84.708081    85.531836    113.26209 
   55500    240.53443   -12654.141   -11415.903   -12654.141            0    1141.1561    23.672972    21.536048    43.725397   -9.1688309    4.5320705    5.8342161    22292.181    1517.7934    994.18139    911.49363   -1006.8707   -525.34981   -46.862881    23.672972    23.406598    44.345102    85.353023    84.134128    113.06156 
   56000    247.93642    -12617.97   -11341.629    -12617.97            0    859.47507     23.51253    21.638047    43.966928   -9.2868325    3.6127414    5.9793897    22368.844    518.99062    129.00756     1930.427    527.90146    78.004346    419.85011     23.51253    23.546769    44.518487    84.754758    85.345244    113.22852 
   56500     240.9172   -12644.979   -11404.771   -12644.979            0    1093.7054    23.315768    21.769789    44.101231   -9.1811501    4.0018398    5.6244925    22384.873    2998.5985    601.04516   -318.52741   -773.96496   -802.05164   -195.06776    23.315768    23.626621    44.638192    85.338914    84.856494    112.86701 
   57000    244.09806   -12648.954   -11392.372   -12648.954            0    1101.4107    23.502096    21.597979    44.026339   -9.1571543    3.8934491    6.1600303    22347.672    2181.7112    527.88472     594.6363   -117.46921    58.965806   -719.26647    23.502096    23.459032    44.625367    84.661991    84.994726    112.97607 
   57500    244.11168   -12630.865   -11374.213   -12630.865            0    904.59725    23.540059    21.556947    44.007658   -9.3551632     3.889628    5.7490559    22331.765    511.85598    1024.5923    1177.3434    390.49362   -230.17565    278.67776    23.540059    23.499384     44.55171    85.203378    84.991363    113.45961 
   58000    242.73646   -12639.002   -11389.429   -12639.002            0    1480.6018     23.48795    21.697771    43.700472   -9.0771267     3.829896    6.1986692     22271.34    1911.4279    1175.5308    1354.8467    541.71403   -619.71546    -767.9638     23.48795    23.519938    44.303757    84.507761    85.040802    112.70169 
   58500    255.42755   -12597.702   -11282.797   -12597.702            0     1625.269    23.470345    21.729091    43.678446    -9.274079    3.9377976    6.0404539    22275.538     2272.593    684.00092     1919.213   -383.30271   -263.45212   -197.41779    23.470345    23.625451    44.269628    84.803167    84.896777    113.11302 
   59000    241.18784   -12636.034   -11394.433   -12636.034            0    1204.0175    23.534206    21.510208    44.070528   -9.2454753    3.9078865    5.5948154    22309.632    1279.6219    2321.4531    10.977584    164.91437     328.0096   -372.23089    23.534206    23.412984    44.595795    85.373684    84.972778    113.25891 
   59500    248.21348   -12617.396   -11339.628   -12617.396            0    43.328825    23.641797    21.531529    44.141968   -9.2806676    3.8841936    6.3850208    22470.206   -290.23878    916.13391   -495.90866     109.1792   -96.309556   -893.23006    23.641797    23.446482    44.770178    84.454937    85.022847    113.31734 
   60000     238.3816   -12650.164   -11423.009   -12650.164            0    632.34418    23.477157    21.636867     44.02546    -9.249522    3.9885719    5.7039356    22363.707    629.99869    1065.6503    201.38349    141.29882   -52.310321    134.42757    23.477157    23.530994    44.572241    85.268021    84.865988    113.14617 
   60500    233.98825   -12629.749    -11425.21   -12629.749            0     56.16725    23.441225    21.813065    43.832653   -9.2003477    3.6516681     5.751082     22412.73    45.789718   -825.81684    948.52887    21.205526    171.06975    445.47739    23.441225    23.673956     44.35889    84.982175    85.278011    112.86912 
   61000    250.25119     -12690.6   -11402.342     -12690.6            0    1156.5091    23.591883    21.594788    43.840476   -9.2758972    3.9845165    6.0858728    22335.044    2186.2306    120.15846    1163.1384    -14.90282    -172.2582    549.30866    23.591883    23.502705    44.439864    84.810943    84.855903    113.24562 
   61500    252.63093   -12609.744   -11309.236   -12609.744            0    820.85502    23.523105    21.541794    44.155958   -9.2244499    3.7464604    5.6352214    22375.144    522.20124    1312.4019    627.96194    -164.3472    916.78896    263.90649    23.523105    23.433723    44.671471    85.241841    85.189126    113.18118 
   62000    245.72363   -12636.839   -11371.888   -12636.839            0    1811.1134    23.283625    21.742216    43.943931   -9.1644036    4.1012915    6.3408183     22246.07    1597.8341    1623.0613    2212.4448    114.05937   -267.17713   -144.44832    23.283625    23.594708    44.588067    84.530433     84.72237    112.85556 
   62500    244.66884   -12653.328   -11393.807   -12653.328            0    1360.4146    23.403059    21.628847    44.059881   -9.1685777    3.8542709    5.7894787    22302.282    2106.4553    640.36981    1334.4186   -279.41436    280.29938    298.67682    23.403059     23.49191    44.605454    85.079367    85.043001    112.97233 
   63000    248.48532   -12575.254   -11296.087   -12575.254            0    422.43972     23.54554    21.566921    44.112282   -9.2572383     4.052379    5.7795923    22400.429    205.69017    320.91462    740.71436   -47.960711    332.58415    1246.6778     23.54554    23.469737    44.673469    85.232898    84.795483    113.23061 
   63500    240.19464   -12658.252   -11421.763   -12658.252            0    66.448158    23.648952    21.569267    43.997918   -9.1827379    3.7745416    6.2750446    22442.923   -1286.3261    1378.6341    107.03653   -175.29891    660.79358   -536.69406    23.648952     23.44261    44.603141    84.474136    85.145538    113.06103 
   64000    240.02514   -12572.834   -11337.218   -12572.834            0    1703.5215    23.517929    21.687279    43.797095   -9.3048027     3.911564    5.6000478    22338.265    1035.7575    1914.6871    2160.1198   -387.48961    459.23972   -591.31147    23.517929    23.599098    44.326588    85.336257    84.937395    113.22147 
   64500    240.84879   -12660.149   -11420.293   -12660.149            0    1200.4834    23.567792    21.719505    43.609217   -9.2710421    3.7781674    5.9602359     22322.72     1041.434    982.51856    1577.4975   -72.442302    405.91867   -898.22282    23.567792    23.615443    44.176496     84.80697    85.093821    113.11537 
   65000    242.60969   -12678.792   -11429.872   -12678.792            0    1200.1124    23.581905    21.607622    43.834012   -9.2226521    3.8872657    5.9847024    22335.572     717.6127    866.10591    2016.6185     729.9241    243.51084    1.7075912    23.581905    23.493545    44.411126    84.860622    84.978526    113.11395 
   65500    244.77307   -12659.133   -11399.076   -12659.133            0    763.60644    23.534965    21.578712    44.130157   -9.3518851    3.8771188    5.5619949    22411.688    784.29144    628.91495    877.61293    30.083359    146.28092    21.046948    23.534965    23.518048    44.647941    85.424587    85.018299    113.43117 
   66000    248.48922   -12610.821   -11331.633   -12610.821            0    898.57476    23.424651    21.684812    44.178345   -9.0759863    3.9136941    6.5696533    22440.795    1377.5307    547.80917    770.38445   -1112.2982    236.70347   -895.54596    23.424651    23.507544    44.835293    84.176449    84.992251    112.71132 
   66500    253.82851   -12625.933    -11319.26   -12625.933            0    837.23936    23.417337    21.647215    44.146167   -9.2240633    3.9952358    5.7752784    22378.581    1625.8844    429.64931    456.18436     -638.626   -203.58744    409.73217    23.417337    23.530518    44.701228    85.191777    84.872266    113.07927 
   67000    243.26187   -12676.377   -11424.099   -12676.377            0    1629.2899    23.506194     21.53218    43.912665   -9.2017944    3.7151168    5.9490736    22225.938    1252.6825    1547.3605    2087.8268    483.30805   -38.217908   -124.51209    23.506194    23.415973    44.469267    84.825643    85.207726    113.13948 
   67500    244.03004   -12635.971   -11379.738   -12635.971            0    1174.3685    23.576212     21.59059    43.806542   -9.2973297    3.9527382    5.8553473    22298.596    403.51913    1483.3084     1636.278    846.07824    -340.8444   -281.60031    23.576212    23.507316    44.372541    85.068362    84.889276    113.29766 
   68000    234.69676   -12614.036    -11405.85   -12614.036            0    689.29505    23.587231    21.724618    43.772663   -9.3323445    3.8194175    5.7847278    22430.144    337.36226   -1.2113999    1731.7343    244.25161   -678.42583      117.911    23.587231    23.644274    44.318135    85.071405    85.056012    113.24713 
   68500    241.81349   -12602.867   -11358.046   -12602.867            0   -291.44163    23.609693    21.743411    43.878503   -9.1705984    4.0241234    6.0603604     22525.26   -405.18362   -336.47696    -132.6643   -302.90923   -120.41545   -7.6651282    23.609693    23.598216    44.477461    84.814123    84.809033    112.86829 
   69000    244.73141   -12676.112    -11416.27   -12676.112            0    975.81689    23.521528     21.54135      44.0358   -9.3112295    3.8179514    5.8593906      22312.3    2012.3771    661.39699    253.67661    236.26306   -289.11716    258.56239    23.521528    23.467611    44.587677    85.028992    85.087864    113.37637 
   69500    242.65935     -12641.6   -11392.424     -12641.6            0    1434.3542    23.356071    21.564196    44.344125   -9.1711498    3.8899077    5.9402577    22334.136    1939.8828    1889.0815    474.09831    191.34378    837.38538    338.44443    23.356071    23.433406    44.909014    84.961646    85.030955    113.03982 
   70000    241.43735   -12642.246    -11399.36   -12642.246            0    2408.3907    23.375114    21.574652    44.067228   -9.1716914    3.9121522     5.999091    22223.541    2513.1332    2618.1504    2093.8886   -93.223707   -232.44773   -50.554112    23.375114     23.44324    44.645432    84.872108    84.972886    113.03104 
   70500    247.40141   -12676.562   -11402.975   -12676.562            0    1590.8226    23.494496    21.590689    43.822668   -9.2784483    3.8740592    5.9201141    22229.589    1106.3385    1472.3353    2193.7939    564.08193    747.26082    492.32925    23.494496    23.499945    44.390115    84.947276    84.993255    113.25528 
   71000    241.34222    -12651.54   -11409.144    -12651.54            0    1485.3345    23.598876    21.664538     43.63209   -9.1675487    3.9393878    5.9040875    22307.287    577.66464    955.30915    2923.0296   -42.996422    473.99646    11.850017    23.598876    23.524374    44.205614      84.9358    84.887298     112.9361 
   71500    247.80355   -12658.453   -11382.795   -12658.453            0    984.40968    23.594004    21.609461    43.750581   -9.3962391    3.7661316    5.6077106    22306.396    1078.6645    603.75587    1270.8086    219.20017    236.79117    435.10415    23.594004    23.563916     44.26899    85.282479    85.119731     113.5004 
   72000     257.3607   -12622.895   -11298.039   -12622.895            0    1231.2849    23.658251    21.544389    43.824535   -9.0326931    4.2334835    6.0229867    22337.478    1030.9119    1861.9295    801.01334   -752.31748    188.93831   -163.18117    23.658251    23.361298    44.438594    84.942288    84.533375    112.74634 
   72500    237.45925   -12665.527   -11443.121   -12665.527            0    737.00875    23.442927    21.659846    44.018259   -9.2899906    3.8620187    5.8820739     22351.16    403.07888     963.8859    844.06147   -432.47832    452.81013     439.9071    23.442927    23.568047    44.577137    85.002123    85.029848    113.21468 
   73000    245.61819   -12681.199   -11416.791   -12681.199            0    473.13632     23.35173    21.694092    44.193009   -9.1440447    4.0512287    5.7767604    22387.939    1479.1979   -92.588551    32.799642   -1034.8196    227.92739    300.46125     23.35173    23.542455    44.752715    85.193728    84.806203    112.85539 
   73500    251.28707   -12610.252   -11316.662   -12610.252            0    1041.8738    23.517098    21.510781     44.36189   -9.2555348    3.9659769    6.2387876      22441.4    370.13463    2056.4762    699.01071    23.739987    485.05756   -516.06543    23.517098    23.417485    44.973645    84.688414    84.940831    113.28096 
   74000    251.09062   -12630.726   -11338.146   -12630.726            0    1840.9121    23.486031    21.496622    44.120881   -9.2095127    3.9078052    5.6761538    22275.324    2549.7058    2114.5197    858.51066   -475.06377    284.16376    164.98677    23.486031    23.386319    44.655815    85.274793    84.979657     113.1911 
   74500     246.6557   -12612.355   -11342.607   -12612.355            0     2157.091    23.373742    21.704118    43.892037   -9.2287844    3.8827657    6.0514095    22266.714    3044.2166    2137.4956     1289.561   -363.90903    -393.2564   -253.31644    23.373742    23.584724    44.477032    84.776105    84.991806    113.03563 
   75000    251.27102   -12630.498    -11336.99   -12630.498            0    1051.0817    23.470713    21.744578    43.753606   -9.2049428    3.9132534    5.9151433    22330.124    1263.9909    233.55869    1655.6954   -1000.6933    468.15912    -74.19597    23.470713    23.612659    44.324717    84.924068    84.934989    112.94397 
   75500    247.18881   -12631.731   -11359.238   -12631.731            0    840.60419    23.719493    21.553524    43.584698   -9.3969671    3.7530743    5.7329279    22282.184   -384.51402    1184.5449    1721.7817   -286.56337     309.0949   -177.32338    23.719493     23.51292     44.12004    85.117376    85.120233    113.55638 
   76000    247.91063   -12667.566   -11391.357   -12667.566            0    1154.9232    23.609799    21.591703    43.765512   -9.2220556    4.0376297    5.9998803    22310.597    1280.4902    503.99166    1680.2879   -615.61572   -215.97698    255.42219    23.609799     23.47867    44.359002    84.914922    84.777615    113.12787 
   76500    234.42565   -12669.236   -11462.446   -12669.236            0    1516.0219    23.365616    21.667688     43.94094   -9.2340929    3.8493389    5.8820149     22246.37    2411.0026    762.99658    1374.0666   -73.642294   -201.14227    68.616538    23.365616    23.553284    44.499682    84.969523    85.037563    113.08219 
   77000    231.70824   -12635.515   -11442.714   -12635.515            0    1462.2239    23.335364    21.630385    44.179092   -9.2461449    3.8275264    5.9629135    22299.525    2671.7309    1125.9187    589.02215   -203.66852    114.89975   -494.20637    23.335364    23.523706    44.743697    84.898597    85.092729    113.14482 
   77500    242.97308   -12610.144   -11359.352   -12610.144            0    1079.8363     23.55754    21.561122    44.075617   -9.1851692    4.0398771     5.952328    22387.196    872.95804    1346.3218    1020.2292    100.00951     -441.943   -552.11294     23.55754    23.436069    44.658827    84.999322    84.809878     113.0743 
   78000    251.18177   -12614.793   -11321.745   -12614.793            0    266.66862    23.561014     21.59075    44.203062   -9.4803552    3.7173923    5.6967328    22486.096    697.42008   -87.395695    189.98147    584.94675   -93.301344    803.86146    23.561014    23.580449    44.723399    85.226821    85.232095    113.70596 
   78500    242.05858   -12648.945   -11402.862   -12648.945            0    753.63599    23.461624    21.768767    43.794984   -8.9694713    4.1079742    6.0881338    22367.439    549.84082    479.77466    1231.2925   -809.23887    683.78382    43.879129    23.461624    23.544227    44.406547    84.748997    84.692076    112.39332 
   79000    237.07732   -12651.269   -11430.829   -12651.269            0    1706.3469    23.508924    21.641337    43.779227   -9.4311342    3.7799538      5.86583    22273.318     2203.901    978.60297    1936.5368    328.43621    176.45151    100.73296    23.508924     23.60707    44.331893    84.995458    85.108743    113.54722 
   79500    245.78301   -12638.171   -11372.914   -12638.171            0    1112.4406    23.675411    21.497972    43.862716   -9.1734609    3.8131402    5.7512943    22324.953   -69.462101     1538.425    1868.3589   -149.97789     -102.928   -270.44797    23.675411    23.373387    44.402199    85.099266    85.073526    113.10857 
   80000    239.85393   -12629.305   -11394.571   -12629.305            0    894.29887    23.596345    21.591067    43.818926   -9.4088151    4.1580825    6.1122897     22324.44    302.06376    1642.1617    738.67117    175.87893   -446.88429   -302.04749    23.596345    23.552069    44.438137    84.910412    84.630972     113.5463 
   80500    247.80993   -12660.171   -11384.481   -12660.171            0    1389.0432    23.390276    21.698835    43.912697   -9.1521107    3.6217662    5.6983737    22287.527    1653.0769    1117.3504    1396.7024   -396.68313    448.97808   -425.05562    23.390276    23.549959    44.428747    85.037893    85.324144    112.86899 
   81000    243.77696   -12620.544   -11365.614   -12620.544            0    571.74528    23.476174    21.629493    44.051528   -9.2632638    4.0127844    6.0300025    22368.386    1221.5223     233.7396    259.97394   -59.776103    -141.4601   -273.94278    23.476174     23.52962    44.643034    84.906743     84.84295      113.184 
   81500      237.922   -12636.889     -11412.1   -12636.889            0    198.92493    23.665008    21.450015    44.225248    -9.313769    3.8458569    5.8519613    22449.389   -35.763682    1135.9094   -503.37097    333.22682   -569.58081    -257.7391    23.665008    23.384812    44.776206    85.085357    85.072758    113.47087 
   82000     252.4196   -12655.488   -11356.067   -12655.488            0    849.76809    23.463367    21.620328    44.017892   -9.2624409    3.9110665    5.7902434    22329.647    1064.7681    1077.3623    407.17392    378.84159   -716.04954   -468.65185    23.463367    23.520871    44.569027    85.131916    84.965647    113.19095 
   82500     250.3784   -12589.754   -11300.841   -12589.754            0     1742.976    23.322498    21.774233    43.958891   -9.2125803    4.0368079    6.2665231    22323.622    2975.6044    1387.3234    866.00014     505.8061    -485.3976   -97.915751    23.322498    23.642945    44.586425    84.597018    84.805387      112.933 
   83000     244.3711    -12672.54   -11414.552    -12672.54            0    2243.4744    23.517755     21.43324    44.004892   -9.1736033    3.8076508    5.6556916     22181.18    2801.4791     1884.816    2044.1282   -808.00504   -444.78601    276.78104    23.517755    23.313918     44.52994    85.232215    85.094782    113.17132 
   83500    242.83891   -12614.453   -11364.353   -12614.453            0    1997.0917    23.563671    21.533931     43.78048   -9.2663249     3.907581    6.0421098    22215.024    1858.1515    2413.0391    1720.0844   -700.90812    183.59035    8.1315822    23.563671    23.443016    44.367857    84.820298     84.94728    113.28283 
   84000     252.9255   -12595.209   -11293.184   -12595.209            0     914.5265    23.501816    21.763203    43.759125   -9.1899526    3.9968424    5.9322513     22381.69    756.13346    350.71651    1636.7295    -332.8876    256.17617   -59.627715    23.501816    23.623976    44.339908    84.940715    84.828283    112.89289 
   84500     236.2514   -12623.504   -11407.315   -12623.504            0   -114.63993    23.470688    21.746557    43.928196   -9.3085554    3.5852966    5.5803392    22421.243   -93.553495   -468.45929    218.09299    392.11447    218.41873    487.46779    23.470688    23.655062    44.426129    85.197705    85.371057    113.17322 
   85000    244.85109    -12663.77   -11403.312    -12663.77            0   -539.08659    23.699058     21.62205    43.902829   -9.1929582     4.223403     6.296516    22496.785   -1017.1421   -201.69046    -398.4272     -434.338     241.5013   -195.97166    23.699058    23.495181    44.552684    84.665535    84.560439    113.03354 
   85500    247.12526   -12593.236    -11321.07   -12593.236            0    388.96488     23.58449    21.581246    43.967287   -9.2923228    3.7663893     5.809984    22378.588    553.24499    10.360397    603.28927   -951.70046    73.256149   -102.88328     23.58449    23.496754    44.509144    85.041853    85.145793    113.29545 
   86000    247.54181    -12601.81     -11327.5    -12601.81            0    1569.6002    23.453003    21.696756    43.789418   -9.2575935    4.1748479    5.5791412    22282.424    2418.5017    892.11232    1398.1866     45.72356   -799.21995    527.88151    23.453003    23.589241     44.34038    85.481567     84.59734    113.10702 
   86500    243.40659   -12644.815   -11391.792   -12644.815            0    2085.6285     23.41703    21.667121    43.763114   -9.0756527    3.6986778    6.2402642    22204.512    3155.5906    1115.6305    1985.6644   -818.08372   -242.16613   -389.89373     23.41703    23.491096    44.360244    84.402632    85.217228    112.72723 
   87000    240.79262   -12629.829   -11390.263   -12629.829            0    1638.5708    23.518835    21.547133    43.926129   -9.4273152    3.8481934    5.7124828    22260.156    1185.2969    2115.6139    1614.8014    577.90114    335.27063     859.6584    23.518835    23.519209    44.462859    85.238215    85.034925    113.63037 
   87500     246.8992   -12663.907   -11392.905   -12663.907            0    1494.5389    23.518126    21.497608    44.072334   -8.9390469    3.9648503    5.8641175    22282.242    1662.2829    1881.1468    940.18685   -316.15959   -527.33068   -248.07034    23.518126    23.282047    44.637187    84.997435    84.904048    112.57832 
   88000    249.53728   -12613.798   -11329.215   -12613.798            0     1015.466    23.406533    21.701499        43.95    -9.358728    3.9094733    6.0297296    22324.704    2305.0532    463.14684    278.19787    35.252711   -235.89561   -346.84102    23.406533    23.633469    44.533629    84.861378    84.963693    113.32802 
   88500    249.53787   -12653.711   -11369.126   -12653.711            0     1552.471    23.442495    21.598758    44.092464   -9.1995334     3.818149    5.5766449    22325.283    1796.8029    1706.8667    1153.7434     181.8791   -20.510228     158.8135    23.442495    23.476323    44.607428    85.326575     85.08979    113.07055 
   89000     241.0143   -12657.272   -11416.564   -12657.272            0    1252.0544    23.649564    21.555088    43.721695   -9.3338503     4.020507    6.7306583     22287.94    603.45542    1514.3968    1638.3109    179.25401   -327.58655   -1617.6183    23.649564    23.489202    44.419059    84.083291    84.806874    113.41372 
   89500    238.71738   -12625.911   -11397.028   -12625.911            0    1414.2195    23.568993    21.631597     43.79497   -9.2692955    3.7550628    5.5464751    22328.207    1383.9714     559.0135    2299.6737    473.26571    191.80519     1113.681    23.568993    23.533929    44.304213    85.314393    85.137987    113.19548 
   90000    239.31918   -12641.035   -11409.054   -12641.035            0    370.64734    23.502386    21.790793    43.733021   -9.2647538    3.7872027    6.0026603    22397.238    827.95164   -948.71496    1232.7054    223.25331   -597.95634    -78.41921    23.502386    23.678562    44.305214    84.765227    85.096382    113.03366 
   90500    242.93281   -12613.161   -11362.577   -12613.161            0    1630.8851    23.456078    21.681295    43.909111   -9.1819022    3.8743573    6.1352813    22330.336    1996.8011     1583.487     1312.367   -512.18692    616.03289    -452.3751    23.456078      23.5454    44.504633    84.664106    85.005786    112.95237 
   91000    240.93772   -12640.423   -11400.109   -12640.423            0    1805.0652    23.525907    21.469346     44.09538   -9.2972437    3.7862585    5.6538143    22271.951    1762.5868     2238.179    1414.4298    169.89892    366.67136    47.931949    23.525907    23.395973    44.617305    85.264247    85.131982     113.4149 
   91500    241.81973   -12621.063   -11376.209   -12621.063            0    1208.5795    23.567715    21.561899    44.005775   -9.3193079     3.900474     6.246614     22362.18    754.34731    1968.2287    903.16263   -521.80663    466.51924   -755.24619    23.567715    23.489678    44.617733    84.616015    84.984812    113.37457 
   92000    250.63449   -12678.326   -11388.095   -12678.326            0    669.50215     23.26619    21.820308    44.015807   -9.0647302     4.094152    5.5667283    22345.745    1712.5057    71.857854    224.14291   -366.21909   -115.81572     196.0048     23.26619    23.628271    44.554931    85.404071    84.727654    112.55928 
   92500    248.03573   -12674.436   -11397.583   -12674.436            0    1078.5832    23.453638    21.618571    44.006124   -9.3572338    3.6856342    5.9575957    22312.607    1483.7847    1454.5323     297.4326    321.73687   -414.84443    42.162215    23.453638    23.556749    44.560249    84.845444    85.255574    113.40456 
   93000    243.09764   -12631.534   -11380.101   -12631.534            0     1162.761    23.634271    21.571873    43.852023     -9.05732    4.1052897    5.9872841    22357.317    505.84187    1735.5034    1246.9377    819.28043   -849.99627   -519.70962    23.634271    23.396169    44.448857    84.926003    84.700618    112.77593 
   93500    238.48819   -12619.785   -11392.082   -12619.785            0    535.79911    23.634841    21.628837     43.81679   -9.5153112    3.5898566    5.8273985    22398.885   -14.400711    49.328317    1572.4697    295.52321     610.6345    791.66287    23.634841    23.629383    44.348131    84.969862    85.356988    113.74644 
   94000    246.74029   -12662.979   -11392.795   -12662.979            0    753.89384    23.440317    21.780613    43.813173   -9.1619578    3.7809559    5.8658511    22368.574    1627.0198     741.6893   -107.02763   -239.25178    87.679699   -427.44908    23.440317    23.629147    44.365505     84.90377    85.111159    112.81393 
   94500    242.45813   -12630.849   -11382.709   -12630.849            0    919.72865    23.472534    21.682665    43.986015   -9.1318495    4.1728472    6.3525575    22386.554    1007.4383    261.71856    1490.0291   -682.47273   -279.83946    360.35512    23.472534    23.527189    44.637845    84.556064    84.636028    112.83883 
   95000    245.74459   -12634.741   -11369.683   -12634.741            0    1762.0039    23.566375      21.4748    43.951642   -9.3119764    3.7541936    5.6442363    22243.188    1090.5889     2306.468    1888.9547    351.90348   -231.46981    253.81206    23.566375    23.406836    44.471319    85.247122    85.157424    113.44268 
   95500    246.36848   -12643.947   -11375.677   -12643.947            0    988.99259    23.513629    21.609897    43.967772    -9.142623    3.9693404    5.9738774    22341.216    117.27948    945.29942    1904.3989   -171.87515    638.42482    639.11753    23.513629    23.464339    44.548938    84.906468    84.888128    112.93204 
   96000    241.26397   -12629.932   -11387.939   -12629.932            0    638.52084    23.304165    21.788471    44.031592   -9.2434489    3.7390241     6.053512    22357.575    1312.6992    353.43879    249.42449    519.49629    355.32997   -662.04496    23.304165    23.668097    44.602763    84.709641    85.191284    112.98839 
   96500    239.73386   -12621.266    -11387.15   -12621.266            0    188.48097    23.594495    21.599624    43.951098   -9.2231288    3.9061851    5.6101411    22398.896   -163.43374     986.8231   -257.94647   -80.614397    275.81774   -250.47748    23.594495    23.486376    44.479556     85.32468    84.961807    113.12268 
   97000    243.40924   -12625.928   -11372.892   -12625.928            0    833.66756     23.71459    21.577096    43.699661   -9.3529946    3.9910755    6.3757561    22360.766   -541.49218     946.8969     2095.598    331.20812    835.27258    -524.4158     23.71459    23.517006    44.342297     84.48377    84.836044    113.43522 
   97500    249.40353   -12659.613   -11375.719   -12659.613            0    1709.7442    23.469498    21.653649    43.844317   -9.1780288    3.8482706    5.3871838    22281.694    2170.0278    1097.7161    1861.4887   -68.230905   -494.66945    229.90053    23.469498    23.518434    44.341347     85.52687    85.021184    112.96995 
   98000    245.49103   -12671.153     -11407.4   -12671.153            0    1498.0687    23.444363    21.725801    43.795159   -9.2119784     3.924023     5.984823    22306.958    1388.0398     1196.668    1909.4983   -21.610282    198.89995    137.79296    23.444363    23.598114     44.37603    84.856724    84.926901    112.97748 
   98500    246.74937   -12691.733   -11421.502   -12691.733            0     2557.038    23.580505     21.46907    43.750095   -9.3121184    3.4924034    6.0231168    22148.552    2046.5483    2842.5876    2781.9781    143.63259   -487.13125   -777.29631    23.580505    23.401635    44.300628     84.64295    85.478443    113.44858 
   99000    245.01396   -12604.111   -11342.814   -12604.111            0    1139.1316    23.588362    21.551521    44.030699   -9.2825542    4.1402909     5.688458    22383.669    1437.5088    1590.3242    389.56173   -29.545944   -873.68746    135.87204    23.588362    23.465589     44.58927    85.386308    84.672185    113.30225 
   99500    254.42878   -12613.738   -11303.975   -12613.738            0     785.0416    23.433576    21.694771    44.060703   -9.1932345    3.6016805    6.2092103    22399.847    1001.7847    676.73735    676.60279   -113.10682    41.889516   -462.80992    23.433576    23.562229    44.641594    84.457291    85.372351    112.96497 
  100000    246.92197   -12682.194   -11411.074   -12682.194            0    486.42605     23.42744    21.628535     44.13881   -9.2136417    4.3523428    5.3805432    22365.188     516.5077    528.76718    414.00326    374.81397   -388.39172    1302.0651     23.42744    23.509248    44.678045    85.835727    84.409626    113.07375 
  100500    241.19899   -12667.923   -11426.265   -12667.923            0    1730.2158    23.514812    21.547568    43.925954   -9.2095706    3.5853992    6.0971668     22256.71    636.75274    1923.4488    2630.4458    399.65075     799.0322   -437.46042    23.514812    23.433179    44.491796     84.58657    85.377772    113.14218 
  101000    243.86699   -12643.209   -11387.816   -12643.209            0    2696.1288    23.506352    21.549295    43.741635   -9.2574205    4.0778044    5.9582668    22157.121    2534.6731    3272.6549    2281.0584    -815.7873   -24.754544   -630.97066    23.506352    23.453613    44.333509    84.998694    84.722464    113.24801 
  101500    242.75876    -12651.31   -11401.622    -12651.31            0    730.29702    23.490065    21.667874    43.874754   -9.1715007    3.8029707    5.6879615    22331.362    108.38075    1634.8947    447.61561     149.4412     214.5608   -250.44065    23.490065    23.528986    44.405062     85.14827    85.087015     112.9418 
  102000    256.10846   -12632.691    -11314.28   -12632.691            0    1361.6239    23.530657    21.603494    43.979314   -9.2906277    3.9214614    6.0936267    22356.638    1654.0379    1967.9728    462.86101    467.73708   -390.74459   -116.19696    23.530657     23.51652    44.572303    84.788417    84.952604    113.27022 
  102500    242.94309   -12662.333   -11411.697   -12662.333            0    665.38567    23.585254    21.468342    44.119771   -9.0851093    3.8211202    5.4455415    22339.441    447.10568    2531.9033   -982.85197    209.43107    178.98872   -287.33468    23.585254    23.311562    44.618483    85.467726     85.08718    112.93742 
  103000     238.0038    -12637.42    -11412.21    -12637.42            0   -520.28918    23.530192    21.695599    44.097604   -9.4079042    4.0155892    6.1578364    22511.898    64.091588   -846.95035   -778.00877    542.65802   -353.59962   -349.33928    23.530192    23.647572    44.706181    84.799806    84.846645    113.44309 
  103500    241.23654   -12614.727   -11372.875   -12614.727            0    270.05103    23.452358    21.722649    44.067156   -9.1066855    3.8732377    5.9817943    22449.895    364.64375     490.8659   -45.356556   -124.62076    50.169614   -50.095448    23.452358    23.554303    44.639647    84.834366    85.022372    112.74467 
  104000    248.82977   -12676.605   -11395.665   -12676.605            0    711.47673    23.627898    21.518661    43.923995   -9.4427972    3.9043854    5.6764898    22332.748   -104.19117    1540.8847    697.73668    540.71208    -38.50505    241.93051    23.627898    23.499345    44.461041    85.318028    84.962031    113.69278 
  104500    246.81235   -12698.156     -11427.6   -12698.156            0    1914.1743    23.552404    21.543934      43.7917   -9.2170547     4.015228    5.9498238    22220.409    1069.9671    1796.6578     2875.898    345.79531   -266.33789     648.4839    23.552404     23.43278    44.376068     84.96987    84.808673     113.1625 
  105000    249.93231   -12635.681   -11349.065   -12635.681            0     1716.958      23.3673      21.6249    44.001909   -9.2910964    3.5586026    5.6338689    22234.848    1678.8279    1613.2997    1858.7462     197.3472   -247.41733    645.19586      23.3673    23.536372     44.50362    85.138525    85.413613    113.25068 
  105500    251.41495   -12582.283   -11288.034   -12582.283            0    1429.2518     23.45735    21.711663    43.909819    -9.239235    4.1896563    6.0689936    22363.187    1894.4882    1374.4507    1018.8164   -17.365272    -404.7707   -388.48832     23.45735    23.595758    44.524803    84.918249    84.600644    113.05181 
  106000     246.3285    -12653.45   -11385.385    -12653.45            0    885.32114    23.595523    21.487401    44.073733   -9.2242438    3.6061152    5.8332517    22345.667    125.63208    1485.8754    1044.4559    690.78722    374.86396    14.772871    23.595523     23.38365     44.60409    84.935273    85.362736    113.23318 
  106500    248.95108   -12645.999   -11364.434   -12645.999            0    912.94136    23.556802    21.542263    44.059857   -9.4361725     4.302656    5.6777257    22358.916    810.70699    1519.9432     408.1739    683.64683   -869.26983     314.5533    23.556802      23.5183    44.632056    85.535354    84.467934    113.65489 
  107000    249.50946   -12661.135   -11376.696   -12661.135            0    1654.0023    23.382635    21.708442    43.949534    -8.969934    3.3736965    6.2174139    22308.809    2728.4258    1228.0565    1005.5246   -436.91349   -158.01628   -391.25525    23.382635    23.488639    44.515162    84.252652    85.653524    112.45043 
  107500    250.28859   -12612.632   -11324.181   -12612.632            0    1057.5612    23.499492    21.652889    43.921052   -9.3882535    4.1925172    5.7428445    22348.431    1226.7528    650.22543    1295.7054    733.13553   -605.40903   -151.94167    23.499492     23.60057    44.492879    85.357559    84.593057    113.44058 
  108000    245.40671   -12616.894   -11353.575   -12616.894            0    1468.5236    23.552564     21.58286      43.9081   -9.1044065    3.6406974    5.9274794    22319.879    1209.3368    2112.1045    1084.1294   -1708.6875    1016.7022   -941.38531    23.552564    23.424561    44.455719    84.777635    85.302506    112.87172 
  108500    244.71331   -12619.104   -11359.355   -12619.104            0    60.590955    23.649642    21.599495    43.905243   -9.4018204    4.0185972    5.8534919    22427.691    327.09546   -526.99683    381.67423   -454.99193   -423.23889   -124.11627    23.649642    23.557004    44.475644    85.146217    84.815969    113.52251 
  109000    242.50339   -12681.043   -11432.669   -12681.043            0    584.80031    23.485957    21.693584    43.826457    -9.134927    3.8980538    5.7352315    22329.343    273.41971   -7.7805013    1488.7617   -77.256604    116.97222    644.30264    23.485957    23.538447    44.371681    85.122221    84.960067    112.83542 
  109500    239.07983    -12647.93   -11417.181    -12647.93            0    853.36854    23.486576    21.719174    43.878561    -9.416774    3.6494739    6.2057323    22382.851    607.94114    388.08226    1564.0822    895.57733    36.342874   -289.51586    23.486576     23.67273    44.465243     84.52578    85.292167    113.44009 
  110000    245.05491   -12625.405   -11363.897   -12625.405            0    1125.4638    23.576678    21.509386    44.035404   -9.1012473    4.0750128    5.5697595    22331.229     794.1769    1593.8064    988.40802   -1089.9047     298.2457      181.082    23.576678     23.35565    44.572915    85.442792    84.754494    112.93464 
  110500    250.99541   -12697.076   -11404.987   -12697.076            0    1222.1195    23.498087     21.56121    43.978308   -9.2945166    3.6699273    6.1991036    22281.486    2069.5367    516.30971    1080.5122   -436.42746   -43.498312   -527.37587    23.498087    23.479221    44.564434    84.540548    85.276284    113.31971 
  111000    241.63548   -12624.492   -11380.587   -12624.492            0      994.676    23.453062    21.724108    43.827543   -9.2803616    4.1675552    5.7261524    22329.995     1031.212    1281.8917    670.92424   -61.495997   -150.30501    -701.4311    23.453062    23.623336    44.396068    85.311873     84.61359    113.13178 
  111500    242.78233    -12602.24   -11352.431    -12602.24            0    745.48189    23.547256    21.606917    44.020211   -9.1759258    3.7531635    5.8992384    22396.762    638.20872     983.3846    614.85235   -185.36509    183.08043    223.39495    23.547256    23.474592    44.572034    84.899198    85.169721    113.00974 
[...]
  474500    243.36731   -12596.485   -11343.664   -12596.485            0     1708.835    23.482579    21.653629    43.808195   -9.4061404    3.8946252    6.0373437    22275.724    1735.6658    1193.9537    2196.8855    575.39739   -331.38362   -158.68621    23.482579     23.60837    44.393418    84.848911    84.966983    113.47969 
  475000    247.69051   -12669.653   -11394.577   -12669.653            0    1722.3375     23.36185    21.691165    43.895311    -9.176261    3.8267173    5.9988328    22243.762    2146.3303    1156.9926    1863.6896    62.740722    311.83899   -542.23163     23.36185    23.552291    44.468282    84.795358    85.063307    112.93037 
  475500    247.33418   -12678.555   -11405.314   -12678.555            0    799.67828    23.514572    21.600902    44.021972   -9.0973558    4.1150822    5.8052296    22360.343    45.376451    1293.5497    1060.1087   -342.93732   -402.19787    91.424355    23.514572    23.438448    44.593369    85.172395    84.705205     112.8387 
  476000    247.05733   -12588.625   -11316.809   -12588.625            0    835.57129    23.653193    21.474986    43.992875   -9.4707738    3.4307733    6.1607097    22346.269   -277.50135    1651.7721    1132.4431    674.93521    1238.5637   -361.87918    23.653193    23.470632    44.554434    84.523053    85.583748    113.79816 
  476500    256.46902   -12675.653   -11355.386   -12675.653            0    1062.3279    23.476875    21.700062    43.815442   -9.1099801     4.074077    5.7455639    22321.761     634.8555    538.43285    2013.6953    317.96914    -513.2266    600.49182    23.476875    23.534749    44.377952    85.190686    84.732597    112.77332 
  477000     253.3755   -12642.842     -11338.5   -12642.842            0    2200.3128    23.423428    21.677003    43.703758   -9.2997957    3.8792362    5.9614661    22190.571    1942.3712    2885.5164    1773.0508   -103.24384   -482.57955   -500.78444    23.423428     23.58768    44.278731    84.883118    84.973904    113.22014 
  477500    252.67463   -12584.798   -11284.065   -12584.798            0    1632.5066    23.620217    21.532412    43.897558   -9.2721661    3.5683158    5.9237255    22326.309    2057.9251    1772.1443    1067.4504   -572.24485    927.74209   -324.74228    23.620217     23.44393    44.438935    84.797628    85.394359    113.29741 
  478000     247.2681   -12626.892   -11353.991   -12626.892            0     1460.655    23.595497    21.623255    43.711983   -9.2351604    4.4898982    5.8847946    22302.355     1012.703    1290.9933    2078.2687   -11.212537   -851.90294    139.19218    23.595497    23.512834    44.334269    85.279661    84.187476    113.12703 
  478500    243.79254   -12662.354   -11407.344   -12662.354            0    502.91832      23.4744    21.705988    44.010174   -9.3183829    3.1856646    6.0058998    22424.727    914.82964    421.65076    172.27457    243.11691    356.11278   -781.44351      23.4744    23.621647    44.532176    84.507859    85.897771    113.23385 
  479000    241.43985   -12643.157   -11400.259   -12643.157            0    1043.2498    23.532732    21.627465    43.932208   -9.2147999    4.2660563     5.883498    22359.444     1093.291     897.4687    1138.9897    132.53116   -884.42576     409.0715    23.532732    23.508717    44.529245    85.181424    84.502434    113.07737 
  479500    242.59044   -12661.818   -11412.997   -12661.818            0    721.25838    23.559686    21.466118    44.138476   -9.2820408    3.3561669    5.5924587    22322.373    581.27958     1546.417     36.07856    166.81813    239.74575     218.8928    23.559686    23.386973     44.61776    85.112899    85.686112    113.38386 
  480000    247.17074    -12636.34    -11363.94    -12636.34            0    1642.3646    23.550157    21.605606    43.809795   -9.3154461    4.1307129      6.15164    22291.099     1105.822    1865.5023    1955.7694    595.56946   -664.27129   -239.70595    23.550157    23.528276    44.432011    84.817478    84.665678    113.32371 
  480500    249.68418   -12615.007   -11329.668   -12615.007            0     1574.702    23.470358    21.582258    43.870323   -9.1070854    3.8899199    5.7147506     22222.22    1975.4256    1573.5104    1175.1702   -501.51811    404.06103   -97.287138    23.470358    23.425048    44.411655    85.152604    84.975149    112.87833 
  481000    239.99251   -12710.872   -11475.425   -12710.872            0    1244.6804    23.457544    21.571732    43.949002   -9.4628019    3.6690617    5.9834105    22239.068    529.56261    1373.5209    1830.9576    324.73342    1149.3999   -118.13777    23.457544    23.555981    44.505932    84.836467    85.271179    113.68546 
  481500    245.94167   -12597.029   -11330.956   -12597.029            0    1135.8665    23.565718    21.630851    44.001463   -8.9170099     4.153884    5.9681918    22429.594    743.73839    1054.1183    1609.7429   -265.54629   -98.047536    458.53688    23.565718    23.396726    44.598238    84.938597     84.65572    112.40321 
  482000     234.8679   -12675.789   -11466.722   -12675.789            0    796.34053    23.495188    21.653802    43.951374   -9.4194725    3.7941487    5.8263252    22360.708    1332.1658    568.92322    487.93259     367.2725    74.766131    -136.3226    23.495188    23.613844     44.49792    85.063335    85.108693    113.50919 
  482500    240.61792     -12565.5   -11326.833     -12565.5            0     860.9593    23.534001    21.668514    43.911616   -9.1953991    3.8268869    6.0573126    22392.589    769.17657    159.66589    1654.0354   -2.4791853    79.373591   -72.774758    23.534001    23.538901    44.492315    84.737169    85.065761    112.99476 
  483000    242.06948   -12674.525   -11428.385   -12674.525            0    393.89408    23.550262    21.573468    44.068246   -9.2467798    4.2168443    5.5832485     22389.35    519.12728    611.78851    50.766465   -236.16763    78.415746    402.03281    23.550262    23.471631    44.620228    85.539135    84.577157    113.20085 
  483500    250.74743   -12641.196   -11350.383   -12641.196            0    928.87427    23.497284    21.631448    43.988199   -9.3910538    3.4053975    6.1155794    22358.335    1244.1923    77.301669    1465.1288    -143.7994    668.14592   -102.38671    23.497284    23.582015    44.541652    84.520061    85.615217    113.46754 
  484000    244.44267   -12614.898   -11356.542   -12614.898            0    917.98021    23.520091    21.709853    43.774569   -9.0587042    4.4131849    5.8042365     22352.07    541.63015   -149.84417    2362.1547   -499.15394   -430.81462    691.91273    23.520091    23.523984    44.377677    85.272877    84.292727    112.64894 
  484500    244.92685    -12644.99   -11384.141    -12644.99            0   -6.1849555     23.56941    21.660001    43.923064    -9.469069    3.5756532    5.9694402    22423.315    416.56453   -967.38533    532.26593    376.43632    465.91308    417.04677     23.56941    23.639351    44.470834    84.791166    85.388186    113.61343 
  485000    247.53478   -12625.006   -11350.732   -12625.006            0    658.59553    23.537524    21.597986    44.041706   -9.2041019    3.9829262    5.7904763    22389.178    579.37594     705.6544    690.75623   -346.57327    227.01437    124.88956    23.537524    23.477404    44.598937     85.15678    84.876351    113.08155 
  485500    247.27844   -12645.465    -11372.51   -12645.465            0    936.25681    23.460706    21.562897    44.239771   -9.1706065    4.3440193    6.3439641     22380.05    801.56031    2122.4081     -115.198   -238.92155   -432.99598   -544.08447    23.460706    23.431998    44.902937    84.712698    84.448384    113.03984 
  486000    238.15691   -12708.096   -11482.098   -12708.096            0    748.02587    23.417399    21.630421    44.064702   -9.2395506     3.756485    5.6236864    22320.014    695.73462    641.75723    906.58575   -802.11208    1043.9509    81.333744    23.417399    23.521148    44.580657    85.244366    85.166373    113.13001 
  486500    241.53802   -12614.264    -11370.86   -12614.264            0    1630.2937    23.570216    21.672138    43.658667   -9.1940278    4.1517521    6.0473637    22301.588     1634.427    1451.4773    1804.9767   -764.10122   -365.31849   -181.76826    23.570216    23.541702    44.270609    84.886651    84.618824    112.98824 
  487000    239.75457   -12669.272   -11435.049   -12669.272            0    1431.9117    23.661462    21.535074    43.736683   -9.3826916    3.5787795    5.7546158    22286.086    1233.5013    1187.5199    1874.7139    219.79103   -555.68922    509.43072    23.661462    23.490303    44.258567    85.014589    85.361958    113.54244 
  487500    243.45295   -12636.262       -11383   -12636.262            0    2003.7567     23.59167      21.6228     43.60625   -9.2562214    3.9732197    5.7409727    22244.331     1702.848    1201.1145    3107.3076   -582.97877    31.150675    655.10054     23.59167    23.520696    44.161638     85.17555    84.838123    113.17465 
  488000    249.45695   -12637.584   -11353.415   -12637.584            0      1016.17     23.52301    21.734256    43.677776   -9.1968768    3.9647369    6.0533429    22330.487    221.29193    664.40472    2162.8133    100.86552    219.23262   -201.31482     23.52301    23.600009    44.273132    84.777722    84.862179    112.93571 
  488500    247.09858   -12624.541   -11352.512   -12624.541            0    794.77623    23.542172    21.605072    44.066338   -9.2617387    3.8947395      5.81458    22413.476    29.493262    2012.1497    342.68574    29.194332    127.58007   -62.962858    23.542172    23.506572    44.618612    85.101948    84.992303    113.20402 
  489000    244.69437   -12665.043    -11405.39   -12665.043            0    226.50526    23.558754    21.591278    44.137824    -9.226613    3.8029412      6.25995    22451.305    904.25243    -35.32694   -189.40971   -624.49554     772.1003   -404.65459    23.558754     23.48007    44.741444    84.533806     85.12408     113.1385 
  489500    242.91173   -12642.228   -11391.753   -12642.228            0    1211.1862    23.414532    21.584645     44.21881   -9.2323981    4.0976159    5.7723774    22347.937    2337.4721    813.18749    482.89896   -216.04728   -93.051937   -462.31206    23.414532    23.476245    44.781848    85.266033    84.749994    113.15784 
  490000    245.50273   -12612.467   -11348.654   -12612.467            0    1034.2855     23.43441    21.714605    43.917488   -9.1769197    3.8410017    5.9479444    22348.246    942.53865    1092.6737     1067.644    -194.7101      1088.75   -547.35522     23.43441    23.574137    44.484571     84.86234    85.046652    112.90965 
  490500    250.36933   -12624.456    -11335.59   -12624.456            0    1166.9524    23.641625    21.608679    43.759634   -9.4363549    3.8406249    5.9780002    22355.235    1020.8453    841.19764    1638.8142   -27.116814    519.30062    274.34319    23.641625    23.579224    44.332747    84.899386    85.030135    113.59055 
  491000    243.90023   -12604.152   -11348.588   -12604.152            0     1565.432     23.57001    21.591833    43.798988   -9.1974565    3.9130473    5.5722224    22290.168    1156.8497    2085.2044    1454.2421   -447.56469   -236.66646    286.58198     23.57001    23.469138    44.325083    85.350503    84.935298    113.07251 
  491500    245.49995   -12659.938   -11396.139   -12659.938            0    1456.8046    23.542319     21.69603    43.627082   -9.4114896    3.3487249     6.420655    22283.617    509.12646    1780.2775    2081.0097    272.84742    1335.6502   -859.56137    23.542319    23.649394    44.223987    84.084659    85.657297    113.45065 
  492000    241.97072   -12627.884   -11382.253   -12627.884            0    972.90301    23.473294    21.624787    44.085025   -9.0952897    3.9972887    5.6054213    22377.779    1237.5034    1141.9176      539.288     139.5484   -474.44485    117.77868    23.473294    23.459661    44.619373    85.349978    84.860187    112.81141 
  492500    240.14422   -12679.314   -11443.086   -12679.314            0     618.1655     23.48468    21.603127    44.052248   -9.2804174    3.7864266    6.0293274    22349.578    1261.6696    390.62906    202.19781   -719.35791    -141.1275     238.1579     23.48468     23.51215    44.623876    84.798865    85.132484    113.24772 
  493000    239.50026     -12665.7   -11432.786     -12665.7            0    2168.1117     23.51812    21.505261    44.004805   -9.1083427    4.2141359    5.8357326    22256.015    2499.9146    1854.0852    2150.3351   -236.77846    -1051.297    573.34562     23.51812    23.354617    44.589657     85.20137    84.576924    112.95461 
  493500    254.68052   -12607.767   -11296.708   -12607.767            0    1303.9708    23.448873    21.614778    44.057696   -9.2643713    3.6307144    5.8144189    22330.299    1682.4992    905.51533    1323.8979    486.28373   -99.509939   -246.07953    23.448873     23.51653     44.58778    84.964129    85.329322    113.20059 
  494000    244.43208   -12570.349   -11312.047   -12570.349            0    1003.6409    23.591653    21.680048    43.798352   -9.3139524     4.086386    6.0129283    22401.463    245.31927    1416.9853    1348.6182    275.84336   -305.61598   -235.11797    23.591653    23.596063     44.39763    84.945371    84.718986    113.24881 
  494500    248.33534   -12632.149   -11353.754   -12632.149            0    291.36559    23.638037    21.704147    43.804328   -9.1357359     3.659788    5.8201253    22473.523    201.62624   -275.08268    947.55321   -823.25182    751.56124   -248.31355    23.638037    23.548496     44.34058    84.896327    85.265528    112.82726 
  495000    248.30443   -12620.744   -11342.508   -12620.744            0    77.646721    23.592012    21.735106    43.780514   -9.4441516    3.9513093    5.8378006    22449.548   -183.42164   -629.09657    1045.4584   -217.99956   -568.13278    84.597316    23.592012    23.698246    44.344404    85.110664    84.887878     113.4855 
  495500     245.5634     -12639.8   -11375.674     -12639.8            0    828.61126     23.54348    21.609692    43.932382   -9.0911772    3.7969299    5.9635402    22351.361    581.91023    1267.4451    636.47849   -1247.6485    538.42133   -123.12967     23.54348    23.444152     44.49758    84.810861    85.105061    112.81645 
  496000    245.91528   -12659.524   -11393.587   -12659.524            0    2010.0607    23.462678    21.541453    44.051774    -9.471788    4.0213032    5.8397743    22264.655    1546.4832     2596.493    1887.2058    611.13912    214.09274    334.51156    23.462678    23.531871    44.618747    85.208231    84.829152    113.73512 
  496500    243.02307   -12656.548   -11405.499   -12656.548            0    1678.5296    23.403045    21.550256    44.192193    -9.000998     3.818401    5.8400856    22287.962    3002.9508    1599.6406    432.99749   -880.97374   -329.80454   -343.65018    23.403045    23.354475    44.739655    84.976914    85.104014    112.66906 
  497000    240.97212   -12647.061   -11406.571   -12647.061            0     1149.235    23.466445    21.632341    43.966366   -9.3421376    4.0129313    6.0437573    22318.828    1515.1421    818.31252    1114.2503    200.90636   -296.16874    48.116434    23.466445    23.563397    44.560879    84.904835    84.833227    113.35757 
  497500    236.13486   -12660.817   -11445.228   -12660.817            0    180.57306    23.549459    21.684988    43.925159   -9.1353083    3.8775314    5.7172253     22431.25    960.56826   -291.42844   -127.42064   -928.89293    350.49542   -321.21583    23.549459    23.530673     44.46506    85.144825    84.997224     112.8444 
  498000    246.29681   -12662.475   -11394.574   -12662.475            0   -267.66356    23.616651    21.659042    43.815811    -9.357274    3.8967507    5.9985607    22412.403   -670.84817    358.71427   -490.85678     152.6233    373.97713   -410.15894    23.616651    23.593912    44.395864    84.881008    84.964507    113.36561 
  498500    244.84187   -12681.252    -11420.84   -12681.252            0     402.0494    23.543961    21.712182    43.763116   -9.1688504    4.0437075     5.961158      22371.3    169.27803    179.56703    857.30315   -50.640845    61.908301   -176.15551    23.543961    23.568764     44.35197    84.931338    84.768901    112.89388 
  499000    249.84097   -12605.902   -11319.755   -12605.902            0    444.50747    23.484098    21.671646    44.030954   -9.2847048    3.7249185    6.1466513    22409.072    1303.3894   -549.95118    580.08425    122.96259   -307.07887    74.759388    23.484098    23.576811    44.613689    84.619938    85.210644    113.19157 
  499500    239.88007   -12636.591   -11401.722   -12636.591            0    443.27569    23.504919    21.529418    44.272366    -9.180495    4.0891588     5.719582    22403.908    877.01296    1503.8985   -1051.0844    29.975341    -254.9917   -46.618432    23.504919    23.405071    44.827193    85.320261    84.766175    113.09419 
  500000    250.48401   -12621.048   -11331.592   -12621.048            0      1151.21    23.484777    21.617865    44.112777   -9.2056971    3.7092028     6.140998    22395.649    758.99953     1628.171    1066.4595    294.60118     7.696741   -907.98248    23.484777    23.496318    44.692361    84.611741    85.239312    113.06612 
Loop time of 1590.22 on 128 procs for 500000 steps with 2592 atoms

Performance: 54.332 ns/day, 0.442 hours/ns, 314.422 timesteps/s
99.2% CPU use with 128 MPI tasks x 1 OpenMP threads

MPI task timing breakdown:
Section |  min time  |  avg time  |  max time  |%varavg| %total
---------------------------------------------------------------
Pair    | 71.538     | 89.021     | 108.38     | 108.7 |  5.60
Bond    | 0.068607   | 0.077632   | 0.088178   |   1.7 |  0.00
Kspace  | 833.38     | 856.88     | 876.64     |  36.7 | 53.88
Neigh   | 19.232     | 19.57      | 20.154     |   4.2 |  1.23
Comm    | 233.22     | 247.04     | 266.62     |  63.8 | 15.53
Output  | 5.4187     | 5.4221     | 5.4865     |   0.3 |  0.34
Modify  | 320.39     | 342.01     | 354.02     |  47.1 | 21.51
Other   |            | 30.2       |            |       |  1.90

Nlocal:        20.2500 ave          26 max          15 min
Histogram: 11 10 14 12 20 19 18 11 5 8
Nghost:        2490.06 ave        2524 max        2454 min
Histogram: 2 1 10 21 24 28 20 13 8 1
Neighs:        6229.32 ave        8015 max        4582 min
Histogram: 10 8 17 12 20 19 18 13 5 6

Total # of neighbors = 797353
Ave neighs/atom = 307.62076
Ave special neighs/atom = 2.0000000
Neighbor list builds = 25145
Dangerous builds = 0

unfix		3
unfix		2
unfix		1

write_data	data.final.${pid}
write_data	data.final.0
System init for write_data ...
PPPM initialization ...
  extracting TIP4P info from pair style
  using 12-bit tables for long-range coulomb (../kspace.cpp:340)
  G vector (1/distance) = 0.36590372
  grid = 30 40 60
  stencil order = 5
  estimated absolute RMS force accuracy = 0.0047977151
  estimated relative force accuracy = 1.4448176e-05
  using double precision FFTW3
  3d grid and FFT values/proc = 4864 640
WARNING: Not all mixed pair coeffs generated from mixing. Use write_data with 'pair ij' option to store all pair coeffs. (../write_data.cpp:312)

write_restart   restart.lmp.${pid}
write_restart   restart.lmp.0
System init for write_restart ...
PPPM initialization ...
  extracting TIP4P info from pair style
  using 12-bit tables for long-range coulomb (../kspace.cpp:340)
  G vector (1/distance) = 0.36590372
  grid = 30 40 60
  stencil order = 5
  estimated absolute RMS force accuracy = 0.0047977151
  estimated relative force accuracy = 1.4448176e-05
  using double precision FFTW3
  3d grid and FFT values/proc = 4864 640
Total wall time: 0:26:30
