LAMMPS data file via write_data, version 30 Jul 2021, timestep = 41750000

864 atoms
2 atom types
576 bonds
1 bond types
288 angles
1 angle types

0.13033285328408084 18.07723954671187 xlo xhi
0.15687068673561555 23.472307113271018 ylo yhi
0.20512671886138634 22.00806908113226 zlo zhi

Masses

1 1.00794
2 15.9994

Atoms # full

707 1 1 0.5897 3.1845993120133507 1.7914240084384776 4.049067944996315 0 0 0
706 1 2 -1.1794 3.2017834829126732 1.7728187663809785 3.0921268029909905 0 0 0
30 1 1 0.5897 5.326304803337188 4.038070136344777 2.4284988341170184 0 0 0
708 1 1 0.5897 2.422015077687849 2.2613966786288127 2.828529363814198 0 0 0
29 1 1 0.5897 4.548900908693916 2.73936471952088 2.450302065391939 0 0 0
28 1 2 -1.1794 5.353980723465263 3.1341306874984394 2.115228716989958 0 0 0
495 1 1 0.5897 8.350218085806677 2.296549671024241 2.6631726596602765 0 0 0
1 1 2 -1.1794 1.0217016400425813 3.168843938118847 2.2327266176013265 0 0 0
494 1 1 0.5897 6.836589294944428 2.3001565299503723 2.6310028264069714 0 0 0
493 1 2 -1.1794 7.585120577809871 1.8183691500031918 2.982881553527227 0 0 0
846 1 1 0.5897 7.452083298169073 1.7988347450894238 4.7263781498325494 0 0 0
3 1 1 0.5897 1.0016118648505556 4.0294957989319835 2.6509593580754385 0 0 0
136 1 2 -1.1794 5.3261036222464915 5.747400227496152 2.972795711193792 0 0 0
597 1 1 0.5897 0.8678258737563298 5.785530517886142 4.1194628759989795 0 0 0
20 1 1 0.5897 0.9014869575176078 3.1187581615478224 0.43236959458035285 0 0 0
137 1 1 0.5897 5.357785549256651 5.8349108607227445 3.9255361087296405 0 0 0
595 1 2 -1.1794 0.9501452405348064 5.7544453716722614 3.1662398224902946 0 0 0
668 1 1 0.5897 5.340126851412715 3.236417697741616 0.34655180414634057 0 0 0
2 1 1 0.5897 0.24864147871695153 2.718601885341847 2.5731847295820036 0 0 0
34 1 2 -1.1794 0.6861984111227014 3.0793454204355446 9.358622987217162 0 0 0
355 1 2 -1.1794 7.585064748409561 2.0057851532200903 10.258493646234177 0 0 0
784 1 2 -1.1794 0.7207472504784463 3.3213069076267003 6.67325928472723 0 0 0
487 1 2 -1.1794 3.0196617037553812 2.027255980272664 5.791786436699889 0 0 0
673 1 2 -1.1794 2.961308185851126 1.830449740676158 10.3638957771603 0 0 0
685 1 2 -1.1794 5.319549470790084 5.8440941979743375 5.728961014007821 0 0 0
84 1 1 0.5897 6.048977799647814 2.657474401162758 6.250529793896567 0 0 0
82 1 2 -1.1794 5.359128964793997 3.194950304948508 6.639692573043864 0 0 0
675 1 1 0.5897 3.0428980605231106 0.9537116987049661 9.988790278232269 0 0 0
176 1 1 0.5897 9.054244412939958 2.715838735124757 9.63882277019815 0 0 0
844 1 2 -1.1794 7.503374530758819 1.860843903031976 5.680265962729408 0 0 0
181 1 2 -1.1794 0.8084463952244908 5.906537100819186 5.907666336012296 0 0 0
183 1 1 0.5897 0.7137934414548985 4.9858565815749065 6.1513548420236885 0 0 0
35 1 1 0.5897 0.7155885430577725 3.957892410141288 9.737208873273442 0 0 0
845 1 1 0.5897 7.515506882501761 0.9518511700971601 5.979587291813104 0 0 0
488 1 1 0.5897 2.2559376649985516 2.4697423010618262 6.162171131499638 0 0 0
674 1 1 0.5897 3.700984974689614 2.31687106060361 9.99987125127822 0 0 0
356 1 1 0.5897 7.5537249928090535 1.0777083939081957 10.026792454728366 0 0 0
678 1 1 0.5897 5.2153454439792215 4.8370271289951665 10.044263027689176 0 0 0
36 1 1 0.5897 1.4595536476332667 2.6398137583571546 9.712155735512958 0 0 0
275 1 1 0.5897 5.302847955797028 3.1096385693013895 8.42843957970946 0 0 0
276 1 1 0.5897 6.007037038278592 2.7511081159230177 9.719850861427435 0 0 0
489 1 1 0.5897 2.9613134601786846 1.1309786299319855 6.122394076143792 0 0 0
676 1 2 -1.1794 5.173137440363949 5.726761076352243 10.39442487310146 0 0 0
686 1 1 0.5897 5.292846194887978 4.949437952618906 6.067920390307525 0 0 0
83 1 1 0.5897 4.543767163223164 2.795530943754197 6.33652133690167 0 0 0
112 1 2 -1.1794 0.7673999445552993 5.59662520232062 10.353387666844883 0 0 0
274 1 2 -1.1794 5.20224026309061 3.142226755967828 9.37985683170973 0 0 0
419 1 1 0.5897 8.953940272621784 2.6507195310124425 6.288607553470532 0 0 0
785 1 1 0.5897 0.7205902029858113 3.2443896338597433 7.627439272684379 0 0 0
166 1 2 -1.1794 3.012471886306133 1.9466143024133233 13.17440325510194 0 0 0
167 1 1 0.5897 2.9528410179463758 1.9061697276294538 12.219843202064071 0 0 0
457 1 2 -1.1794 5.245875767465622 3.2460930341980747 14.118552787810636 0 0 0
458 1 1 0.5897 5.982346224718839 2.7889671072853743 13.712472110671138 0 0 0
459 1 1 0.5897 4.46986428550666 2.800496471066182 13.778699310147573 0 0 0
762 1 1 0.5897 5.149388011669615 4.902687768397467 13.427664751261144 0 0 0
594 1 1 0.5897 8.21011230029776 2.416331219028816 13.353902564381748 0 0 0
168 1 1 0.5897 2.2322750725232168 2.43162680864175 13.443276231039192 0 0 0
71 1 1 0.5897 5.291561091637601 3.2667867741653858 15.911696383684086 0 0 0
592 1 2 -1.1794 7.404238226419754 2.033663852178698 13.006904315661123 0 0 0
466 1 2 -1.1794 0.8538438697081252 3.358999605564085 13.948134098139091 0 0 0
593 1 1 0.5897 7.426592237159942 1.1223062719022479 13.298348084484845 0 0 0
468 1 1 0.5897 0.8629898450934697 3.2213491786086306 14.895413411999069 0 0 0
365 1 1 0.5897 0.5590808245234332 5.0522357019059685 13.284368887489634 0 0 0
357 1 1 0.5897 7.485944875965672 2.0189990707362364 11.210532239020868 0 0 0
760 1 2 -1.1794 5.107879880840041 5.814554713073384 13.139944808547687 0 0 0
761 1 1 0.5897 5.105509071921002 5.764786542136398 12.183966568538256 0 0 0
113 1 1 0.5897 0.6954485991217733 5.726713801213192 11.299046361028878 0 0 0
364 1 2 -1.1794 0.551641763960115 5.9646291326405345 12.995420929631754 0 0 0
737 1 1 0.5897 2.742956820416694 0.19893991784454174 13.693663206201315 0 1 0
133 1 2 -1.1794 0.9481204116990456 3.1911907312368295 16.6521978464141 0 0 0
135 1 1 0.5897 0.13189813832612174 2.788680457577085 16.94890647946653 0 0 0
599 1 1 0.5897 9.068301772561298 2.6674934003704247 17.00890563425154 0 0 0
277 1 2 -1.1794 5.347754930854962 5.840489245701285 17.66825514820176 0 0 0
40 1 2 -1.1794 7.648619709379606 2.0397855519596777 20.27920562925412 0 0 0
289 1 2 -1.1794 3.1148071779830087 1.914443950689537 17.7402397732867 0 0 0
291 1 1 0.5897 2.369546301414576 2.394634090836837 17.379349283346826 0 0 0
143 1 1 0.5897 5.369645029613457 5.061178808151225 20.729361834595768 0 0 0
19 1 2 -1.1794 0.8270376115262765 3.0302794791199763 21.285046955480045 0 0 0
278 1 1 0.5897 5.272096969546352 4.915949550140156 17.432681389850003 0 0 0
756 1 1 0.5897 6.840048411839564 2.3075799019301013 17.310341025475953 0 0 0
669 1 1 0.5897 4.619686532407652 2.847802943617019 20.87587573771943 0 0 0
568 1 2 -1.1794 3.2007919340330933 1.888904361136013 20.48349887172696 0 0 0
570 1 1 0.5897 3.1197620164214253 1.848272676049412 19.530523513196687 0 0 0
667 1 2 -1.1794 5.392399114037956 3.3128040262567393 21.19670433298419 0 0 0
21 1 1 0.5897 0.816437049562737 3.93050510063051 20.960243854912584 0 0 0
754 1 2 -1.1794 7.587097965762497 1.7739720623019355 17.581260539234425 0 0 0
134 1 1 0.5897 0.928112224726969 4.0741075526076 17.021099593973386 0 0 0
290 1 1 0.5897 3.0361718266464583 1.0356214032786175 17.369402374743615 0 0 0
755 1 1 0.5897 7.638421796292522 1.8965329050898658 18.529268129171133 0 0 0
569 1 1 0.5897 2.3706272795907153 2.2625828960368923 20.779239291117147 0 0 0
72 1 1 0.5897 4.566374541156496 2.7736673571227595 17.145816679736335 0 0 0
41 1 1 0.5897 6.844825260790404 2.461042856245295 20.58370020784742 0 0 0
144 1 1 0.5897 5.326392232683136 5.916118104007925 19.480704722019226 0 0 0
42 1 1 0.5897 7.602699737355811 1.151587416816549 20.632782967108067 0 0 0
70 1 2 -1.1794 5.360019534534012 3.2296959914733434 16.86580010094462 0 0 0
648 1 1 0.5897 0.8461153628384541 5.770255070123446 19.484220015485995 0 0 0
646 1 2 -1.1794 0.8199605928278805 5.714057876332045 20.439487099587456 0 0 0
142 1 2 -1.1794 5.328708673139979 5.971398399320907 20.436379935713468 0 0 0
571 1 2 -1.1794 0.8710835355970722 5.76826072538314 17.746948147278253 0 0 0
81 1 1 0.5897 3.0807640632433033 0.21886966963944904 21.057618100744286 0 1 0
123 1 1 0.5897 3.0852864731675957 8.864330001856958 2.7391661352283645 0 0 0
121 1 2 -1.1794 3.1050348788964213 9.78339786545273 3.0054787237890492 0 0 0
122 1 1 0.5897 3.1173649910921233 9.755883778662161 3.9622794860153956 0 0 0
44 1 1 0.5897 1.583745697160091 10.42165806558873 2.4945781222494157 0 0 0
218 1 1 0.5897 6.040845356085478 10.673209243118364 2.4822314691232243 0 0 0
417 1 1 0.5897 8.253563279834326 6.626843837351798 2.4972466311153543 0 0 0
219 1 1 0.5897 4.52697945713095 10.65769956213156 2.4728774835044782 0 0 0
254 1 1 0.5897 3.0398029570800458 7.078915349532597 1.3311330376360777 0 0 0
415 1 2 -1.1794 7.544497931789215 7.14137710397924 2.111614753197723 0 0 0
217 1 2 -1.1794 5.28085315170397 11.156506600377377 2.1580832162253007 0 0 0
66 1 1 0.5897 7.477561323055858 9.719608555296348 3.9382976154333837 0 0 0
65 1 1 0.5897 7.5411843554710165 8.822701877414975 2.720341953502984 0 0 0
64 1 2 -1.1794 7.497182798872089 9.742409358443636 2.9814899365078773 0 0 0
253 1 2 -1.1794 3.0998099379181276 7.172749673107836 2.2819065346142615 0 0 0
255 1 1 0.5897 2.360927630200415 6.666900801805748 2.620139144357217 0 0 0
416 1 1 0.5897 6.7457842355424535 6.682788106788825 2.3723724121840175 0 0 0
43 1 2 -1.1794 0.7597831430487428 10.831337419015647 2.2309232256480227 0 0 0
396 1 1 0.5897 0.898833101704094 10.928537643607207 0.4889283389236095 0 0 0
773 1 1 0.5897 8.948870198379318 10.576058178763915 2.537838682541157 0 0 0
162 1 1 0.5897 7.652503107171908 7.194798996374438 0.33434710332915285 0 0 1
138 1 1 0.5897 4.562478161277595 6.261158519975969 2.7098323987938664 0 0 0
363 1 1 0.5897 5.346588523637053 11.013267009337154 0.41023073704557556 0 0 1
596 1 1 0.5897 0.14311143010706218 6.154603776076231 2.842459216271325 1 0 0
45 1 1 0.5897 0.8178640066819871 11.725325898193299 2.567718890218881 0 0 0
712 1 2 -1.1794 7.401555870141564 9.768798512662983 5.716691992876612 0 0 0
713 1 1 0.5897 8.158195305594129 10.245566717379164 6.05790874419627 0 0 0
581 1 1 0.5897 5.975604688938283 10.46601962542989 9.89158531119353 0 0 0
795 1 1 0.5897 3.8140335168796664 10.012305462579741 6.145670886358902 0 0 0
13 1 2 -1.1794 0.6378335510683435 10.920459043895658 9.32847238408762 0 0 0
165 1 1 0.5897 8.928118413076012 6.1852393916689525 6.127486435617778 0 0 0
256 1 2 -1.1794 2.830155356767066 9.667874150019372 10.382155019517729 0 0 0
650 1 1 0.5897 2.9915644566935584 7.082852777257791 8.588782868605913 0 0 0
10 1 2 -1.1794 3.094415147742428 7.0659714759057675 6.823131714535537 0 0 0
582 1 1 0.5897 5.181396881564059 10.883999293093622 8.672295349799096 0 0 0
793 1 2 -1.1794 3.0893712613236444 9.544579299647626 5.730523535816028 0 0 0
794 1 1 0.5897 2.3078065542425263 10.030460921690548 5.99379230876843 0 0 0
714 1 1 0.5897 7.493519088519404 8.885658823543308 6.073952175159144 0 0 0
145 1 2 -1.1794 7.480436141096854 7.192642049964246 6.668506900397116 0 0 0
147 1 1 0.5897 7.400676351141109 7.1520680463092905 7.62159157166161 0 0 0
11 1 1 0.5897 2.27483658746759 6.690051480193568 6.501812351662662 0 0 0
12 1 1 0.5897 3.1178040078496254 7.946250258019464 6.448172704067717 0 0 0
258 1 1 0.5897 3.6413524971450695 10.071023857236604 10.072809907032246 0 0 0
528 1 1 0.5897 8.103697054445355 6.572063618926391 9.713572065663126 0 0 0
526 1 2 -1.1794 7.336328224511027 7.042658818147817 9.388107357786247 0 0 0
820 1 2 -1.1794 7.437232028292665 9.509168042639331 10.415717142160629 0 0 0
580 1 2 -1.1794 5.173151380548294 10.9169583697452 9.6289686508203 0 0 0
649 1 2 -1.1794 2.9519979658007474 7.077174969105307 9.545224103370733 0 0 0
114 1 1 0.5897 1.5780103934823597 6.0440393758072135 10.110537172245136 0 0 0
527 1 1 0.5897 7.392922669864421 7.905923709095206 9.797516563567005 0 0 0
551 1 1 0.5897 0.8144757813394851 10.939960019974471 7.497876174290633 0 0 0
687 1 1 0.5897 4.546030296815765 6.265664743589389 6.10340367915617 0 0 0
822 1 1 0.5897 8.193319208630792 10.005341650177403 10.102069785755651 0 0 0
15 1 1 0.5897 1.4092470915687676 10.45959635517102 9.658286020472103 0 0 0
651 1 1 0.5897 3.712981651138255 6.562434510094828 9.813864320405907 0 0 0
577 1 2 -1.1794 5.183634819018966 10.936876980601365 6.894268776311659 0 0 0
257 1 1 0.5897 2.8993218730066954 8.752209456298827 10.112388857923781 0 0 0
550 1 2 -1.1794 0.9099130698331267 10.95696896382392 6.545521691339542 0 0 0
578 1 1 0.5897 5.926360037494056 10.504537256305188 6.472723474833339 0 0 0
146 1 1 0.5897 6.717896530969495 6.714127829271757 6.3432461887755975 0 0 0
677 1 1 0.5897 5.910599077766486 6.180407858166722 9.986251654829822 0 0 0
579 1 1 0.5897 5.127411566548243 11.790263404595798 6.464594170153709 0 0 0
828 1 1 0.5897 7.420243257357905 7.16218797276238 14.932126115846442 0 0 0
261 1 1 0.5897 0.7399890275168275 10.927355644329902 14.977825957769655 0 0 0
332 1 1 0.5897 2.986751568074165 7.997766483717642 13.76396494180253 0 0 0
797 1 1 0.5897 3.004408021545781 9.640058571869522 12.245125018718502 0 0 0
796 1 2 -1.1794 3.021231316040107 9.651136177059575 13.202191340615231 0 0 0
798 1 1 0.5897 2.236538053268561 10.139899980907556 13.450390016124997 0 0 0
722 1 1 0.5897 4.481191590565185 10.525241239479188 13.7997141746905 0 0 0
259 1 2 -1.1794 0.7255720073386716 10.98533984824333 14.022417081295714 0 0 0
721 1 2 -1.1794 5.247075946764496 11.059948976193093 14.008811526804546 0 0 0
723 1 1 0.5897 5.296266716996018 11.045361709501112 14.964713350048513 0 0 0
331 1 2 -1.1794 2.9025274915483457 7.092839555680119 14.064009898740753 0 0 0
225 1 1 0.5897 2.9775485446281826 7.089360128165057 15.851574193607869 0 0 0
826 1 2 -1.1794 7.374445085903269 7.221732362853038 13.977801458741597 0 0 0
475 1 2 -1.1794 7.63289891652141 9.849613114904376 13.143032023925528 0 0 0
476 1 1 0.5897 6.795435882477085 10.23565967945768 13.39973116762137 0 0 0
477 1 1 0.5897 7.587254448251261 8.946793809922797 13.457431166946847 0 0 0
827 1 1 0.5897 6.565973523944168 6.76404538791362 13.747281375114643 0 0 0
333 1 1 0.5897 3.706361566950391 6.666009477677236 13.76749022341663 0 0 0
366 1 1 0.5897 1.3668367616228885 6.3313583573208625 13.337828690370475 0 0 0
851 1 1 0.5897 8.768439805138048 6.281233917540216 13.382078443026806 0 0 0
821 1 1 0.5897 7.486717333080194 9.573617622988117 11.36953734334214 0 0 0
104 1 1 0.5897 9.081055076466669 10.576383544525092 13.78159346145575 0 0 0
520 1 2 -1.1794 7.609816199858962 7.008910602650252 16.75514253122421 0 0 0
246 1 1 0.5897 9.097710502678503 10.556107959944903 16.92111461939366 0 0 0
462 1 1 0.5897 9.101763347458643 6.383017161485698 20.737328328810683 0 0 0
627 1 1 0.5897 2.371551056442102 10.052830431764066 17.31701755976513 0 0 0
711 1 1 0.5897 9.03095515012698 6.1407223679144805 17.3857376625446 0 0 0
160 1 2 -1.1794 7.632149121806473 7.252738649983834 21.181986254946196 0 0 0
445 1 2 -1.1794 0.898393470858692 10.824687586176863 16.723178225439014 0 0 0
287 1 1 0.5897 9.073507592948182 10.669587559470102 20.998824627184124 0 0 0
688 1 2 -1.1794 3.1369678036903235 9.650940291488759 20.35429550954929 0 0 0
361 1 2 -1.1794 5.340512601482152 10.96981386666502 21.25690210820218 0 0 0
647 1 1 0.5897 1.5750010549895572 6.225232521054646 20.730755828660833 0 0 0
626 1 1 0.5897 3.1357639185942308 9.683616608372272 18.57073976367607 0 0 0
679 1 2 -1.1794 5.395691574786667 11.071234799309066 16.735985879556566 0 0 0
224 1 1 0.5897 3.0513338906081477 7.951165221706537 17.094061473874483 0 0 0
394 1 2 -1.1794 0.9011303063288653 10.976007946007085 21.33577474103663 0 0 0
7 1 2 -1.1794 7.6235831389712105 9.694301977538831 17.465612928160482 0 0 0
572 1 1 0.5897 1.6161386049396667 6.287746206628184 17.4448675590886 0 0 0
161 1 1 0.5897 6.838401602452023 6.780941757339341 20.929768615005088 0 0 0
9 1 1 0.5897 6.830746189338714 10.15669784658803 17.193874826762414 0 0 0
8 1 1 0.5897 7.656351563978569 9.811564572060211 18.41511205445791 0 0 0
5 1 1 0.5897 3.836031783042074 6.677507095693744 21.031836809523377 0 0 0
680 1 1 0.5897 4.6448724720065435 10.591553591243425 17.085869391074457 0 0 0
521 1 1 0.5897 6.822226873072358 6.596353681814622 17.109772600066208 0 0 0
690 1 1 0.5897 2.3367442714580458 10.087938951870667 20.645723324590918 0 0 0
279 1 1 0.5897 4.558775527464162 6.245236079959803 17.307759314709962 0 0 0
689 1 1 0.5897 3.845995612968107 10.1730435448933 20.729681664070746 0 0 0
522 1 1 0.5897 7.573324498888342 7.910166101262925 17.075170489182494 0 0 0
6 1 1 0.5897 3.06289046427303 7.9785058167889815 21.06523039314284 0 0 0
625 1 2 -1.1794 3.1930307059445764 9.66243967334594 17.615409657939395 0 0 0
141 1 1 0.5897 7.6432093171667885 8.90581038289232 20.565772867321694 0 0 0
140 1 1 0.5897 6.856101048069651 10.1984842544996 20.535110794790977 0 0 0
223 1 2 -1.1794 3.029448455203303 7.03869202932711 16.80609819637243 0 0 0
139 1 2 -1.1794 7.6690986353059545 9.799728435340871 20.22479454807087 0 0 0
4 1 2 -1.1794 3.0238148611734257 7.067284351960718 21.355324404181044 0 0 0
446 1 1 0.5897 0.8877987631943092 11.701043971881493 17.107780893637393 0 0 0
200 1 1 0.5897 5.069371398933516 13.537775680343335 4.923114683770895 0 0 0
173 1 1 0.5897 4.329720832904708 14.070855741232291 2.8927408132272783 0 0 0
172 1 2 -1.1794 5.15851100558321 13.67968482129283 3.1690696122740794 0 0 0
293 1 1 0.5897 2.89766158447047 16.750050121462436 2.6992202669048364 0 0 0
558 1 1 0.5897 2.914509083295737 14.932116298402484 1.3335620986876113 0 0 0
556 1 2 -1.1794 2.876250787252494 15.008397825485744 2.287025272362991 0 0 0
557 1 1 0.5897 2.129860922950604 14.465838348696701 2.5414679020178412 0 0 0
478 1 2 -1.1794 7.3622978841499185 14.832254807136213 2.2071786148901693 0 0 0
174 1 1 0.5897 5.154635369168345 12.806962235861556 2.77615946709612 0 0 0
479 1 1 0.5897 8.120196073909476 14.395873558136604 2.5963055000913235 0 0 0
449 1 1 0.5897 7.409462809936892 16.589619043435132 2.738341659511646 0 0 0
480 1 1 0.5897 6.606259128380248 14.387178678288777 2.5900154533242548 0 0 0
373 1 2 -1.1794 0.7748981196080332 13.413965785215467 3.1144542908528843 0 0 0
374 1 1 0.5897 0.7835317266004513 13.496621259483035 4.068115911938019 0 0 0
308 1 1 0.5897 7.342945475570152 17.401516914027987 4.870042073874366 0 0 0
448 1 2 -1.1794 7.443581584209031 17.48663401783141 3.070335988794368 0 0 0
317 1 1 0.5897 7.451615971838909 14.683595825621225 0.4350103272811623 0 0 0
294 1 1 0.5897 2.76069708160238 17.542835778698787 3.981681825573585 0 0 0
292 1 2 -1.1794 2.79498650298699 17.64220078339912 3.030194125101865 0 0 0
14 1 1 0.5897 0.7611492843069358 11.826738207574405 9.610357548940696 0 0 0
17 1 1 0.5897 3.013084523646131 14.951056120125845 7.901902623845924 0 0 0
655 1 2 -1.1794 0.8043413946916326 13.595908287774083 5.881536748481104 0 0 0
238 1 2 -1.1794 2.783825818335236 17.495487012586672 5.8059325696919295 0 0 0
184 1 2 -1.1794 7.463562409235772 17.48938805424483 10.457498935498313 0 0 0
656 1 1 0.5897 1.483717403049792 14.15091211270016 6.26446188906853 0 0 0
59 1 1 0.5897 9.015840609867125 14.082098675431892 10.030126230826472 0 0 0
16 1 2 -1.1794 2.9477508580612546 14.950845208345017 6.9468582620352395 0 0 0
766 1 2 -1.1794 0.8371189136341189 13.471610768316914 10.223881045225285 0 0 0
378 1 1 0.5897 7.49625117891254 14.847778316815875 8.485109800183844 0 0 0
384 1 1 0.5897 2.9130217108561216 16.719407548998444 10.158800580570334 0 0 0
201 1 1 0.5897 5.830572397863737 13.848781815460681 6.1943449191070314 0 0 0
812 1 1 0.5897 3.842430661535796 14.464902941555932 10.002705846192926 0 0 0
518 1 1 0.5897 7.327238198050406 15.649458441959043 6.374784724837767 0 0 0
813 1 1 0.5897 2.3312823407860384 14.403327342124209 9.933737849525047 0 0 0
519 1 1 0.5897 8.16247043899307 14.389447565494146 6.454065608263354 0 0 0
307 1 2 -1.1794 7.300078910866761 17.346179325456433 5.824754772227112 0 0 0
186 1 1 0.5897 7.505273079155678 16.60670091345789 10.089870454934186 0 0 0
199 1 2 -1.1794 5.015867063890731 13.460179840767589 5.875737511346706 0 0 0
376 1 2 -1.1794 7.624170120174657 14.938195365753387 9.429480814836024 0 0 0
517 1 2 -1.1794 7.315175758425409 14.753380714964878 6.7108241864007026 0 0 0
454 1 2 -1.1794 5.475340247366337 13.571588528327782 10.422073034559464 0 0 0
456 1 1 0.5897 5.391868190484446 12.667224138433639 10.12013359525834 0 0 0
18 1 1 0.5897 3.6866023925373366 14.416398424200604 6.655862471392035 0 0 0
377 1 1 0.5897 6.856014307050807 14.518647532646494 9.817009383010358 0 0 0
239 1 1 0.5897 2.7870684731145987 16.608488153423274 6.165442447987616 0 0 0
811 1 2 -1.1794 3.0755864468177223 14.97149655700064 9.73523091652561 0 0 0
552 1 1 0.5897 0.8305741173053465 11.881935224831718 6.312851453072759 0 0 0
429 1 1 0.5897 5.899062339376389 14.096461898029848 13.354184703609553 0 0 0
232 1 2 -1.1794 2.6815865665077547 14.851750515826488 13.853356929894096 0 0 0
234 1 1 0.5897 2.7119956499509916 14.88171705778206 14.809680105913014 0 0 0
606 1 1 0.5897 2.8978082251519086 16.57695591191236 13.32475832862323 0 0 0
427 1 2 -1.1794 5.073349539954119 13.685180117751049 13.09863419112083 0 0 0
233 1 1 0.5897 3.4811063488034817 14.389233238324062 13.602186406765597 0 0 0
639 1 1 0.5897 1.2375901057089498 14.038486378418453 13.279790142553022 0 0 0
428 1 1 0.5897 5.136948958424753 12.790975844738046 13.4338509320476 0 0 0
297 1 1 0.5897 8.136659416760484 14.452196321880889 13.574676017151738 0 0 0
296 1 1 0.5897 7.419041689966925 14.833892353652091 14.851974950994395 0 0 0
295 1 2 -1.1794 7.368028191035737 14.920811745075715 13.900019991945493 0 0 0
270 1 1 0.5897 7.428052943611882 16.66408635790277 13.492596913210702 0 0 0
638 1 1 0.5897 0.6627757446547178 12.639687089040654 13.345485278303729 0 0 0
637 1 2 -1.1794 0.5085062009883696 13.504188094524554 12.9648570450476 0 0 0
455 1 1 0.5897 5.314336509002764 13.525832707662861 11.364603290062593 0 0 0
269 1 1 0.5897 7.4216019120419965 17.54630268153378 12.262329144896762 0 0 0
767 1 1 0.5897 0.6529477692120017 13.465388683585894 11.163252808719983 0 0 0
268 1 2 -1.1794 7.415739436241862 17.581128992883073 13.218954450955374 0 0 0
605 1 1 0.5897 2.94556597186118 17.528829905216043 12.148535053382934 0 0 0
604 1 2 -1.1794 3.0216718365270507 17.499548940262756 13.102332033673234 0 0 0
49 1 2 -1.1794 7.455851841957855 14.764272753662265 16.644570446045204 0 0 0
50 1 1 0.5897 7.448593423538374 15.636208890720779 17.03917143347593 0 0 0
825 1 1 0.5897 2.1013117600141475 14.47611136899166 17.00791239512647 0 0 0
823 1 2 -1.1794 2.7893515718596977 15.041202096977006 16.656519850467067 0 0 0
117 1 1 0.5897 9.099874350001478 14.041031986651717 20.688901959580175 0 0 0
716 1 1 0.5897 2.9823767526884155 17.41476942394897 19.5172175506509 0 0 0
316 1 2 -1.1794 7.455623896880015 14.63240016205722 21.28205379728365 0 0 0
159 1 1 0.5897 7.341222815505356 17.18265859888812 19.506956401942183 0 0 0
824 1 1 0.5897 3.605979685636051 14.627747618394983 16.93658355408353 0 0 0
52 1 2 -1.1794 0.853814580684072 13.348559993695709 17.703578202954155 0 0 0
125 1 1 0.5897 5.057665102252333 13.62554487320877 18.460759566468152 0 0 0
715 1 2 -1.1794 2.962037041600855 17.395965755667987 20.47409339853331 0 0 0
51 1 1 0.5897 8.244526956611004 14.349380921832573 16.994023162225826 0 0 0
584 1 1 0.5897 2.9505808292727136 16.648869864739577 17.336408609162053 0 0 0
126 1 1 0.5897 5.9170489865481875 14.041705325861946 17.28585346423747 0 0 0
157 1 2 -1.1794 7.278662667359432 17.161457706337043 20.461952478692922 0 0 0
683 1 1 0.5897 5.986254376919406 13.862286856364085 20.638306562261796 0 0 0
665 1 1 0.5897 2.272987300745171 14.381412027072114 20.986873005767173 0 0 0
53 1 1 0.5897 0.8842499830241944 13.395734102508252 18.659206952940732 0 0 0
682 1 2 -1.1794 5.229114678953668 13.471640430876839 20.201949546271354 0 0 0
666 1 1 0.5897 2.9915801011175653 15.711655139396965 21.061079564603883 0 0 0
664 1 2 -1.1794 3.074402031103341 14.791742129247305 21.31187314218229 0 0 0
318 1 1 0.5897 7.3753633303226565 15.541147618147358 20.99267246333051 0 0 0
124 1 2 -1.1794 5.05596960595977 13.685867838054115 17.50538850852451 0 0 0
451 1 2 -1.1794 0.8631110837089135 13.467960793804275 20.423087171700214 0 0 0
684 1 1 0.5897 4.4781654457228 13.956659837266757 20.54410136988257 0 0 0
610 1 2 -1.1794 7.568105352435916 17.32670254004789 17.741949389906416 0 0 0
452 1 1 0.5897 0.8400097269259731 12.581068311812416 20.78213803313729 0 0 0
583 1 2 -1.1794 2.9812716070212164 17.52092932783775 17.729614624450235 0 0 0
681 1 1 0.5897 5.263916194146575 11.971858472740031 17.031834109202634 0 0 0
362 1 1 0.5897 5.335001437999835 11.8844506237833 20.975099015416873 0 0 0
158 1 1 0.5897 8.06148471253021 17.622081657625735 20.764045276833286 0 0 0
267 1 1 0.5897 6.0597637329843375 21.66987834476756 2.942672541925775 0 0 0
696 1 1 0.5897 1.5254715428930254 21.779022112744283 2.799181861084746 0 0 0
266 1 1 0.5897 4.546668250329461 21.656052000714023 2.9923887762091024 0 0 0
265 1 2 -1.1794 5.319529242064793 21.209312495756098 3.3378728199911247 0 0 0
228 1 1 0.5897 5.226292580403443 19.56901996441179 2.5703849282225097 0 0 0
343 1 2 -1.1794 0.601441171106539 18.89291616402687 2.1411096596453305 0 0 0
249 1 1 0.5897 5.335163816159336 21.131749558802753 5.159553605667865 0 0 0
226 1 2 -1.1794 5.153620383236891 18.699360126702132 2.1773839385159186 0 0 0
187 1 2 -1.1794 3.068240695300031 22.521599512284123 2.295136950989573 0 0 0
818 1 1 0.5897 8.246608725736477 22.160621997687283 2.4323388185598485 0 0 0
189 1 1 0.5897 3.0834437282435205 22.53958191184502 1.338150287779823 0 0 0
344 1 1 0.5897 1.3737496703505758 18.42873674687523 2.464098274969566 0 0 0
817 1 2 -1.1794 7.406503787048797 22.542716682129978 2.178377862928648 0 0 0
345 1 1 0.5897 0.6712598923676233 18.840750486511276 1.18780847151352 0 0 0
413 1 1 0.5897 0.6997731537174882 21.469633484272954 4.871543580760348 0 0 0
695 1 1 0.5897 0.6374003332542538 20.555674824328186 2.719787958179304 0 0 0
227 1 1 0.5897 4.317326103070588 18.36072512474898 2.4971098640108864 0 0 0
694 1 2 -1.1794 0.6621958561784594 21.452533716944604 3.0530386208936147 0 0 0
450 1 1 0.5897 6.645162002079713 17.89625636059007 2.7371705042000083 0 0 0
498 1 1 0.5897 7.395802357180028 22.60824410480112 0.3413362515941174 0 0 0
321 1 1 0.5897 8.910430289113865 18.369970563546193 2.527696540193216 0 0 0
602 1 1 0.5897 5.207990942676567 18.8116030052175 0.404535816958171 0 0 0
819 1 1 0.5897 7.462167940388773 23.454921007515697 2.462620177243161 0 -1 0
188 1 1 0.5897 3.0285617865070074 23.442739140166697 2.5519014641201245 0 0 0
383 1 1 0.5897 3.602854407870659 18.06480115433376 10.084891253011872 0 0 0
31 1 2 -1.1794 7.52694384390495 22.604140136239945 6.700034770891482 0 0 0
340 1 2 -1.1794 0.5879205251146048 18.825727000333845 6.636791262427466 0 0 0
87 1 1 0.5897 8.248032919666494 22.193609718480293 9.729894418002505 0 0 0
85 1 2 -1.1794 7.467955655596109 22.69388557795368 9.490237144350203 0 0 0
185 1 1 0.5897 8.184465713324519 17.958503035427675 10.037399704076048 0 0 0
33 1 1 0.5897 6.7346862209602705 22.114447367042892 6.47921929361555 0 0 0
86 1 1 0.5897 7.447306451271339 22.662715592902867 8.533691991516417 0 0 0
240 1 1 0.5897 3.5951365692456343 17.88799940417506 6.1283922234224715 0 0 0
32 1 1 0.5897 8.245310312482568 22.04269279613946 6.408602291168881 0 0 0
553 1 2 -1.1794 5.234754692395533 21.34910409598423 10.28712974086607 0 0 0
248 1 1 0.5897 4.509315417315079 21.707169967890927 6.290451581448252 0 0 0
403 1 2 -1.1794 0.4786149936514303 18.692008220859776 9.419478538390543 0 0 0
701 1 1 0.5897 2.989387836055582 22.741546937575595 7.589869593719832 0 0 0
404 1 1 0.5897 1.3248469430836325 18.33215627719293 9.685324515961561 0 0 0
309 1 1 0.5897 8.120291005146216 17.73784506184851 6.124948157778669 0 0 0
37 1 2 -1.1794 3.0042519917912567 22.632139550763455 9.351267700769505 0 0 0
386 1 1 0.5897 5.866639350232782 18.206477406743986 6.480609431178083 0 0 0
700 1 2 -1.1794 3.072090466276692 22.717981306600507 6.63646387093092 0 0 0
39 1 1 0.5897 3.7748947620717 22.128565653652853 9.613468106496963 0 0 0
101 1 1 0.5897 5.911724752896068 18.252422188433027 9.86894597057253 0 0 0
247 1 2 -1.1794 5.325078397841041 21.239791098171516 6.110656863045834 0 0 0
555 1 1 0.5897 5.309800223282034 20.450563694071697 9.966183765224088 0 0 0
341 1 1 0.5897 1.3672535543893338 18.356291821942477 6.339283281205616 0 0 0
100 1 2 -1.1794 5.148689847361223 18.72881405161956 9.541722721665804 0 0 0
554 1 1 0.5897 6.042993027895762 21.77445502343119 10.000618123341203 0 0 0
385 1 2 -1.1794 5.044039818704063 18.591954862424867 6.782289482877808 0 0 0
412 1 2 -1.1794 0.7372542626240671 21.466343163652205 5.828080148471876 0 0 0
414 1 1 0.5897 0.643981225544431 20.5447299761679 6.068757976950327 0 0 0
405 1 1 0.5897 0.5122391583382997 19.609311905479643 9.690443081890274 0 0 0
94 1 2 -1.1794 0.7520706596305738 21.282533180613424 10.142141273022292 0 0 0
387 1 1 0.5897 5.1030780958877795 19.51269389890953 6.527827797087446 0 0 0
702 1 1 0.5897 2.3104235075311497 22.218740691416727 6.3417568104729884 0 0 0
38 1 1 0.5897 2.2619009422637903 22.116685002617647 9.666615006049508 0 0 0
102 1 1 0.5897 5.138621043575291 18.54921349969468 8.601504888133691 0 0 0
342 1 1 0.5897 0.6103927544341265 18.74798746867548 7.5906393367494855 0 0 0
382 1 2 -1.1794 2.7928377899193406 17.644308602585365 10.37353576358369 0 0 0
96 1 1 0.5897 0.6188717252519181 21.27395820319508 11.09006585437997 0 0 0
88 1 2 -1.1794 5.0685958720973305 21.486792426932 13.094016565166344 0 0 0
381 1 1 0.5897 1.2745004365928032 21.74265320788326 13.230620775473708 0 0 0
90 1 1 0.5897 5.141454257870781 20.59485482639529 13.433379710987 0 0 0
763 1 2 -1.1794 5.19706521028804 18.91238933901648 14.099941037867453 0 0 0
738 1 1 0.5897 3.561248280629461 22.241100902839243 13.668091241361243 0 0 0
89 1 1 0.5897 5.070812940284127 21.382558124032126 12.142437096628056 0 0 0
736 1 2 -1.1794 2.721424259758992 22.595452249164115 13.960335669712345 0 0 0
789 1 1 0.5897 6.598008284899895 22.338639593658158 13.592913962151528 0 0 0
765 1 1 0.5897 5.965318635036057 18.42170933188327 13.807960804446413 0 0 0