LAMMPS data file via write_data, version 30 Jul 2021, timestep = 15250000

864 atoms
2 atom types
576 bonds
1 bond types
288 angles
1 angle types

0.7121616854192858 17.495410714571634 xlo xhi
1.9303636665520116 21.698814133441434 ylo yhi
0.8688355927929354 21.34436020720713 zlo zhi

Masses

1 1.00794
2 15.9994

Pair Coeffs # lj/cut/tip4p/long/omp

1 0 0
2 0.21084 3.1668

Bond Coeffs # harmonic/omp

1 450 0.9572

Angle Coeffs # harmonic/omp

1 55 104.52

Atoms # full

99 1 1 0.5897 3.494182317523765 2.997866764009068 1.8898943695832513 6 -6 7
98 1 1 0.5897 2.2482503424782116 3.854897768943718 1.818782330599305 6 -6 7
818 1 1 0.5897 2.681260349223148 3.889054533213294 3.6967556617308364 8 3 4
570 1 1 0.5897 3.910638398391581 6.046003200315192 5.864372694140501 3 1 0
819 1 1 0.5897 1.5757574482118373 4.49186835521953 4.5372493606456255 8 2 4
97 1 2 -1.1794 2.5711330282268445 3.014064534543052 2.142770189979433 6 -6 7
817 1 2 -1.1794 2.4769577653509307 4.173227330159852 4.587683545563749 8 3 4
715 1 2 -1.1794 2.3578875639134003 5.861406846390221 2.1285323757469876 13 -9 -7
717 1 1 0.5897 3.161642678191571 5.497792946634476 2.4999779486523237 13 -9 -7
716 1 1 0.5897 2.6584055176014685 6.450585158629373 1.4365994300387221 13 -9 -7
365 1 1 0.5897 1.5432908015491675 6.494343897176006 3.573484745883249 4 6 3
857 1 1 0.5897 2.3178733519997836 2.544882816922465 5.1048783614196305 3 3 0
685 1 2 -1.1794 4.581794783509649 2.3186911565027097 4.429949994524904 10 -7 1
723 1 1 0.5897 4.660595966731837 4.1400942048864815 5.167608557382847 4 -3 2
568 1 2 -1.1794 3.3602860712264797 6.82003554434802 5.983639790360439 3 1 0
515 1 1 0.5897 3.250164342983758 4.070443072024844 6.5568320016624915 1 -11 0
429 1 1 0.5897 1.4997362588142966 1.934787324853602 8.975829506184958 0 5 -2
514 1 2 -1.1794 3.5969629793630395 3.9627362573341802 7.4424882145405356 1 -11 0
516 1 1 0.5897 3.4837838903241094 4.821158690523672 7.850548380587084 1 -11 0
829 1 2 -1.1794 2.740632241236199 6.120210339598831 8.9435187135227 3 4 3
428 1 1 0.5897 2.6137314273111265 2.792358091045632 8.414204320494893 0 5 -2
831 1 1 0.5897 3.3191834104377387 6.124758407762826 9.706059279844427 3 4 3
193 1 2 -1.1794 0.8091690099486946 5.195930273189205 10.661336806284067 5 -4 -5
195 1 1 0.5897 1.3903522912715705 5.529737770636438 9.977913554868364 5 -4 -5
785 1 1 0.5897 3.786893204270608 3.21782919686154 10.93180342442454 5 7 5
38 1 1 0.5897 1.4160560678368268 6.302348730891775 7.060238598428127 -1 4 -4
784 1 2 -1.1794 3.0709262014040704 2.97974577782236 11.520821968216243 5 7 5
810 1 1 0.5897 3.2442235545144618 6.192887445331753 12.064392578275706 -1 3 -1
299 1 1 0.5897 1.7120189297143718 2.8040198787536132 13.255454466623164 -2 -2 1
275 1 1 0.5897 2.5328893983863914 5.409725812337458 15.182660554160789 0 7 -5
276 1 1 0.5897 2.2507156028479107 5.909805247360493 13.781889879899326 0 7 -5
274 1 2 -1.1794 2.9259592371114196 5.488122430951527 14.31339100389245 0 7 -5
808 1 2 -1.1794 3.9560653660903253 6.203822954583221 11.42457080872198 -1 3 -1
114 1 1 0.5897 4.496279018478344 6.480806352582916 14.940673899947177 -1 -2 1
731 1 1 0.5897 4.241603777641343 2.7167376693629914 13.209236131770648 0 5 -6
300 1 1 0.5897 1.9196837147696837 3.9912149674605923 14.171598894699727 -2 -2 1
298 1 2 -1.1794 1.6706483861582018 3.066987088861075 14.174882712162583 -2 -2 1
539 1 1 0.5897 0.7453451686191138 6.2036399021336495 12.31461713243203 -1 0 3
538 1 2 -1.1794 0.8877682294819542 6.827917296077933 13.026113303391556 -1 0 3
809 1 1 0.5897 4.6087033328925315 5.601337943724022 11.781346771886161 -1 3 -1
786 1 1 0.5897 2.3092226682698986 3.4429291042341763 11.17222147766733 5 7 5
360 1 1 0.5897 2.9737641604296847 5.744356324463076 17.38311822041763 4 1 0
762 1 1 0.5897 3.8107741835245 2.2516778352847124 16.594249744278308 1 -7 -3
760 1 2 -1.1794 3.773040221012336 2.5948045339354437 17.487032231755144 1 -7 -3
358 1 2 -1.1794 2.620178299520637 4.92600886560389 17.03453568676403 4 1 0
657 1 1 0.5897 4.333266773346727 6.270680181404845 18.616048520448963 -3 1 -4
265 1 2 -1.1794 1.8891613032665682 4.205473045477264 19.682215931534607 -2 -5 2
266 1 1 0.5897 1.3031002888304675 4.8884913187549195 20.008186894608635 -2 -5 2
359 1 1 0.5897 3.2539803704955 4.259033939002714 17.298462746750005 4 1 0
267 1 1 0.5897 2.0037017447659675 4.410326787944647 18.754247803238975 -2 -5 2
761 1 1 0.5897 3.0723101118991747 2.095571635851747 17.906571339453258 1 -7 -3
54 1 1 0.5897 4.7560418864872105 2.0115915803538877 20.773070579889477 -4 -2 3
53 1 1 0.5897 4.778485737625282 3.4245974901513145 20.23016927813861 -4 -2 3
394 1 2 -1.1794 3.0434408091701126 8.859136466595894 3.0124264672775785 11 1 5
407 1 1 0.5897 1.1769190380473762 10.5168852461858 5.421723897583482 -9 -7 7
396 1 1 0.5897 3.806337100122274 8.502395864390202 2.5575242433823426 11 1 4
364 1 2 -1.1794 1.2532569997161116 7.114904696573437 4.2420758894993185 4 6 3
395 1 1 0.5897 2.6264023585083915 8.097543336721621 3.4152482137909517 11 1 5
864 1 1 0.5897 4.7061495806424265 7.922022508094828 0.9312510152564697 7 2 1
614 1 1 0.5897 1.9359400670325624 11.384331840177152 2.7756031388283757 -10 -5 2
366 1 1 0.5897 1.9433757877628475 7.0933763739650635 4.905018840656434 4 6 3
615 1 1 0.5897 0.7346561130826024 10.79056265460517 3.4800235728098743 -10 -5 3
104 1 1 0.5897 3.8824053688158973 10.712133569334286 3.5411708341435872 2 -1 12
569 1 1 0.5897 3.862173612433214 7.534188030433225 5.5908212446665715 3 1 0
216 1 1 0.5897 3.5571945577955115 11.557651960809377 5.840377669155375 3 -4 -3
103 1 2 -1.1794 4.529735168737037 11.413295815681108 3.4666889270674885 2 -1 12
613 1 2 -1.1794 1.4043267872038152 11.468921838238028 3.5670887544821905 -10 -5 3
585 1 1 0.5897 4.771795059987998 9.407766146868344 5.650331005511093 3 -2 3
555 1 1 0.5897 2.2950279115683436 10.35558149755795 1.0455818518505282 -3 -3 5
769 1 2 -1.1794 3.2752253250121894 11.722716070062528 10.288945452895895 6 -5 2
231 1 1 0.5897 4.501616364107679 11.126442490107664 9.274988556683853 3 -1 2
145 1 2 -1.1794 2.0596688032322197 9.002701625142501 7.918572551627588 -4 -2 -4
824 1 1 0.5897 4.876163807398293 9.227373354635331 8.906477343507339 -4 7 5
146 1 1 0.5897 1.5568323799643835 9.564787433959957 8.508008726635685 -4 -2 -4
147 1 1 0.5897 2.5587062874030684 9.611506011931407 7.374027948087704 -4 -2 -4
830 1 1 0.5897 2.8972348182881125 6.963408647898272 8.518429551326033 3 4 3
770 1 1 0.5897 3.22020417035661 10.906376224822719 10.785742356323267 6 -5 2
215 1 1 0.5897 4.181864582221094 10.972488888210014 7.0890808340394305 3 -4 -3
823 1 2 -1.1794 4.7062382118087775 8.318628640491621 9.154515920541748 -4 7 5
408 1 1 0.5897 0.8127915455158341 9.517117635235667 6.498629737200672 -9 -7 7
214 1 2 -1.1794 3.701927803339919 10.729182294127085 6.2974395890315735 3 -4 -3
410 1 1 0.5897 2.167071974319546 8.721219901277763 14.250016918122556 5 4 -7
409 1 2 -1.1794 3.110215241864803 8.643687429963752 14.106125409522306 5 4 -7
347 1 1 0.5897 1.0808964227827849 10.71875668081326 12.429780935963596 -3 2 -2
658 1 2 -1.1794 3.3704513746194267 9.255777272191644 11.456559680028818 -1 5 0
659 1 1 0.5897 3.2577722778623945 9.11299826008839 12.396310903065908 -1 5 0
416 1 1 0.5897 3.5905140970973646 11.235605707913974 13.616503017920918 7 -5 0
411 1 1 0.5897 3.497151600099901 9.288296531190419 14.6985617859382 5 4 -7
415 1 2 -1.1794 4.079749105370123 11.541492001344725 14.38024353315389 7 -5 0
135 1 1 0.5897 0.8335493736704169 9.820663494938824 15.740680292689401 -7 -2 1
578 1 1 0.5897 1.5173373144751237 8.941028147184907 11.279276447862946 3 4 -3
346 1 2 -1.1794 1.209411875246563 11.471622999599841 13.006757782973322 -3 2 -2
660 1 1 0.5897 3.703191946008085 8.421659154198856 11.125292714234943 -1 5 0
361 1 2 -1.1794 0.8208410230657334 8.870332108133802 18.176991838298854 2 -3 -1
554 1 1 0.5897 3.4730460454827545 10.72506196334367 20.64489994928519 -3 -3 4
207 1 1 0.5897 3.68397108815871 9.958755303237037 17.587045115960606 -6 3 -1
7 1 2 -1.1794 2.9833720477925003 7.894663898089882 20.675537429994293 1 -3 0
363 1 1 0.5897 1.601864302952734 9.26035545415328 17.784425095074482 2 -3 -1
553 1 2 -1.1794 2.8278922432309774 11.100863821591789 21.243919552022597 -3 -3 4
205 1 2 -1.1794 3.088548162729898 10.046661729475755 16.842722348317835 -6 3 -1
655 1 2 -1.1794 3.904077037463575 7.0433441539627095 18.248557627028347 -4 1 -4
9 1 1 0.5897 2.138440487847654 8.278270127493563 20.910396898425425 1 -3 0
656 1 1 0.5897 4.6079583751275095 7.524915729824455 17.81394426395613 -4 1 -4
8 1 1 0.5897 2.9201275730829668 7.732850613037471 19.734239399517143 1 -3 0
67 1 2 -1.1794 4.70504637887766 10.212332945906912 19.26267647602598 3 -7 -3
206 1 1 0.5897 3.228979181931938 10.9393931915964 16.527227826218045 -6 3 -1
137 1 1 0.5897 3.0273197610287785 11.807688903980983 18.514841408449698 4 -6 6
490 1 2 -1.1794 0.7328901004570767 9.029448134044486 21.303838570826024 -1 1 3
184 1 2 -1.1794 0.7982507697773272 15.922854556779498 2.324474712507641 0 8 4
571 1 2 -1.1794 3.4497623854243407 14.186336898009916 3.0884569166223383 -6 1 -5
789 1 1 0.5897 3.358464362017242 14.101456770137807 5.695118676843248 3 0 11
755 1 1 0.5897 1.3488957654850426 13.84830886476273 1.1616834160665395 -5 2 -10
787 1 2 -1.1794 3.007014751365745 13.212059195500142 5.6542138483568865 3 0 11
573 1 1 0.5897 3.600197982137872 13.506838145500362 3.745621402574182 -6 1 -5
329 1 1 0.5897 3.730830590071089 16.043802268862898 3.598647888016808 3 4 -1
572 1 1 0.5897 3.0147509552942235 13.730948608828236 2.3676237344491335 -6 1 -5
345 1 1 0.5897 1.6315422450083266 13.771002732169569 4.791220108446784 -4 5 1
343 1 2 -1.1794 0.8088718090785676 14.244354209017512 4.667195490609454 -4 5 1
255 1 1 0.5897 4.174660529419034 14.51126353482958 7.984707268864481 -2 3 -5
705 1 1 0.5897 2.629168368186508 13.067222271497993 8.83809053299945 -2 -1 -4
574 1 2 -1.1794 2.666252156843755 15.652714697859063 10.745172172938316 -4 1 -4
595 1 2 -1.1794 1.0703878657101216 16.143155439868416 6.685502773782892 -2 -8 -1
788 1 1 0.5897 2.55264159978584 13.094954493667515 6.48850718460618 3 0 11
576 1 1 0.5897 3.2802462163888646 15.223545143198706 10.149315166257391 -4 1 -4
497 1 1 0.5897 1.2646689934457234 15.869164928384405 9.782038570136224 -1 1 3
438 1 1 0.5897 2.9844191006726324 15.98067963656994 6.798661965600207 -4 6 6
771 1 1 0.5897 3.719948143473631 12.332431578306547 10.877751750659014 6 -5 2
437 1 1 0.5897 4.438945705502874 16.400037201266734 6.817551003915753 -4 6 6
253 1 2 -1.1794 4.188448036904979 14.362001332337972 8.930085067956382 -2 3 -5
703 1 2 -1.1794 1.866906590449435 13.081067020901425 8.25931740993104 -2 -1 -4
436 1 2 -1.1794 3.8686332362008895 15.653864131016794 6.632613487237395 -4 6 6
704 1 1 0.5897 1.4104345924998625 12.260247490911883 8.443982356702332 -2 -1 -4
597 1 1 0.5897 0.9449050060830265 15.304408503294228 6.24168809348594 -2 -8 -1
575 1 1 0.5897 2.5007809786772466 15.002849679670124 11.428211859760413 -4 1 -4
432 1 1 0.5897 0.8543070472498939 15.112344668681965 14.621602817815022 -16 -2 2
484 1 2 -1.1794 2.2167278165231714 14.06952283943257 12.897883829202318 2 -1 -2
612 1 1 0.5897 3.8587152614669793 15.175352278705645 14.947714777508391 4 0 -1
486 1 1 0.5897 3.0597536797118225 14.062918241545148 13.35117851367243 2 -1 -2
485 1 1 0.5897 1.8960467091724418 13.17088311362461 12.97441487651445 2 -1 -2
385 1 2 -1.1794 2.510015294701249 16.46266183206658 15.373733846523997 2 1 0
610 1 2 -1.1794 4.423397041575459 14.485539451685405 14.599132661092558 4 0 -1
15 1 1 0.5897 1.3072011570257611 13.405120174617252 15.591987725771535 3 -7 -10
13 1 2 -1.1794 2.0286021728345505 12.820757966587118 15.825080881970052 3 -7 -10
417 1 1 0.5897 3.4879838056623655 12.15634335940974 14.813820943974644 7 -5 0
611 1 1 0.5897 4.83374261357101 14.87787442410042 13.828473067288586 4 0 -1
821 1 1 0.5897 4.245451732828125 16.662963493953384 11.608587532922638 -2 1 1
386 1 1 0.5897 1.9534973723763989 16.74919408364831 14.649549378258445 2 1 0
138 1 1 0.5897 2.692183619585756 13.28024827726662 18.409308775065753 4 -6 6
136 1 2 -1.1794 2.316683959847116 12.434024696290367 18.652488599535623 4 -6 6
57 1 1 0.5897 1.853959790853038 16.222882725171146 21.16261165146937 -6 -2 -2
202 1 2 -1.1794 2.8977427684590276 15.194147289494788 18.144214733723643 -6 -5 2
203 1 1 0.5897 2.395238080458907 15.458768297184609 17.373711072840422 -6 -5 2
237 1 1 0.5897 4.644848312242991 15.441717101004281 17.856353054997093 0 -9 -3
527 1 1 0.5897 4.048278702184065 14.146246367412957 20.573392101949423 -1 -3 4
14 1 1 0.5897 1.9672244803695538 12.731212396157174 16.776103457788345 3 -7 -10
204 1 1 0.5897 2.638142768848468 15.81504617610967 18.82488727507566 -6 -5 2
756 1 1 0.5897 2.2360473520749418 12.84615339222302 20.929713202639924 -5 2 -11
754 1 2 -1.1794 2.176264587031767 13.772854641540603 21.161809225123577 -5 2 -11
767 1 1 0.5897 0.7695162865236508 14.570515900412813 19.67333074827416 -5 4 -1
55 1 2 -1.1794 2.342616744688684 16.710009850965438 20.499147049477386 -6 -2 -2
56 1 1 0.5897 3.2615342389064814 16.57489836287887 20.73055636518015 -6 -2 -2
330 1 1 0.5897 3.467194849060098 17.524063300961817 3.422102585836924 3 4 -1
858 1 1 0.5897 2.4758418088442817 20.861198649802724 4.70713967492345 3 2 0
118 1 2 -1.1794 1.9682662448073118 19.075444010641828 3.6093436137752177 1 -2 1
20 1 1 0.5897 4.093133602817996 18.11383906605679 5.443940404711708 -3 1 -1
120 1 1 0.5897 1.6507230892876896 19.58306887167315 2.862543702386058 1 -2 1
83 1 1 0.5897 1.0730268505477134 20.205787534223646 0.9922358227598133 -5 -2 -5
119 1 1 0.5897 1.1794336612567806 18.689161041111383 3.989784553986014 1 -2 1
82 1 2 -1.1794 0.8211511930581625 20.713303868899562 1.763727225775721 -5 -2 -5
328 1 2 -1.1794 4.1447006202175505 16.902280558179285 3.687771603723783 3 4 -1
84 1 1 0.5897 1.4371950953549897 21.44570294286008 1.7807996824571901 -5 -2 -5
856 1 2 -1.1794 1.995589770784661 21.434442815971664 5.304634366700245 3 2 0
669 1 1 0.5897 4.7903432388375276 20.25609541983077 3.127998556861962 -12 -2 0
687 1 1 0.5897 4.731041963169418 21.635189440107897 5.260416446388069 10 -8 1
21 1 1 0.5897 2.7468654129885834 18.726018006135234 5.767414079116766 -3 1 0
19 1 2 -1.1794 3.6847433634198206 18.83281556039486 5.926121537498046 -3 1 0
477 1 1 0.5897 4.49227852510367 18.118463983534266 8.343644373505832 1 -3 -1
201 1 1 0.5897 4.6888588847416 20.272031578789306 6.564566730107601 0 -6 3
635 1 1 0.5897 2.9156574318227744 18.659538806462354 9.39705656554914 -6 2 5
388 1 2 -1.1794 3.741405882684584 19.819545653262324 10.677658518384295 8 8 5
200 1 1 0.5897 4.34397052994472 21.57956664298141 7.24519481273187 0 -6 3
636 1 1 0.5897 2.114807686617711 18.50948818637817 8.121137948296441 -6 2 5
17 1 1 0.5897 1.0236068389180741 20.114358571507747 7.462246788541002 -5 10 4
634 1 2 -1.1794 2.7930230659272834 18.08171345603239 8.643871778459175 -6 2 5
389 1 1 0.5897 3.763217905326471 20.631225678685816 10.170790747765892 8 8 4
427 1 2 -1.1794 2.4241548861435036 21.67693862652784 8.728918662430058 0 4 -2
16 1 2 -1.1794 0.8708900310620601 19.187729734742703 7.2771861778823155 -5 10 4
567 1 1 0.5897 0.9408432756156944 18.497631468789603 11.10333763061111 1 3 -8
822 1 1 0.5897 4.36540595163463 18.126223225923116 11.239377487878992 -2 1 1
390 1 1 0.5897 3.185426131623756 20.021425632687848 11.430213214763581 8 8 5
387 1 1 0.5897 2.415275344656366 17.148225724178097 16.03500366176189 2 1 0
728 1 1 0.5897 1.7591920000168704 19.000472703730868 13.03443721207214 1 0 0
392 1 1 0.5897 4.07618314775544 20.04461167270303 14.84454945533432 3 -1 -1
393 1 1 0.5897 2.650352617064732 20.399939722239502 14.480382231297568 3 -1 -1
391 1 2 -1.1794 3.3344773941797534 20.580745110856693 15.124989900754956 3 -1 -1
844 1 2 -1.1794 1.0499645128798838 17.422517496309247 13.230789142198839 0 -4 5
820 1 2 -1.1794 4.624354788567079 17.490095441197358 11.906082273748009 -2 1 1
727 1 2 -1.1794 2.0414654869831486 19.877861255013507 12.775915978589925 1 0 0
729 1 1 0.5897 1.262491537560451 20.275845639806366 12.387247396005243 1 0 0
402 1 1 0.5897 1.3693534823886278 19.305860791211483 19.117103181723003 -1 -2 2
355 1 2 -1.1794 4.486236606589529 18.421616894962526 18.22439375874751 6 -6 8
400 1 2 -1.1794 1.7476512190777365 19.449182836709408 19.98460732202357 -1 -2 2
356 1 1 0.5897 4.615145321237973 17.48697495225158 18.063007842645654 6 -6 8
251 1 1 0.5897 1.2906505585775476 19.394610606959425 17.227781663051374 4 -4 -1
252 1 1 0.5897 2.5509833813558105 19.46792787243952 16.39229382750612 4 -4 -1
734 1 1 0.5897 3.5602566464543535 19.69245249488143 20.275312353914998 -1 -2 -6
733 1 2 -1.1794 4.436711105937766 19.973235564863405 20.538378318680735 -1 -2 -6
357 1 1 0.5897 3.5452642800212737 18.556900026917027 18.112606130279083 6 -6 8
250 1 2 -1.1794 2.0756867921563873 18.89800871753974 16.99688581813335 4 -4 -1
401 1 1 0.5897 1.839241626405468 18.571123712030793 20.35452846346815 -1 -2 2
342 1 1 0.5897 7.3442645137850056 3.9094275980753697 3.9974861885838155 2 7 -1
686 1 1 0.5897 5.448358460431926 2.627711143281576 4.165785738244192 10 -7 1
341 1 1 0.5897 7.477741035308205 3.2762646741292687 2.6288526171356583 2 7 -1
340 1 2 -1.1794 7.181613458056219 3.095345892848909 3.520930408495463 2 7 -1
372 1 1 0.5897 8.770908900923969 5.311085572479645 4.013108118865311 -2 5 1
370 1 2 -1.1794 7.942400376553517 5.780759080004993 3.9172278213135696 -2 5 1
371 1 1 0.5897 7.872915224028026 5.955702461484549 2.978724431732208 -2 5 1
693 1 1 0.5897 5.603192339095769 4.7327063172475885 1.8819258527090306 3 -4 6
692 1 1 0.5897 5.444531069824986 5.014449584325974 3.360877038791242 3 -4 6
403 1 2 -1.1794 7.520678778927641 4.049539992970233 1.0311680422153777 5 0 3
691 1 2 -1.1794 5.097651316243663 5.25758882292965 2.5025233233250015 3 -4 6
721 1 2 -1.1794 5.143435214576547 4.961190870812891 5.261890098562749 4 -3 2
772 1 2 -1.1794 7.74123350765671 6.79401416526984 1.4950198497401732 5 -2 0
593 1 1 0.5897 5.773294894486947 2.6953824954298033 9.73067616496767 -1 -1 0
592 1 2 -1.1794 5.251542575041149 3.439259765831655 10.031770296541653 -1 -1 0
608 1 1 0.5897 7.243434570016241 3.877734639474351 7.681660317284774 5 9 0
722 1 1 0.5897 5.586297182940481 4.883491108019781 6.106906152876508 4 -3 2
609 1 1 0.5897 5.858342524034628 4.222419528014317 8.186195828329065 5 9 0
441 1 1 0.5897 6.870301417929376 6.052532259563888 8.551214172768367 0 -4 0
607 1 2 -1.1794 6.594427069979696 4.581240293092375 7.690558157394813 5 9 0
460 1 2 -1.1794 8.094188860769082 1.9404992697095325 7.366479904380449 6 3 2
594 1 1 0.5897 5.810728880235 3.8818561735192088 10.6702543079123 -1 -1 0
189 1 1 0.5897 5.841585431552107 4.0247998057509715 12.673973610947495 -9 6 1
709 1 2 -1.1794 8.254690723389203 5.616684998681004 14.103078243631444 -3 -6 1
557 1 1 0.5897 5.371955125082632 3.3828303644414723 15.454922979798729 3 5 3
556 1 2 -1.1794 5.7304295284048745 3.9742091723004873 16.116733687585935 3 5 3
187 1 2 -1.1794 6.161605763411135 4.804485920248755 12.220214264014723 -9 6 1
188 1 1 0.5897 6.965311126843655 5.039181389823715 12.684099493727036 -9 6 1
376 1 2 -1.1794 8.330407980359738 2.8400082991555595 14.684117872046558 5 -2 0
149 1 1 0.5897 8.134985944193652 2.4839250866597085 12.880073980647643 -3 1 6
168 1 1 0.5897 8.436752015564075 6.726198490300897 15.506543494938107 3 -3 7
710 1 1 0.5897 8.232559819030847 4.820087627776226 14.633325032409036 -3 -6 1
148 1 2 -1.1794 8.067867187476153 2.34398035879018 11.93554763939689 -3 1 6
730 1 2 -1.1794 5.121001482509588 2.704761196843993 13.58702617725112 0 5 -6
112 1 2 -1.1794 5.417025032361288 6.583940994275885 15.181094015762115 -1 -2 1
377 1 1 0.5897 8.090463336287115 2.029168005090561 15.132638797194575 5 -2 0
558 1 1 0.5897 5.6538164723752695 4.845135274719112 15.727078959388889 3 5 3
240 1 1 0.5897 8.792675627114171 4.062924031103875 11.23837662486615 -6 -4 1
732 1 1 0.5897 5.5730562486641375 2.0017565190474116 13.120494292272141 0 5 -6
798 1 1 0.5897 8.371918976096843 6.582020984121323 11.479651257058512 2 -6 -2
425 1 1 0.5897 8.04185979070071 5.506308770450364 18.720663087557007 3 -5 0
319 1 2 -1.1794 8.13371175797769 3.797568913537561 17.717012636586155 -2 -6 1
52 1 2 -1.1794 4.960449566452027 2.9137947428852167 21.01895180786179 -4 -2 3
321 1 1 0.5897 7.365602090535039 3.690948092783615 17.155878691075287 -2 -6 1
626 1 1 0.5897 6.049085628460709 5.139364628989342 19.148197279174653 3 -8 -1
320 1 1 0.5897 7.97938211732326 3.2024720398333564 18.450683825601516 -2 -6 1
424 1 2 -1.1794 7.731566678692466 6.172673088285179 19.333760343450436 3 -5 0
625 1 2 -1.1794 5.274494424494645 4.639734245331905 18.89014658405197 3 -8 -1
627 1 1 0.5897 5.464152583986425 4.346181161468834 17.999044529917462 3 -8 -1
404 1 1 0.5897 6.8724177539454026 3.6472196910088206 20.928588916191664 5 0 2
773 1 1 0.5897 7.629247375612309 6.175564756092899 21.24860535134215 5 -2 -1
405 1 1 0.5897 8.344579826269166 3.9873152580026567 21.023444122179114 5 0 2
793 1 2 -1.1794 7.465746991454767 9.549223581548352 3.676368272941665 -3 -1 3
583 1 2 -1.1794 5.183330552502423 8.71429805703782 5.134623445031576 3 -2 3
263 1 1 0.5897 7.797012043515191 7.060859411666798 5.60372919844947 -5 1 6
794 1 1 0.5897 7.350928052364783 10.499367715042062 3.660260040004737 -3 -1 3
795 1 1 0.5897 6.580855730146059 9.202504042869078 3.7908656051481504 -3 -1 3
584 1 1 0.5897 5.9814302275864035 8.498086054668436 5.616823327067033 3 -2 3
774 1 1 0.5897 6.894988404637612 7.235651075750121 1.5661417262219448 5 -2 0
488 1 1 0.5897 7.555533348765552 9.416325152075112 1.6624553956552273 -1 -5 3
480 1 1 0.5897 7.002123982898803 11.589489229339291 5.961132780202645 -6 7 -3
862 1 2 -1.1794 5.296314157832103 7.814830220852837 1.677202913932629 7 2 1
444 1 1 0.5897 9.056193491492595 8.776448782255393 4.319790208399965 -3 9 1
105 1 1 0.5897 5.115584823706628 11.279187191451443 4.2116832167916165 2 -1 12
164 1 1 0.5897 5.034267277419658 11.693623459846586 1.819990631032807 -1 5 -4
163 1 2 -1.1794 5.458228231476182 11.799801869359351 0.9684056728040283 -1 5 -4
863 1 1 0.5897 5.17651261298884 6.90494192754006 1.949206867776411 7 2 1
487 1 2 -1.1794 7.411885543721855 9.942919181730044 0.8761298946288605 -1 -5 3
489 1 1 0.5897 6.524046836542977 10.286350421573447 0.9761690210895182 -1 -5 3
797 1 1 0.5897 7.56999406998782 7.411236297918376 10.4992670515727 2 -6 -2
230 1 1 0.5897 5.711669329254631 11.621305013556462 8.51162901282693 3 -1 2
174 1 1 0.5897 5.561213428798085 9.781391112941929 10.897102860319416 8 2 -1
264 1 1 0.5897 7.402637246369446 7.356316210338841 7.035186435235297 -5 1 6
334 1 2 -1.1794 8.638805160612469 9.913288849215839 9.62406254284671 4 -1 5
652 1 2 -1.1794 8.820858364927703 10.289000086634289 6.767291352432867 -3 0 1
440 1 1 0.5897 8.019682100578072 7.006725813098429 8.796736248437853 0 -4 0
654 1 1 0.5897 8.54211084993298 9.422440107314355 6.471305605298747 -3 0 1
336 1 1 0.5897 7.85603339377571 10.229033825795877 10.075491024355259 4 -1 5
262 1 2 -1.1794 7.51693777818006 7.771657623787257 6.180406454760334 -5 1 6
653 1 1 0.5897 8.765775652787314 10.24571914544166 7.721915037594258 -3 0 1
825 1 1 0.5897 5.478078917161551 7.839304851297148 8.853305539323749 -4 7 5
229 1 2 -1.1794 5.129757034974398 10.866594631016811 8.601094065355376 3 -1 2
439 1 2 -1.1794 7.064302289213666 6.967985179481991 8.752516503373961 0 -4 0
282 1 1 0.5897 6.659368547003278 9.841780163276994 14.680567441829721 -4 1 2
173 1 1 0.5897 6.428570348223159 9.575836743877101 12.120785662668945 8 2 -1
257 1 1 0.5897 8.658902437378348 10.492909459790093 12.928500090753682 6 -1 -1
258 1 1 0.5897 8.694437678117314 9.069520177035223 12.414133719152627 6 -1 -1
281 1 1 0.5897 5.622608362510562 10.870411919610538 15.079178099226956 -4 1 2
796 1 2 -1.1794 7.9528113546171175 7.436354211601658 11.376230092781489 2 -6 -2
280 1 2 -1.1794 6.433096672706373 10.457684969544898 15.377468853240602 -4 1 2
423 1 1 0.5897 6.152104044624728 7.778134824280526 13.988860207165345 -3 -4 3
422 1 1 0.5897 6.989054429150375 7.909500142387105 12.734142743436516 -3 -4 3
421 1 2 -1.1794 6.676386157459006 8.405379222615636 13.490931007692339 -3 -4 3
113 1 1 0.5897 5.400002302885204 7.128530518993878 15.968087983630276 -1 -2 1
172 1 2 -1.1794 6.3271639017752985 10.134229186409291 11.349965143723036 8 2 -1
68 1 1 0.5897 5.251089765206102 9.433248682741155 19.36795894817461 3 -7 -3
640 1 2 -1.1794 7.7598908248382585 11.131752413018216 17.63307197437151 7 4 -3
166 1 2 -1.1794 8.492402749846068 7.27543035606433 16.288514699026223 3 -3 7
698 1 1 0.5897 6.911098399247492 7.884177545269601 17.191974792945118 -2 2 -5
697 1 2 -1.1794 6.0623442855128715 8.321516128598297 17.259597002046746 -2 2 -5
699 1 1 0.5897 6.16301988215866 9.121831571027492 16.74426031827786 -2 2 -5
69 1 1 0.5897 5.329123890021217 10.9332679150591 19.17900678352114 3 -7 -3
426 1 1 0.5897 8.266262474646407 6.943029379566382 19.141758927152786 3 -6 0
507 1 1 0.5897 8.375629825710448 9.044704695721656 19.7855020228695 -1 0 3
505 1 2 -1.1794 8.673617624507056 8.784225726706385 18.91396796334218 -1 0 3
642 1 1 0.5897 7.189608309286202 11.070162435374613 16.86678690169053 7 4 -3
506 1 1 0.5897 8.088286296453527 9.244699422692332 18.3126527180626 -1 0 3
170 1 1 0.5897 8.529629450126405 11.201375101652367 21.21875078295819 -5 3 -3
171 1 1 0.5897 8.979610386440896 12.625265226990596 0.9920342694107418 -5 3 -2
588 1 1 0.5897 7.59342670329986 16.101753921166235 3.4233018913116577 -6 1 11
479 1 1 0.5897 6.654119807963436 12.909451869952024 5.306536663758265 -6 7 -3
122 1 1 0.5897 5.524386870448725 14.128613427199092 2.8674719282114083 -1 1 4
310 1 2 -1.1794 8.68401741770036 13.293273208671271 2.779808715218676 -3 -1 9
242 1 1 0.5897 7.018899205631631 15.394371692082089 1.3405217784885681 -3 -3 2
121 1 2 -1.1794 6.372504764926557 14.560928312063872 2.9675895972867514 -1 1 4
123 1 1 0.5897 7.010182519133844 13.847596277082019 2.9404116399428 -1 1 4
111 1 1 0.5897 5.558246404794307 16.58111503251451 5.066208359634138 -1 3 -7
478 1 2 -1.1794 6.687436304875276 11.967449095990942 5.1399432233552655 -6 7 -3
587 1 1 0.5897 8.78914621693442 16.63909344024607 4.180536501950076 -6 1 11
308 1 1 0.5897 7.497137805561632 13.20852406527574 9.192742858794501 0 8 -3
254 1 1 0.5897 5.041091086454445 13.960417209840367 9.097226527240952 -2 3 -5
139 1 2 -1.1794 8.855520102137287 13.040396992910813 10.355216523615491 -5 4 4
307 1 2 -1.1794 6.694114546062562 13.037455133712172 8.700706701967157 0 8 -3
317 1 1 0.5897 7.311650260645585 15.893630955146987 9.27382434705019 -5 -6 -3
631 1 2 -1.1794 7.128116236819283 14.415930854003268 6.488083277638591 6 5 3
632 1 1 0.5897 8.076077885307084 14.50551464840796 6.39025773394349 6 5 3
316 1 2 -1.1794 6.602968563302626 16.126214276889314 9.873770345536478 -5 -6 -2
309 1 1 0.5897 6.778204393021877 13.571623392999463 7.910897089881421 0 8 -3
633 1 1 0.5897 6.787977530779829 15.299899077394056 6.349782755791227 6 5 3
664 1 2 -1.1794 8.992200017322487 16.20169532915347 8.503734167540511 -1 -1 1
638 1 1 0.5897 5.939670609625047 14.30896885754697 11.974488957802155 -10 0 -1
859 1 2 -1.1794 8.815464941369976 16.15986201516509 13.737669116243254 -2 -1 3
860 1 1 0.5897 8.224155810623314 16.48109934429622 14.418380568106333 -2 -1 3
861 1 1 0.5897 8.283642176356505 15.550430288854681 13.225832874638899 -2 -1 3
637 1 2 -1.1794 6.102474258913078 15.123663874548033 12.449876756314358 -10 0 -1
683 1 1 0.5897 6.056646531484412 14.082239711924053 14.977510820047424 3 -5 -7
190 1 2 -1.1794 8.038243072698961 12.121498408923093 12.938242248130862 2 3 -7
684 1 1 0.5897 6.990222571241539 13.040664700963726 14.398351016180644 3 -5 -7
192 1 1 0.5897 8.146425103887491 12.31292392009691 12.006640966195565 2 3 -7
682 1 2 -1.1794 6.926228487025102 13.698513546135562 15.090709798873961 3 -5 -7
191 1 1 0.5897 8.748033468813803 12.600803990161674 13.365752405229099 2 3 -7
331 1 2 -1.1794 5.1004683698059425 12.511845678701066 12.111825453004558 -1 -1 -2
639 1 1 0.5897 6.220654030708746 15.78174050546568 11.764870221095883 -10 0 -1
332 1 1 0.5897 4.940640892924017 12.193370579893335 13.000227067249481 -1 -1 -2
333 1 1 0.5897 5.6989949948387295 11.869414867375653 11.730653396978049 -1 -1 -2
241 1 2 -1.1794 7.81906005878465 15.476376881194406 21.29717545766387 -3 -3 1
500 1 1 0.5897 8.896408764614423 16.16268622702219 17.943765584644687 -4 0 -6
483 1 1 0.5897 8.064129156766898 12.730205489503112 19.685786286012736 2 6 -3
508 1 2 -1.1794 8.957156312306735 14.783682743683595 16.93563537219032 2 3 -2
509 1 1 0.5897 8.308742479482436 14.584911414664509 16.260150672895392 2 3 -2
115 1 2 -1.1794 5.123191958632008 12.700095472648256 17.842066047899444 2 -1 2
243 1 1 0.5897 7.790420573530309 16.368429124237565 20.951289610497163 -3 -3 1
510 1 1 0.5897 8.721908782472978 14.215065644076818 17.668849337459527 2 3 -2
481 1 2 -1.1794 7.755986177138783 13.449435776446139 19.13440845538929 2 6 -3
116 1 1 0.5897 5.436647626490587 13.348041795543564 18.473036344563788 2 -1 2
117 1 1 0.5897 5.44427593249677 13.013583069869558 16.996577028292485 2 -1 2
482 1 1 0.5897 7.6907577570043415 14.196722123133892 19.728991889655262 2 6 -3
87 1 1 0.5897 6.511399843807236 16.609147208377266 16.430413717845003 -5 0 0
528 1 1 0.5897 5.134431819900514 15.102780805399147 21.017459677622924 -1 -3 4
235 1 2 -1.1794 5.474787143010676 15.878517111775926 18.047702476092113 0 -9 -3
236 1 1 0.5897 5.672804279268092 15.632330218216419 18.951264314803403 0 -9 -3
641 1 1 0.5897 7.5155731475379834 11.958917582348544 18.048190705176957 7 4 -3
169 1 2 -1.1794 9.04212022741715 11.911673554924274 20.832668570601584 -5 3 -3
526 1 2 -1.1794 4.973689690394298 14.353660126713107 20.44370452562591 -1 -3 4
165 1 1 0.5897 5.257750153891919 12.699692792470884 21.18657573956874 -1 5 -5
110 1 1 0.5897 7.0203361389811745 16.932689950566584 5.241203354383798 -1 3 -7
109 1 2 -1.1794 6.183593227438444 16.92151573609127 5.705962456860021 -1 3 -7
51 1 1 0.5897 7.757983404641364 20.18352939254705 4.117567382329461 3 8 1