LAMMPS data file via write_data, version 30 Jul 2021, timestep = 13000000

972 atoms
2 atom types
648 bonds
1 bond types
324 angles
1 angle types

-0.10689647910040456 20.10689747908935 xlo xhi
0.01654946120137879 19.983451538798825 ylo yhi
-0.2473976523179111 20.947395652316047 zlo zhi

Masses

1 1.008
2 15.999

Pair Coeffs # lj/cut/tip4p/long/omp

1 0 0
2 0.21084 3.1668

Bond Coeffs # harmonic/omp

1 450 0.9572

Angle Coeffs # harmonic/omp

1 55 104.52

Atoms # full

10 4 2 -1.1794 0.8953297819081143 4.193558981630453 3.7325326007396353 0 0 0
11 4 1 0.5897 0.6705440546586227 3.500785806739267 3.111282988346264 0 0 0
12 4 1 0.5897 1.8346798839792757 4.0861508273327045 3.8821964159411246 0 0 0
33 11 1 0.5897 1.2845483713929098 2.331161097079133 1.1868945531693809 0 0 0
31 11 2 -1.1794 0.6063153753202669 2.0910355657380912 1.8183185937627737 0 0 0
18 6 1 0.5897 4.124825294497334 2.9064434621664117 3.1852920841151686 0 0 0
4 2 2 -1.1794 4.047673799438001 0.9760247948544565 3.3217060856152303 0 0 0
16 6 2 -1.1794 4.0267296580836724 3.851009278525216 3.306292256583299 0 0 0
140 47 1 0.5897 0.8734744089090498 9.632543687708553 2.415694926195733 0 0 0
23 8 1 0.5897 2.5787207651950594 0.8567411299416541 4.3365128863092215 0 0 0
13 5 2 -1.1794 4.643781855626313 5.7173431515104625 1.4380652757140224 0 0 0
20 7 1 0.5897 0.9680954328238149 5.696671000687059 2.6218866671942256 0 0 0
110 37 1 0.5897 2.02817650762794 9.450198263087046 0.3343476944196512 0 0 0
17 6 1 0.5897 4.117311715995851 4.216436302054391 2.426152067868639 0 0 0
236 79 1 0.5897 0.6272432421786955 0.274754471529893 1.5186896349902563 0 1 0
21 7 1 0.5897 -0.02906598038498487 6.218339867094729 1.609083117974517 0 0 0
15 5 1 0.5897 4.385658974548807 6.393089362609428 2.065098228250659 0 0 0
14 5 1 0.5897 4.077751843088263 5.864341290849171 0.6802063949224936 0 0 0
19 7 2 -1.1794 0.8821896462598078 6.3062243436388 1.8887464954599191 0 0 0
114 38 1 0.5897 3.342702766149433 7.505116075949182 3.9151771264454442 0 0 0
5 2 1 0.5897 4.300965883056489 0.3763470080113111 2.6198197135081833 0 0 0
141 47 1 0.5897 0.9438719960044353 8.194066282069187 1.9485194504895147 0 0 0
126 42 1 0.5897 4.172766889135419 9.578096699345187 3.3156994569370295 0 0 0
1 1 2 -1.1794 2.4740373844493204 3.1104712246819424 0.11207870939947173 0 0 0
139 47 2 -1.1794 0.7219449890860276 9.076577632118225 1.6512759393942718 0 0 0
112 38 2 -1.1794 4.156956475754279 7.618138046734017 3.4247136460905567 0 0 0
111 37 1 0.5897 3.4441776736397247 9.364824285181879 -0.1945889820777647 0 0 0
3 1 1 0.5897 3.3730818093671577 2.85748376617923 0.32183573083267814 0 0 0
674 225 1 0.5897 1.9457295098779173 5.9547929523117595 0.3985805844361088 0 0 1
113 38 1 0.5897 4.842121325354325 7.615338034177008 4.093214157128596 0 0 0
2 1 1 0.5897 2.5421022434299587 4.020344468239289 -0.1776921942173585 0 0 0
6 2 1 0.5897 4.739444120487481 0.8843875172054997 3.9769934722141027 0 0 0
22 8 2 -1.1794 1.9252067343754118 0.5725618049673703 4.975650748715066 0 0 0
325 109 2 -1.1794 2.5856096139444826 2.3475539333228856 7.225522931368131 0 0 0
326 109 1 0.5897 2.4973940514630213 1.74658809995298 6.485601505280234 0 0 0
327 109 1 0.5897 3.5303499707867685 2.4547757501941723 7.336309515732993 0 0 0
355 119 2 -1.1794 0.6695984535587232 2.0111640746607478 9.266142429147914 0 0 0
356 119 1 0.5897 1.4356315171665521 2.0047598130084117 8.692125249784166 0 0 0
468 156 1 0.5897 4.4313228261840285 9.153141977599827 7.405313967503625 0 0 0
342 114 1 0.5897 4.279410221212995 4.442567848523616 10.162516679033278 0 0 0
337 113 2 -1.1794 4.551614674438977 5.856724707173816 8.886671825612607 0 0 0
339 113 1 0.5897 3.96685272609769 5.8454902885200095 8.12885423081961 0 0 0
344 115 1 0.5897 0.9030422753710665 5.599950860388216 9.609773429405298 0 0 0
357 119 1 0.5897 -0.04262293167002755 2.331063910213425 8.712284677672631 0 0 0
561 187 1 0.5897 0.40614640943384195 0.271274966637928 9.126972757240612 0 1 0
27 9 1 0.5897 2.747830691487569 4.584945031655855 6.737452380144658 0 0 0
464 155 1 0.5897 1.378857804891392 8.823809853212069 8.382087377105558 0 0 0
25 9 2 -1.1794 2.6117869365707214 5.519985465917978 6.8912573296501245 0 0 0
435 145 1 0.5897 2.3655840383851356 8.89801946363603 6.382909512622968 0 0 0
345 115 1 0.5897 0.7502599754896738 7.01754163617591 9.100290846373246 0 0 0
438 146 1 0.5897 3.6026625921969075 8.829765520030506 10.215172997156133 0 0 0
26 9 1 0.5897 1.8835648517622228 5.557743836871786 7.511425273335921 0 0 0
463 155 2 -1.1794 0.6305686224856127 8.770216606911527 8.97667712380852 0 0 0
343 115 2 -1.1794 0.6970604103095009 6.103144272735789 8.8218763024303 0 0 0
433 145 2 -1.1794 2.715978500637901 9.379175900934044 7.132634750798298 0 0 0
437 146 1 0.5897 4.031483172884365 7.44357756166522 9.782663529925568 0 0 0
329 110 1 0.5897 4.241416465601403 0.5221495204506676 9.400490856084433 0 0 0
131 44 1 0.5897 2.399045276238964 6.710246469694884 5.55068283585755 0 0 0
328 110 2 -1.1794 4.093641141366381 1.2088848579549352 10.050863412056023 0 0 0
132 44 1 0.5897 1.1037902576214509 7.450120694408064 5.291642555760184 0 0 0
102 34 1 0.5897 0.12245783382176018 0.8904258571543173 5.1502070165246785 1 0 0
130 44 2 -1.1794 2.0426526879607305 7.480264622868205 5.107406645325896 0 0 0
649 217 2 -1.1794 2.360955180136011 2.793888404162282 13.919814312648425 0 0 0
650 217 1 0.5897 2.3963520562322835 2.132808270235157 13.228330831978095 0 0 0
651 217 1 0.5897 1.7478894349249738 2.4365215131588958 14.562317436616238 0 0 0
347 116 1 0.5897 1.191918076576054 0.9133064545627797 11.629609906832803 0 0 0
348 116 1 0.5897 2.638410267426107 0.9841523610168822 11.188346056862823 0 0 0
346 116 2 -1.1794 2.088112702898458 0.8587991912289459 11.961534038952337 0 0 0
350 117 1 0.5897 2.425347994116978 4.593290360599773 14.000008712078296 0 0 0
336 112 1 0.5897 2.0276640538888384 4.239106142335464 11.204186225947758 0 0 0
330 110 1 0.5897 4.612146403859454 0.937577689776137 10.80841566848378 0 0 0
349 117 2 -1.1794 2.5190334725458383 5.544054205657157 14.061206335270173 0 0 0
683 228 1 0.5897 4.253079492310002 2.924619871687322 14.31765372225888 0 0 0
533 178 1 0.5897 0.00244550117722106 7.928281963850819 12.033187684602973 1 0 0
759 253 1 0.5897 2.1194530667337297 8.639749302162505 13.623827345178148 0 0 0
454 152 2 -1.1794 1.5993669345632378 7.447888071324897 12.149518241693274 0 0 0
668 223 1 0.5897 0.9682266697216719 5.803103649159213 14.963040702354206 0 0 0
351 117 1 0.5897 3.3689817045706802 5.674898200705327 14.481680038587928 0 0 0
456 152 1 0.5897 1.8546522371938947 6.6877968559698715 12.672520840508414 0 0 0
455 152 1 0.5897 2.345690830037956 7.6023471983095225 11.57034407681052 0 0 0
757 253 2 -1.1794 2.3431040758753463 9.334049760073974 14.243794844987312 0 0 0
340 114 2 -1.1794 3.9205211801341013 3.861005594577286 10.832879618501515 0 0 0
792 264 1 0.5897 4.177136593249804 9.196655612059436 14.66622713719867 0 0 0
334 112 2 -1.1794 1.1421074314386002 4.234418609463137 10.840753271559203 0 0 0
667 223 2 -1.1794 0.2820425111346007 6.05130290414319 15.582642111648653 0 0 0
789 263 1 0.5897 1.2704745188781055 8.920536350781282 15.44672983197619 0 0 0
335 112 1 0.5897 1.0623856467051052 3.3812922582951788 10.413817059292828 0 0 0
341 114 1 0.5897 3.968380015334189 2.987685975349366 10.443669163868496 0 0 0
436 146 2 -1.1794 3.6859079715968557 7.929975094940919 10.531258269505512 0 0 0
443 148 1 0.5897 0.7336134033760026 9.788243374240995 10.47696618140248 0 0 0
661 221 2 -1.1794 4.867752495833427 5.790859067615106 15.64276408557339 0 0 0
653 218 1 0.5897 3.333560643301495 1.2441070736641533 17.844374297806798 0 0 0
652 218 2 -1.1794 4.034313024388766 1.4055232071316681 17.21252977638372 0 0 0
664 222 2 -1.1794 3.685361763929201 4.053264422283416 17.581268246727852 0 0 0
671 224 1 0.5897 2.084031710973477 1.8860160548659284 19.705331759002085 0 0 0
666 222 1 0.5897 3.876629312633217 3.118817628588919 17.499526004407166 0 0 0
670 224 2 -1.1794 2.0806946574752936 1.0602308277814345 19.2210571835802 0 0 0
665 222 1 0.5897 2.745118108438946 4.091312168652292 17.756793420118814 0 0 0
681 227 1 0.5897 0.765186913846922 2.813761322001313 16.801560857069934 0 0 0
672 224 1 0.5897 1.1796339859111336 0.9670706889692614 18.911659222788344 0 0 0
658 220 2 -1.1794 1.0646000430980953 4.471705567894934 17.755596170379224 0 0 0
659 220 1 0.5897 0.31780090912140163 4.535998420478974 18.3509900616213 0 0 0
787 263 2 -1.1794 0.6748351530841523 8.783453980858702 16.18344885693378 0 0 0
660 220 1 0.5897 0.838135606585615 5.0456307064094394 17.02365101562406 0 0 0
858 286 1 0.5897 0.22545415060431234 7.3565500230479435 18.857701775021393 1 0 0
662 221 1 0.5897 4.535662309829051 5.167362702611247 16.2888164915158 0 0 0
663 221 1 0.5897 4.4757665368766535 6.627596743076667 15.893069324717136 0 0 0
780 260 1 0.5897 2.614491504253116 7.85693170264924 18.357700976982116 0 0 0
760 254 2 -1.1794 3.9503585703507724 7.97054455984452 17.095766517433375 0 0 0
761 254 1 0.5897 3.91439525060738 8.927145378215936 17.086231511861097 0 0 0
675 225 1 0.5897 2.2993777566861264 6.4004500273856255 20.190293723307455 0 0 0
779 260 1 0.5897 2.233965640426031 8.336560332833665 19.74241711101722 0 0 0
778 260 2 -1.1794 2.014938207103507 7.678708479945944 19.08235145228374 0 0 0
788 263 1 0.5897 0.8454875456100945 9.520210087500079 16.77038144105717 0 0 0
654 218 1 0.5897 4.0868778795587986 0.5981075047063124 16.700918573642813 0 0 0
762 254 1 0.5897 4.701728352541563 7.764139001340266 17.651804427535552 0 0 0
679 227 2 -1.1794 0.6958665785568289 2.1338281007772832 16.131245513684295 0 0 0
884 295 1 0.5897 0.9018289693037587 0.3686072187537812 16.17545611197535 0 1 0
669 223 1 0.5897 0.48527693546216344 6.957316729978112 15.815647196643894 0 0 0
109 37 2 -1.1794 2.5738741395492264 9.699104421688197 20.78307103265279 0 0 -1
673 225 2 -1.1794 2.623039182172436 5.874425754699464 20.921698721187607 0 0 0
656 219 1 0.5897 4.939688030633519 4.587971281465892 18.8462233809912 0 0 0
120 40 1 0.5897 1.230611212825039 11.477973078349702 2.969097355312456 0 0 0
127 43 2 -1.1794 1.0956690430692404 12.922275478257294 1.7052610220776727 0 0 0
129 43 1 0.5897 1.0803677291556912 13.819132041061147 2.0396660109705853 0 0 0
122 41 1 0.5897 4.343692826805607 11.697570356961844 2.185445830693303 0 0 0
118 40 2 -1.1794 1.3310314006304527 10.90134595318038 3.7266082544541597 0 0 0
783 261 1 0.5897 2.06302065488149 12.681386825671275 0.177125933006839 0 0 1
119 40 1 0.5897 2.2694745918602344 10.71652831080652 3.764852612585802 0 0 0
123 41 1 0.5897 3.9956352536793878 12.399392530926646 0.8898413334060153 0 0 0
229 77 2 -1.1794 4.570621913372611 18.839002608117827 1.5694128980757165 0 0 0
125 42 1 0.5897 4.833354896062774 10.534413558366188 4.285961388202837 0 0 0
222 74 1 0.5897 3.9652369075094995 13.733824727630946 2.830388013315121 0 0 0
240 80 1 0.5897 2.4115929279287442 14.04223914922549 4.702906938348313 0 0 0
221 74 1 0.5897 3.886706725169435 15.14776178629138 3.366200806541801 0 0 0
124 42 2 -1.1794 4.144961337228896 10.48444425204193 3.6226634656824896 0 0 0
220 74 2 -1.1794 3.9102739043637857 14.232453064678264 3.6457140825191763 0 0 0
249 83 1 0.5897 1.4464816320860383 15.883808375443596 1.115539265647329 0 0 0
230 77 1 0.5897 4.15431845503263 18.68702616237145 0.7209051438540018 0 0 0
228 76 1 0.5897 0.7720617948778795 17.67668468944311 4.364795628943696 0 0 0
235 79 2 -1.1794 0.6148917322917955 19.29472750718053 1.3785373664045004 0 0 0
248 83 1 0.5897 1.138138558668528 16.50324879225237 2.462220510078472 0 0 0
232 78 2 -1.1794 4.0343736528289265 17.30355950889131 3.7839760221060343 0 0 0
234 78 1 0.5897 3.1238822684199503 17.580160659739224 3.8880196054703626 0 0 0
227 76 1 0.5897 1.1847536583825422 18.40112875273248 3.101012383845182 0 0 0
226 76 2 -1.1794 1.429970384077267 17.670985124515536 3.6695020260606017 0 0 0
233 78 1 0.5897 4.345349643603972 17.785076441422593 3.017274737866273 0 0 0
247 83 2 -1.1794 0.9346145012937308 15.746257004279485 1.912686968316072 0 0 0
890 297 1 0.5897 1.7994481029001739 18.903207783376587 -0.027028655703851517 0 0 1
128 43 1 0.5897 0.19082110013902337 12.747072338768165 1.44669260134236 0 0 0
121 41 2 -1.1794 4.610919788560471 12.424463663713786 1.6227324367276315 0 0 0
188 63 1 0.5897 0.0769990162058776 11.134741348828005 5.015313977946098 1 0 0
133 45 2 -1.1794 2.3986315741502544 12.06821518175024 7.005403931844074 0 0 0
134 45 1 0.5897 1.6960177877365534 12.103826177682874 7.654527256366366 0 0 0
135 45 1 0.5897 3.183857289417231 12.32820170439403 7.487224997219235 0 0 0
453 151 1 0.5897 0.406667788928489 11.606705099228792 9.398446928345319 0 0 0
446 149 1 0.5897 4.389617898186929 13.360660757867814 9.317862757645885 0 0 0
573 191 1 0.5897 0.4585964303197453 14.220803745699524 9.183795993052932 0 0 0
576 192 1 0.5897 4.425567628159907 15.732064595378734 7.456638439476987 0 0 0
571 191 2 -1.1794 0.6722828772025208 15.131561401519633 8.98050795468169 0 0 0
553 185 2 -1.1794 4.790185251482949 18.810433300292903 8.775346149111412 0 0 0
445 149 2 -1.1794 4.561814360971063 12.630413167517165 8.723289306040948 0 0 0
450 150 1 0.5897 3.9548231974115726 11.418113908716986 9.927240718546628 0 0 0
555 185 1 0.5897 4.424260637746038 18.886979369672158 7.894083615038559 0 0 0
543 181 1 0.5897 2.3518559105585775 15.39773995885638 6.293452912837693 0 0 0
572 191 1 0.5897 0.7494135297860988 15.556471168328635 9.834857422470089 0 0 0
542 181 1 0.5897 1.9292652837250936 15.579884404230231 7.735847357759473 0 0 0
434 145 1 0.5897 2.5006235477894005 10.29438666393788 6.952429706318663 0 0 0
559 187 2 -1.1794 0.37196967371092626 19.30766885793465 8.904629835198318 0 0 0
241 81 2 -1.1794 2.2868542596298367 18.730084789077743 6.897758390632367 0 0 0
242 81 1 0.5897 2.31381742320219 17.777985035368513 6.993915333183546 0 0 0
243 81 1 0.5897 1.5036750356120308 18.997809111690355 7.378688041369468 0 0 0
541 181 2 -1.1794 2.522429802638058 15.929639438938958 7.070875537831576 0 0 0
239 80 1 0.5897 1.89700044097461 13.216148275601991 5.862697383661698 0 0 0
451 151 2 -1.1794 0.4138397809054405 12.392814138267438 8.852179501925576 0 0 0
558 186 1 0.5897 4.193558163823613 17.494578914308143 10.027101028574501 0 0 0
551 184 1 0.5897 0.63601894185427 17.9479978179218 10.150086494944716 0 0 0
24 8 1 0.5897 2.3367409980117815 19.803420047534633 5.428737564662709 0 -1 0
238 80 2 -1.1794 1.6749368988972388 13.965070061700505 5.3093081495174985 0 0 0
457 153 2 -1.1794 2.41115027376051 12.229865952147119 13.640487712406058 0 0 0
458 153 1 0.5897 1.8041896200978846 12.425032328295746 14.354511739196939 0 0 0
459 153 1 0.5897 3.2788772085128963 12.382895869685672 14.014593304532186 0 0 0
562 188 2 -1.1794 1.744876698847255 13.955945619546348 11.525983761290187 0 0 0
563 188 1 0.5897 1.8383265496390477 13.138104060629379 12.014666457375895 0 0 0
550 184 2 -1.1794 0.8423952288202923 17.35500119528732 10.872693915738614 0 0 0
567 189 1 0.5897 2.320134755613256 19.290352704017952 13.11838623504093 0 0 0
879 293 1 0.5897 3.719100338813516 19.04055314713661 14.81892302463723 0 0 0
552 184 1 0.5897 1.792606255508999 17.247081892059477 10.830689399387609 0 0 0
444 148 1 0.5897 1.8691397361660116 10.673966542281256 10.944195219241186 0 0 0
877 293 2 -1.1794 4.447115392267708 19.117046351848018 15.43576119528846 0 0 0
769 257 2 -1.1794 4.753170295355949 12.121202662378863 15.205254143021508 0 0 0
758 253 1 0.5897 2.254075788379269 10.143344228494863 13.740256176014086 0 0 0
564 188 1 0.5897 1.8659707818245552 14.642686625621986 12.181843041114863 0 0 0
449 150 1 0.5897 4.235603221395268 10.896616449039886 11.320609815998589 0 0 0
566 189 1 0.5897 2.40400299496801 17.842074442240065 13.55189680354864 0 0 0
545 182 1 0.5897 3.4077334375650015 14.188817456903381 10.929675151346055 0 0 0
867 289 1 0.5897 2.043915846529837 15.862177579620736 14.025976547363545 0 0 0
865 289 2 -1.1794 2.496481895261219 16.021458669419463 13.197616434425921 0 0 0
565 189 2 -1.1794 2.326771121532643 18.73206512130849 13.896005859157466 0 0 0
866 289 1 0.5897 3.4262194525977305 16.00283288782149 13.424669770460492 0 0 0
885 295 1 0.5897 1.2712513255200706 19.1954624740645 15.25015615575346 0 0 0
556 186 2 -1.1794 3.84140803198628 17.159918147313352 10.851940596854428 0 0 0
642 214 1 0.5897 0.05051043288908852 14.195503819492508 11.743870853119224 1 0 0
442 148 2 -1.1794 0.9163275374573749 10.586527254535676 10.972743501348692 0 0 0
896 299 1 0.5897 -0.002655726952078094 15.805093110229942 15.182309912113906 0 0 0
448 150 2 -1.1794 3.5964771130037287 10.85021747147534 10.609472019423421 0 0 0
544 182 2 -1.1794 4.275404616112447 14.427935398628849 10.6036418687291 0 0 0
557 186 1 0.5897 3.9732762672518795 16.21302293191316 10.802603888336906 0 0 0
546 182 1 0.5897 4.883628519816308 14.036740699275002 11.230859732605163 0 0 0
771 257 1 0.5897 4.265883361749639 12.841806321264626 15.604877464373404 0 0 0
895 299 2 -1.1794 0.8982642148285609 15.743746516767212 15.499941503153885 0 0 0
768 256 1 0.5897 0.8777963242466393 11.653187449017118 17.107646300762624 0 0 0
888 296 1 0.5897 1.9853234628827123 13.356035292649805 18.91812538160826 0 0 0
766 256 2 -1.1794 1.2739559238172353 11.045857597645222 17.73263920192786 0 0 0
773 258 1 0.5897 3.244739827762865 10.732988626795027 17.617287279648096 0 0 0
886 296 2 -1.1794 1.780203974302358 14.242347606218138 18.62006252200609 0 0 0
772 258 2 -1.1794 4.1741531930229785 10.631111303995432 17.4120348808752 0 0 0
774 258 1 0.5897 4.289028485306765 11.095067930318368 16.58260053279743 0 0 0
869 290 1 0.5897 3.0678931385301635 14.232968488354537 17.262876597542807 0 0 0
777 259 1 0.5897 0.8243062606860788 13.959018962410656 15.792297819368127 0 0 0
767 256 1 0.5897 0.7497050303325341 11.14364968879112 18.52759871748755 0 0 0
891 297 1 0.5897 2.48770884592277 19.49665757023326 19.95683197149284 0 0 0
868 290 2 -1.1794 3.9321204228353954 14.11509774147569 16.86850010026801 0 0 0
887 296 1 0.5897 2.016739686155811 14.804509354333446 19.35791517930125 0 0 0
897 299 1 0.5897 0.9216269737170053 16.315391202608474 16.26744028504617 0 0 0
878 293 1 0.5897 4.3120775062676175 18.400829309410828 16.056437496990604 0 0 0
870 290 1 0.5897 4.517029248554027 13.967764368928764 17.6118264407248 0 0 0
775 259 2 -1.1794 0.7899384104961178 13.003309734100247 15.748607618352603 0 0 0
875 292 1 0.5897 0.4544561591080114 17.386180922093494 18.265556451121363 0 0 0
880 294 2 -1.1794 4.106295525868981 17.050020870449078 17.35323248212799 0 0 0
882 294 1 0.5897 4.352432446385481 16.166551425098792 17.07872731297434 0 0 0
881 294 1 0.5897 3.177562586628191 16.98239158022362 17.57501891566115 0 0 0
874 292 2 -1.1794 1.2435310609749435 17.306165273632804 17.729560834594448 0 0 0
876 292 1 0.5897 1.3298597972214743 18.157772234735372 17.300883174363623 0 0 0
889 297 2 -1.1794 2.4782709979311437 18.721041196742682 20.517868672630517 0 0 0
782 261 1 0.5897 2.4868223500593185 11.499774925663223 20.525400615211193 0 0 0
965 322 1 0.5897 0.02696072922737336 13.961313105280277 18.738628329323472 1 0 0
883 295 2 -1.1794 0.8404808333812483 19.384567672527027 16.08385656902504 0 0 0
218 73 1 0.5897 2.392808239487268 16.856615947144483 20.632033240108342 0 0 -1
219 73 1 0.5897 3.3415461542933516 15.71603353243296 20.934201809764424 0 0 -1
217 73 2 -1.1794 2.4348075742393873 15.901973882965065 20.690127878388406 0 0 -1
781 261 2 -1.1794 2.7474186399543816 12.387740829474728 20.770480794411927 0 0 0
145 49 2 -1.1794 9.08347562220533 9.207899931053372 -0.20517282724828156 0 0 0
138 46 1 0.5897 6.973361487504222 7.716700522113013 5.0000036465103745 0 0 0
711 237 1 0.5897 8.655046687533378 5.641556284250242 0.1441787141324622 0 0 1
68 23 1 0.5897 8.24026368198822 2.094217325149147 1.020118765316187 0 0 0
9 3 1 0.5897 5.3636003859702654 4.503636021025267 4.457264431595353 0 0 0
47 16 1 0.5897 7.813633492876616 3.434871583455431 2.878597202944208 0 0 0
46 16 2 -1.1794 8.170307813866899 4.128297140556691 3.433907292449288 0 0 0
48 16 1 0.5897 7.471202591844393 4.318177573350323 4.059647278977292 0 0 0
69 23 1 0.5897 6.744196313026037 2.2658668454436404 1.17631406320788 0 0 0
67 23 2 -1.1794 7.534608076097235 2.034403303351312 1.6641789676349419 0 0 0
177 59 1 0.5897 7.93065049395671 8.85970086826657 1.419656997463951 0 0 0
143 48 1 0.5897 5.851439159180034 8.73323976853155 0.6421035231939588 0 0 0
175 59 2 -1.1794 7.219959248473828 8.531512248237267 1.9706194625429596 0 0 0
55 19 2 -1.1794 7.364937422575946 5.92797767713445 1.2836673021801972 0 0 0
58 20 2 -1.1794 8.432079400793908 0.8920672170053474 4.528919603071982 0 0 0
57 19 1 0.5897 7.575953058912008 5.348516692055293 2.01585492095664 0 0 0
56 19 1 0.5897 6.408451891782302 5.928489863092228 1.245961760482939 0 0 0
176 59 1 0.5897 7.314827910477213 7.5793154842958605 1.9428484964248276 0 0 0
142 48 2 -1.1794 5.262810735556302 9.090947034434812 -0.022677000284954507 0 0 0
166 56 2 -1.1794 8.865692516518859 7.749598019946847 4.83382049205288 0 0 0
34 12 2 -1.1794 5.192472119976068 2.7083320441477388 -0.07456863438856545 0 0 0
155 52 1 0.5897 7.882781977272257 9.843907736133936 3.13533739485692 0 0 0
59 20 1 0.5897 8.751348912988686 1.7399421407071087 4.838100849265232 0 0 0
29 10 1 0.5897 6.6886531422529725 0.7971615720779727 4.93669414306786 0 0 0
37 13 2 -1.1794 9.381982755701197 2.347860029604265 -0.22950207467027184 0 0 0
466 156 2 -1.1794 5.38763122039449 9.145984261518626 7.446984878675837 0 0 0
168 56 1 0.5897 9.003848536886158 8.460176570357751 5.460259890899865 0 0 0
8 3 1 0.5897 5.87337432551573 4.188853706846578 5.847698123046297 0 0 0
392 131 1 0.5897 8.038788384077511 2.682473222193163 7.9234670134560865 0 0 0
361 121 2 -1.1794 9.320153613917626 2.9500508902789804 6.502858963139453 0 0 0
393 131 1 0.5897 7.400131822747495 1.552071676779623 8.702342641629121 0 0 0
391 131 2 -1.1794 7.456510820048079 2.506910577990512 8.662710447221684 0 0 0
362 121 1 0.5897 9.214137388391887 3.8771674009665316 6.289111609786563 0 0 0
359 120 1 0.5897 5.944579714642883 2.7386363256513713 7.71378838717971 0 0 0
360 120 1 0.5897 5.528560870807617 2.120603008715273 6.395729921788278 0 0 0
381 127 1 0.5897 7.511707585204753 5.495161651200082 9.073413553737966 0 0 0
167 56 1 0.5897 9.0877976376541 6.954993450901384 5.3193203019609925 0 0 0
62 21 1 0.5897 8.50408845455526 5.697443428257635 6.868806482600049 0 0 0
379 127 2 -1.1794 7.293455885326617 6.055373729708538 8.328500975829943 0 0 0
371 124 1 0.5897 7.821749689866987 3.6715630104458237 10.044039584401983 0 0 0
61 21 2 -1.1794 9.279563059015931 5.552823598079664 6.326537910172311 0 0 0
469 157 2 -1.1794 9.220710679248821 9.548849515870806 6.991706686186181 0 0 0
470 157 1 0.5897 8.72832264003258 9.31971352847785 7.780013697285304 0 0 0
499 167 2 -1.1794 7.497515363662455 8.851017710856501 9.023556790218533 0 0 0
500 167 1 0.5897 7.750966071993286 9.488008650076132 9.691702028601174 0 0 0
380 127 1 0.5897 7.463717624066578 6.944794909463942 8.638992773296055 0 0 0
467 156 1 0.5897 5.652242478666438 8.51355769061863 6.778820536266576 0 0 0
358 120 2 -1.1794 5.338065081758388 2.8529710921168943 6.982064763929768 0 0 0
501 167 1 0.5897 6.648110232011651 9.159507207555022 8.707838938637822 0 0 0
136 46 2 -1.1794 6.070051711070003 7.577560889026795 5.284595030770488 0 0 0
338 113 1 0.5897 5.427371943785944 5.953810552779643 8.512594055327362 0 0 0
137 46 1 0.5897 5.991219942403312 6.628016559923063 5.377484821616706 0 0 0
7 3 2 -1.1794 5.987637737620157 4.800103673656974 5.119869160492524 0 0 0
60 20 1 0.5897 8.62874375015819 0.28633277820253955 5.243642027700218 0 0 0
28 10 2 -1.1794 5.787173911230356 0.6728819904146681 5.23367698613727 0 0 0
377 126 1 0.5897 9.661878829733698 4.209420814712714 10.085176098133035 0 0 0
331 111 2 -1.1794 6.059902192584759 4.603593385301399 12.567506133436396 0 0 0
387 129 1 0.5897 8.99375161888295 6.2576536383463734 13.28173767571174 0 0 0
684 228 1 0.5897 5.566295678521049 3.5665529197242143 13.923269796944014 0 0 0
682 228 2 -1.1794 5.201210669180103 2.810180721260004 14.382666349776848 0 0 0
383 128 1 0.5897 8.70073429338567 1.925317244965642 12.598587044500169 0 0 0
382 128 2 -1.1794 8.42095658615379 1.1641753856250994 12.089835257985696 0 0 0
372 124 1 0.5897 7.252210873392411 4.487803070564666 11.18495470781283 0 0 0
353 118 1 0.5897 6.682332263171418 1.0320241820896392 12.027569951916824 0 0 0
686 229 1 0.5897 8.400141202815561 2.73686390105655 14.55738605656243 0 0 0
384 128 1 0.5897 9.1628053644132 0.9733003020776045 11.515757745751474 0 0 0
790 264 2 -1.1794 5.044070585882183 8.940654289020419 14.351231028886101 0 0 0
352 118 2 -1.1794 5.745203170053885 1.0107493971904975 12.221613951580165 0 0 0
685 229 2 -1.1794 9.002901750914827 3.087234371609425 13.901426955237552 0 0 0
492 164 1 0.5897 7.658913041916677 7.6083268248498905 11.918472784886456 0 0 0
460 154 2 -1.1794 5.8507204028044475 7.323973675370836 12.104625843167279 0 0 0
386 129 1 0.5897 8.989340028296139 4.870195230644927 13.88789004587954 0 0 0
824 275 1 0.5897 7.891008279642575 9.092226197165424 15.372060109718904 0 0 0
333 111 1 0.5897 5.997587414176387 5.555349728941548 12.485459213740524 0 0 0
354 118 1 0.5897 5.636348032687606 1.6255055090771966 12.947315049146631 0 0 0
385 129 2 -1.1794 9.16934454118076 5.786977107505162 14.096624342865827 0 0 0
717 239 1 0.5897 6.539050617967298 2.405117916678063 15.620453159606821 0 0 0
791 264 1 0.5897 5.606454829684452 8.997190717913174 15.123818783348396 0 0 0
462 154 1 0.5897 5.206125298715396 7.579495995557089 11.444663353957935 0 0 0
793 265 2 -1.1794 9.056840766471117 9.266763339562463 14.052207069849606 0 0 0
490 164 2 -1.1794 8.611365278944563 7.574919830231171 12.00791101695847 0 0 0
794 265 1 0.5897 8.967005529312546 8.669180219931697 13.309759073520828 0 0 0
461 154 1 0.5897 5.631475655354213 7.853003152938395 12.871732337479203 0 0 0
705 235 1 0.5897 8.132833979251938 6.194404501540822 15.529629008378057 0 0 0
491 164 1 0.5897 8.93503764847253 7.519116591765254 11.108742906259826 0 0 0
687 229 1 0.5897 9.87132879684081 2.832078454759415 14.21296500062517 0 0 0
370 124 2 -1.1794 7.922247702416071 4.506438542495303 10.501554228539504 0 0 0
332 111 1 0.5897 5.3309722565666275 4.269357636982213 12.044724962841762 0 0 0
655 219 2 -1.1794 5.679296928596644 4.789304636804275 19.419613982891757 0 0 0
814 272 2 -1.1794 8.646661423817088 7.48506236426811 19.031165409526412 0 0 0
797 266 1 0.5897 9.979609917060815 7.53263357674819 17.899179330681594 0 0 0
715 239 2 -1.1794 7.388781682926407 2.1171617746192393 15.954163143756855 0 0 0
677 226 1 0.5897 5.251580525771344 0.8627931977317775 18.632987105406816 0 0 0
708 236 1 0.5897 7.637554538411895 0.6755562126632453 18.905439444444962 0 0 0
696 232 1 0.5897 7.916505142091557 4.920526163887651 17.397977277993142 0 0 0
657 219 1 0.5897 6.448333845581467 4.494582200859732 18.931713744402987 0 0 0
825 275 1 0.5897 7.398398233611787 8.053559193179947 16.35739523295472 0 0 0
694 232 2 -1.1794 7.992918246067163 4.122912665609915 17.92181828304992 0 0 0
706 236 2 -1.1794 8.588954552623488 0.7679459292244998 18.854502929167325 0 0 0
695 232 1 0.5897 7.945322518717552 3.411050966235266 17.283532944973746 0 0 0
823 275 2 -1.1794 7.216617333400584 8.935771268773733 16.033177627620393 0 0 0
786 262 1 0.5897 6.891411246219151 7.591680717271714 18.759857983886317 0 0 0
676 226 2 -1.1794 5.847361848764572 0.7195453440833135 19.368433453238776 0 0 0
785 262 1 0.5897 5.79974000174087 6.635683828810025 19.191811660117846 0 0 0
784 262 2 -1.1794 5.940486463766424 7.51364200340738 18.837072685576818 0 0 0
707 236 1 0.5897 8.926039926650652 0.13008060022960777 19.48372668121951 0 0 0
35 12 1 0.5897 5.385407567912021 1.9614709497138543 20.553286960168798 0 0 -1
38 13 1 0.5897 9.115951027246707 1.849606388689099 20.1924246849806 0 0 -1
816 272 1 0.5897 8.872888130498533 8.210617471261658 19.61324764786907 0 0 0
703 235 2 -1.1794 7.539043047715124 6.274652082314458 16.276146854323517 0 0 0
815 272 1 0.5897 8.805554337814986 6.699166752499475 19.554203337714878 0 0 0
716 239 1 0.5897 7.326639445382523 1.1621240327077966 15.976852959033565 0 0 0
144 48 1 0.5897 5.489380078030496 8.617849939146106 20.371333787442556 0 0 -1
704 235 1 0.5897 6.672082539233065 6.091739405483471 15.913883895639945 0 0 0
702 234 1 0.5897 9.867174251987665 3.7910207097863333 18.114552525343257 0 0 0
710 237 1 0.5897 9.226701316552232 4.453534808303575 20.59452913339686 0 0 0
709 237 2 -1.1794 9.348443041288018 5.393761073069311 20.72730155283126 0 0 0
36 12 1 0.5897 5.363067843458046 3.4752799814748485 20.57329179009001 0 0 -1
250 84 2 -1.1794 5.045200473136978 15.55918414031493 0.08375578189732497 0 0 0
276 92 1 0.5897 9.343922318043036 14.017663460681984 4.203816330205945 0 0 0
819 273 1 0.5897 8.29321701439822 12.373102098186074 0.42541051821525566 0 0 1
164 55 1 0.5897 6.5194494080507726 12.673921906084207 1.7396895137334751 0 0 0
156 52 1 0.5897 9.202360648536198 10.474315393911915 3.527065494742369 0 0 0
285 95 1 0.5897 7.6745279522233645 14.666932745306712 1.8341454404768314 0 0 0
163 55 2 -1.1794 7.458238760060632 12.839878268067046 1.8260142479003059 0 0 0
154 52 2 -1.1794 8.255386372191868 10.588448721895086 3.607829490371455 0 0 0
165 55 1 0.5897 7.74035843024621 12.26014918004324 2.5336366266045087 0 0 0
254 85 1 0.5897 8.74244889961509 15.906047442513314 0.5702768272697569 0 0 0
283 95 2 -1.1794 7.48710359267388 15.582131899589799 1.6250179857992715 0 0 0
264 88 1 0.5897 9.209968575894077 17.405660910685192 3.4811172912102637 0 0 0
273 91 1 0.5897 7.505160894080986 19.910907679070604 1.880969973355251 0 0 0
927 309 1 0.5897 8.489405038923513 18.91360630515352 0.156994595266221 0 0 1
284 95 1 0.5897 7.540206651400956 16.0362646947413 2.46604772194442 0 0 0
263 88 1 0.5897 8.18779167223948 17.83733896823168 4.511179534697502 0 0 0
262 88 2 -1.1794 8.267559469514095 17.503479430123225 3.6175501942800494 0 0 0
271 91 2 -1.1794 7.286974453551925 19.03861336273721 1.5524165182585994 0 0 0