LAMMPS data file via write_data, version 30 Jul 2021, timestep = 11500000

1920 atoms
2 atom types
1280 bonds
1 bond types
640 angles
1 angle types

-0.1121320798285268 24.842133079829196 xlo xhi
-0.10001634040262353 24.830017340399444 ylo yhi
-0.1735273655845564 22.98352736558943 zlo zhi

Masses

1 1.008
2 15.999

Pair Coeffs # lj/cut/tip4p/long/omp

1 0 0
2 0.21084 3.1668

Bond Coeffs # harmonic/omp

1 450 0.9572

Angle Coeffs # harmonic/omp

1 55 104.52

Atoms # full

1 1 2 -1.1794 4.267119544021634 1.6705346513763475 4.062593643763157 0 0 0
2 1 1 0.5897 4.217973840508227 2.2287286912366113 4.838584083444772 0 0 0
3 1 1 0.5897 5.034592060135868 1.9880596118325284 3.5868728617122545 0 0 0
4 2 2 -1.1794 2.774874871524583 1.5860095897143973 1.7604877574794164 0 0 0
20 7 1 0.5897 3.8611520633271867 2.9748945618627842 0.8277262178760196 0 0 0
6 2 1 0.5897 1.8314622331610695 1.681057393593887 1.8912119018753994 0 0 0
24 8 1 0.5897 1.6962537966571332 5.189154388054753 0.7368421016312849 0 0 0
11 4 1 0.5897 2.8554159889131463 5.313803054012835 3.9258731880512956 0 0 0
10 4 2 -1.1794 3.402103189042233 4.714999008604951 3.4172006025442365 0 0 0
99 33 1 0.5897 0.10468929496048537 3.8996415539166467 3.7637447965960327 1 0 0
12 4 1 0.5897 3.0037700100814857 4.707079930510893 2.5469462130786886 0 0 0
5 2 1 0.5897 3.1424755483158515 1.6027802712124661 2.6440388257541176 0 0 0
14 5 1 0.5897 2.3536217483013284 3.16060029254377 4.399354440675968 0 0 0
19 7 2 -1.1794 4.640983211464375 3.158521225331303 0.30401879676871835 0 0 0
21 7 1 0.5897 5.3510822316491025 2.7139312297434155 0.7669000325440735 0 0 0
98 33 1 0.5897 0.07617253030553808 5.413027624363551 3.794144542790522 1 0 0
27 9 1 0.5897 4.793005139099153 5.127137835644381 0.6466460584368059 0 0 0
1455 485 1 0.5897 1.831239442595506 3.348869316074826 -0.1398193759526066 0 0 1
22 8 2 -1.1794 1.8061964281552325 4.461727385848611 1.3491846083108676 0 0 0
9 3 1 0.5897 5.082567444917086 4.571830456125413 3.761157404977766 0 0 0
15 5 1 0.5897 1.3442113720949642 2.0593160868458313 4.644622226785387 0 0 0
23 8 1 0.5897 1.0533319534580783 4.526737469111459 1.9366255640200638 0 0 0
13 5 2 -1.1794 1.5332594257986258 2.973656597576605 4.855639821195252 0 0 0
28 10 2 -1.1794 1.5750278416403385 0.24662892899215427 4.680809731578108 0 0 0
7 3 2 -1.1794 6.025811505414209 4.4195353375768205 3.818156648098319 0 0 0
387 129 1 0.5897 3.8484628320977254 0.2737852479686493 1.0348146833911778 0 1 0
16 6 2 -1.1794 -0.10001696962454142 1.3968956834874473 1.8393077560241942 0 0 0
47 16 1 0.5897 5.805499318023041 0.9495008852332731 1.9205023829082974 0 0 0
867 289 1 0.5897 4.479104995469996 -0.035394783857130255 5.271558209608274 0 1 0
25 9 2 -1.1794 4.7762510476347595 6.074312333307835 0.5092391864800789 0 0 0
504 168 1 0.5897 1.6433944858878327 3.9061308112348003 6.428514436335541 0 0 0
481 161 2 -1.1794 4.392518900861769 1.2699230681203686 9.889112958658435 0 0 0
482 161 1 0.5897 5.1462994398816155 1.4696291236243728 9.33408096158309 0 0 0
483 161 1 0.5897 4.528423048937445 1.796387443570711 10.676834454289104 0 0 0
484 162 2 -1.1794 2.7860090831019844 1.2487616622040527 7.567073229487304 0 0 0
485 162 1 0.5897 3.244897978458091 1.3699195465121288 8.398234874615124 0 0 0
486 162 1 0.5897 3.3174067753618037 0.611187997879506 7.090296613762863 0 0 0
508 170 2 -1.1794 1.553255144587998 -0.048894598587000286 10.552798454968862 0 0 0
488 163 1 0.5897 4.965958741796595 4.890444259157453 9.517581915826558 0 0 0
490 164 2 -1.1794 3.097685703309222 4.912640942543024 9.373535680263394 0 0 0
491 164 1 0.5897 2.7291659177219216 5.036808786404821 8.498974909741374 0 0 0
492 164 1 0.5897 2.797738906909953 4.04329487483399 9.639126608343295 0 0 0
493 165 2 -1.1794 1.5184178746979213 2.7794151071928592 10.432990796955206 0 0 0
487 163 2 -1.1794 5.9138435913363825 4.834583272118091 9.638202217013605 0 0 0
494 165 1 0.5897 1.707490706365154 1.8551951633302577 10.595349789655044 0 0 0
498 166 1 0.5897 0.9170664049427202 1.4254469007862143 7.938047263118687 0 0 0
501 167 1 0.5897 4.473431123372158 4.386873924230871 6.122779791800607 0 0 0
149 50 1 0.5897 1.6070197303360518 5.895129542706078 5.74752062049887 0 0 0
579 193 1 0.5897 0.09365165698877911 3.7033408245252826 9.582577697673619 1 0 0
502 168 2 -1.1794 1.7168954832011496 4.569454885542358 7.114644482113248 0 0 0
500 167 1 0.5897 3.8012892660548836 3.289598193307944 6.920301490420596 0 0 0
503 168 1 0.5897 0.9730003575347059 4.400197644953995 7.6926512019008975 0 0 0
499 167 2 -1.1794 4.465722674796815 3.4378300139588833 6.247499444137818 0 0 0
629 210 1 0.5897 1.9699468972205674 5.828705171541078 10.350382248399317 0 0 0
527 176 1 0.5897 5.571644826579938 0.8798349463907633 7.044786423352297 0 0 0
489 163 1 0.5897 6.046768193803857 4.018101717569626 10.119787305427197 0 0 0
496 166 2 -1.1794 -0.031812491198034476 1.5438575221636803 7.979966161813191 0 0 0
578 193 1 0.5897 -0.01791591508479018 5.210760136973559 9.66808068770738 1 0 0
628 210 2 -1.1794 1.2748660645940388 6.04207457906082 10.97284678210833 0 0 0
495 165 1 0.5897 1.5040431462478554 3.177932379083135 11.303093923037151 0 0 0
1347 449 1 0.5897 4.7296432171798255 0.20324380348880394 11.391724250474502 0 1 0
969 323 1 0.5897 5.943873107460488 4.161656485446052 15.669269391246708 0 0 0
961 321 2 -1.1794 4.493161564219483 1.5463384597768837 15.844598471356585 0 0 0
962 321 1 0.5897 5.195080187201552 1.6035250713729534 15.196398661417465 0 0 0
1346 449 1 0.5897 3.965371867328682 0.2054682462822029 12.69840144534696 0 1 0
964 322 2 -1.1794 2.8412954869503224 1.683163812571894 13.338311174958049 0 0 0
965 322 1 0.5897 3.1611108868311115 1.4585074048124613 14.211998405762856 0 0 0
966 322 1 0.5897 1.8907098732308638 1.5891820499652012 13.399207512488449 0 0 0
967 323 2 -1.1794 5.797881135882462 4.980092589681223 15.194837111003325 0 0 0
970 324 2 -1.1794 3.046642491565249 4.736682901062163 14.976230590382947 0 0 0
971 324 1 0.5897 3.9847133995197774 4.919697081745756 14.924462911006346 0 0 0
972 324 1 0.5897 2.986846113827724 3.934938723655007 15.495712651829367 0 0 0
979 327 2 -1.1794 4.649474149825308 3.111406146266364 12.04390498810023 0 0 0
975 325 1 0.5897 0.9986048757087191 3.2215457147236477 15.991459716957129 0 0 0
988 330 2 -1.1794 1.0963666536890422 -0.044966386389823754 16.271663269685106 0 0 0
987 329 1 0.5897 4.480516420823804 4.956808595247164 12.405619047207725 0 0 0
1008 336 1 0.5897 6.066983020339062 0.8904428605195562 13.34441530216237 0 0 0
963 321 1 0.5897 4.7009009802963035 0.7635629269187365 16.35483065741927 0 0 0
982 328 2 -1.1794 1.3300568367062895 4.263438460703094 12.946895145285943 0 0 0
983 328 1 0.5897 1.2778523978677858 5.036661199810355 12.385092236387106 0 0 0
984 328 1 0.5897 2.017355308874522 4.472420465237422 13.579399772180647 0 0 0
980 327 1 0.5897 3.969789729901753 2.6883993518166176 12.568553635877997 0 0 0
981 327 1 0.5897 5.472110932392345 2.8218206206309504 12.438325326641538 0 0 0
990 330 1 0.5897 1.1318776399045571 0.902249989561364 16.405144561636867 0 0 0
1109 370 1 0.5897 0.7576406907141152 5.790743043072545 16.123145767929742 0 0 0
973 325 2 -1.1794 1.6887080802864312 2.686240734714078 16.383109814195123 0 0 0
976 326 2 -1.1794 0.00921246674286505 1.4533766629242069 13.441286452613804 0 0 0
1460 487 1 0.5897 4.528885701337078 2.6734484169582715 17.192685708214086 0 0 0
985 329 2 -1.1794 4.558967808212271 5.910784124551231 12.396710412690268 0 0 0
986 329 1 0.5897 5.392710861577419 6.087099387059192 12.832516236866274 0 0 0
1454 485 1 0.5897 2.2920282280275277 3.4089681000316374 21.576555607789423 0 0 0
1590 530 1 0.5897 2.401356871975943 5.814442298859189 21.660169804097507 0 0 0
1441 481 2 -1.1794 4.692837326059295 1.2183628205235155 21.529519609831354 0 0 0
1442 481 1 0.5897 3.8871438325522876 1.2730051470557486 21.0157145138042 0 0 0
1464 488 1 0.5897 0.9648551479894014 4.278900833517329 19.065992255344852 0 0 0
1444 482 2 -1.1794 2.8363695116192074 1.2702849100044549 19.232951811252725 0 0 0
1539 513 1 0.5897 0.41731909277025636 5.391416285199548 20.8700674404039 1 0 0
1446 482 1 0.5897 3.098214889623816 1.9949778713258386 18.665096774119682 0 0 0
1469 490 1 0.5897 1.501845095328096 1.2779204724539264 22.1802013709514 0 0 0
1450 484 2 -1.1794 3.532219701325725 4.553891538893811 20.82886076283772 0 0 0
1451 484 1 0.5897 4.460869085625387 4.32425003827825 20.796670593325196 0 0 0
1452 484 1 0.5897 3.2399318269204254 4.4996613972449016 19.919081822938217 0 0 0
1453 485 2 -1.1794 1.6354090105527315 3.0067283650524668 22.145061021979693 0 0 0
1443 481 1 0.5897 4.580944788366897 1.870371407253159 22.221282457842356 0 0 0
1459 487 2 -1.1794 4.679671286410688 3.270224520362654 17.9256766765277 0 0 0
1488 496 1 0.5897 6.039821925518913 1.0382466504407126 18.702900322558087 0 0 0
1461 487 1 0.5897 5.334664718260661 2.8271290206754385 18.464944164826797 0 0 0
1462 488 2 -1.1794 1.732808962923918 4.40394236870058 18.508552417074945 0 0 0
1465 489 2 -1.1794 4.562413116775569 5.929823629763861 17.856215322118686 0 0 0
1463 488 1 0.5897 1.5498027616556305 5.209572463944171 18.025123642927376 0 0 0
1445 482 1 0.5897 1.9186350302603117 1.1117964661059339 19.012062716853634 0 0 0
1468 490 2 -1.1794 1.3821772425506729 0.34341974705622397 22.01082805092004 0 0 0
1466 489 1 0.5897 4.637064470531715 4.975828310036546 17.881209684848855 0 0 0
1538 513 1 0.5897 0.38050507445305387 3.921873416275048 21.23218046642291 1 0 0
1487 496 1 0.5897 5.928196769260499 1.5979789674731524 20.104965037081456 0 0 0
1826 609 1 0.5897 4.068681784856508 0.048193137620270526 18.628907660192226 0 1 0
1456 486 2 -1.1794 0.009645033684019713 1.499144616171446 19.04014675613692 0 0 0
1537 513 2 -1.1794 0.02496010949857691 4.557577162376379 20.611173208435424 1 0 0
386 129 1 0.5897 4.381476132339069 0.10818770017329471 22.784754688099746 0 1 -1
1470 490 1 0.5897 1.1828192484889783 -0.0323272916337788 22.86824875820681 0 0 0
974 325 1 0.5897 1.8093227363660305 3.053407628552981 17.258749493919886 0 0 0
143 48 1 0.5897 1.58291744952233 11.40718156414032 0.6444805386427136 0 0 0
121 41 2 -1.1794 4.402202445060336 7.835766951044355 4.188023144281004 0 0 0
122 41 1 0.5897 3.7786057539069273 7.637607664210404 3.489476866601916 0 0 0
123 41 1 0.5897 5.248630265528386 7.8935278321383775 3.7448942735165516 0 0 0
124 42 2 -1.1794 2.878159096715467 7.541270520332457 1.794994426081863 0 0 0
268 90 2 -1.1794 1.1545918837881681 12.351045509772248 4.7788333864757915 0 0 0
126 42 1 0.5897 3.1420371773132336 8.443479803049923 1.614217417470509 0 0 0
125 42 1 0.5897 3.40234960937235 7.012700099145844 1.1933306670686983 0 0 0
129 43 1 0.5897 4.97708604823765 10.965792880143685 3.38363257989256 0 0 0
130 44 2 -1.1794 3.164753013045901 11.105377833278242 3.41750090943042 0 0 0
136 46 2 -1.1794 -0.014846299583609807 7.7358851968007 1.808306951820667 0 0 0
132 44 1 0.5897 2.89652828921801 10.258248185351013 3.7734314785778476 0 0 0
133 45 2 -1.1794 1.456796734013421 9.076330583962374 4.8042645424941135 0 0 0
135 45 1 0.5897 0.6350924092608248 9.372480300921316 4.412797205062677 0 0 0
150 50 1 0.5897 1.4502221791053331 7.1637717651697415 4.9364375401451435 0 0 0
137 46 1 0.5897 0.9397977444315233 7.67756888321027 1.7708070605860424 0 0 0
139 47 2 -1.1794 4.75434769390821 9.6131812052491 0.5429347446227182 0 0 0
140 47 1 0.5897 4.739023294588902 10.553735791437976 0.36568380647925114 0 0 0
142 48 2 -1.1794 1.670771279894524 10.619492525832799 1.1811845550967752 0 0 0
131 44 1 0.5897 2.8824634259859936 11.081739582747735 2.50326015899313 0 0 0
144 48 1 0.5897 0.8480246686477122 10.56751105624768 1.6675135961190193 0 0 0
26 9 1 0.5897 5.4811752085065235 6.409701410698495 1.063076784034162 0 0 0
148 50 2 -1.1794 1.5214034830869458 6.213212245817955 4.848862438279022 0 0 0
621 207 1 0.5897 4.63042363495484 8.933246336991909 5.553599974277297 0 0 0
507 169 1 0.5897 4.455653596297764 6.626234392894579 5.440618846395926 0 0 0
270 90 1 0.5897 1.9011942077159008 12.046426077156589 4.263151684508886 0 0 0
127 43 2 -1.1794 5.918748896713658 10.826319384812104 3.483465593071471 0 0 0
134 45 1 0.5897 1.5529812081725818 9.610192846031335 5.592853549267646 0 0 0
612 204 1 0.5897 2.985174368217611 11.263350291209886 9.819470657641851 0 0 0
620 207 1 0.5897 5.286263688329591 9.023248151378088 6.914959933515712 0 0 0
601 201 2 -1.1794 4.5660498375469425 7.6777424139444355 9.989345296076783 0 0 0
625 209 2 -1.1794 4.608408118664321 12.256368494928406 6.308832480553008 0 0 0
603 201 1 0.5897 3.8243713502937093 7.583467405366602 9.391734333135979 0 0 0
604 202 2 -1.1794 2.8341980340306736 7.809740252916916 7.888083355892531 0 0 0
605 202 1 0.5897 3.144282588585552 8.623044106512847 7.489798715573751 0 0 0
606 202 1 0.5897 1.881327390874889 7.851261499760913 7.807710256938978 0 0 0
615 205 1 0.5897 0.7453485797557156 9.371904440399796 10.45469468390681 0 0 0
610 204 2 -1.1794 3.161230552644757 10.60788263327217 9.144517850815358 0 0 0
611 204 1 0.5897 4.112198508506373 10.623618202506679 9.036995283924211 0 0 0
699 233 1 0.5897 0.19083482731582874 10.659235311937252 8.494867022901396 1 0 0
619 207 2 -1.1794 4.6745182610285845 9.480236932837816 6.337816704985446 0 0 0
648 216 1 0.5897 5.75983199446446 7.595959571408275 8.446735789672553 0 0 0
614 205 1 0.5897 2.2334118883788716 9.314952892133276 10.182442906179856 0 0 0
624 208 1 0.5897 1.620500680899025 11.198624284790673 6.523037877805443 0 0 0
506 169 1 0.5897 3.8773089095242215 6.674868560168142 6.838706252734824 0 0 0
613 205 2 -1.1794 1.5630842611614624 9.00617937621885 10.791919405133559 0 0 0
622 208 2 -1.1794 1.4480531046085743 10.457160021053511 7.103306819227165 0 0 0
623 208 1 0.5897 2.132550617138138 10.510161997104708 7.770210439500665 0 0 0
647 216 1 0.5897 5.937161920891922 7.038302110177907 7.050627513628238 0 0 0
602 201 1 0.5897 4.49879655578158 6.924350675141797 10.57593855983174 0 0 0
626 209 1 0.5897 4.826883965197842 11.324983780641832 6.341953701336327 0 0 0
630 210 1 0.5897 1.2265888239840788 6.998021803846354 10.960300702589427 0 0 0
698 233 1 0.5897 0.3160720192802899 11.35261915869147 9.834689387082479 1 0 0
1101 367 1 0.5897 4.533458108984369 8.955423988100625 11.282499655563637 0 0 0
616 206 2 -1.1794 0.00289336315710996 7.649126061604353 7.59197315358395 0 0 0
607 203 2 -1.1794 5.8452339329020235 10.634567600301622 8.924170448650361 0 0 0
505 169 2 -1.1794 4.505122222478758 6.198544162786692 6.295456083433102 0 0 0
608 203 1 0.5897 6.0992968843700135 11.546703567135596 9.06469474232559 0 0 0
1087 363 2 -1.1794 5.942390490587838 10.682609071351868 15.224922258896736 0 0 0
1083 361 1 0.5897 4.535483443271106 6.842052088632876 16.0712312227529 0 0 0
1081 361 2 -1.1794 4.5674078572591705 7.667673575499858 15.587942568817418 0 0 0
1082 361 1 0.5897 4.62302498884803 8.340859191263197 16.266111070033766 0 0 0
1095 365 1 0.5897 0.46133366839996337 9.529143325621176 15.764562962525277 0 0 0
1084 362 2 -1.1794 2.7908218559836975 8.042381825157937 13.592345534201417 0 0 0
1094 365 1 0.5897 1.0372252542917724 8.222243279545298 16.266884948241774 0 0 0
1086 362 1 0.5897 3.259415305029703 8.054994901312474 14.426817740273401 0 0 0
1097 366 1 0.5897 0.9795790253129655 7.998791777278674 13.63490625535549 0 0 0
1089 363 1 0.5897 4.993568964678714 10.696775076218902 15.350152212097955 0 0 0
1090 364 2 -1.1794 3.1950367400688835 10.698223904192306 15.131525186300605 0 0 0
1091 364 1 0.5897 2.823018579711269 11.488698365974331 15.52266499628772 0 0 0
1092 364 1 0.5897 2.7387158141579833 9.977712823328915 15.566097037452131 0 0 0
1093 365 2 -1.1794 1.021617559038825 9.162006684206574 16.448251692873043 0 0 0
1096 366 2 -1.1794 0.06052688537728487 7.876053181969367 13.3973676022992 0 0 0
1100 367 1 0.5897 3.734685839127286 9.088716169650356 12.56145980341887 0 0 0
1108 370 2 -1.1794 1.4586305877602346 6.3246039637671405 16.497032870168205 0 0 0
1128 376 1 0.5897 5.786690955258499 8.427685284995988 12.88345837602949 0 0 0
1099 367 2 -1.1794 4.489467166382234 9.452894880763255 12.09902800312986 0 0 0
1103 368 1 0.5897 1.9752798144639678 10.27661153068494 12.292659960333467 0 0 0
1102 368 2 -1.1794 1.8172555346224502 11.08466563388221 12.780851978132564 0 0 0
1085 362 1 0.5897 3.185654594940208 7.318386457447648 13.106370831548782 0 0 0
1104 368 1 0.5897 2.403135012931414 11.027502043919952 13.535556793025608 0 0 0
1107 369 1 0.5897 4.452244951870855 11.313128644334661 12.107998458579884 0 0 0
1105 369 2 -1.1794 4.483099725254433 12.242983947608876 12.33318350719124 0 0 0
1127 376 1 0.5897 5.622534851411672 7.689148734679797 14.194654653472858 0 0 0
1179 393 1 0.5897 0.23891028242155643 10.871463677262474 13.834066261375039 1 0 0
1230 410 1 0.5897 1.5289693462876965 12.347132607658134 17.13698150242307 0 0 0
1178 393 1 0.5897 0.0011701421739225282 11.727567090221873 15.059723829457528 1 0 0
1110 370 1 0.5897 2.201164392935416 6.192629818266534 15.907672341743483 0 0 0
1574 525 1 0.5897 1.8359694934136213 9.33576545548872 22.83267090147836 0 0 0
1589 530 1 0.5897 1.846455393011165 7.181162938584241 22.000998641053677 0 0 0
1580 527 1 0.5897 4.0783296157801505 8.93905041542736 18.54575709654062 0 0 0
1561 521 2 -1.1794 4.8163290792475335 7.912255966014772 21.71994900965661 0 0 0
1562 521 1 0.5897 4.567388149164461 7.156091976238009 22.25142081219247 0 0 0
1563 521 1 0.5897 4.064747939886035 8.060032377113547 21.146005142343917 0 0 0
1564 522 2 -1.1794 2.9590831922803473 7.812975583415667 19.382267989089776 0 0 0
1565 522 1 0.5897 2.003251899146509 7.8402909008386885 19.34000494805867 0 0 0
1566 522 1 0.5897 3.1995340884047323 7.036251186696506 18.87718114287346 0 0 0
1584 528 1 0.5897 1.1265088161937573 10.520710512016072 18.107110691680816 0 0 0
1570 524 2 -1.1794 3.2190739175758973 11.28827632890812 20.82514662844649 0 0 0
1571 524 1 0.5897 2.846513508512376 11.428822718965193 19.95478810607282 0 0 0
1572 524 1 0.5897 4.149813132620006 11.132151790864492 20.665454060809587 0 0 0
1588 530 2 -1.1794 1.655939366393713 6.24619873254134 22.077437055256212 0 0 0
1575 525 1 0.5897 2.278155097410948 9.601798139319389 21.409576819209498 0 0 0
1579 527 2 -1.1794 4.755022912391303 9.31117007463446 17.980280544754194 0 0 0
1581 527 1 0.5897 5.579776740181792 9.024694567227987 18.37253034897161 0 0 0
1573 525 2 -1.1794 1.9150471796236568 8.919627727923157 21.97436853117786 0 0 0
1576 526 2 -1.1794 -0.0004313392266290794 7.584352933230461 19.52937915797397 0 0 0
1582 528 2 -1.1794 1.4063564496888439 11.285721872552413 18.609769476484146 0 0 0
1583 528 1 0.5897 0.7849580740462483 11.33605246058029 19.33602394393239 0 0 0
1587 529 1 0.5897 4.613681960537486 11.136619181048687 17.807647718394442 0 0 0
1467 489 1 0.5897 5.319198293757185 6.242848861821144 18.351637031141834 0 0 0
1658 553 1 0.5897 0.13905444308629672 9.97674749919225 21.302020306932164 1 0 0
1709 570 1 0.5897 0.4854273174659629 12.315333359854444 22.174364953165615 0 0 0
1710 570 1 0.5897 1.9701377379307274 12.283317896689894 21.88062037903206 0 0 0
1567 523 2 -1.1794 6.027860276544341 10.831700718795885 20.819257992088346 0 0 0
1585 529 2 -1.1794 4.562180631609491 12.092069679277367 17.835284088024245 0 0 0
141 47 1 0.5897 4.817034461605746 9.207000108601276 22.83558412538831 0 0 -1
1608 536 1 0.5897 5.93868396484552 7.680970000135356 20.278351324476233 0 0 0
1586 529 1 0.5897 5.283571840248856 12.354870946839966 18.406824210521606 0 0 0
260 87 1 0.5897 4.4064594815144265 16.588785886769095 0.5125263502344162 0 0 0
247 83 2 -1.1794 6.082340447208548 17.165484446427108 3.5417919820187254 0 0 0
241 81 2 -1.1794 4.928158010417926 14.04779119221863 4.204963705364718 0 0 0
242 81 1 0.5897 4.7539352832470625 13.250381277810213 4.704983354326424 0 0 0
243 81 1 0.5897 4.19355806217268 14.113808244229636 3.5949473237441194 0 0 0
244 82 2 -1.1794 2.7519329353109305 14.061724251325057 2.2187201812856823 0 0 0
245 82 1 0.5897 1.795904737450342 14.108125845801512 2.22067847844105 0 0 0
246 82 1 0.5897 3.0315114711908615 14.888531441650994 1.825688038538122 0 0 0
255 85 1 0.5897 2.0907843105438917 15.536744517081846 4.8113523947518795 0 0 0
250 84 2 -1.1794 3.0586163660815107 17.184165867986593 3.645588093742157 0 0 0
251 84 1 0.5897 2.7700380842885806 17.267429093340525 2.736816254272512 0 0 0
252 84 1 0.5897 4.0012669850723155 17.347140931929914 3.613941834026277 0 0 0
253 85 2 -1.1794 1.3036350753663641 15.204357958156033 5.242702979803597 0 0 0
338 113 1 0.5897 0.14537975701096606 17.0389395074924 2.8152228339297114 1 0 0
254 85 1 0.5897 0.5823301996460646 15.664237384247851 4.813271781686592 0 0 0
740 247 1 0.5897 4.877897586334056 15.460272042296394 5.571415559500338 0 0 0
259 87 2 -1.1794 4.314065019291748 15.660582304271564 0.7274644507782942 0 0 0
264 88 1 0.5897 1.2990112814030492 17.795845609444854 0.613029049032188 0 0 0
262 88 2 -1.1794 1.149284430888404 17.022920027597102 1.157445016384042 0 0 0
263 88 1 0.5897 1.2569779576498992 16.283421440892823 0.5593181188104001 0 0 0
147 49 1 0.5897 3.7885222829627208 12.992952807669129 1.028118545930266 0 0 0
261 87 1 0.5897 4.214861124979315 15.22669195729982 -0.11988916510307515 0 0 0
269 90 1 0.5897 1.3652905455572728 13.26004297304947 4.992410612196828 0 0 0
288 96 1 0.5897 6.00189468407683 14.877200568233018 1.2474259508406504 0 0 0
146 49 1 0.5897 5.297640167174599 12.890724390956214 0.9662316866268756 0 0 0
339 113 1 0.5897 -0.06264035902524745 18.190782652476592 3.7753265816655435 1 0 0
145 49 2 -1.1794 4.496868708948528 12.431652963651675 0.7128561904152393 0 0 0
265 89 2 -1.1794 4.214050409361891 18.407064425682464 0.3923505288662994 0 0 0
745 249 2 -1.1794 4.756421533403604 18.552841300729412 6.3733095156235455 0 0 0
721 241 2 -1.1794 4.249861202980265 13.748496797196344 10.100726763957988 0 0 0
722 241 1 0.5897 3.7341314740320164 13.883262764823101 9.305773127267049 0 0 0
741 247 1 0.5897 4.760867854620214 16.581995081604198 6.581284340530615 0 0 0
724 242 2 -1.1794 2.9317324181909075 14.061552840991727 7.666381735530184 0 0 0
725 242 1 0.5897 3.4439643450082884 14.690421079924675 7.158111719858985 0 0 0
726 242 1 0.5897 3.2142502006063416 13.205606918741287 7.344196379884116 0 0 0
870 290 1 0.5897 2.046075033365986 18.224959491587285 10.466813615219673 0 0 0
728 243 1 0.5897 5.079105929460448 17.07221431249662 9.063442291665428 0 0 0
730 244 2 -1.1794 3.22060195491661 17.066158175601906 9.179369817022376 0 0 0
749 250 1 0.5897 1.9192050217479633 13.464831279573442 10.224167746795871 0 0 0
732 244 1 0.5897 2.5701910153513947 16.5102405058322 9.60846423087502 0 0 0
733 245 2 -1.1794 1.5215849053837023 15.35911577438847 10.555999424381625 0 0 0
818 273 1 0.5897 0.011406278330011385 17.22892043587892 8.387510304061998 1 0 0
723 241 1 0.5897 5.137764229099804 14.011075483549952 9.858162135457027 0 0 0
737 246 1 0.5897 1.098182897326269 14.203171820492516 7.7983744502806935 0 0 0
727 243 2 -1.1794 6.000653540181105 17.09116057931601 9.321378669945608 0 0 0
731 244 1 0.5897 2.8223865853793337 17.297625166378133 8.34035949501686 0 0 0
742 248 2 -1.1794 1.3399642551232447 17.103603535683874 7.072766388340162 0 0 0
739 247 2 -1.1794 4.760996389954 15.627684997902472 6.506495425852287 0 0 0
744 248 1 0.5897 1.438784880850626 16.28504373477402 6.5865233546833775 0 0 0
743 248 1 0.5897 1.4780260130352667 17.78922266066394 6.419273723676821 0 0 0
735 245 1 0.5897 0.630088817176158 15.43810910865743 10.216688935006795 0 0 0
736 246 2 -1.1794 0.20402368723721376 13.877265228876114 7.69617842560722 0 0 0
748 250 2 -1.1794 1.543764762740491 12.610261410820609 10.436365507503513 0 0 0
869 290 1 0.5897 0.5527783623596243 18.281895743016563 10.224934263077028 0 0 0
627 209 1 0.5897 5.319478955181961 12.686731016329773 6.78351323563505 0 0 0
750 250 1 0.5897 1.6544504771511808 12.528030943274075 11.383494737635218 0 0 0
1221 407 1 0.5897 4.218682511474009 15.391731611951696 11.303747566116176 0 0 0
1213 405 2 -1.1794 1.3311719628688494 15.336691433802184 16.443103601548934 0 0 0
1201 401 2 -1.1794 4.719908285064527 14.045113296004365 15.783832746094115 0 0 0
1248 416 1 0.5897 5.908457493526265 13.068962698246258 13.104253522139572 0 0 0
1227 409 1 0.5897 4.2781740468968925 17.586567455030462 12.44182420942294 0 0 0
1204 402 2 -1.1794 2.8488191621883763 14.060741881584454 13.690197533859354 0 0 0
1205 402 1 0.5897 3.308008679228631 14.176018755426009 14.522031814553559 0 0 0
1206 402 1 0.5897 3.3641050815028226 13.404923215423395 13.220519891850486 0 0 0
1215 405 1 0.5897 2.007530811348397 15.741267641675636 15.89995542279671 0 0 0
1210 404 2 -1.1794 3.2267177416950963 16.90557636644349 14.973835202922029 0 0 0
1211 404 1 0.5897 2.883025008313811 17.770060780070146 15.199251311337921 0 0 0
1212 404 1 0.5897 4.154369257595886 16.948210673597956 15.205776946615561 0 0 0
1214 405 1 0.5897 0.5442922629019545 15.853904869406433 16.271341896339464 0 0 0
1219 407 2 -1.1794 4.409502726022785 15.750366564085043 12.170398763318559 0 0 0
1229 410 1 0.5897 1.2991654340129617 13.582391911835126 16.292460902497062 0 0 0
1202 401 1 0.5897 5.338655985245904 13.925528458791337 15.063444874575382 0 0 0
1218 406 1 0.5897 1.028942358889923 14.276112984826618 13.719850351597271 0 0 0
1203 401 1 0.5897 4.911386474567291 13.326434883483225 16.386363685802067 0 0 0
1220 407 1 0.5897 3.766626003758473 15.338223912685557 12.747451852727218 0 0 0
1222 408 2 -1.1794 1.17136424620633 16.890566035801562 12.926449645389557 0 0 0
1223 408 1 0.5897 1.1806596818131339 17.648373516103476 12.341766258951893 0 0 0
1224 408 1 0.5897 1.9797900730291471 16.968364757811095 13.432925989240637 0 0 0
1228 410 2 -1.1794 1.4299061086456855 12.636190265095307 16.229942172315788 0 0 0
1700 567 1 0.5897 4.5399283840543 15.362100719042646 17.08846920402076 0 0 0
1207 403 2 -1.1794 5.983110133319479 17.279568440905706 15.106865185446068 0 0 0
734 245 1 0.5897 1.4476765009852435 15.59233281926686 11.48132561284052 0 0 0
1216 406 2 -1.1794 0.12022458405106073 14.063152508590576 13.507647034858444 0 0 0
1247 416 1 0.5897 5.896427871908669 14.576353545666201 13.244616866607283 0 0 0
1106 369 1 0.5897 4.289406852068182 12.6953407459168 11.512223329949583 0 0 0
1225 409 2 -1.1794 4.201479598639207 18.530554442244856 12.302892762646453 0 0 0
1350 450 1 0.5897 0.7454919420080076 18.397515512085775 15.845789556148878 0 0 0
1697 566 1 0.5897 1.018012778755144 13.91662479434267 19.217524094066157 0 0 0
1696 566 2 -1.1794 0.06448465961479569 13.835111648881659 19.199996009971514 0 0 0
1681 561 2 -1.1794 4.386537055988008 14.139098917056403 21.464499331351476 0 0 0
1707 569 1 0.5897 4.381880374364252 17.908391560496078 17.887121150416675 0 0 0
1683 561 1 0.5897 4.447714744997231 13.508974521275192 22.182391004963797 0 0 0
1684 562 2 -1.1794 2.814878068685246 13.936832852562842 19.11340600221518 0 0 0
1778 593 1 0.5897 0.4116986147967834 17.109240910614787 19.966706302078812 1 0 0
1686 562 1 0.5897 3.0657193857118266 14.064316058584817 20.02823044165418 0 0 0
1693 565 2 -1.1794 1.6946968514808831 15.491724535513205 22.11107098811207 0 0 0
1689 563 1 0.5897 5.075933978339559 17.400779440692183 20.715993097406553 0 0 0
1690 564 2 -1.1794 3.3111249638391302 17.50990443971633 20.730268025999344 0 0 0
1691 564 1 0.5897 3.0746049328195433 16.725778467675582 21.225678843650854 0 0 0
1692 564 1 0.5897 2.839739660226099 17.421629054587463 19.90196161839099 0 0 0
1699 567 2 -1.1794 4.398968601626447 15.810499541466722 17.922255287311124 0 0 0
1685 562 1 0.5897 3.4487621047529515 13.303501968655338 18.776802950961994 0 0 0
1682 561 1 0.5897 5.095457905559642 13.894674422818015 20.86967798253996 0 0 0
1728 576 1 0.5897 5.952564052863027 14.585988650470565 18.8482522870081 0 0 0
1694 565 1 0.5897 1.0384922879020264 15.852261349951569 21.51479795708098 0 0 0
1779 593 1 0.5897 0.13141418873989652 17.668959784980437 21.345005495575414 1 0 0
1701 567 1 0.5897 3.842233393922872 15.214948125307332 18.42380141255503 0 0 0
1702 568 2 -1.1794 1.4816389555544662 17.07355610859596 18.529115108205758 0 0 0
1703 568 1 0.5897 1.4627116510792177 16.276122359986303 17.99999347956411 0 0 0
1704 568 1 0.5897 1.3630634480369954 17.783348940660446 17.89797420083771 0 0 0
1695 565 1 0.5897 1.4529110019959552 14.570341031389066 22.20534126695044 0 0 0
1687 563 2 -1.1794 6.024304847362543 17.271368807914676 20.715893519325327 0 0 0
1708 570 2 -1.1794 1.318406503862972 12.7039087784314 22.441421065099448 0 0 0
380 127 1 0.5897 4.640022107800217 22.928451754680104 0.7703803706061425 0 0 0
363 121 1 0.5897 4.292370119845936 20.55461412363963 4.736631351870393 0 0 0
361 121 2 -1.1794 4.507070824748098 19.937379627232588 4.037278316105477 0 0 0
362 121 1 0.5897 3.8101620965481517 20.054359164218404 3.391717581484994 0 0 0
384 128 1 0.5897 1.2608471205887442 22.998579386996326 0.30957290626067296 0 0 0
364 122 2 -1.1794 2.811328842479564 20.318631953678647 2.097553366591935 0 0 0
365 122 1 0.5897 3.19697643527415 20.947504077008816 1.4876570719256752 0 0 0
390 130 1 0.5897 1.3081722918931737 19.854144047058384 4.8530525393736275 0 0 0
366 122 1 0.5897 1.8733903525340494 20.34528584778881 1.9085896639601634 0 0 0
370 124 2 -1.1794 3.108361536989176 23.431175143353556 3.019791123298854 0 0 0
371 124 1 0.5897 4.04966133755278 23.366865502729972 3.180927957945397 0 0 0
372 124 1 0.5897 2.744034801366163 22.63396426893258 3.4044477978347882 0 0 0
381 127 1 0.5897 5.323669274757922 21.603712886231413 1.0343790955217906 0 0 0
376 126 2 -1.1794 0.1286438245197371 20.08318360081276 2.353327368254126 0 0 0
379 127 2 -1.1794 4.503875967028868 21.98244536608719 0.717090725904877 0 0 0
388 130 2 -1.1794 1.3865619271461218 18.925709656649246 5.072499650154572 0 0 0
375 125 1 0.5897 0.7203809085623958 22.070351466444883 3.9841927641979 0 0 0
30 10 1 0.5897 1.5640795144727555 24.67128377761543 5.493585094069318 0 -1 0
382 128 2 -1.1794 1.1942627753076627 23.52405338548847 1.1068122424315425 0 0 0
383 128 1 0.5897 2.0707992756126514 23.49100865876094 1.4898649757041438 0 0 0