LAMMPS data file via write_data, version 30 Jul 2021, timestep = 4500000

864 atoms
2 atom types
576 bonds
1 bond types
288 angles
1 angle types

0.0943504150310801 18.113221984969833 xlo xhi
0.11634099815300303 23.5128368018449 ylo yhi
0.0815154448286659 22.13168035516584 zlo zhi

Masses

1 1.00794
2 15.9994

Atoms # full

707 1 1 0.5897 2.879498107424957 1.916678456141064 3.9634272993561437 0 0 0
706 1 2 -1.1794 2.9447804988123556 1.9726685812527114 3.010106686249328 0 0 0
30 1 1 0.5897 5.164956528363451 3.957303371124715 2.468320558451667 0 0 0
708 1 1 0.5897 2.1726216608606626 2.472966665636997 2.745692902976444 0 0 0
29 1 1 0.5897 4.502374213805045 2.596578255376032 2.4289526952880713 0 0 0
28 1 2 -1.1794 5.2247832060252515 3.098048092631095 2.0507392228597787 0 0 0
1 1 2 -1.1794 0.5280133239226175 3.2150322437498478 2.218788316212807 0 0 0
188 1 1 0.5897 2.8959720891472105 0.22123515931957072 2.4349115493971585 0 1 0
495 1 1 0.5897 8.467352184390563 2.1726248102512407 2.6983697456195905 0 0 0
494 1 1 0.5897 7.022491323325656 2.6089298740690072 2.57838299761019 0 0 0
493 1 2 -1.1794 7.576923194917342 1.9175397588966228 2.9402144599063 0 0 0
136 1 2 -1.1794 5.295204442861339 5.680758755239011 2.93123239528702 0 0 0
846 1 1 0.5897 7.309312158517434 1.7331405258118098 4.779191170103878 0 0 0
3 1 1 0.5897 0.709260638907949 4.143725771391296 2.3635963458998854 0 0 0
20 1 1 0.5897 0.26959240889826275 2.636126096434324 0.4124837627993383 0 0 0
137 1 1 0.5897 5.238950775691242 5.83359510280502 3.8744657468381667 0 0 0
597 1 1 0.5897 0.6004053569922021 5.821494213826123 3.9514408418374876 0 0 0
595 1 2 -1.1794 0.7000540844671727 5.9150677372856615 3.0040575498026705 0 0 0
685 1 2 -1.1794 5.332565363170052 5.636682603570117 5.551001151838054 0 0 0
668 1 1 0.5897 4.874390077402393 3.076902337249577 0.25599643087836943 0 0 0
819 1 1 0.5897 7.553773221303329 0.282221642154294 2.469349146729187 0 0 0
84 1 1 0.5897 5.831018669714699 2.6190148103745727 6.607123507760541 0 0 0
673 1 2 -1.1794 2.989218732263568 1.798948491388929 10.552333171349684 0 0 0
355 1 2 -1.1794 7.730324423705723 1.9849970713130267 10.350619994632467 0 0 0
419 1 1 0.5897 8.93719421848731 2.6348393330371596 6.098474591372422 0 0 0
35 1 1 0.5897 0.4000535851688032 3.435916987377919 10.14745357393782 0 0 0
489 1 1 0.5897 3.1632564353560526 0.9123275961167369 6.167094967160867 0 0 0
82 1 2 -1.1794 5.099428094244217 3.2039476057553857 6.804665661773866 0 0 0
675 1 1 0.5897 2.8659170510113134 0.982500565771289 10.068112290371888 0 0 0
676 1 2 -1.1794 5.32797459319739 5.688793886633282 10.34647785100742 0 0 0
356 1 1 0.5897 7.572661636059477 1.0467947836594682 10.244789427871407 0 0 0
34 1 2 -1.1794 0.561923339008672 2.5345344168854687 9.868911388916741 0 0 0
274 1 2 -1.1794 5.380306169310539 2.960576683700567 9.540620099018742 0 0 0
678 1 1 0.5897 5.521379809503743 4.905926218117947 9.830747404229536 0 0 0
845 1 1 0.5897 7.406152349381919 0.796372707715147 5.964522454420606 0 0 0
36 1 1 0.5897 1.5000320550393513 2.4048686662304504 10.008843162610235 0 0 0
784 1 2 -1.1794 0.880419702925542 2.7858931599958523 7.097891933868993 0 0 0
674 1 1 0.5897 3.7569325688661617 2.203881742513035 10.148574523642388 0 0 0
686 1 1 0.5897 5.364154793491051 4.739801250076125 5.883999411530168 0 0 0
276 1 1 0.5897 6.130390192675959 2.571228690428736 9.99025289858555 0 0 0
785 1 1 0.5897 0.7954698037420216 2.5274320558667482 8.01560441413916 0 0 0
275 1 1 0.5897 5.615969194641173 2.933544864486234 8.613275435196345 0 0 0
83 1 1 0.5897 4.324276665075895 2.7281913574451493 6.506019271941155 0 0 0
112 1 2 -1.1794 0.7967551307207681 5.47015964459324 10.118670173041304 0 0 0
181 1 2 -1.1794 0.5932224148689924 5.580017267992916 5.762732269622759 0 0 0
488 1 1 0.5897 2.350361342477189 2.167799207627908 6.401901820767422 0 0 0
844 1 2 -1.1794 7.276048144508818 1.7166902457497657 5.735666373657584 0 0 0
183 1 1 0.5897 0.642657779381461 4.761793829422757 6.25702459724405 0 0 0
113 1 1 0.5897 0.801042255476208 5.489497247261378 11.075655539632063 0 0 0
487 1 2 -1.1794 3.132574699354502 1.8450920316187225 5.954268015775852 0 0 0
114 1 1 0.5897 1.5984144155424356 5.928200418779187 9.865787480974143 0 0 0
166 1 2 -1.1794 2.952601242420415 1.7644680199756009 13.276156815482699 0 0 0
167 1 1 0.5897 3.2068883869643745 1.7319510860810494 12.353931906846189 0 0 0
457 1 2 -1.1794 5.1384712123954115 3.30367779346467 13.982449482541352 0 0 0
458 1 1 0.5897 5.889213606075976 2.837022326440028 13.615028935008713 0 0 0
459 1 1 0.5897 4.405478330193129 2.696239746878925 13.881769187849779 0 0 0
762 1 1 0.5897 5.256150419077405 4.900434832310117 13.443549139629797 0 0 0
594 1 1 0.5897 8.29010129887897 2.311911540957731 13.452386161235463 0 0 0
168 1 1 0.5897 2.1421727044739582 2.2739221933487017 13.283870072106648 0 0 0
365 1 1 0.5897 0.7374775992269552 4.912237807960024 13.33650103952562 0 0 0
592 1 2 -1.1794 7.450723564863913 1.9261942666110254 13.201258619418889 0 0 0
71 1 1 0.5897 5.241042668231531 3.099690347815114 16.001052220183873 0 0 0
466 1 2 -1.1794 0.40466506866595603 3.4411587110633137 14.235742092147254 0 0 0
593 1 1 0.5897 7.506596048404198 1.0171754213013195 13.495933499089745 0 0 0
468 1 1 0.5897 0.34371380940019736 3.5215957980573456 15.187592711077247 0 0 0
364 1 2 -1.1794 0.7403910659149563 5.7472441588216965 12.868510962988776 0 0 0
760 1 2 -1.1794 5.259933125952788 5.787165171419794 13.083016522366181 0 0 0
761 1 1 0.5897 5.031644054739104 5.67213528949977 12.160586564835997 0 0 0
357 1 1 0.5897 7.771042533648836 2.116153537247972 11.297910110213428 0 0 0
737 1 1 0.5897 2.719825486584772 0.19398032470593307 14.044481594475089 0 1 0
19 1 2 -1.1794 0.27680498569888135 2.7089980154758844 21.50826911335986 0 0 0
40 1 2 -1.1794 7.192493850629203 1.8844526818731717 20.430956718320594 0 0 0
667 1 2 -1.1794 4.881810418925032 2.948245505795377 21.357690026129013 0 0 0
755 1 1 0.5897 7.715672897659652 2.0230004706228404 18.797340656123566 0 0 0
754 1 2 -1.1794 7.780745931652889 1.8823293674551174 17.85278641135924 0 0 0
72 1 1 0.5897 4.669828559856232 2.8754005312038697 17.38501822397526 0 0 0
289 1 2 -1.1794 2.9731096354555215 2.3077037066937076 17.86456560550026 0 0 0
291 1 1 0.5897 2.1456916340834313 2.5818215631070536 17.46878600730495 0 0 0
143 1 1 0.5897 4.725959130006534 4.7681890151847695 20.71100906562834 0 0 0
569 1 1 0.5897 1.7459075193764122 2.143854063077966 20.692921364313804 0 0 0
21 1 1 0.5897 0.33641942261088664 3.6494014987827077 21.339832023013372 0 0 0
570 1 1 0.5897 2.7121951101313146 1.9672085592961688 19.54090180170259 0 0 0
278 1 1 0.5897 5.1405499305443545 5.030172771272594 17.33282590759041 0 0 0
669 1 1 0.5897 4.045304791175925 2.523840491303374 21.166519426823342 0 0 0
756 1 1 0.5897 7.028771558650069 2.349305114078896 17.488257242712713 0 0 0
290 1 1 0.5897 3.1964701540777236 1.4931779915874246 17.414024236113363 0 0 0
568 1 2 -1.1794 2.6179954286237863 1.811031932081387 20.48055042500586 0 0 0
41 1 1 0.5897 6.491534760195913 2.3377302986170365 20.899520866756006 0 0 0
134 1 1 0.5897 0.46232724243049245 4.344542996728535 17.553907124054383 0 0 0
277 1 2 -1.1794 5.03597955874013 5.869629282298113 17.780770971813745 0 0 0
360 1 1 0.5897 8.75877915619827 2.784015679694753 20.76951405123401 0 0 0
42 1 1 0.5897 7.292666510962951 1.0530807797045467 20.89470141759937 0 0 0
648 1 1 0.5897 0.4121142077803345 5.732110628357643 19.76937070402674 0 0 0
142 1 2 -1.1794 4.79485805977376 5.702615173902565 20.51508556015004 0 0 0
70 1 2 -1.1794 5.481207105692144 3.096420196153657 16.927641563136973 0 0 0
646 1 2 -1.1794 0.6213218287813982 5.415541678483355 20.64814648258539 0 0 0
144 1 1 0.5897 4.866987498513993 5.74318262492076 19.56148323340306 0 0 0
133 1 2 -1.1794 0.5757479574517099 3.5348779055167783 17.05606694715857 0 0 0
323 1 1 0.5897 7.739759049558294 0.18220420831612216 17.02149721181175 0 1 0
396 1 1 0.5897 0.7026021134499639 10.970948096770984 0.37624631884658133 0 0 0
123 1 1 0.5897 3.285588475853419 8.874521865498844 3.024426406559664 0 0 0
121 1 2 -1.1794 3.271829842116853 9.77567771933635 3.3469164278310086 0 0 0
122 1 1 0.5897 3.351398121420376 9.691734511107644 4.29711444035237 0 0 0
44 1 1 0.5897 1.885079086937817 10.416313783881717 2.593954341723403 0 0 0
218 1 1 0.5897 5.97967006517709 10.945371777024057 1.7263253513127488 0 0 0
773 1 1 0.5897 8.878874305608125 10.335690087523226 2.454895891904917 0 0 0
219 1 1 0.5897 4.534515742346069 10.49554927001546 1.766390027721924 0 0 0
255 1 1 0.5897 2.2947780566303124 6.807521914046185 2.6151248961485636 0 0 0
417 1 1 0.5897 7.833884317731984 6.725939538746648 2.3610483673330367 0 0 0
254 1 1 0.5897 2.724584436060154 7.449274614992976 1.3130774749709637 0 0 0
415 1 2 -1.1794 7.256472967544281 7.409675425116223 2.021227384613669 0 0 0
217 1 2 -1.1794 5.0878890512463215 11.246662400249646 1.552016688326977 0 0 0
66 1 1 0.5897 7.263304136431995 9.978316794860902 3.7961599488588464 0 0 0
65 1 1 0.5897 7.229818181050201 9.063374068335328 2.5904873736488856 0 0 0
64 1 2 -1.1794 7.268882005925711 9.986954040873536 2.8390243701690627 0 0 0
253 1 2 -1.1794 3.0442893334847367 7.220076748039245 2.185712275558605 0 0 0
43 1 2 -1.1794 1.0999066767547998 10.693331395263034 2.121573685350351 0 0 0
416 1 1 0.5897 6.378527901140554 7.032167775608722 2.077126303980486 0 0 0
45 1 1 0.5897 1.0566160706155059 11.639247313381588 2.261866741139429 0 0 0
138 1 1 0.5897 4.522730028697753 6.116560533690405 2.571029735235979 0 0 0
162 1 1 0.5897 7.234068039115034 7.495906821404106 0.2848500089473732 0 0 1
712 1 2 -1.1794 7.424382552184525 9.828255579290312 5.442351138684676 0 0 0
794 1 1 0.5897 2.2890615177977116 9.92280717554318 6.39969513643521 0 0 0
677 1 1 0.5897 6.074954044199926 6.267575684693879 10.193432463411334 0 0 0
10 1 2 -1.1794 3.0878608817690796 6.820576432959082 6.522823322180027 0 0 0
526 1 2 -1.1794 7.445462010868731 7.048835302759005 9.339879814046059 0 0 0
145 1 2 -1.1794 7.334070237623842 7.2472458096661345 6.609536025801892 0 0 0
578 1 1 0.5897 6.0168987130967135 10.640365391270242 6.44760185037573 0 0 0
687 1 1 0.5897 4.5074443006682445 5.988078996637817 5.885812156317727 0 0 0
822 1 1 0.5897 8.668866105917578 10.15733025859487 9.847432706895189 0 0 0
580 1 2 -1.1794 5.477151197762438 10.806020274428093 9.562116188198049 0 0 0
795 1 1 0.5897 3.777259300229432 10.078583869349924 6.630896900170039 0 0 0
650 1 1 0.5897 3.107653482426654 6.925216515054193 8.40375801868828 0 0 0
820 1 2 -1.1794 7.910403555088957 9.657904795980164 10.150223311974763 0 0 0
527 1 1 0.5897 7.682101677826537 7.956677111619599 9.52990974832158 0 0 0
15 1 1 0.5897 1.5186366224387517 10.783020810534618 9.800032798629463 0 0 0
256 1 2 -1.1794 2.9974674292444248 9.904915017975645 10.53566122135623 0 0 0
581 1 1 0.5897 6.3200778717077295 10.378462993883758 9.714046278237834 0 0 0
147 1 1 0.5897 7.314597610152041 7.066894302229984 7.5493768988341365 0 0 0
11 1 1 0.5897 2.1740765545286114 6.5705332359148505 6.385342266069133 0 0 0
649 1 2 -1.1794 3.1968687866078147 7.03091511906121 9.350908354309901 0 0 0
577 1 2 -1.1794 5.28825121119608 11.00450447817386 6.9504279995956635 0 0 0
12 1 1 0.5897 3.0880975169359526 7.775457429222581 6.455540468825765 0 0 0
258 1 1 0.5897 3.800714599332745 10.20694734351079 10.111445790458399 0 0 0
551 1 1 0.5897 0.7887701884977628 11.0532720862077 7.61061305763557 0 0 0
257 1 1 0.5897 2.8592887450983815 9.02373450226763 10.18824023355006 0 0 0
651 1 1 0.5897 3.9678755059407957 6.5113096888685975 9.578818014860323 0 0 0
714 1 1 0.5897 7.363837002990785 8.968932907201761 5.859678413699999 0 0 0
146 1 1 0.5897 6.602785176806412 6.742668615628786 6.253149223478984 0 0 0
528 1 1 0.5897 8.16844200888001 6.532692274145324 9.696615619992443 0 0 0
550 1 2 -1.1794 0.7544190796321506 10.731882088153336 6.709632071939646 0 0 0
582 1 1 0.5897 5.390649737064721 10.834206004993861 8.60926444358188 0 0 0
713 1 1 0.5897 8.20892344400574 10.224534886388017 5.8216236913412684 0 0 0
13 1 2 -1.1794 0.667726994550258 11.038485825254233 9.443518347604412 0 0 0
793 1 2 -1.1794 3.119331555058938 9.451299535029227 6.3308603372810595 0 0 0
165 1 1 0.5897 8.720531201308546 6.351912798844969 5.956978123252063 0 0 0
552 1 1 0.5897 0.7247168554520901 11.524128768981079 6.173219517307235 0 0 0
821 1 1 0.5897 8.006085430636812 9.62985974621432 11.10222569458543 0 0 0
828 1 1 0.5897 7.321433420276549 7.208281961926442 14.792694700425583 0 0 0
261 1 1 0.5897 0.7708075551322806 11.401206945592437 14.850756952593462 0 0 0
332 1 1 0.5897 3.1319358116407345 7.833714916086412 13.76086032770429 0 0 0
797 1 1 0.5897 3.1765052050005482 9.579607343116892 12.385885865288433 0 0 0
796 1 2 -1.1794 3.391918541252713 9.621740743164434 13.317587748694455 0 0 0
798 1 1 0.5897 2.694582387185021 10.15362949171528 13.701253957812993 0 0 0
722 1 1 0.5897 4.888977023597358 10.372631012966066 13.912647615406392 0 0 0
225 1 1 0.5897 2.6598506397496857 7.152322897333825 16.053758686221286 0 0 0
259 1 2 -1.1794 1.0726656437145083 11.072516880546626 14.00394268320875 0 0 0
333 1 1 0.5897 3.905458108061504 6.534872743940566 13.843350577861548 0 0 0
723 1 1 0.5897 5.733033882878791 11.14930955462 14.900778888392086 0 0 0
331 1 2 -1.1794 3.0749212660663052 6.938693471035848 14.095472208685964 0 0 0
827 1 1 0.5897 6.641576902389806 6.831161586244008 13.493642072914243 0 0 0
826 1 2 -1.1794 7.426073678241788 7.254638176745274 13.842376030344644 0 0 0
475 1 2 -1.1794 7.896062913528889 9.696239531027706 12.82883726049272 0 0 0
476 1 1 0.5897 7.108586111779033 10.144272344647119 13.137940806376609 0 0 0
477 1 1 0.5897 7.772991974981622 8.784599792046134 13.093506800380169 0 0 0
721 1 2 -1.1794 5.614889157163008 10.99459030824252 13.963593896150517 0 0 0
366 1 1 0.5897 1.4811445475365226 6.227362758599667 13.23885613701973 0 0 0
260 1 1 0.5897 0.3776017700192494 10.481379152676014 13.714432101709738 0 0 0
851 1 1 0.5897 8.826225162189122 6.223106303968592 13.067903806980194 0 0 0
445 1 2 -1.1794 0.34445909249038686 11.572907637703784 16.476237328174015 0 0 0
647 1 1 0.5897 1.2169073494176725 6.074453569579666 21.0051372371164 0 0 0
394 1 2 -1.1794 0.6739869651925176 11.146193747932795 21.485795281054443 0 0 0
7 1 2 -1.1794 7.5621017910843715 9.732290692966144 17.33986019790931 0 0 0
139 1 2 -1.1794 7.535618871590861 9.803284617664785 20.03416171097924 0 0 0
627 1 1 0.5897 1.8502957664732755 10.279798585951935 17.193827716772546 0 0 0
361 1 2 -1.1794 5.1462789956075135 11.213223794738653 20.821163084741308 0 0 0
141 1 1 0.5897 7.364402949390082 8.921429634704554 20.364776242653974 0 0 0
462 1 1 0.5897 8.592259719394004 6.592593438311528 21.012603994500594 0 0 0
4 1 2 -1.1794 2.6755188645090042 7.2168163619650265 21.397763747056814 0 0 0
572 1 1 0.5897 1.1216054809011515 6.49429793729286 17.660798210456882 0 0 0
690 1 1 0.5897 2.3503384681642903 10.300803054676454 20.952893245502615 0 0 0
625 1 2 -1.1794 2.728613472578303 10.029589189504238 17.480858570882376 0 0 0
688 1 2 -1.1794 2.851087651236339 9.880623508810377 20.253614360076305 0 0 0
140 1 1 0.5897 6.7608631393890155 10.307481833142853 20.282993988995308 0 0 0
522 1 1 0.5897 7.313548575223728 7.89484341564502 17.150286105754248 0 0 0
689 1 1 0.5897 3.6988206127965517 10.325185545797842 20.26493074586147 0 0 0
223 1 2 -1.1794 2.6024610279091234 7.23024601478729 17.006039492174857 0 0 0
626 1 1 0.5897 2.704615590198581 10.120048559985246 18.43345992463422 0 0 0
161 1 1 0.5897 6.389017442345484 6.8722286091050435 21.244596153072976 0 0 0
6 1 1 0.5897 2.9268937394755685 8.036065985936258 20.971213337842492 0 0 0
224 1 1 0.5897 2.631324238246453 8.172549364356698 17.171900202902478 0 0 0
8 1 1 0.5897 7.689798797698321 9.817566880992306 18.28465378042432 0 0 0
520 1 2 -1.1794 7.218188058270612 7.028589337632625 16.754330329320005 0 0 0
5 1 1 0.5897 3.3714306986191076 6.60191580589955 21.165438588016677 0 0 0
680 1 1 0.5897 4.407740682007014 11.080084469336644 16.98686304121199 0 0 0
160 1 2 -1.1794 7.122528784203401 7.471163842047342 21.384630664361964 0 0 0
9 1 1 0.5897 6.83841761529944 10.326478582535417 17.140886739721708 0 0 0
711 1 1 0.5897 8.752832022201495 6.0990957672371335 17.63987463048209 0 0 0
521 1 1 0.5897 6.428878958765594 6.666236747400598 17.156911987599806 0 0 0
279 1 1 0.5897 4.128857993847767 6.122297212376373 17.608401844683513 0 0 0
246 1 1 0.5897 8.977492505285456 10.629946026040184 16.68266473851292 0 0 0
287 1 1 0.5897 8.902278558307033 10.505833379503713 21.110414486934793 0 0 0
571 1 2 -1.1794 0.3728406753756776 6.1830396034328015 18.169547453681126 0 0 0
363 1 1 0.5897 5.121253393491953 11.284222320065865 21.775383905770642 0 0 0
679 1 2 -1.1794 5.232279168996432 11.442043755617432 16.662037476575314 0 0 0
375 1 1 0.5897 0.17067771823118605 13.972408980222877 2.48925312326413 0 0 0
173 1 1 0.5897 4.477653072369393 14.169557498144423 2.7163659079608324 0 0 0
172 1 2 -1.1794 5.1659890688106875 13.619565846879919 3.090648104156264 0 0 0
293 1 1 0.5897 2.9896809384669933 16.851761957709662 2.4068178112455327 0 0 0
558 1 1 0.5897 3.3494192811301535 15.106429924364834 0.9516606158161685 0 0 0
556 1 2 -1.1794 3.1037109387842796 15.198126528604105 1.8722410393815 0 0 0
557 1 1 0.5897 2.5297927396011834 14.451250656823241 2.0430156854840433 0 0 0
478 1 2 -1.1794 7.495768370249847 14.906361737825849 2.167723004137406 0 0 0
200 1 1 0.5897 5.246455773858989 13.650321464344415 4.86540447874144 0 0 0
174 1 1 0.5897 5.090574592520726 12.788424692971603 2.6218094510183025 0 0 0
479 1 1 0.5897 8.337973892703843 14.619663532925406 2.5211677309987635 0 0 0
449 1 1 0.5897 7.764798752554327 17.03286760948261 2.363444123667318 0 0 0
480 1 1 0.5897 6.844848978310207 14.509577048318453 2.746700996802583 0 0 0
374 1 1 0.5897 0.8220722184433891 13.357567284276781 3.7097901546967256 0 0 0
373 1 2 -1.1794 0.9424391224559465 13.47939715512214 2.768027160065873 0 0 0
307 1 2 -1.1794 7.535627240558424 17.432049929586125 5.478746274513638 0 0 0
294 1 1 0.5897 3.0576596298759515 17.595005401017787 3.7239666795695503 0 0 0
317 1 1 0.5897 7.499385487484927 14.849425340671418 0.22927185162730232 0 0 0
308 1 1 0.5897 7.623808929540984 17.526044017404597 4.530277385937517 0 0 0
655 1 2 -1.1794 0.539731538548769 13.252543867280822 5.389650984271245 0 0 0
238 1 2 -1.1794 2.816220327257336 17.083535428984693 5.471875879897466 0 0 0
456 1 1 0.5897 5.137686045478473 12.564881887535954 10.049081808387763 0 0 0
186 1 1 0.5897 6.985143768903297 16.1106990166751 10.099783736298635 0 0 0
240 1 1 0.5897 3.668820607353572 17.248251920344977 5.874786944402546 0 0 0
454 1 2 -1.1794 4.970141597887772 13.506103394557895 10.097557502965872 0 0 0
811 1 2 -1.1794 2.928571767577428 15.044960485456528 9.037551449735993 0 0 0
579 1 1 0.5897 5.18927160239615 11.896621733130337 6.617862552030369 0 0 0
813 1 1 0.5897 2.1313802042656107 14.590543086388843 9.310283747633072 0 0 0
17 1 1 0.5897 2.7481281133726947 14.739937413673239 7.340450690812466 0 0 0
384 1 1 0.5897 2.8526704478036216 16.505915304661805 10.040761194057206 0 0 0
377 1 1 0.5897 6.70527884150463 13.919876699327174 9.44086986825524 0 0 0
376 1 2 -1.1794 7.54787407224822 14.365476194024403 9.351976570742295 0 0 0
766 1 2 -1.1794 0.5792615821749908 13.752715870607197 9.90372017083429 0 0 0
519 1 1 0.5897 8.428282461308427 14.526960589745634 6.116784818986876 0 0 0
812 1 1 0.5897 3.641441027690726 14.487030569033381 9.348908229088378 0 0 0
201 1 1 0.5897 5.948714468337796 14.150940394630878 6.10967912638095 0 0 0
18 1 1 0.5897 3.549336890219293 14.402997380616066 6.100880643214701 0 0 0
16 1 2 -1.1794 2.6520996383465096 14.516904796081198 6.414577301950262 0 0 0
517 1 2 -1.1794 7.723525018635722 15.03143294055349 6.523205628740257 0 0 0
518 1 1 0.5897 7.744439590364956 15.877047315154284 6.07510186661846 0 0 0
378 1 1 0.5897 7.647959668753162 14.50388510312513 8.410146453435793 0 0 0
239 1 1 0.5897 2.5286909687520747 16.252397227446096 5.849790147579187 0 0 0
656 1 1 0.5897 1.2137335902228603 13.611001661034779 5.967200129539468 0 0 0
184 1 2 -1.1794 6.897834160367408 17.05452328870869 10.233450187008964 0 0 0
382 1 2 -1.1794 2.978947921591734 17.376739936112912 10.417573859703287 0 0 0
199 1 2 -1.1794 5.220094207824213 13.601267990657288 5.820973027944745 0 0 0
14 1 1 0.5897 0.6468191721909325 11.99141108968911 9.531835774677464 0 0 0
767 1 1 0.5897 0.4679627102108715 13.751742672168977 10.854413743031081 0 0 0
185 1 1 0.5897 7.669134724849659 17.429503361800407 9.808177276805399 0 0 0
455 1 1 0.5897 4.923772985147178 13.693628164831473 11.035048795819037 0 0 0
429 1 1 0.5897 6.0948103678395595 13.949452581327177 13.15536237775399 0 0 0
232 1 2 -1.1794 2.9391063703458276 15.003252967860437 13.927094703318366 0 0 0
234 1 1 0.5897 2.8870496385118214 14.8169733827548 14.864536965433297 0 0 0
606 1 1 0.5897 2.805419006178523 16.803890575960125 13.486699598177283 0 0 0
427 1 2 -1.1794 5.167771770714411 13.721504955772126 13.084139726268935 0 0 0
233 1 1 0.5897 3.8117308944419905 14.704251132321467 13.671088213587518 0 0 0
639 1 1 0.5897 1.581652752813928 14.20852522142438 12.998510259886492 0 0 0
638 1 1 0.5897 1.1509372894147074 12.762435641404245 13.122672090353914 0 0 0
428 1 1 0.5897 5.1141180303638745 12.826833161661996 13.42022832497103 0 0 0
297 1 1 0.5897 8.374860748360335 14.552063100758174 13.324031826049342 0 0 0
296 1 1 0.5897 7.734348835574958 14.614568490492514 14.694350248303577 0 0 0
295 1 2 -1.1794 7.585665027989206 14.847804568724879 13.777989744878896 0 0 0
270 1 1 0.5897 7.92607609833539 16.80399720426504 13.2371247148642 0 0 0
605 1 1 0.5897 2.9975663723149255 17.64469323989678 12.24250203795231 0 0 0
269 1 1 0.5897 7.330859283026602 17.61567538363425 12.106232673871837 0 0 0
637 1 2 -1.1794 0.8734679917775839 13.60710008681085 12.767879299604179 0 0 0
823 1 2 -1.1794 2.9606862796199183 14.937634625285558 16.545137137588817 0 0 0
49 1 2 -1.1794 7.906736458567352 14.655351146942333 16.538503176198617 0 0 0
316 1 2 -1.1794 7.451943113708358 14.811097996472064 21.32418260604988 0 0 0
52 1 2 -1.1794 0.9706410453986554 13.882745671713552 17.918469333014244 0 0 0
117 1 1 0.5897 8.938643113998754 13.937577856232885 21.111029716447078 0 0 0
715 1 2 -1.1794 3.466317421225693 17.275114449889394 20.51692757010659 0 0 0
665 1 1 0.5897 2.179951143621013 14.396886559989635 20.979765324749017 0 0 0
584 1 1 0.5897 3.3201234159748845 16.485782766642448 17.387605354121227 0 0 0
125 1 1 0.5897 5.437290490833705 13.931008746691754 18.174047818543826 0 0 0
362 1 1 0.5897 5.2689879646684625 12.112437794934962 20.516757541976006 0 0 0
684 1 1 0.5897 4.657967781742383 14.049528840772698 20.47192426724608 0 0 0
451 1 2 -1.1794 0.567148643262199 13.824083667506867 20.700778147086908 0 0 0
666 1 1 0.5897 3.180617050171646 15.526707081802105 20.859931456331786 0 0 0
318 1 1 0.5897 7.576895721167211 15.71694632229557 21.041163289083542 0 0 0
825 1 1 0.5897 2.276969471630526 14.634787078593545 17.142758453269607 0 0 0
126 1 1 0.5897 6.1782111339972765 14.266238507363422 16.89708445555727 0 0 0
824 1 1 0.5897 3.722872399279223 14.399773665086771 16.759982408171 0 0 0
446 1 1 0.5897 0.5909863962070492 12.157143831435649 17.19330637026041 0 0 0
683 1 1 0.5897 6.168654557855675 14.143585577453212 20.43455753637599 0 0 0
452 1 1 0.5897 0.5932336033423417 12.881824699819758 20.867401328261984 0 0 0
682 1 2 -1.1794 5.421709310955324 13.768788659669543 19.96769714064274 0 0 0
124 1 2 -1.1794 5.315812365183918 14.01536841875889 17.228357173287755 0 0 0
53 1 1 0.5897 0.7616386465117337 14.001478173385724 18.844986866379536 0 0 0
664 1 2 -1.1794 3.0976561005188867 14.615772514924215 21.14205813488598 0 0 0
159 1 1 0.5897 7.703308239999427 17.285902318212344 19.52654052140077 0 0 0
50 1 1 0.5897 7.9000144243226735 15.548839323269453 16.881890898670846 0 0 0
51 1 1 0.5897 8.587747178292698 14.209683901562157 17.042448682740428 0 0 0
583 1 2 -1.1794 3.216755427405488 17.38737401808553 17.692145012983694 0 0 0
716 1 1 0.5897 3.477049729077986 17.178741310743707 19.56466267049722 0 0 0
610 1 2 -1.1794 7.8547510847848265 17.284187170697674 17.624787812165692 0 0 0
157 1 2 -1.1794 7.685260273382387 17.355746769752322 20.481013046887412 0 0 0
681 1 1 0.5897 5.205298878660329 12.364925282438454 16.914699365218688 0 0 0
54 1 1 0.5897 0.17299058447594007 14.142585545469966 17.45736606030924 0 0 0
267 1 1 0.5897 5.854299662191585 21.849833991760196 2.8024740903088783 0 0 0
696 1 1 0.5897 1.3971739273901767 21.796648253180894 2.877058497274935 0 0 0
266 1 1 0.5897 4.34764901260399 21.72846180542463 2.7145609509715674 0 0 0
265 1 2 -1.1794 5.141220944330602 21.214029823690183 2.8629251715549704 0 0 0
345 1 1 0.5897 0.7121496804855697 18.767197026282453 0.7781661302944415 0 0 0
228 1 1 0.5897 5.360515815862093 19.60626891059666 2.1602253419625077 0 0 0
189 1 1 0.5897 3.0540756788841263 22.680082830478337 1.2568983428643339 0 0 0
344 1 1 0.5897 1.2035474001958975 18.297973114316406 2.131038347931049 0 0 0
450 1 1 0.5897 6.853468837131479 18.233168894994577 2.5083449419943524 0 0 0
226 1 2 -1.1794 5.324026781527367 18.710215320103053 1.825465419173717 0 0 0
249 1 1 0.5897 5.1293893563726165 20.97046131297175 4.73157731939417 0 0 0
343 1 2 -1.1794 0.4402777178988752 18.672402802893576 1.691040324974143 0 0 0
817 1 2 -1.1794 7.481321214049288 22.72428479443739 2.47873011283302 0 0 0
413 1 1 0.5897 0.6038497208479477 21.466096587834706 5.140340560055064 0 0 0
818 1 1 0.5897 8.342992088828762 22.421008756151327 2.7650136039191175 0 0 0
694 1 2 -1.1794 0.8044888706343467 21.233326285150977 3.374771380217544 0 0 0
227 1 1 0.5897 4.460830523117988 18.39070086694533 2.0885437884323377 0 0 0
187 1 2 -1.1794 2.970455102555055 22.69019753776935 2.2103727782402736 0 0 0
695 1 1 0.5897 0.613371261483099 20.50469311257035 2.7841594118950415 0 0 0
292 1 2 -1.1794 2.887852008126438 17.722727352678405 2.7906534588915224 0 0 0
448 1 2 -1.1794 7.668877268492572 17.85727450705882 2.8403538202088754 0 0 0
498 1 1 0.5897 7.144917105755742 22.59121024079648 0.6112116495166049 0 0 0
340 1 2 -1.1794 0.9805276107782273 18.75059725717712 6.703183530555921 0 0 0
387 1 1 0.5897 5.152261611434103 19.302116761211156 6.1663392472361425 0 0 0
700 1 2 -1.1794 3.112545742258738 22.518251998300425 6.553735277034781 0 0 0
32 1 1 0.5897 8.101700210371337 21.958812460547236 6.556024273773499 0 0 0
404 1 1 0.5897 1.534505193061574 18.369686056649115 9.828147452843714 0 0 0
85 1 2 -1.1794 7.216388498875669 22.730077307259716 9.546831975032907 0 0 0
403 1 2 -1.1794 0.6672991490325277 18.600259128724442 9.494654889130347 0 0 0
101 1 1 0.5897 5.886042553587168 18.23802213950692 9.479526121445618 0 0 0
39 1 1 0.5897 3.550708154913852 22.379079996543396 9.824136995635943 0 0 0
37 1 2 -1.1794 2.858087896562944 22.735675376089052 9.267839387130774 0 0 0
33 1 1 0.5897 6.593104515260279 21.905234115116464 6.438907029173114 0 0 0
385 1 2 -1.1794 5.102800430369054 18.408084959699732 6.504784265859227 0 0 0
100 1 2 -1.1794 5.167636330031923 18.822810566196914 9.23806017726573 0 0 0
102 1 1 0.5897 5.0181157316828795 18.648316085483135 8.308858598025145 0 0 0
701 1 1 0.5897 3.2518403222603873 22.720813804277412 7.478816950772141 0 0 0
555 1 1 0.5897 4.920485621383808 20.46357818901722 10.1529558519694 0 0 0
31 1 2 -1.1794 7.312179602546879 22.480626443104136 6.700119820873775 0 0 0
38 1 1 0.5897 2.083490405305349 22.217678527546532 9.487074255953345 0 0 0
702 1 1 0.5897 2.2534808228910985 22.096699660846262 6.5270437842367794 0 0 0
341 1 1 0.5897 1.678559872770296 18.240726983747773 6.2919242857578315 0 0 0
94 1 2 -1.1794 0.44410311530977176 21.335553962311216 10.240235528377747 0 0 0
405 1 1 0.5897 0.5571947924857087 19.521763349987214 9.729176651674184 0 0 0
86 1 1 0.5897 7.265600211848421 22.83825061256894 8.597040602147196 0 0 0
554 1 1 0.5897 5.787546934866505 21.69363245427677 10.31834356700228 0 0 0
412 1 2 -1.1794 0.5649095504923722 21.49578756643835 6.096271855433003 0 0 0
342 1 1 0.5897 1.0450337064655721 18.538345205878834 7.63430883341236 0 0 0
247 1 2 -1.1794 5.235510845609549 20.968684322158754 5.68287418618525 0 0 0
87 1 1 0.5897 7.999302445071238 22.227305270791025 9.771965944703762 0 0 0
386 1 1 0.5897 5.878159574711504 17.973628467023786 6.149186239877764 0 0 0
553 1 2 -1.1794 4.961453216123988 21.30535050040652 10.606833051089525 0 0 0
383 1 1 0.5897 3.6882034129298886 17.760814675521438 9.902015243049233 0 0 0
248 1 1 0.5897 4.468357828751114 21.438085900347158 6.010766516593947 0 0 0
414 1 1 0.5897 0.6521942128680606 20.582242483534927 6.368499155676458 0 0 0
309 1 1 0.5897 8.314182319292284 17.85965785098344 5.8356676495176405 0 0 0
504 1 1 0.5897 0.692202756328962 19.003311941931017 14.711965240499584 0 0 0
88 1 2 -1.1794 5.006826063022345 21.278691047584584 13.323889401832304 0 0 0
381 1 1 0.5897 1.3132611745763585 21.94136165338125 13.35721689247991 0 0 0
90 1 1 0.5897 5.147779838666575 20.394773406907575 13.663158123736045 0 0 0
763 1 2 -1.1794 5.418138300760637 18.788304180173625 14.276137287641127 0 0 0
738 1 1 0.5897 3.4419029680484585 22.260409840776827 14.003887255713828 0 0 0
89 1 1 0.5897 5.102986080137206 21.18994033301978 12.375687405141441 0 0 0
567 1 1 0.5897 8.898634263414598 21.26285837327808 13.168724916099585 0 0 0
789 1 1 0.5897 6.674117974576373 22.05607734987689 13.915024881842275 0 0 0
503 1 1 0.5897 1.545820238180828 18.704703884814514 13.49779842966766 0 0 0
765 1 1 0.5897 6.213858502890682 18.702245606996094 13.750976721627024 0 0 0
788 1 1 0.5897 7.615003126158077 22.501399412808897 15.01433828368628 0 0 0
787 1 2 -1.1794 7.542962401889755 22.42992105330834 14.0625445311617 0 0 0
379 1 2 -1.1794 0.5114002315909212 21.61520132051674 12.948517418806484 0 0 0
764 1 1 0.5897 4.742343135873369 18.345998245115116 13.762325822719426 0 0 0
474 1 1 0.5897 5.553300477027013 18.63229326182388 16.10614838415787 0 0 0
502 1 2 -1.1794 0.6698902298494577 18.992728881647363 13.755095476707362 0 0 0
736 1 2 -1.1794 2.6315180097649575 22.673035533586415 14.30291219610127 0 0 0