LAMMPS data file via write_data, version 30 Jul 2021, timestep = 20500000

1920 atoms
2 atom types
1280 bonds
1 bond types
640 angles
1 angle types

-0.005752681574129781 24.73575368157241 xlo xhi
-0.028475934503967792 24.758476934494897 ylo yhi
-0.039080960196271164 22.849080960197526 zlo zhi

Masses

1 1.008
2 15.999

Pair Coeffs # lj/cut/tip4p/long/omp

1 0 0
2 0.21084 3.1668

Bond Coeffs # harmonic/omp

1 450 0.9572

Angle Coeffs # harmonic/omp

1 55 104.52

Atoms # full

1 1 2 -1.1794 4.78857855694393 1.436561055558322 4.009080791296659 0 0 0
2 1 1 0.5897 4.868862988169007 2.193131859357677 4.589811670294568 0 0 0
3 1 1 0.5897 5.491090250306007 1.54980951373544 3.3689261683483704 0 0 0
4 2 2 -1.1794 2.989233168809966 1.362179243390117 1.8304355209097383 0 0 0
5 2 1 0.5897 3.3547076319236933 1.4365702354668364 2.7119128348274892 0 0 0
6 2 1 0.5897 2.041984608058991 1.4127573922395447 1.95830994523413 0 0 0
10 4 2 -1.1794 3.183869591205814 4.487932906896575 3.5314121146585253 0 0 0
11 4 1 0.5897 2.702473210157863 5.18659926998869 3.974402747075822 0 0 0
12 4 1 0.5897 2.7865486240751314 4.436611283344063 2.662152979329641 0 0 0
13 5 2 -1.1794 1.5568238148175866 2.7973868344342177 4.991242571749749 0 0 0
14 5 1 0.5897 2.283316948344646 3.221303850801796 4.534454014477111 0 0 0
15 5 1 0.5897 1.7510393349224307 1.8618744744336129 4.934727013425915 0 0 0
22 8 2 -1.1794 1.4096355499950206 4.30987435684108 1.3629315924452068 0 0 0
24 8 1 0.5897 1.2779800843425275 5.063498206694351 0.7877686005367166 0 0 0
23 8 1 0.5897 0.7221379758058066 4.389608191538074 2.0240912540688205 0 0 0
20 7 1 0.5897 3.796786554619568 2.831388101931447 0.7215873458069765 0 0 0
9 3 1 0.5897 4.991693192840016 4.497931679900598 3.3384310485115516 0 0 0
19 7 2 -1.1794 4.620315469767939 3.2844087784135 0.5406607406304811 0 0 0
21 7 1 0.5897 5.24142303866357 2.912501772627762 1.1667943397716731 0 0 0
27 9 1 0.5897 4.6261321720391635 4.976567172686764 0.4588727934843325 0 0 0
25 9 2 -1.1794 4.593376703653385 5.930765635960152 0.5261206039207434 0 0 0
7 3 2 -1.1794 5.942059483967955 4.5785705137885415 3.2578835653300247 0 0 0
26 9 1 0.5897 5.395180521949165 6.1660934395537375 0.9929114023072871 0 0 0
99 33 1 0.5897 0.2530962605350197 3.715013745719849 4.067052360460961 1 0 0
867 289 1 0.5897 5.1109337501972 0.2085364858071791 5.443676201570757 0 1 0
28 10 2 -1.1794 1.681310424400415 0.004190464196556595 4.850414059348698 0 0 0
98 33 1 0.5897 0.3494385365045827 5.216164639872583 3.897305093173368 1 0 0
387 129 1 0.5897 4.1911285576229 0.31226709815936465 1.0174532030080827 0 1 0
150 50 1 0.5897 1.6378482273633939 5.859644892792358 5.531099812508689 0 0 0
16 6 2 -1.1794 0.28357402223245026 1.5034692837133137 2.067132636941898 0 0 0
8 3 1 0.5897 6.158310713661223 5.3703236989147065 3.7502837409082286 0 0 0
141 47 1 0.5897 4.951910369198644 9.086335668915028 0.07889193229386958 0 0 0
270 90 1 0.5897 1.0211699348370726 12.176972203725542 4.395757497222111 0 0 0
136 46 2 -1.1794 0.1876045922667932 7.923997146499386 2.0900389520984306 0 0 0
148 50 2 -1.1794 1.51700982672302 6.240616190134423 4.6614145124273305 0 0 0
121 41 2 -1.1794 4.550779297797419 7.653675971072257 4.113579849284125 0 0 0
122 41 1 0.5897 3.8067675064480673 7.714038595806453 3.514448421532678 0 0 0
123 41 1 0.5897 5.314067261356145 7.575796206801215 3.5413219213741063 0 0 0
124 42 2 -1.1794 2.9344050758475437 7.769593892968289 1.9031009097009328 0 0 0
125 42 1 0.5897 3.2012588191927374 7.014033276413195 1.3796353464893452 0 0 0
126 42 1 0.5897 3.40626302846064 8.507550785041497 1.5172360078337017 0 0 0
129 43 1 0.5897 5.0186136627621565 11.039789861848696 3.480786621072893 0 0 0
130 44 2 -1.1794 3.256704168642504 10.797061949995774 3.606331881085132 0 0 0
132 44 1 0.5897 2.777438795290808 10.054691852606512 3.9741846471626987 0 0 0
133 45 2 -1.1794 1.4914568188695616 8.981555200028778 4.948308462253327 0 0 0
135 45 1 0.5897 0.8170671470010084 9.382677273483592 4.400185504673904 0 0 0
137 46 1 0.5897 1.1364052115044845 7.804485920498939 2.1311149384813066 0 0 0
139 47 2 -1.1794 4.88687220474582 9.458749823981034 0.9581930562851817 0 0 0
142 48 2 -1.1794 1.5257204609353818 10.709375107213562 1.234063345243248 0 0 0
143 48 1 0.5897 2.28286320994935 10.803042012246049 1.8120913081675414 0 0 0
144 48 1 0.5897 1.549891213226572 11.488587917638752 0.6787844329261843 0 0 0
149 50 1 0.5897 1.5050533556341277 7.18559686450332 4.812935731528937 0 0 0
131 44 1 0.5897 2.9554473276651034 11.551625562704873 4.112278172715795 0 0 0
140 47 1 0.5897 4.947213669806209 10.40440572601955 0.8233451327167185 0 0 0
507 169 1 0.5897 4.594333419124437 6.590915869470935 5.571694094910239 0 0 0
218 73 1 0.5897 0.25541845136683344 10.674475918055474 2.610138077484941 1 0 0
1574 525 1 0.5897 1.3440601499527836 9.493078603606723 -0.003939376015222061 0 0 1
127 43 2 -1.1794 5.974473383443131 11.048762139750941 3.5302469552820557 0 0 0
621 207 1 0.5897 4.482759133120915 8.925842483494414 5.524165791136385 0 0 0
168 56 1 0.5897 6.026327087121192 8.188066346331551 1.739827965233246 0 0 0
128 43 1 0.5897 6.1740137493024445 11.70332074844855 4.199455734127111 0 0 0
497 166 1 0.5897 0.10693813312271772 0.7370372551657305 7.378110598517331 0 0 0
508 170 2 -1.1794 1.5852732776951866 0.064006198110426 10.221882932643675 0 0 0
495 165 1 0.5897 1.4822632597926537 3.2972035057554 11.149241616062067 0 0 0
579 193 1 0.5897 0.2982493914029704 5.236628068731389 9.642448099533878 1 0 0
1347 449 1 0.5897 4.594759158433801 0.3396942677989656 11.287317364248281 0 1 0
578 193 1 0.5897 0.25054699638621464 3.753277676667369 9.344202718586178 1 0 0
494 165 1 0.5897 1.8597557140438763 2.012296311187245 10.443491028314117 0 0 0
504 168 1 0.5897 1.6494169511320014 4.059429791179156 6.45648942116586 0 0 0
501 167 1 0.5897 4.5104140192748 4.259041638219867 6.223324108176598 0 0 0
499 167 2 -1.1794 4.442852177989937 3.330965830126468 5.999262639133349 0 0 0
483 161 1 0.5897 4.750238522570971 2.2023422176343557 10.487137088507987 0 0 0
492 164 1 0.5897 2.815180498161054 4.01030834332586 9.454708295457753 0 0 0
493 165 2 -1.1794 1.691773681203054 2.941281395414681 10.28580367079689 0 0 0
491 164 1 0.5897 2.825759370779603 4.975021847005217 8.288186959930837 0 0 0
485 162 1 0.5897 3.4845466904223295 1.6331321825228562 8.64117422197551 0 0 0
481 161 2 -1.1794 4.766223783248302 1.4263983164300733 9.927006202930837 0 0 0
482 161 1 0.5897 5.476056424947473 1.5927069512994743 9.306825655677391 0 0 0
502 168 2 -1.1794 1.72728172624764 4.857931049407214 6.978434236157101 0 0 0
500 167 1 0.5897 3.7296678884974503 3.0031533599098705 6.547032600351459 0 0 0
490 164 2 -1.1794 3.3228203546578223 4.722721075318575 9.066257582928264 0 0 0
503 168 1 0.5897 0.9849909632703651 4.823592658776831 7.581738112859485 0 0 0
498 166 1 0.5897 1.2624908047996433 1.575094866713026 7.882140400872903 0 0 0
484 162 2 -1.1794 3.0954161395904105 1.5730611564475818 7.768776131712662 0 0 0
489 163 1 0.5897 5.086524162363785 4.649428589401482 9.162986397949577 0 0 0
486 162 1 0.5897 3.5293483225111415 0.8222550937079184 7.36366889371187 0 0 0
629 210 1 0.5897 2.435466886938525 5.8370334036926215 10.288829025023935 0 0 0
505 169 2 -1.1794 4.483868409368792 6.035728452346552 6.343485427226523 0 0 0
496 166 2 -1.1794 0.3069382946049303 1.5570592035965818 7.8294004739729335 0 0 0
528 176 1 0.5897 5.829109876894016 2.6409749699592004 7.16170477453625 0 0 0
527 176 1 0.5897 6.0153100092565435 1.1395502060758835 7.212673118663008 0 0 0
487 163 2 -1.1794 6.04218756304611 4.659025301376086 9.110039707229715 0 0 0
1101 367 1 0.5897 4.485980829323568 8.96154132171156 11.122815958937077 0 0 0
624 208 1 0.5897 1.5721071021301976 11.416638806915556 6.457018400490329 0 0 0
622 208 2 -1.1794 1.4928683206463316 10.644256995424643 7.016695923554288 0 0 0
625 209 2 -1.1794 4.555117094388867 12.146851622218097 6.357318088153302 0 0 0
630 210 1 0.5897 1.7001853882830593 7.123356263704004 10.599212632011689 0 0 0
506 169 1 0.5897 3.7559828357885405 6.432240771830932 6.822138025479639 0 0 0
628 210 2 -1.1794 1.572542062687992 6.177740507399916 10.52430883946471 0 0 0
610 204 2 -1.1794 3.2146211540168896 10.596070116707818 9.121243107395605 0 0 0
699 233 1 0.5897 0.09690568701557639 10.925495289907781 8.282317933606931 1 0 0
602 201 1 0.5897 4.591340127928554 7.03982473053951 10.501439377497764 0 0 0
604 202 2 -1.1794 2.7555212132918463 7.649083029292232 7.866602660449788 0 0 0
601 201 2 -1.1794 4.66946183453076 7.712052262942662 9.824609154022696 0 0 0
647 216 1 0.5897 5.879299863930247 7.548127288024347 8.49091976067459 0 0 0
626 209 1 0.5897 4.71371187091246 11.20320961465179 6.379221304812771 0 0 0
611 204 1 0.5897 4.167494584352971 10.678420879893157 9.159216001502395 0 0 0
623 208 1 0.5897 2.19194224996131 10.743438510920496 7.662917197150313 0 0 0
606 202 1 0.5897 1.8102211359592826 7.758316016554674 7.76332775999269 0 0 0
614 205 1 0.5897 2.1152395821808723 9.356125125977488 9.780878346456426 0 0 0
134 45 1 0.5897 1.4765443240452085 9.490964268145014 5.758476745403861 0 0 0
698 233 1 0.5897 0.20412711228099195 11.627891110519469 9.618991134939641 1 0 0
612 204 1 0.5897 2.889573823983817 11.322614440502049 9.652827562000068 0 0 0
613 205 2 -1.1794 1.415778606739927 9.030530954136083 10.347363593793865 0 0 0
648 216 1 0.5897 5.644952522640627 6.999284572197246 7.09972816529744 0 0 0
620 207 1 0.5897 5.204398577181384 8.796570196985206 6.84860042182056 0 0 0
619 207 2 -1.1794 4.691680592014927 9.410337187851471 6.322736667194381 0 0 0
615 205 1 0.5897 0.6807429174304354 9.621765213724238 10.185145479826838 0 0 0
603 201 1 0.5897 3.8698289711586917 7.624376110137559 9.305896591308846 0 0 0
605 202 1 0.5897 3.136167085353253 8.380186372308762 7.3800817475302285 0 0 0
607 203 2 -1.1794 5.840531346964074 10.90655111812559 9.10690457566981 0 0 0
608 203 1 0.5897 6.13626133640595 11.686683814904224 9.575987959613906 0 0 0
750 250 1 0.5897 1.800991665852162 12.15464641619257 11.316475756945843 0 0 0
961 321 2 -1.1794 4.339775502279972 1.5623362163070391 15.607990638049893 0 0 0
962 321 1 0.5897 5.054694149858093 1.5139235963115674 14.97340724210162 0 0 0
963 321 1 0.5897 4.522858316967643 0.8581937609105194 16.22988985539969 0 0 0
964 322 2 -1.1794 2.758611983425321 1.8342102550246968 13.303590330086243 0 0 0
965 322 1 0.5897 3.1547941120047813 1.8753215740546996 14.173911688576256 0 0 0
966 322 1 0.5897 1.8323209562479628 2.0240551868363426 13.452335523448983 0 0 0
970 324 2 -1.1794 3.284759999486928 4.680641648815634 14.791409349235597 0 0 0
971 324 1 0.5897 4.230851397963618 4.646471372913306 14.932580127096497 0 0 0
972 324 1 0.5897 2.9359081460311995 3.9706803522530967 15.330268386081618 0 0 0
973 325 2 -1.1794 1.6810773044957985 3.0978131395074717 16.25818054383135 0 0 0
975 325 1 0.5897 0.8460611680994219 3.4832171361168824 15.992890393218635 0 0 0
982 328 2 -1.1794 1.4095826646176144 4.409115912630212 12.61023159978774 0 0 0
983 328 1 0.5897 1.4358398508080072 5.22790680712513 12.115269996246242 0 0 0
984 328 1 0.5897 2.181149761625931 4.445561279850704 13.175488936778189 0 0 0
980 327 1 0.5897 3.995715410603003 2.8130069331018968 12.349537675017231 0 0 0
981 327 1 0.5897 5.506203441331901 2.7647954046313536 12.26073535349001 0 0 0
979 327 2 -1.1794 4.739604632232502 3.2005834042398815 11.888484297951353 0 0 0
990 330 1 0.5897 1.5941456858530525 1.2378877695303345 16.303987024617946 0 0 0
986 329 1 0.5897 4.5542485506149575 5.058136063732121 12.001827849478905 0 0 0
1110 370 1 0.5897 2.5214509236599714 5.947243684405937 16.157919734942837 0 0 0
1109 370 1 0.5897 1.0123944097637447 5.974975499062167 16.040571816616996 0 0 0
967 323 2 -1.1794 6.083277356188703 4.553227534900327 15.05551275753505 0 0 0
1460 487 1 0.5897 4.632637910946419 2.6987775921592143 16.918168385531516 0 0 0
1346 449 1 0.5897 3.7439399161279656 0.20920100751462486 12.532588897810015 0 1 0
985 329 2 -1.1794 4.652787483582745 5.998650791577239 11.854132421588547 0 0 0
1008 336 1 0.5897 5.915585525462165 0.7063530001395611 13.122969820319506 0 0 0
988 330 2 -1.1794 1.5508610967143006 0.2860735894905649 16.212956784114347 0 0 0
976 326 2 -1.1794 0.017891778345298093 1.8782031316358767 13.711181142475384 0 0 0
1006 336 2 -1.1794 6.160012375293155 1.4947187731799465 13.607564992747417 0 0 0
1096 366 2 -1.1794 0.3215770622691275 7.85891543853556 13.356121890924824 0 0 0
1230 410 1 0.5897 1.269834628444239 12.146306511467216 17.026488485250177 0 0 0
987 329 1 0.5897 4.104388585124307 6.405623783969015 12.524771697398018 0 0 0
1108 370 2 -1.1794 1.744445527351998 6.3960909372905626 16.491027818713434 0 0 0
1081 361 2 -1.1794 4.9256794973199085 7.855341401327707 15.473640874628375 0 0 0
1082 361 1 0.5897 4.946514144510709 8.702780393110446 15.918054799367278 0 0 0
1083 361 1 0.5897 4.82585327208898 7.216625882912953 16.17945234982364 0 0 0
1084 362 2 -1.1794 3.043856226042123 7.57459275523855 13.53513218822237 0 0 0
1085 362 1 0.5897 3.561364573497999 7.596659798860793 14.340004441716399 0 0 0
1086 362 1 0.5897 3.3468045995159077 8.331849122628782 13.03424303770604 0 0 0
1089 363 1 0.5897 4.901328755342247 11.000999191577295 14.880734908918829 0 0 0
1090 364 2 -1.1794 3.0935473000978715 10.767183645426238 14.914304507496377 0 0 0
1091 364 1 0.5897 2.6702479925553386 11.564942091796416 15.231352106782012 0 0 0
1092 364 1 0.5897 2.640714994555409 10.057826638488317 15.370234039628468 0 0 0
1095 365 1 0.5897 0.7171341914666481 9.291700995884344 15.842520643829788 0 0 0
1097 366 1 0.5897 1.2582122972644936 7.69938007844329 13.472089933447503 0 0 0
1099 367 2 -1.1794 4.553277240361466 9.485828740248369 11.920745384599657 0 0 0
1102 368 2 -1.1794 1.5286391735271305 10.884302749127459 12.540321382077058 0 0 0
1104 368 1 0.5897 2.1413686755799235 10.821080030080317 13.272921010868236 0 0 0
1093 365 2 -1.1794 1.5021269856259496 9.075465638055128 16.345696348170804 0 0 0
1103 368 1 0.5897 1.780502042403824 10.170468388557452 11.954570461993233 0 0 0
1100 367 1 0.5897 5.407752484416536 9.257404303539555 12.286623167263398 0 0 0
1094 365 1 0.5897 1.5747547648210742 8.123382195025423 16.279713008898362 0 0 0
1107 369 1 0.5897 4.570235456234172 11.41949246168097 12.13555764141842 0 0 0
1179 393 1 0.5897 0.22892351931507465 10.706512499081194 13.832731500385378 1 0 0
1178 393 1 0.5897 0.17159415290344374 11.474563554044632 15.135944094302967 1 0 0
1105 369 2 -1.1794 4.51824801099789 12.358735445670462 12.31222909497648 0 0 0
1087 363 2 -1.1794 5.850246481456645 10.887093168380193 14.933377783836102 0 0 0
1128 376 1 0.5897 6.042044710892325 7.0673983750219636 12.867961165796416 0 0 0
1088 363 1 0.5897 6.131462060410188 11.518951232145547 15.595021880175226 0 0 0
1127 376 1 0.5897 5.969656539197791 7.794453466647938 14.193742633324762 0 0 0
386 129 1 0.5897 4.95355023787004 0.23414537150512577 22.600154386623046 0 1 -1
1447 483 2 -1.1794 5.972521067330063 4.973049582714647 20.641333598598187 0 0 0
1539 513 1 0.5897 0.3559017578602447 5.122251134143 21.271910907998176 1 0 0
1538 513 1 0.5897 0.590028303586515 3.6491439167982542 21.01366203493162 1 0 0
1488 496 1 0.5897 5.993143891723541 0.6916984006418881 18.646531859305682 0 0 0
974 325 1 0.5897 1.81941465360653 3.4156534897873 17.15033442608818 0 0 0
1826 609 1 0.5897 3.9452300381728467 -0.01360712029201494 18.241984575287937 0 1 0
1487 496 1 0.5897 5.947496350842451 1.567276035112515 19.880561352151652 0 0 0
1454 485 1 0.5897 2.3825420581787013 3.4104059341634314 21.476477066201653 0 0 0
1464 488 1 0.5897 0.9370599694265365 4.570094050096392 19.15255713153335 0 0 0
1443 481 1 0.5897 4.868028586537413 2.1731795757586716 21.814853006088036 0 0 0
1450 484 2 -1.1794 3.286757453455614 4.771330497840479 20.806268569135483 0 0 0
1469 490 1 0.5897 1.7648240484068285 0.9153979707075365 21.79923583317509 0 0 0
1442 481 1 0.5897 3.952478665475984 1.4597270538146092 20.843056132620717 0 0 0
1453 485 2 -1.1794 1.9059509380049349 2.706690496595263 21.916663907599634 0 0 0
1444 482 2 -1.1794 2.850433280591831 1.4033996705561724 19.008597061191296 0 0 0
1463 488 1 0.5897 1.5099654264139628 5.218667456416066 17.910496318486743 0 0 0
1452 484 1 0.5897 3.0649194582106056 4.690008902281956 19.878755972490644 0 0 0
1441 481 2 -1.1794 4.807984045156887 1.3908152318283475 21.26676941277006 0 0 0
1451 484 1 0.5897 4.220365198475965 4.982340410683057 20.81212431462766 0 0 0
1445 482 1 0.5897 1.9009536926272765 1.3793498164290354 19.12732511307565 0 0 0
1446 482 1 0.5897 3.0263990443724493 2.276446841971776 18.657998022155255 0 0 0
1461 487 1 0.5897 5.339497391216979 2.741382002074463 18.256127754033834 0 0 0
1459 487 2 -1.1794 4.724937900131969 3.2301921074126074 17.708847264886607 0 0 0
1462 488 2 -1.1794 1.6783458360061922 4.525517472657779 18.54868602589221 0 0 0
1466 489 1 0.5897 4.728649981807046 5.1503533607560685 17.578330749633004 0 0 0
1465 489 2 -1.1794 4.4485504215240015 6.065320323073487 17.600289544625213 0 0 0
1537 513 2 -1.1794 0.012778324882088299 4.376108127863819 20.780342326530473 1 0 0
1590 530 1 0.5897 2.0765790384690446 5.903850932539594 21.807442063075072 0 0 0
1456 486 2 -1.1794 0.1938367295786268 1.498770620765092 19.26998670903579 0 0 0
1455 485 1 0.5897 1.5935653446775218 3.101146936411588 22.73086397567927 0 0 0
1585 529 2 -1.1794 4.6146156381581385 12.238986977867189 17.517364564624735 0 0 0
1566 522 1 0.5897 3.1123636356392668 7.143286620645873 18.67474471707385 0 0 0
1576 526 2 -1.1794 0.06663581325557323 7.54504169155402 19.232688365384966 0 0 0
1608 536 1 0.5897 6.014736479144101 7.7528940975880865 20.165462599272047 0 0 0
1658 553 1 0.5897 0.23138484738511111 9.986487494129031 21.034103012919545 1 0 0
1573 525 2 -1.1794 1.395551777049323 9.027392100170834 22.049609768643002 0 0 0
1581 527 1 0.5897 5.501097988941603 9.055393873677065 18.09572934270649 0 0 0
1710 570 1 0.5897 2.2776792476206014 11.848460592181693 21.566785603423277 0 0 0
1579 527 2 -1.1794 4.656533728070494 9.435104392425144 17.85344494473061 0 0 0
1561 521 2 -1.1794 4.934123764696978 7.974804776483758 21.593042959372738 0 0 0
1563 521 1 0.5897 4.113703185892544 7.968514099094616 21.100057248947465 0 0 0
1572 524 1 0.5897 4.111202919259101 10.832690549390254 20.560982745160572 0 0 0
1565 522 1 0.5897 1.9253208100696126 7.579360991391612 19.50689359266167 0 0 0
1467 489 1 0.5897 4.972301314153028 6.459928430786252 18.297499746228418 0 0 0
1587 529 1 0.5897 4.499600001517611 11.33065745076601 17.79630121876606 0 0 0
1575 525 1 0.5897 2.0418802297562086 9.517065750955748 21.541060895438726 0 0 0
1571 524 1 0.5897 2.851085826184345 10.790024641300214 19.72311284920908 0 0 0
1562 521 1 0.5897 4.834432021222616 7.270836088254372 22.233810058225956 0 0 0
1589 530 1 0.5897 1.257589330901355 7.14894283162433 22.073188620818193 0 0 0
1582 528 2 -1.1794 1.747657140180624 11.040783163508324 18.34532277650687 0 0 0
1584 528 1 0.5897 1.7160906749997702 10.181801527647401 17.924304891158457 0 0 0
1580 527 1 0.5897 4.01814775382578 8.959005669399032 18.384422538994507 0 0 0
1588 530 2 -1.1794 1.2944201112999025 6.211975344890258 22.265093028129186 0 0 0
1567 523 2 -1.1794 5.892804767225746 10.883834509609699 20.74382356236297 0 0 0
1564 522 2 -1.1794 2.856102345583285 7.753002076018019 19.36661050001762 0 0 0
1570 524 2 -1.1794 3.1645836179070566 10.705417317901237 20.623487477713688 0 0 0
1583 528 1 0.5897 0.9710019312018041 11.062723328547179 18.904321892922354 0 0 0
1709 570 1 0.5897 0.770662394681473 11.964026879362448 21.652394676596984 0 0 0
1708 570 2 -1.1794 1.5797267287626762 12.352402040119454 21.98517246267908 0 0 0
241 81 2 -1.1794 4.841316300412661 14.110124576755501 4.466846535413227 0 0 0
242 81 1 0.5897 4.587856578469568 13.386226556520118 5.039411031091728 0 0 0
243 81 1 0.5897 4.192285183172359 14.098291111263995 3.7634562510959815 0 0 0
244 82 2 -1.1794 3.132898259059682 13.924118958449275 2.299787280786077 0 0 0
245 82 1 0.5897 2.1995318746291908 14.103854834970893 2.412508734260712 0 0 0
246 82 1 0.5897 3.4679716997614456 14.68425670335883 1.8243711175192538 0 0 0
250 84 2 -1.1794 3.280903173224253 17.168018040744982 3.8365214419739617 0 0 0
251 84 1 0.5897 3.0682915737803933 17.168864757113525 2.903303001151884 0 0 0
252 84 1 0.5897 4.233673385419826 17.08097117535589 3.865513062485354 0 0 0
253 85 2 -1.1794 1.3473235913688157 15.312760014431753 4.885115705980301 0 0 0
255 85 1 0.5897 2.171214921127172 15.780288229594154 4.7480663653487625 0 0 0
259 87 2 -1.1794 4.75803426607186 15.687119154391398 0.8341083017766919 0 0 0
262 88 2 -1.1794 1.5849974050473474 17.021683965331952 1.6987001297476347 0 0 0
263 88 1 0.5897 1.6194912540058584 16.34608535518195 1.02159655393452 0 0 0
264 88 1 0.5897 1.5000608249484315 17.842798528848384 1.2142922186996108 0 0 0
269 90 1 0.5897 1.4091031173852413 13.497270506221373 5.026532883715718 0 0 0
254 85 1 0.5897 0.6822558135971196 15.878372223611839 4.492806662958619 0 0 0
260 87 1 0.5897 4.704832476419403 16.629935899979365 0.6780263993542253 0 0 0
265 89 2 -1.1794 4.780302247482718 18.385848178151008 0.890069362062154 0 0 0
389 130 1 0.5897 2.2416531721741615 18.358999183661915 4.710142849391474 0 0 0
268 90 2 -1.1794 1.6496927694210848 12.57124027584734 5.000443219008141 0 0 0
247 83 2 -1.1794 6.076493108147967 17.083665146283984 3.836108687053197 0 0 0
146 49 1 0.5897 3.985294521771956 12.693084061627834 1.1503668026685652 0 0 0
261 87 1 0.5897 4.540514629812926 15.291516716276067 -0.009861638694366872 0 0 0
147 49 1 0.5897 5.494863027132493 12.802430319690515 1.1181053335912123 0 0 0
288 96 1 0.5897 5.961100796894704 14.762466831372281 1.853514829812827 0 0 0
338 113 1 0.5897 0.08332100706906276 17.219065761993882 2.824599276009333 1 0 0
256 86 2 -1.1794 0.3531259143774724 13.848874829424286 2.119272078696841 0 0 0
258 86 1 0.5897 0.03238691578894404 13.086738328811165 1.6372178983846921 0 0 0
145 49 2 -1.1794 4.752890922756769 12.426453937265464 0.6445334667553506 0 0 0
459 153 1 0.5897 0.4148663210598811 23.056369157718017 2.642518139626008 1 0 0
408 136 1 0.5897 5.991614626818568 20.365738886906577 2.8839628865272746 0 0 0
458 153 1 0.5897 0.46150287208350277 23.680759545041525 4.020748385226639 1 0 0
388 130 2 -1.1794 1.5075578452814609 18.744203389835057 5.188549677616391 0 0 0
267 89 1 0.5897 4.144174494401977 18.909104238771874 1.3775931892358302 0 0 0
361 121 2 -1.1794 4.685503746046949 20.106823003918294 4.222077714224927 0 0 0
362 121 1 0.5897 3.8866119611855057 20.044272671763025 3.6986084430877977 0 0 0
364 122 2 -1.1794 2.875450287894131 20.05370949553207 2.128488095133741 0 0 0
365 122 1 0.5897 3.2527745061360482 20.704939520845627 1.5371832334660147 0 0 0
370 124 2 -1.1794 3.2897285528025764 23.28285185053729 3.4117589492239055 0 0 0
371 124 1 0.5897 4.246252486248096 23.269189160806143 3.3790953767467875 0 0 0
372 124 1 0.5897 3.0531686494015244 22.469283632277943 3.857006835409771 0 0 0
373 125 2 -1.1794 1.8377052546031178 21.446131952627972 4.784821006374186 0 0 0
382 128 2 -1.1794 1.4122214052976763 23.189103820848985 1.2304074047642022 0 0 0
383 128 1 0.5897 2.093173148730713 23.427510856818365 1.8593844356733389 0 0 0
375 125 1 0.5897 1.1156017225482466 21.923654681008358 4.376542227784782 0 0 0
366 122 1 0.5897 1.9292753272982077 20.16104928507543 2.031417656955311 0 0 0
384 128 1 0.5897 1.7078820889011956 22.357347461129343 0.8604440203564727 0 0 0
381 127 1 0.5897 5.3984128494485075 21.654968578597426 1.1652123880969136 0 0 0
379 127 2 -1.1794 4.6411966448290105 21.91208467024512 0.6392197301587612 0 0 0
390 130 1 0.5897 1.571621322176697 19.682601863555497 5.0113563445027545 0 0 0
363 121 1 0.5897 4.579827588539615 19.441158268336714 4.901647616094692 0 0 0
380 127 1 0.5897 4.713251234673743 22.863519849763435 0.5639207830727482 0 0 0
861 287 1 0.5897 4.79462435493569 21.35835031239469 5.5550566514461615 0 0 0
29 10 1 0.5897 2.419971387867944 24.430882613623837 4.35975576468702 0 -1 0
367 123 2 -1.1794 6.003081288932339 23.321292940662815 3.65773759879493 0 0 0
30 10 1 0.5897 1.6361251305028015 24.25654088159503 5.64303853332413 0 -1 0
376 126 2 -1.1794 0.16937788547499238 20.06867737124928 1.9519158350584604 0 0 0
266 89 1 0.5897 4.7776338709940935 18.763195087923947 0.010469656196959012 0 0 0
374 125 1 0.5897 1.948969750150735 21.863604330233734 5.63888797246316 0 0 0
385 129 2 -1.1794 4.882104297599304 24.608462043656782 0.5726436494462956 0 0 0
1221 407 1 0.5897 4.563605183025244 15.175459425020987 11.377143691950744 0 0 0
736 246 2 -1.1794 0.05467310804930986 13.936197247308513 7.7866271181713 0 0 0
740 247 1 0.5897 4.586303260279975 15.45849951106875 5.822751622771881 0 0 0
818 273 1 0.5897 0.09993203926747576 17.110807930384247 8.524542117109716 1 0 0
737 246 1 0.5897 0.9774766678472194 14.016942155842566 8.027668515552225 0 0 0
732 244 1 0.5897 2.642991435596004 16.365337309525707 9.782056222219335 0 0 0
725 242 1 0.5897 3.37714217718288 14.767072799271205 7.39034623934868 0 0 0
726 242 1 0.5897 3.2400895922819877 13.26473857073273 7.264844690956334 0 0 0
730 244 2 -1.1794 2.9635910371921974 17.15034354709251 9.338114935551388 0 0 0
728 243 1 0.5897 5.0759868865590505 16.828265369440224 9.315589397052642 0 0 0
733 245 2 -1.1794 1.369319776135297 15.226477313935831 10.766872235927641 0 0 0
724 242 2 -1.1794 2.8266675978411775 14.032072921363481 7.660307830729072 0 0 0
742 248 2 -1.1794 1.4044705614079596 16.968226433729804 7.1830319166950725 0 0 0
721 241 2 -1.1794 4.504551671254861 13.738438149883455 9.99019165408178 0 0 0
743 248 1 0.5897 1.3860473672640654 17.767230103051446 6.6563966881363825 0 0 0
722 241 1 0.5897 3.7018808299818344 13.84199334681614 9.47915819113387 0 0 0
731 244 1 0.5897 2.5799148148254707 17.10439450197334 8.46244990177714 0 0 0
735 245 1 0.5897 0.6232558202801077 15.728587260750748 10.43910515893859 0 0 0
741 247 1 0.5897 4.80675591824424 16.71621278471403 6.635835668899765 0 0 0
744 248 1 0.5897 1.2141183985112722 16.266278107127086 6.560831630924995 0 0 0
739 247 2 -1.1794 4.577674158397689 15.790751023765521 6.720320115974251 0 0 0
723 241 1 0.5897 5.185421516089365 13.575942111437898 9.33738844331212 0 0 0
749 250 1 0.5897 1.4344111830783564 13.44332453011128 10.611848511181456 0 0 0
869 290 1 0.5897 0.5997699171091766 18.372944767847905 10.478869526185724 0 0 0
870 290 1 0.5897 2.112048060059199 18.431275920821555 10.516292850098354 0 0 0
745 249 2 -1.1794 4.954182357081275 18.47499668486295 6.481072793317208 0 0 0
727 243 2 -1.1794 6.030343140287033 16.754993161378977 9.320313439662074 0 0 0
768 256 1 0.5897 6.058148154616596 14.533323437617561 7.443484138477142 0 0 0
748 250 2 -1.1794 1.6618183736926182 12.52843865689451 10.4464121309467 0 0 0
627 209 1 0.5897 5.275785768360487 12.523083207670341 6.862523540599908 0 0 0
939 313 1 0.5897 0.4620373880000916 23.59456994648577 9.608484258423893 1 0 0
887 296 1 0.5897 6.0537873209165305 20.816496155750713 7.339565647963155 0 0 0
854 285 1 0.5897 1.6585118796859604 20.511484423688188 10.80066704178446 0 0 0
847 283 2 -1.1794 6.027222306119086 23.252461053537232 9.221725157700455 0 0 0
850 284 2 -1.1794 3.40581044821479 23.04421616014507 9.079775666072091 0 0 0
868 290 2 -1.1794 1.3311822874557884 18.733558066501452 10.980009742908257 0 0 0
865 289 2 -1.1794 5.034842672669526 24.646589127264193 6.331692864711181 0 0 0
851 284 1 0.5897 4.353702750086385 22.96647316159322 9.187675698941824 0 0 0
841 281 2 -1.1794 4.736473218868327 20.02262326796498 9.827568858122437 0 0 0
843 281 1 0.5897 4.683442017209861 19.24250876789786 10.379570236583852 0 0 0
842 281 1 0.5897 4.740600230052475 20.753796389231383 10.445200373543823 0 0 0
864 288 1 0.5897 0.9884153961562805 22.685720973900672 7.407021463167186 0 0 0
747 249 1 0.5897 4.126731245944727 18.71275209169788 6.899357001964554 0 0 0
746 249 1 0.5897 5.602814752595628 19.048668429443666 6.888886884794659 0 0 0
844 282 2 -1.1794 2.9898941458339765 20.159708612648785 7.661770946736464 0 0 0
856 286 2 -1.1794 0.21504852657845816 19.881505734040296 8.062439910463507 0 0 0
862 288 2 -1.1794 1.7164425472943003 23.031876513681375 6.890958869846968 0 0 0
853 285 2 -1.1794 1.8562130001114068 21.420932536922564 10.577250297235016 0 0 0
863 288 1 0.5897 2.4066130726855737 23.200283535863697 7.532400113077135 0 0 0
846 282 1 0.5897 2.0443923284009724 20.09094317914245 7.794011580688716 0 0 0
852 284 1 0.5897 3.0452573813065196 22.327664903287385 9.601945485198879 0 0 0
845 282 1 0.5897 3.362610460842288 20.06005189288299 8.537703835917833 0 0 0
855 285 1 0.5897 1.2082905078547435 21.650709713744057 9.911263356770805 0 0 0
937 313 2 -1.1794 0.0590106954842408 22.84534892281708 9.169911376919378 1 0 0
860 287 1 0.5897 4.170009436284085 21.48959545381114 6.927728233077454 0 0 0
866 289 1 0.5897 4.935565902590175 23.70232832690312 6.210830109376612 0 0 0
510 170 1 0.5897 2.391824153701699 24.514152738574836 9.831755730125792 0 -1 0
859 287 2 -1.1794 4.88193932407238 21.827720430360827 6.384612634304817 0 0 0
509 170 1 0.5897 1.5677988175467437 24.4727998031153 11.100963810602117 0 -1 0
888 296 1 0.5897 6.055485855328412 20.105731368102703 8.676112581947097 0 0 0
1201 401 2 -1.1794 4.335341359508306 14.212140601320792 15.757680584109305 0 0 0
1204 402 2 -1.1794 2.694591259807059 13.95796928236098 13.639337074246544 0 0 0
1205 402 1 0.5897 3.1298737507338448 14.020976550883832 14.48943882699394 0 0 0
1206 402 1 0.5897 3.0204898239169933 13.14054743188923 13.26288840247263 0 0 0
1210 404 2 -1.1794 3.3905507090081928 17.103184533436085 14.893816840246345 0 0 0
1211 404 1 0.5897 3.0383342635285957 17.8123657229323 15.431505696160636 0 0 0
1212 404 1 0.5897 4.332504862148292 17.27041598477082 14.86305195942838 0 0 0
1213 405 2 -1.1794 1.4819311312754233 15.147815584769184 16.68224403409686 0 0 0
1214 405 1 0.5897 0.7162960953012696 15.674441753394893 16.452844653357552 0 0 0
1215 405 1 0.5897 2.204435968785007 15.55313754827696 16.20281774846473 0 0 0
1218 406 1 0.5897 0.8577846042428539 13.834005341458779 13.799751445693701 0 0 0