LAMMPS data file via write_data, version 30 Jul 2021, timestep = 275000

2268 atoms
2 atom types
1512 bonds
1 bond types
756 angles
1 angle types

-0.395350646119617 47.0553486461184 xlo xhi
-0.09397127284372431 20.093972272843658 ylo yhi
-0.03496084842839409 20.7349588484278 zlo zhi

Masses

1 1.008
2 15.999

Pair Coeffs # lj/cut/tip4p/long/omp

1 0 0
2 0.21084 3.1668

Bond Coeffs # harmonic/omp

1 450 0.9572

Angle Coeffs # harmonic/omp

1 55 104.52

Atoms # full

1823 608 1 0.5897 4.225014238769123 7.03194865755245 3.697852935426125 0 0 2
1780 594 2 -1.1794 3.185886244593819 4.243817136766149 3.381275193957675 0 1 1
2066 689 1 0.5897 2.121691417866278 9.532561680950563 0.9926620520392375 0 0 1
837 279 1 0.5897 4.366660052654669 7.154779693355494 9.921091513486825 0 0 0
1569 523 1 0.5897 0.31906827816301686 3.4172569405003457 3.5074798919899255 0 0 0
1568 523 1 0.5897 0.25347866868927493 4.920838869002421 3.343661391695356 0 0 0
1299 433 1 0.5897 5.301088849281404 4.983725245488986 0.6696493565997137 0 1 0
1352 451 1 0.5897 4.405063991982804 1.8409032064510484 9.552781534512583 0 1 0
1850 617 1 0.5897 4.986347615483321 5.826886997217296 5.712892720736822 0 0 0
1849 617 2 -1.1794 5.013761176707357 5.892200328889555 4.7583169922730955 0 0 0
1336 446 2 -1.1794 2.8718146233387793 6.68335119874928 0.652990778201714 0 0 0
1039 347 2 -1.1794 0.01957918713569684 8.767326198322468 9.054029650337785 0 0 0
1782 594 1 0.5897 2.375833422671847 4.613334042295958 3.7326955647756144 0 1 1
2017 673 2 -1.1794 0.20541769099898988 1.9389025330007463 2.505811486262788 0 1 1
2019 673 1 0.5897 0.8411769809165659 2.172041810905871 1.8292849102034157 0 1 1
2044 682 2 -1.1794 4.6694669882233635 5.8992026440144905 7.592422540966529 0 0 1
2046 682 1 0.5897 5.0771189735605935 5.115864503602225 7.961789998967724 0 0 1
2124 708 1 0.5897 1.85947479103783 4.115615878558835 6.701598417242606 0 0 1
1113 371 1 0.5897 2.653566238944897 2.475806128050683 8.013276628257463 0 0 0
1536 512 1 0.5897 5.1405334704973304 1.5217455444443895 1.8247950965409407 0 0 1
1040 347 1 0.5897 0.4676315194540076 8.877293404701932 8.215347665129112 0 0 0
789 263 1 0.5897 0.5818270793690368 2.630076773143315 8.861412404069736 0 0 0
576 192 1 0.5897 2.9983423511312584 2.4909411967250503 3.9277258358576583 0 1 0
2045 682 1 0.5897 3.73359106592674 5.6987992300377455 7.578392526338814 0 0 1
20 7 1 0.5897 0.5965785894430852 7.131411415323845 2.1773589448881547 0 0 0
1111 371 2 -1.1794 1.803332128065477 2.5348546097476015 7.577571467486587 0 0 0
1535 512 1 0.5897 4.096995334062982 1.2505174720417702 2.887501880359808 0 0 1
1036 346 2 -1.1794 0.6741553254654893 9.071413166171737 1.8353101642385332 0 0 0
1824 608 1 0.5897 3.3577913590771966 7.145107232099667 2.4621318933644445 0 0 2
7 3 2 -1.1794 1.4787285167264141 0.46679233498126793 5.810242675064258 0 2 0
1092 364 1 0.5897 2.5650322607332128 7.929236731847212 9.985380725488652 0 0 -1
1807 603 2 -1.1794 2.191288520560419 2.8918063834400174 0.8522182294899239 0 0 1
1338 446 1 0.5897 2.030003800400495 6.363712443564729 0.9776597386983283 0 0 0
1523 508 1 0.5897 2.080747743310936 7.260464092548252 4.49612412451065 0 0 1
19 7 2 -1.1794 0.44996605708668147 6.20042778934615 2.010008014098285 0 0 0
1781 594 1 0.5897 3.8826100151506937 4.725195237923962 3.827456059169848 0 1 1
1524 508 1 0.5897 1.652293317905038 6.385375097364769 5.654804046384907 0 0 1
787 263 2 -1.1794 -0.16867483203910075 2.44024083106403 9.424381615779579 0 0 0
1567 523 2 -1.1794 0.3366960190587558 4.234443548639304 4.005604496841187 0 0 0
46 16 2 -1.1794 1.927173610892539 9.1100391410454 6.949974936154246 0 0 -1
2067 689 1 0.5897 3.5874813423877034 9.864185313525818 0.8100265367669155 0 0 1
1037 346 1 0.5897 0.5531124149571661 9.563732952091462 2.6472225387304533 0 0 0
1822 608 2 -1.1794 3.537557097839176 7.5676173272665 3.3020135361079914 0 0 2
2122 708 2 -1.1794 2.1252166745092307 5.034464358868818 6.738068097885105 0 0 1
583 195 2 -1.1794 5.381474606307733 9.775829554078209 0.9251370327076379 0 0 0
1534 512 2 -1.1794 4.4669452750735354 0.891725600033964 2.0808819197352384 0 0 1
1895 632 1 0.5897 3.710741532648508 9.440574789350991 3.745581062791648 0 0 0
2123 708 1 0.5897 1.5836576330369005 5.413620927600793 7.430298726769269 0 0 1
1351 451 2 -1.1794 4.274634592235311 2.6090169362186586 8.99670287045757 0 1 0
313 105 2 -1.1794 0.17079973682179017 6.0695435692167035 8.604998948970271 0 0 -1
1091 364 1 0.5897 3.405430938631469 9.056423797055897 9.42407256172723 0 0 -1
1808 603 1 0.5897 2.647140832114335 3.377968094181512 1.5392957816969448 0 0 1
1112 371 1 0.5897 1.7408148268458166 1.729987867562075 7.063262942100265 0 0 0
574 192 2 -1.1794 3.38824502689079 1.734674601539326 4.366208765450892 0 1 0
1522 508 2 -1.1794 1.3464036912755952 7.092379598256514 5.086642546184631 0 0 1
1809 603 1 0.5897 2.0224526132456146 3.5417035308817773 0.17004488833676287 0 0 1
1353 451 1 0.5897 3.950044571243545 3.2842599259974383 9.592454086043405 0 1 0
48 16 1 0.5897 1.7438118721727216 8.428897911710646 6.302935836376357 0 0 -1
107 36 1 0.5897 4.7010679864768115 1.2960310028925868 6.126852636459522 0 0 0
47 16 1 0.5897 2.35905319756246 8.64831564908031 7.668669976274958 0 0 -1
515 172 1 0.5897 0.12079981207593116 0.11807135244041495 2.2938577445376174 0 1 0
315 105 1 0.5897 0.4727704221469733 5.603043128269866 9.384371648503729 0 0 -1
1090 364 2 -1.1794 3.033518589269911 8.204103682637195 9.197219381045548 0 0 -1
8 3 1 0.5897 0.5297939977991744 0.5918734397589991 5.820269911262086 0 2 0
575 192 1 0.5897 2.6497262394159686 1.2935817106231564 4.786033838452573 0 1 0
314 105 1 0.5897 0.11774231784691025 6.985188816279409 8.878879631080665 0 0 -1
1038 346 1 0.5897 -0.11958605905935227 9.244480760357938 1.3290997926871735 0 0 0
1337 446 1 0.5897 2.641894672611149 7.347423588163022 0.0030862531661360743 0 0 0
1298 433 1 0.5897 3.8555793155572937 5.240873989150288 0.3005227361753801 0 1 0
2065 689 2 -1.1794 2.731310301675606 9.963716156936796 0.3937477610959931 0 0 1
11 4 1 0.5897 2.9898861377686554 1.4459908418171672 0.028147401782476322 0 1 0
1297 433 2 -1.1794 4.629534440954629 4.746869702721004 0.03000593634948956 0 1 0
811 271 2 -1.1794 0.14831000940769035 2.297347292928757 16.13099186725341 0 0 0
2050 684 2 -1.1794 1.7934625497115069 7.545869581239982 11.767366199391954 0 0 0
2071 691 2 -1.1794 5.2669908231422164 0.3283066346421892 12.992017131486657 0 1 0
1805 602 1 0.5897 4.627511105834467 2.806303600149729 17.530386877156808 0 1 0
1804 602 2 -1.1794 4.27428549610125 3.1690099636625204 16.718039914448553 0 1 0
1265 422 1 0.5897 1.5181270317392253 0.9844043161693707 13.48861908991172 0 0 -1
1339 447 2 -1.1794 3.578124646736267 3.2447631364527947 13.433530664166689 0 0 0
2107 703 2 -1.1794 3.583390049694245 7.306501483160156 16.52377912779238 0 1 0
29 10 1 0.5897 2.1428921733643786 7.561439514702573 17.7707931271389 0 0 0
330 110 1 0.5897 1.878889234575686 0.35021679278400725 11.437870572753331 0 1 -1
35 12 1 0.5897 4.822065925066202 9.13116538358495 18.84954680507623 0 0 0
1012 338 2 -1.1794 0.07622796702554108 9.124713333145698 16.167844713450176 0 0 0
779 260 1 0.5897 5.0786554796987 5.626317442278438 18.8894572757518 0 0 0
1794 598 1 0.5897 5.505413081259904 1.950316574091148 15.99679220603835 0 1 0
836 279 1 0.5897 4.688189888141689 7.281523676490195 11.395015503742684 0 0 0
28 10 2 -1.1794 1.362313904353938 7.3031967647130696 18.260929215872757 0 0 0
1341 447 1 0.5897 4.43386635104402 2.9204190873268154 13.714122150322003 0 0 0
1554 518 1 0.5897 2.53750185910223 4.0937314120424295 16.978897979199523 0 1 0
546 182 1 0.5897 1.029140706280932 1.0101021807869548 17.27694210146866 0 1 -2
783 261 1 0.5897 1.601787124727107 4.388024891566544 11.091368070546682 0 0 0
1264 422 2 -1.1794 1.8834540405330205 1.297257062686798 14.316200310308691 0 0 -1
2109 703 1 0.5897 4.006535015354148 8.090469463033543 16.173675056313968 0 1 0
1778 593 1 0.5897 2.2387688557118377 5.700709272512646 14.662666272315409 0 0 0
2035 679 2 -1.1794 3.434925454172435 4.403929906665428 10.902513579221164 0 1 0
781 261 2 -1.1794 0.6850377986160454 4.639642371850556 10.979648894771625 0 0 0
1266 422 1 0.5897 2.3782374589673863 0.5521105195276145 14.657044941920825 0 0 -1
329 110 1 0.5897 0.8117574888087618 1.245459085704438 10.844864808989856 0 1 -1
1552 518 2 -1.1794 1.6752443580743104 4.486728471200802 17.114137072535552 0 1 0
550 184 2 -1.1794 3.5991363144994066 0.30936870916680104 10.841163073203557 0 1 -1
581 194 1 0.5897 5.06559602103826 3.4089468721606457 19.850583480170144 0 2 -2
2108 703 1 0.5897 3.4607082533888733 6.739641307983986 15.762299700818307 0 1 0
1779 593 1 0.5897 3.2727347601144468 4.87136916649597 13.931233903453052 0 0 0
782 261 1 0.5897 0.299312699451728 3.9233114208707445 10.475351113525871 0 0 0
30 10 1 0.5897 1.528355447044843 6.395633729620257 18.515868551471044 0 0 0
335 112 1 0.5897 1.5393673726665638 4.265770781505045 18.92988291740907 0 1 -1
1531 511 2 -1.1794 0.4950748020617466 6.44532840322051 15.385377089096098 0 0 0
328 110 2 -1.1794 1.0376581558308078 0.7604350425423803 11.638560479581848 0 1 -1
1340 447 1 0.5897 2.9542309269248292 2.607153808697394 13.780573047320221 0 0 0
2037 679 1 0.5897 3.8771699952635394 5.246769276544792 10.801164453321194 0 1 0
2052 684 1 0.5897 0.8443435026955137 7.554893882069023 11.891117364323017 0 0 0
334 112 2 -1.1794 1.4952958456536904 4.66875871973957 19.796999150977708 0 1 -1
1532 511 1 0.5897 0.8962649403485807 5.924779481501254 16.081298022682656 0 0 0
582 194 1 0.5897 4.759529544047903 1.9869311347235943 19.430952916181496 0 2 -2
2051 684 1 0.5897 2.098217794678081 6.8126599589094905 12.301930598704175 0 0 0
780 260 1 0.5897 4.9023965359619845 6.315940131435843 17.553323223862275 0 0 0
577 193 2 -1.1794 5.245818656749849 8.654426075157051 12.912449743867288 0 0 -1
1777 593 2 -1.1794 3.1035934191079853 5.755716345618446 14.256125233273067 0 0 0
1806 602 1 0.5897 4.92197573153648 3.818102651445915 16.44344268225504 0 1 0
2036 679 1 0.5897 3.7004190996826933 4.09628508435001 11.769173271159481 0 1 0
1077 359 1 0.5897 3.041728111059945 9.845613595429734 19.531833420026313 0 0 -1
336 112 1 0.5897 0.5632850036238618 4.836277828624874 19.936694193544167 0 1 -1
813 271 1 0.5897 0.7842464254164265 1.9947846904363025 15.482711203798875 0 0 0
356 119 1 0.5897 4.453341934756534 9.507286880286873 14.302705691506336 0 1 -1
1553 518 1 0.5897 1.057143652503623 3.810572679514317 16.836657593879245 0 1 0
1148 383 1 0.5897 2.347338200132464 9.281730896216198 12.321245924141351 0 0 0
1014 338 1 0.5897 0.4188037814587784 8.264213667949107 15.926154799699638 0 0 0
10 4 2 -1.1794 3.399363571957829 0.8987278983542043 20.1279466559516 0 1 -1
580 194 2 -1.1794 5.34061925183455 2.723609126914043 19.241563213143987 0 2 -2
552 184 1 0.5897 4.140588529785909 0.24184847331531656 11.627610171549213 0 1 -1
12 4 1 0.5897 2.7830373079842534 0.914397029072886 19.395741702555195 0 1 -1
544 182 2 -1.1794 1.2138544487531961 0.7501015996510262 18.179445360982832 0 1 -2
2010 670 1 0.5897 -0.32243847278513516 7.651598750992653 18.84858914774471 1 0 0
1075 359 2 -1.1794 3.224695149821435 9.830784695814724 18.592400041443064 0 0 -1
835 279 2 -1.1794 4.768107674306006 6.6840298959087034 10.651479054864781 0 0 0
355 119 2 -1.1794 4.292534863696739 9.84915304258987 15.182194316319498 0 1 -1
2147 716 1 0.5897 0.2868691484236747 11.729808983822616 9.864722589375555 0 1 0
1027 343 2 -1.1794 0.27425525132474604 12.892684017311614 8.685271877902743 0 0 0
1770 590 1 0.5897 1.0266967377454879 16.492741068187787 9.833036492642702 0 0 0
1057 353 2 -1.1794 3.8204494609486135 12.771266832163583 3.01399508494016 0 0 1
844 282 2 -1.1794 5.086631883666275 14.832327302612246 0.27171303581870826 0 -1 0
2112 704 1 0.5897 0.51214228107234 11.590541214958677 3.3298855349702228 0 1 1
2111 704 1 0.5897 1.6566560900663458 10.92475702238189 4.063847644836036 0 1 1
838 280 2 -1.1794 4.3250566360196405 10.457707197489793 10.188590872432426 0 0 0
567 189 1 0.5897 5.323472524977771 13.052264135681744 0.0030376315243213423 0 1 1
757 253 2 -1.1794 4.095859065454129 12.269140854933132 8.015099407424804 0 -1 0
2074 692 2 -1.1794 3.1609989359809516 15.617062285145646 6.363244461030828 0 0 1
1769 590 1 0.5897 2.2163062829268134 15.612682975693193 9.513340471624131 0 0 0
511 171 2 -1.1794 1.8550684266201798 13.688694461474856 4.8096600780731436 0 0 0
271 91 2 -1.1794 0.07298708493356287 12.612405611457492 2.0883144192012995 0 0 0
839 280 1 0.5897 4.22679894280804 11.23004727927851 9.63175268085465 0 0 0
1580 527 1 0.5897 2.558744794521222 17.34133834252484 6.814817184239731 0 -1 -1
516 172 1 0.5897 0.09182948236393246 18.96694991541063 2.999526221951668 0 0 0
2148 716 1 0.5897 0.188008516771363 10.239423057608786 10.111446038832328 0 1 0
537 179 1 0.5897 1.1921704116856258 15.40238096230707 1.9732014417379595 0 0 0
1059 353 1 0.5897 3.33801897307022 12.81731329595964 2.1885438805103954 0 0 1
1768 590 2 -1.1794 1.2611881862872611 15.643657730582396 9.458464784754446 0 0 0
759 253 1 0.5897 4.566703091616504 11.584042149019437 7.540572549715391 0 -1 0
302 101 1 0.5897 4.802889675192897 15.26229933430155 9.352420584886948 0 1 0
1106 369 1 0.5897 1.915587402352251 10.783714951221517 6.754523058910814 0 -1 1
1097 366 1 0.5897 4.702745009590351 10.595737372256805 5.736405760828943 0 0 0
323 108 1 0.5897 3.801680331630606 17.52259438178196 3.5858122969489923 0 -1 0
98 33 1 0.5897 5.43018694265655 13.254915580343097 8.896555259428728 0 -1 0
1105 369 2 -1.1794 1.8095438232846242 11.729019074911221 6.647815051382328 0 -1 1
1579 527 2 -1.1794 2.2065392350906716 18.210216968518846 7.007774094076972 0 -1 -1
301 101 2 -1.1794 4.214863997160203 16.017535499916026 9.360910619211744 0 1 0
758 253 1 0.5897 3.328792552064191 12.452871478578187 7.4728106122356275 0 -1 0
2110 704 2 -1.1794 0.7404598493917627 10.798807735059443 3.8169806397357138 0 1 1
2039 680 1 0.5897 2.8705527443218517 16.29433144183569 2.0910519185559164 0 0 0
514 172 2 -1.1794 0.023912437424743638 19.367448824140936 2.1327957201799004 0 0 0
2038 680 2 -1.1794 2.715279963944586 16.132157959422408 1.160556313779203 0 0 0
2076 692 1 0.5897 3.0846554161921578 16.047593155477937 5.511746810176434 0 0 1
1581 527 1 0.5897 2.922809033306558 18.666996749187344 7.448836624310191 0 -1 -1
1058 353 1 0.5897 3.2318369257505313 13.164597241049613 3.658242745003725 0 0 1
1028 343 1 0.5897 0.6195896582220459 13.760521514526287 8.894638406348847 0 0 0
272 91 1 0.5897 0.8298522286420702 12.540468487645233 1.5067598774000208 0 0 0
1021 341 2 -1.1794 4.519282435509153 18.704702372204096 8.684206602686492 0 0 -1
281 94 1 0.5897 2.4887089396057926 11.748730444060397 0.5487612745608156 0 0 1
2040 680 1 0.5897 2.754229230818849 16.99884919403404 0.7561290642668649 0 0 0
277 93 2 -1.1794 2.2145487736669227 18.883274748168045 0.46138718038917886 0 0 0
324 108 1 0.5897 2.3271357655994596 17.32876846203918 3.868694878877758 0 -1 0
564 188 1 0.5897 0.0434062290035484 17.547124071935514 5.12926613989277 0 0 0
535 179 2 -1.1794 0.32479160453166545 15.429953659640157 2.377078474451002 0 0 0
279 93 1 0.5897 1.475121816512972 19.153992541728037 1.0056164359717004 0 0 0
512 171 1 0.5897 1.8289526778057081 12.93665655205928 5.401260702024571 0 0 0
1116 372 1 0.5897 4.92880134426871 19.482856466129913 2.726401564715973 0 0 0
1281 427 1 0.5897 0.15384753156821762 19.459322763431942 8.114139354730593 0 0 0
322 108 2 -1.1794 3.1773715694471862 16.89747157493658 3.954171071188998 0 -1 0
562 188 2 -1.1794 0.4776308170066178 17.664035972184127 4.284273350699814 0 0 0
513 171 1 0.5897 2.2927511513684937 14.375070397865052 5.313199843027994 0 0 0
1107 369 1 0.5897 1.0379750930862708 11.94460567477851 7.171674635390328 0 -1 1
280 94 2 -1.1794 2.3923815079010757 12.6950981381546 0.6552608523796044 0 0 1
1023 341 1 0.5897 5.450464828872283 18.75012036955314 8.467276745780925 0 0 -1
2075 692 1 0.5897 4.102611421974378 15.584539018515605 6.53215368615655 0 0 1
1896 632 1 0.5897 3.963403994766362 10.925970824317298 3.5984251316742233 0 0 0
1114 372 2 -1.1794 5.101177479645328 18.613908297064384 3.0889606271724124 0 0 0
273 91 1 0.5897 0.06793637310836986 13.529232789787674 2.3633342906727575 0 0 0
1022 341 1 0.5897 4.338343511557062 17.768727803401724 8.770486467724586 0 0 -1
750 250 1 0.5897 0.1553649715834846 14.172018905463924 5.278875683775155 1 0 0
9 3 1 0.5897 1.5958922748786355 19.70506729761996 5.835428673243035 0 1 0
845 282 1 0.5897 4.200457876396073 15.055072160158904 0.5568514651173416 0 -1 0
1096 366 2 -1.1794 5.433030384065581 10.812500528303767 6.3159939703677335 0 0 0
551 184 1 0.5897 3.964153952859923 19.846285233369258 10.24186649434506 0 0 -1
1894 632 2 -1.1794 3.642797300825512 10.270392960113128 4.217828142219064 0 0 0
1820 607 1 0.5897 0.29256334923463423 18.2920886409489 10.045972817031542 0 -1 0
563 188 1 0.5897 0.11025958370583577 16.976706238553998 3.728532926087908 0 0 0
1279 427 2 -1.1794 -0.21725341234085058 19.695621525493003 8.964244067374757 0 0 0
278 93 1 0.5897 2.640768985118453 19.7028620696342 0.2107025683715264 0 0 0
1551 517 1 0.5897 4.837282555576207 19.686157226659752 -0.034127359881079754 0 -1 0
585 195 1 0.5897 5.479352135462455 10.710534339161258 0.7435364863544522 0 0 0
536 179 1 0.5897 -0.23450760959141093 15.839061251036068 1.71674257525457 0 0 0
1512 504 1 0.5897 -0.37746444249902567 15.922647092720375 8.44668642244127 1 0 0
303 101 1 0.5897 4.3093220342212595 16.385367887617477 10.239550967773795 0 1 0
1056 352 1 0.5897 4.8192636932422745 12.752817518094941 16.40261222455506 0 -1 -1
1302 434 1 0.5897 4.145197446339557 16.51788197548883 17.900472604623047 0 0 -1
2029 677 2 -1.1794 1.9153206269166692 11.138293460366045 14.848396208465127 0 0 -1
770 257 1 0.5897 2.8008461169676804 15.2105654232024 14.60784361946482 0 0 0
263 88 1 0.5897 0.23516562333302837 15.095117351204157 16.02054243889266 0 0 -1
793 265 2 -1.1794 -0.017965284954571115 18.866541765611522 15.914509870655113 0 -1 0
1055 352 1 0.5897 4.782629001220943 11.71422456545915 15.30175900449621 0 -1 -1
764 255 1 0.5897 1.0469982778208566 14.676222192724772 12.476292535653439 0 -1 0
2061 687 1 0.5897 2.598299356745263 18.708085388102102 14.761651408494334 0 0 0
42 14 1 0.5897 2.464663913946375 15.055170891062927 18.785868310645498 0 -1 -1
1783 595 2 -1.1794 0.23482506905889278 13.207824651202335 16.19035565838351 0 0 0
23 8 1 0.5897 1.6040093726647622 18.385504498083034 19.48887031113375 0 -1 0
1149 383 1 0.5897 1.6536752667773786 10.462008770702768 11.674974160106016 0 0 0
1819 607 2 -1.1794 0.4520798846760683 17.700725098672034 10.781552241371461 0 -1 0
1301 434 1 0.5897 3.3347800030829706 15.945326297889867 16.757102589815144 0 0 -1
566 189 1 0.5897 5.348350094768347 12.05997319180675 19.629875948559885 0 1 0
1054 352 2 -1.1794 4.97689177094006 12.637072801688614 15.465601982315388 0 -1 -1
521 174 1 0.5897 5.010087920646064 16.715354048615545 15.549617237293774 0 0 -1
822 274 1 0.5897 3.7604861843691992 11.574172223230926 17.99077704624112 0 -1 0
24 8 1 0.5897 1.8630434411604164 17.83804531988397 18.101396231057905 0 -1 0
2058 686 1 0.5897 4.835650212262955 13.952837989704113 12.172934478909424 0 1 0
794 265 1 0.5897 0.918400224116789 18.904635250557327 15.719597119990524 0 -1 0
22 8 2 -1.1794 1.1939816896329842 18.271096183464433 18.631537945646556 0 -1 0
1066 356 2 -1.1794 2.19290135687327 18.27777826902623 12.932718496078971 0 0 -1
506 169 1 0.5897 0.40596130803389896 10.527118984206004 17.43220938621542 0 0 -1
1550 517 1 0.5897 5.342852756357434 18.99836259661595 19.485500494545377 0 -1 -1
1068 356 1 0.5897 1.4821346750718027 18.248115714070128 12.29228368436177 0 0 -1
769 257 2 -1.1794 3.6315432839667947 15.070085085659516 15.062191826211953 0 0 0
4 2 2 -1.1794 4.484258856646004 16.937577101356442 12.0310749331669 0 0 -1
1785 595 1 0.5897 0.7436229111800012 12.659065201337606 15.593514409596237 0 0 0
1300 434 2 -1.1794 3.245362380236684 16.38814970338868 17.600989358577493 0 0 -1
1273 425 2 -1.1794 1.4930903055849891 15.807552277840738 13.621747914529237 0 1 1
45 15 1 0.5897 3.2613755111369938 12.144770014363356 12.74766728382271 0 0 0
43 15 2 -1.1794 3.4107062953163045 12.984340487951677 12.312862226610417 0 0 0
40 14 2 -1.1794 2.1315398944371085 14.177619576252233 18.973387424627717 0 -1 -1
1274 425 1 0.5897 1.9850093384969827 16.612341619410547 13.45877755268302 0 1 1
5 2 1 0.5897 4.693639627532171 16.03703133527578 12.278882062955661 0 0 -1
44 15 1 0.5897 2.540739702237377 13.3778687837354 12.245630663874133 0 0 0
282 94 1 0.5897 2.46840335282759 13.04544954604763 20.53765181302977 0 0 0
771 257 1 0.5897 3.7886638382665314 14.12867524298992 14.989438868766946 0 0 0
1067 356 1 0.5897 2.9408249622235405 17.888811545094427 12.479351145236578 0 0 -1
820 274 2 -1.1794 4.125564589679875 12.457956919614064 18.034055168814234 0 -1 0
763 255 2 -1.1794 0.8500502659427762 14.024820817232024 11.803151184096718 0 -1 0
1275 425 1 0.5897 0.9149054138895452 16.023677023487966 14.35333538724748 0 1 1
2060 687 1 0.5897 3.4856187987083835 18.546860708189072 15.977611155242254 0 0 0
821 274 1 0.5897 3.360579752981575 13.03197047170192 18.07320731729815 0 -1 0
2030 677 1 0.5897 1.2573141102659413 10.563052231188925 15.238719142118276 0 0 -1
6 2 1 0.5897 5.335939367908133 17.357974230102812 11.912205889929377 0 0 -1
262 88 2 -1.1794 0.026119114118924702 16.004796429421017 15.808371141496112 0 0 -1
41 14 1 0.5897 1.1957946737797007 14.304516203735806 19.129912272999082 0 -1 -1
1076 359 1 0.5897 2.3922197545045405 10.064908888817529 18.18204101968654 0 0 -1
505 169 2 -1.1794 0.8077227826640763 11.227700705288767 17.94602181811529 0 0 -1
507 169 1 0.5897 0.5888660100347143 12.02942725930156 17.47108168497391 0 0 -1
795 265 1 0.5897 -0.17023255709639837 17.96094213501553 16.184582145929923 0 -1 0
2146 716 2 -1.1794 0.38799944999024627 11.067354316054265 10.548212593708039 0 1 0
840 280 1 0.5897 3.6469633293210224 10.555917190246145 10.85699995365758 0 0 0
2059 687 2 -1.1794 2.7479403250090613 19.05549470866302 15.640939004098492 0 0 0
2031 677 1 0.5897 2.04030771900987 10.794471173980746 13.963864522530283 0 0 -1
545 182 1 0.5897 1.2843805293905441 19.98407878655832 18.14471594992327 0 0 -2
1821 607 1 0.5897 -0.3678652789596614 17.705387489048412 11.275406593080586 0 -1 0
765 255 1 0.5897 0.8855764965336759 14.51205228782658 10.98000149907657 0 -1 0
520 174 2 -1.1794 5.258014473339055 17.623568501599028 15.722567983205643 0 0 -1
357 119 1 0.5897 3.366260741387957 10.0904739402444 15.180218999434635 0 1 -1
1549 517 2 -1.1794 5.514346530689235 19.08612075481796 20.423114754267814 0 -1 -1
1147 383 2 -1.1794 2.301808787009093 10.237608139865678 12.342652803109665 0 0 0
1815 605 1 0.5897 6.751995021864022 4.7305573508908445 2.0560412817576075 0 0 2
2115 705 1 0.5897 9.491472608805227 1.9701063403888681 4.199584585971197 0 1 1
344 115 1 0.5897 6.427778438701225 8.72313554440214 2.315994756937679 0 0 1
2022 674 1 0.5897 11.207272582838167 2.4538040343268133 8.678526878534639 0 1 0
584 195 1 0.5897 5.630578422499253 9.345110225172196 0.10742104958038373 0 0 0
290 97 1 0.5897 6.922714732992125 2.609207869946096 2.6383478018004576 0 -1 0
853 285 2 -1.1794 11.295747219006385 4.328351107097393 6.133228305049353 0 0 0
1318 440 2 -1.1794 9.341376352269444 0.12248819936714411 8.593228799764656 0 0 0
2113 705 2 -1.1794 10.395831171902687 2.1796366568714656 3.9662292426953005 0 1 1
2155 719 2 -1.1794 9.579672597411419 6.748977636932886 8.51436087046366 0 0 0
1835 612 1 0.5897 6.697377018617696 1.4017479700188284 4.732498983019007 0 1 0
2156 719 1 0.5897 8.690239420794814 6.760577816302257 8.867909900008573 0 0 0
286 96 2 -1.1794 8.558386837723909 2.731336277355717 6.835352415764877 0 0 0
1814 605 1 0.5897 7.248513458002984 5.937962702234993 1.2895322306042951 0 0 2
53 18 1 0.5897 7.11861103020297 5.035587220390119 9.360286787915717 0 0 0
3 1 1 0.5897 10.949881371901348 7.240787582010009 3.081957846412962 0 0 0
276 92 1 0.5897 8.37141436263369 4.676498248356114 4.0276887479597905 0 1 0
2157 719 1 0.5897 9.951660487135232 5.924478824400716 8.827502059764385 0 0 0
1276 426 2 -1.1794 9.530870154436924 8.117105117142545 3.9193244587525387 0 1 0
1851 617 1 0.5897 5.862875158653315 5.522239530140961 4.516741897795428 0 0 0
1086 362 1 0.5897 10.53337093264402 5.206652197537092 2.848083320911954 0 0 0
1546 516 2 -1.1794 6.201414916173174 8.109119551566584 7.322669931180152 0 0 1
1542 514 1 0.5897 9.18917855786433 3.4849582097658356 1.2791098464779573 0 0 1
291 97 1 0.5897 7.258725524399278 2.7469645884881264 1.168649152405402 0 -1 0
1098 366 1 0.5897 5.734234738568007 9.967141494547278 6.64897291196295 0 0 0
509 170 1 0.5897 6.504034391538935 1.1081861076285782 9.764527677738387 0 1 -1
316 106 2 -1.1794 10.59122901180955 4.045191613425238 9.096508879360108 0 0 0
84 28 1 0.5897 8.147503482522458 6.255879318239202 5.616885220589827 0 0 -1
82 28 2 -1.1794 8.39927536450052 7.056662407040142 6.07687373902693 0 0 -1
1087 363 2 -1.1794 6.450958039436452 3.8448251695557016 8.192532763381148 0 0 0
289 97 2 -1.1794 6.587097780792171 2.9641230800958582 1.815166627632259 0 -1 0
1541 514 1 0.5897 9.73336171898572 2.0985608528287814 1.0077068667307558 0 0 1
510 170 1 0.5897 7.41577292169274 0.4327759439117729 8.762310346163535 0 1 -1
1277 426 1 0.5897 9.270000115574334 7.777291520482139 4.7753061363860265 0 1 0
52 18 2 -1.1794 7.346469043470467 5.733772107596784 9.9741680428979 0 0 0
1084 362 2 -1.1794 9.846976007315417 4.542748128544377 2.91381434380157 0 0 0
1089 363 1 0.5897 7.187073315301797 3.366389647746872 7.811140251976965 0 0 0
1813 605 2 -1.1794 6.587690615759114 5.664505049138381 1.92574060203616 0 0 2
1088 363 1 0.5897 5.809734949212748 3.1673183511474927 8.407113334843345 0 0 0
1559 520 1 0.5897 6.674954524948445 9.241970654339562 8.604942687676164 0 0 0
318 106 1 0.5897 10.013979077053737 3.7104627863123785 9.78277967757063 0 0 0
275 92 1 0.5897 7.517604798199208 3.8527696630429955 4.968098077262677 0 1 0
288 96 1 0.5897 8.684508338214588 1.8229607212323633 7.109540816585926 0 0 0
1834 612 2 -1.1794 7.380858947846069 1.70832743777952 4.136606002077341 0 1 0
287 96 1 0.5897 9.44415516097376 3.0892390923360233 6.775826800607632 0 0 0
2114 705 1 0.5897 10.843531432369579 1.3336379852327733 3.9572656130195587 0 1 1
1278 426 1 0.5897 8.710621505184122 8.196020594833632 3.4323045982547846 0 1 0
1085 362 1 0.5897 10.221436560213837 3.8653453658275705 3.476964167336787 0 0 0
348 116 1 0.5897 9.880157549074262 9.440073035035192 -0.032225087524514834 0 -1 1
1540 514 2 -1.1794 9.193303740941762 2.788568577080546 0.622408142890765 0 0 1
343 115 2 -1.1794 6.91564882360469 8.280509037209052 3.010469159211559 0 0 1
1836 612 1 0.5897 7.725818314754534 0.9102686694692199 3.7361859285183114 0 1 0
101 34 1 0.5897 10.861736760179593 9.379657102836148 3.898263145193858 0 0 0
274 92 2 -1.1794 7.602497339461147 4.730262918813415 4.595228479318867 0 1 0
83 28 1 0.5897 8.96849898848533 6.75731883648448 6.785822004767984 0 0 -1
508 170 2 -1.1794 6.515060099200587 0.7329961426945207 8.883991926311639 0 1 -1
1548 516 1 0.5897 6.92142211920464 7.595112050797597 6.957140705754533 0 0 1
31 11 2 -1.1794 8.424204766798589 6.5989664786822315 0.15466348709533054 0 0 0
345 115 1 0.5897 6.680916057086728 7.3571884013723965 2.9176663837121004 0 0 1
1892 631 1 0.5897 11.305322750321041 9.878052198009513 9.572345260444333 0 1 1
1313 438 1 0.5897 10.303579160916868 7.985643377343045 9.641003188003944 0 1 0
1319 440 1 0.5897 10.198447679070854 0.5481227200171377 8.571124466579315 0 0 0
347 116 1 0.5897 8.640043701558506 8.572129892133361 -0.006282263121118566 0 -1 1
1560 520 1 0.5897 6.039770658687673 9.995912754974718 9.753856591292807 0 0 0
32 11 1 0.5897 9.372510302821071 6.553986690847196 0.27678935262605975 0 0 0
106 36 2 -1.1794 5.6185505118277765 1.0696402943994656 6.279152359969694 0 0 0
1558 520 2 -1.1794 6.888601085266017 9.77647448140964 9.369725107308792 0 0 0
1547 516 1 0.5897 5.604580607625835 7.457858063222938 7.691283684575184 0 0 1
785 262 1 0.5897 10.895557003621025 -0.03833936683395316 1.3855746177986994 0 0 0
317 106 1 0.5897 11.44380250123816 4.134355395288182 9.522410222052056 0 0 0
784 262 2 -1.1794 11.051641475361652 0.7364716372347034 0.8456314753021756 0 0 0
108 36 1 0.5897 5.722209928280151 1.1144939318494538 7.229665557296544 0 0 0
17 6 1 0.5897 6.86278104346895 9.917384049629936 3.802990906748257 0 0 0
1516 506 2 -1.1794 11.305699450174423 6.4641978022363 0.0710064289715433 0 1 1
1771 591 2 -1.1794 6.519110895342638 4.6460768033059665 15.573759305964218 0 1 0
778 260 2 -1.1794 5.546757134996878 6.15394388830063 18.24236908695707 0 0 0
33 11 1 0.5897 8.291435713692369 6.393967368830396 19.99906733079078 0 0 -1
1772 591 1 0.5897 6.571626693679384 5.601635579907465 15.554201781495955 0 1 0
1530 510 1 0.5897 6.836772593727543 3.0640647888408012 11.699019628426868 0 0 0
2027 676 1 0.5897 10.543480614531997 3.3976705858134224 20.426720673649953 0 1 1
1829 610 1 0.5897 9.426706543426832 5.92436932000775 13.519832388099086 0 1 1
777 259 1 0.5897 8.894297459512565 2.462209012354579 15.199348630012043 0 0 0
830 277 1 0.5897 9.387622733851256 9.127694820953195 18.44651106996443 0 0 0
1293 431 1 0.5897 6.6829240194479 8.104127368437355 15.61636671934125 0 0 0
75 25 1 0.5897 9.734801569220888 3.508941402372444 13.246563466584636 0 0 -1
1019 340 1 0.5897 7.206340138425411 2.4810673991333974 18.99223603009245 0 0 -1
579 193 1 0.5897 5.815095395860508 8.044184103021138 13.381232504706771 0 0 -1
1828 610 2 -1.1794 8.911880179307111 6.730629278315106 13.486245252978868 0 1 1
1270 424 2 -1.1794 9.845826718632768 9.520578560721578 15.176489097205826 0 0 0
1528 510 2 -1.1794 6.639532344824082 2.196978398322581 11.344775032756056 0 0 0
34 12 2 -1.1794 5.675040609716728 8.769261784125675 19.089720887845733 0 0 0
1830 610 1 0.5897 9.558196625047197 7.422351165486754 13.34474012516912 0 1 1
1314 438 1 0.5897 9.884520812593617 9.0615716279299 10.620115961617966 0 1 0