#include		in.partitions
include		in.temp
variable        temperature equal 274.28
variable	tempDamp equal 100.0
include		in.pressure
variable        pressure equal 9875.0
variable        pressureDamp equal 1000.0 # This is 1 ps
include		in.seed
variable        seed equal 745823

units		real
atom_style	full
read_restart	restart.lmp.${pid}
read_restart	restart.lmp.0
Reading restart file ...
  restart file = 30 Jul 2021, LAMMPS = 30 Jul 2021
  restoring atom style full from restart
  orthogonal box = (-0.072781599 -0.13740459 -0.12769699) to (24.802783 24.867406 22.937697)
  4 by 4 by 2 MPI processor grid
  restoring pair style lj/cut/tip4p/long/omp from restart
  restoring bond style harmonic/omp from restart
  restoring angle style harmonic/omp from restart
  1920 atoms
  1280 bonds
  640 angles
Finding 1-2 1-3 1-4 neighbors ...
  special bond factors lj:    0        0        0       
  special bond factors coul:  0        0        0       
     2 = max # of 1-2 neighbors
     1 = max # of 1-3 neighbors
     1 = max # of 1-4 neighbors
     2 = max # of special neighbors
  special bonds CPU = 0.002 seconds
  read_restart CPU = 0.009 seconds
include 	in.setup
variable	out_freq equal 1000
variable	out_freq2 equal 10000
variable	out_freq3 equal 1000

timestep	2.0

neigh_modify    delay 7 every 1

include		in.tip4p
# This is TIP4P/Ice

# create groups ###
group ox type 2
640 atoms in group ox
group hy type 1
1280 atoms in group hy

# set charges - beside manually ###
set group ox charge -1.1794
Setting atom values ...
  640 settings made for charge
set group hy charge 0.5897
Setting atom values ...
  1280 settings made for charge

# ### TIP3P Potential Parameters ###
pair_style lj/cut/tip4p/long/omp 2 1 1 1 0.1577 8.5
pair_coeff 1 1*2 0.000 0.000
pair_coeff 2 2 0.21084 3.1668
bond_style  harmonic
bond_coeff  1 450 0.9572
angle_style harmonic
angle_coeff 1 55 104.52
kspace_style pppm/tip4p/omp 1.0e-5
pair_modify tail yes

thermo          ${out_freq}
thermo          1000
thermo_style    custom step temp pe etotal epair emol press lx ly lz vol pxx pyy pzz pxy pxz pyz enthalpy

restart 	${out_freq3} restart.lmp.${pid} restart2.lmp.${pid}
restart 	1000 restart.lmp.${pid} restart2.lmp.${pid}
restart 	1000 restart.lmp.0 restart2.lmp.${pid}
restart 	1000 restart.lmp.0 restart2.lmp.0


include         in.dump
dump            myDump all atom ${out_freq2} dump.water.${pid}
dump            myDump all atom 10000 dump.water.${pid}
dump            myDump all atom 10000 dump.water.0
dump            myDump2 all dcd ${out_freq2} dump.dcd
dump            myDump2 all dcd 10000 dump.dcd
dump_modify     myDump append yes
dump_modify     myDump2 append yes


variable natoms 	equal  "count(all)"                        # NUMBER ATOMS
variable H      	equal  "enthalpy/v_natoms"                 # ENTHALPY-per-atom
variable Vol      	equal  "vol/v_natoms"                 # volume-per-atom
fix AVG all 		ave/time ${out_freq} 1 ${out_freq} v_Vol v_H file vol_enthalpy.dat
fix AVG all 		ave/time 1000 1 ${out_freq} v_Vol v_H file vol_enthalpy.dat
fix AVG all 		ave/time 1000 1 1000 v_Vol v_H file vol_enthalpy.dat




fix 		1 all shake 1e-6 200 0 b 1 a 1
       0 = # of size 2 clusters
       0 = # of size 3 clusters
       0 = # of size 4 clusters
     640 = # of frozen angles
  find clusters CPU = 0.001 seconds
fix             2 all nph aniso ${pressure} ${pressure} ${pressureDamp}
fix             2 all nph aniso 9875 ${pressure} ${pressureDamp}
fix             2 all nph aniso 9875 9875 ${pressureDamp}
fix             2 all nph aniso 9875 9875 1000
fix             3 all temp/csvr ${temperature} ${temperature} ${tempDamp} ${seed}
fix             3 all temp/csvr 274.28 ${temperature} ${tempDamp} ${seed}
fix             3 all temp/csvr 274.28 274.28 ${tempDamp} ${seed}
fix             3 all temp/csvr 274.28 274.28 100 ${seed}
fix             3 all temp/csvr 274.28 274.28 100 745823


run             250000
PPPM initialization ...
  extracting TIP4P info from pair style
  using 12-bit tables for long-range coulomb (../kspace.cpp:340)
  G vector (1/distance) = 0.37436912
  grid = 30 30 30
  stencil order = 5
  estimated absolute RMS force accuracy = 0.0032797221
  estimated relative force accuracy = 9.8767858e-06
  using double precision FFTW3
  3d grid and FFT values/proc = 5400 960
Last active /omp style is kspace_style pppm/tip4p/omp
Neighbor list info ...
  update every 1 steps, delay 7 steps, check yes
  max neighbors/atom: 2000, page size: 100000
  master list distance cutoff = 10.8154
  ghost atom cutoff = 10.8154
  binsize = 5.4077, bins = 5 5 5
  1 neighbor lists, perpetual/occasional/extra = 1 0 0
  (1) pair lj/cut/tip4p/long/omp, perpetual
      attributes: half, newton on, omp
      pair build: half/bin/newton/omp
      stencil: half/bin/3d
      bin: standard
Per MPI rank memory allocation (min/avg/max) = 10.54 | 10.54 | 10.55 Mbytes
Step Temp PotEng TotEng E_pair E_mol Press Lx Ly Lz Volume Pxx Pyy Pzz Pxy Pxz Pyz Enthalpy 
  500000    278.74762   -9022.5424   -7959.8293   -9022.5424            0    9016.1053    24.875564     25.00481    23.065394    14346.877    9384.5287    9449.8565    8213.9308   -295.12633   -1007.4401   -296.45283   -6073.3492 
  501000    282.03061   -9095.2754   -8020.0461   -9095.2754            0    8646.6416     24.98373    25.067099    22.939724    14366.452    8659.6649    7717.8212    9562.4388    1150.5384    -357.8752    423.62771    -6208.402 
  502000    279.14684   -9062.2995   -7998.0644   -9062.2995            0    9494.9357    25.062948    24.935343    22.933345    14332.268    9380.6951    9833.0351    9271.0771   -323.50689    886.91324    1003.7767   -6013.4194 
  503000    279.12535   -9050.5876   -7986.4345   -9050.5876            0    9919.0052    24.930028     24.79822    23.117964    14291.995     8720.235    11259.706    9777.0745    -758.0375    -825.9365   -232.16893   -5918.9757 
  504000    272.58179   -9081.7566   -8042.5505   -9081.7566            0    9303.5937    25.030231    24.946776    22.950435    14330.793    7897.0266    9281.4034    10732.351   -588.70246   -1768.7689   -341.83866   -6098.1003 
  505000    270.44153    -9012.378   -7981.3316    -9012.378            0    8815.4252    25.054384    24.965315    22.965891    14364.948    9243.0743     8176.276    9026.9252    -429.1065   -87.924796   -434.26041   -6134.5173 
  506000    277.13548   -9019.5835   -7963.0166   -9019.5835            0    9594.9201    24.893434    24.864145    23.185988    14351.059    10533.662    9814.9899    8436.1087   -612.68806    923.86342   -140.48801   -5954.8433 
  507000    273.46707   -9074.1711   -8031.5899   -9074.1711            0    9207.4355    25.006366    25.042132     22.93764    14363.841    9123.7869    8647.7705    9850.7491   -490.32196    754.74301     442.3659   -6102.7988 
  508000    268.51484   -9050.5168   -8026.8158   -9050.5168            0    9494.6868    24.926908     25.00108    22.981314    14321.946    10044.516    9319.6922    9119.8521    580.42522   -358.31804   -88.908945   -6043.6521 
  509000    282.09537   -9023.3523   -7947.8761   -9023.3523            0    9336.7165    24.871513    25.008049    23.063557    14345.256    9397.3717    9101.4837    9511.2941   -1301.6016    -1763.258   -329.88341   -5994.5337 
  510000    265.56103   -8986.2002   -7973.7604   -8986.2002            0    9978.7179    24.912433    25.145799    22.863927    14322.948    10005.724    9314.2767    10616.153   -43.870166    142.09135   -1675.9972   -5889.3509 
  511000    272.49078   -9050.8694   -8012.0103   -9050.8694            0    9187.7261     24.86962    24.983436    23.049527     14321.33    9863.0001    8542.5497    9157.6285   -138.83224    456.06906    1034.6912   -6093.0443 
  512000    277.81965   -9014.0961   -7954.9209   -9014.0961            0     8151.188    24.924092    25.127499    22.967164    14383.878    9351.3253    6889.2288    8213.0097    260.68776    -271.2974   -521.90852   -6245.0127 
  513000    276.30746   -9024.7138   -7971.3037   -9024.7138            0    9626.6116    24.890973    25.053718    22.989264    14336.367    9961.7602    8810.6778    10107.397   -32.718974    537.31319   -729.95405   -5958.5601 
  514000    265.73413   -9060.4757   -8047.3761   -9060.4757            0    9554.8199    24.807044    24.931835    23.160714    14324.557    10197.417    9527.7524    8939.2904    476.76544    80.301304    371.68924   -6051.2884 
  515000    270.64679   -9042.4661   -8010.6371   -9042.4661            0    9498.1359    25.034013    25.071044    22.867573    14352.348    9385.3347    9269.7096    9839.3634   -862.50884     1169.137    781.36681   -6022.5416 
  516000    277.00275   -9045.5976   -7989.5368   -9045.5976            0    9783.1711    24.986842     24.92089    22.977967     14308.25    10616.522     9309.173    9423.8178   -542.76831    774.94408   -347.40079   -5948.0712 
  517000    281.64624   -9059.7063   -7985.9424   -9059.7063            0    10873.684    24.860338    24.969204    23.007019    14281.443    10921.309    10490.163    11209.581   -115.14359   -464.40545   -888.99526   -5721.1693 
  518000    276.91779   -9086.4262   -8030.6893   -9086.4262            0     9603.176    24.953997    25.123944    22.784304    14284.456     9796.517    8090.6678    10922.343   -22.406247    245.66428    145.88033    -6030.116 
  519000    271.09944   -9044.3858   -8010.8311   -9044.3858            0     11248.69    24.745557    24.955409    23.058893    14239.685    11469.655    12035.896    10240.519   -417.89347    -616.8655     65.79108   -5674.8021 
  520000    258.50368   -9014.1833   -8028.6494   -9014.1833            0    10397.646    24.853314    24.992459    23.012221    14293.936    12185.043     9009.019    9998.8761    351.31154    1064.8244   -284.49198   -5861.1312 
  521000    272.32313   -9061.1906   -8022.9707   -9061.1906            0    9177.8869    24.964718    25.076288    22.871646    14318.164    9295.6675    8988.1761    9249.8171   -649.09327    47.300194    499.86825   -6106.4835 
  522000    276.35706   -9024.7198   -7971.1207   -9024.7198            0    9877.4042    24.839759    25.020119    23.047962    14324.164    10105.875    9059.9311    10466.407   -969.18822    373.14582   -288.54848    -5907.699 
  523000    267.89813    -9068.122   -8046.7721    -9068.122            0    10017.853     24.94227    24.934563    22.949563    14272.898    9877.9676    10955.752    9219.8391    165.89024    8.5238796    672.10568   -5961.5001 
  524000    288.17496    -9028.149   -7929.4946    -9028.149            0    10114.418    24.982267    24.879419    23.016524    14305.789    9404.6907    10968.623    9969.9414    483.03595   -165.29829    462.00094   -5819.2703 
  525000    273.33668   -9030.1817   -7988.0976   -9030.1817            0    9400.7478    24.995542    25.028993    22.922573    14340.665    8935.4525    9319.1768    9947.6142   -405.14715    375.93348   -330.61958   -6021.9886 
  526000    279.20541   -9031.1041   -7966.6457   -9031.1041            0    9244.1908    24.942244    24.910522    23.099002    14351.972    9815.3681     9591.209    8325.9952   -881.40519    421.24519   -754.85731   -6031.7553 
  527000     262.6593   -9005.4934   -8004.1164   -9005.4934            0    8776.0225     25.04447    25.035788    22.979196    14408.141    7234.6519    9906.4526    9186.9629    399.92447   -294.81985    1072.7059   -6160.0288 
  528000    275.27673   -9075.3159   -8025.8354   -9075.3159            0    8508.5455    25.075205    24.859957    23.001671    14338.518    7897.4189    9444.7914    8183.4261    1722.1795   -1113.2892    909.92728   -6246.5916 
  529000    272.08372   -9059.8271   -8022.5198   -9059.8271            0    8781.1398    24.953589    24.930955    23.054812    14342.786    8032.4045    9869.8302    8441.1848    583.67286    483.29294   -59.756071   -6185.7265 
  530000    275.47404   -9011.5862   -7961.3535   -9011.5862            0    9760.8252    24.969508    24.816734     23.10354    14316.377    9673.6105    11037.351     8571.514    48.567632   -139.61951     305.1477    -5923.394 
  531000    287.24723   -9051.9733   -7956.8558   -9051.9733            0    8955.5166    25.052202    25.044992    22.896606    14366.068     7942.835    9338.9661    9584.7488   -241.69849    262.75476    925.86784   -6080.5465 
  532000     282.9781   -9059.7764   -7980.9348   -9059.7764            0    7932.8991    25.138489    24.907761    23.008804    14406.812    6191.4369    9035.5967    8571.6638    145.35952   -968.56956   -432.82955   -6314.1647 
  533000    276.59832   -9046.2962   -7991.7772   -9046.2962            0    8727.9069    24.952487    24.971598    23.083989    14383.714    8778.2894    8909.8069    8495.6245     -1266.34    363.95567    177.22813   -6160.9093 
  534000    264.42596   -9061.2537   -8053.1413   -9061.2537            0    8955.9512     24.93821    24.995434    23.009909    14343.028    9070.9661    8604.6429    9192.2446    37.142454   -420.11296   -655.03553   -6179.7502 
  535000    266.72115   -9084.3561   -8067.4934   -9084.3561            0    9896.7914    24.905232    25.012705    22.930036    14284.202    9360.6312    9491.5467    10838.196    208.91934    487.03369    242.79052   -6005.7895 
  536000    275.16958   -9066.7733   -8017.7013   -9066.7733            0    9618.6888    24.888121    25.024806    22.946407    14291.491    9393.6616    9296.1505    10166.254   -110.91272   -1287.9037    161.24133   -6012.9094 
  537000    287.26478   -9089.0199   -7993.8356   -9089.0199            0     10670.02    24.828652    24.912744    23.034416    14247.935    11169.411    9641.5068    11199.143     47.50681   -378.37378    1169.0646    -5776.696 
  538000    279.51309   -9040.2147   -7974.5833   -9040.2147            0    10717.104    24.840153    24.965101    22.977807    14249.387    9533.9441    11790.767    10826.602   -107.60366    201.57761   -49.857332   -5747.4331 
  539000     278.8108   -9085.3316   -8022.3777   -9085.3316            0    9863.1576    24.901742    25.070487    22.860502    14271.784     9643.635    8348.3094    11597.528   -129.13876     436.7504   -697.14174   -5969.4667 
  540000    266.18176   -9029.7326   -8014.9263   -9029.7326            0    11445.748     24.87194    24.969055    22.896152    14219.171    11843.729    11300.284    11193.231    798.61954    572.28875    1081.9275   -5641.3984 
  541000    264.20484   -9053.9627   -8046.6934   -9053.9627            0    11249.733     24.89807    24.800596    23.042692    14228.563    11737.971    11314.506    10696.722    230.66938   -208.16532   -455.14871   -5712.2727 
  542000     279.5283   -9077.0815   -8011.3922   -9077.0815            0    9337.5749     25.03441    24.957858     22.91303    14316.181    8908.8876    10072.748    9031.0887   -290.28521   -35.876514    51.163305   -6061.8296 
  543000    279.39378   -9050.0984   -7984.9219   -9050.0984            0    9708.7142    24.916537    24.971119     23.00412    14313.022    9115.6118    10756.944    9253.5871   -392.44809    224.91338   -334.20557   -5958.3178 
  544000    274.89465   -9061.3895   -8013.3658   -9061.3895            0    10715.488    24.934492    24.920916    22.931277    14249.274    11841.189    10122.792    10182.483    335.32119   -77.147501    649.83837   -5786.5689 
  545000    268.65134   -9102.5355   -8078.3141   -9102.5355            0    9327.8364    24.950517    24.996675    22.946016     14310.97     8857.339    8753.8095    10372.361   -894.24703    661.06456     349.9702   -6131.4937 
  546000    284.27417    -9039.592   -7955.8092    -9039.592            0    9479.9369    24.914406    25.015742    22.988203    14327.451    10111.009    8878.4879    9450.3144    217.03399   -738.65484   -42.241433   -5974.9652 
  547000    274.23764   -9057.7174   -8012.1985   -9057.7174            0    10414.708    24.765559    24.987647    23.032285    14253.139    11572.565    9621.7866    10049.774   -279.74716    112.96562    328.60228     -5847.32 
  548000    270.54629    -9050.212   -8018.7661    -9050.212            0    10372.292    24.964887    25.055246    22.819784    14273.806    10281.238      10086.4    10749.239    1119.3206   -614.95596   -855.86177   -5859.5783 
  549000    280.66233   -9047.6409   -7977.6281   -9047.6409            0    9508.8672    24.995897    24.951652    22.972232    14327.526    9077.4113    9471.5646    9977.6256      719.975    300.99437   -36.019453   -5990.7287 
  550000     281.9691   -9039.9248     -7964.93   -9039.9248            0    10150.368    24.979722    24.863105    22.988777    14277.719    9985.6348    10960.507    9504.9613   -108.95772    431.30926    393.16823   -5851.3607 
  551000    268.83096   -9019.0695   -7994.1632   -9019.0695            0    9267.8337    24.986785    24.974998    22.970814    14334.819    8152.5599    10426.202    9224.7395   -79.495037   -882.45267    390.08617   -6056.6426 
  552000    280.35037   -9075.5296   -8006.7061   -9075.5296            0    9077.1115    25.009254    24.938625    22.971076    14326.977    8269.9943    10059.481    8901.8591   -198.86855    30.074831    289.18779   -6110.0957 
  553000     266.8882   -9027.6165    -8010.117   -9027.6165            0    10424.035    25.017083    24.883392    22.980363    14305.503    9975.6479    10782.871    10513.587    141.59142   -767.26939    147.19619   -5835.3391 
  554000    272.71679   -9036.2454   -7996.5246   -9036.2454            0    6761.8322    25.056416    25.020023    23.083731     14471.47    6598.2739    6510.5986    7176.6241   -104.08486    587.85422    141.71755   -6569.4295 
  555000    277.80207   -9025.0611    -7965.953   -9025.0611            0      10339.4    24.879432    24.946322    23.051297    14306.795    11491.033     8991.113    10536.053   -289.84425   -1316.0717    1179.7372   -5808.6379 
  556000    274.18496   -9005.9778   -7960.6597   -9005.9778            0    9608.2856    24.963575    25.153682     22.81389    14325.431     9516.788    7962.1804    11345.888    420.26642    -1003.093    316.58581   -5953.2802 
  557000    279.97167   -9066.2454   -7998.8658   -9066.2454            0    10221.637    24.836231      24.9555     23.01954    14267.524    10516.901    10712.452     9435.557   -406.34785   -1633.3289    778.65299   -5871.9761 
  558000    261.95369   -9018.0559    -8019.369   -9018.0559            0    11109.501    24.803906    24.948954    23.003294    14235.163    11148.514    11826.073    10353.915    85.946709    994.52566    486.97621   -5712.9783 
  559000    265.87939   -9013.5264   -7999.8729   -9013.5264            0    11101.538    24.987054    24.920102    22.906543    14263.444    10230.968    11344.642    11729.004   -390.19296    71.936234   -415.05242   -5690.5565 
  560000    272.95094   -9090.1067   -8049.4932   -9090.1067            0    10926.482    24.958353    24.748477    23.023464    14221.161    9741.0618    12212.649    10825.737   -463.34134     223.6831   -264.98516   -5783.3293 
  561000    275.58788   -9079.4567     -8028.79   -9079.4567            0    9068.4562    24.953616    24.911809    23.025212    14313.386    8840.8168    9814.0194    8550.5324    310.31965   -365.69305   -432.60628   -6135.7855 
  562000    278.02048   -9058.4004   -7998.4596   -9058.4004            0    9123.4519     25.14926    24.923281    22.865817    14332.342     6070.105    12043.207    9257.0439    168.70173   -3.4899519    2133.5443   -6091.4528 
  563000    286.57643   -9032.7847   -7940.2247   -9032.7847            0     10313.93    24.997869    24.860282    23.002929    14295.264    10553.823     10456.55    9931.4177    814.34557    196.90104   -49.803768   -5789.9584 
  564000    279.10556   -9054.0516   -7989.9739   -9054.0516            0    10320.413    25.009284    24.868623    22.932908     14263.04    10513.227    9779.1338    10668.877   -563.90185    1354.2506   -563.94183   -5843.2061 
  565000    268.33855   -9078.6118   -8055.5829   -9078.6118            0    9283.3865      25.0984    24.851482    22.916025    14293.468    7842.5138    10715.103    9292.5427    1041.3928   -2.4789657    596.41441   -6120.4092 
  566000    278.30753   -8987.9471   -7926.9119   -8987.9471            0      9806.06    24.987351    24.883684    23.085793    14354.224    10035.026    10019.787     9363.367   -899.35999   -819.46803   -364.96483   -5874.0953 
  567000    266.87355     -9058.29   -8040.8463     -9058.29            0     9827.557    24.973612    25.066743    22.857798    14309.144    8706.2587    9758.6409    11017.771    315.14319   -731.15969    102.18656   -5989.9906 
  568000    271.30552   -9069.4468   -8035.1064   -9069.4468            0    9468.3132    24.824214    24.999028    23.046689    14302.342    10093.779    9718.3903    8592.7702   -151.21597    15.575027    1084.4003   -6060.1584 
  569000    269.06926   -9073.2277   -8047.4129   -9073.2277            0    9719.9269    24.907486    25.049773    22.925618    14303.909    9908.6516    9611.8153     9639.314   -180.69238   -359.91233    404.64753   -6019.7599 
  570000    265.39499   -9030.9442   -8019.1375   -9030.9442            0    11059.604    24.805038    25.083755    22.884496    14238.814    11809.507    9822.9908    11546.313    164.60698   -66.056089    189.67184   -5722.5169 
  571000    278.67154   -9064.8656   -8002.4426   -9064.8656            0    8770.8379    24.746158    25.116087    23.080538     14345.17    9528.7945    8403.3937    8380.3254    646.78067   -498.77027    820.96695   -6167.4992 
  572000    275.94534   -9017.7775   -7965.7481   -9017.7775            0    9388.0122    24.920713     25.13592    22.896168    14342.276    9976.2052    8265.9997    9921.8316   -159.04355    611.77243    1384.6168   -6002.0821 
  573000    266.59305   -9096.9288   -8080.5545   -9096.9288            0    9295.3149    24.800971    25.037013    23.013165    14289.846    10603.084    7974.7842    9308.0762    479.43804    69.620005    191.60797   -6143.3854 
  574000    281.60363   -9054.5777   -7980.9763   -9054.5777            0    9780.7544    24.832236    25.022577    23.034977    14313.164    11040.921    8696.1772    9605.1646    635.50806   -254.11622   -521.15391   -5939.3141 
  575000    279.94955   -9023.3962   -7956.1008   -9023.3962            0    10075.656     24.91496    25.115532    22.865211    14307.962     10976.28    9257.5292     9993.158   -73.990831   -458.04023   -142.18716   -5853.6445 
  576000    275.64082   -9042.5208   -7991.6523   -9042.5208            0     10845.45    24.789077    24.945284    23.051721    14254.505    11217.693    11138.748    10179.908   -636.49186   -39.482955    872.71885   -5737.0206 
  577000    272.79619   -9087.8848   -8047.8613   -9087.8848            0     10095.64    24.862833    24.971062    22.977759    14265.772    10141.001    9826.0706    10319.847    16.369248   -888.76686   -1656.4972   -5947.4467 
  578000    272.73515   -9008.1605   -7968.3697   -9008.1605            0    8904.1783    25.020341    25.117118    22.880624    14379.073    8517.9383    8072.3684    10122.228     920.5703    27.502677    109.74439   -6101.1276 
  579000     272.3434   -9060.3244   -8022.0271   -9060.3244            0    10022.404    24.785327    24.957599    23.108578    14294.556    12066.756     8647.589    9352.8679   -362.98164   -359.35468    430.10946    -5932.642 
  580000    276.34148   -9071.3909   -8017.8511   -9071.3909            0    9178.1755    24.942267    25.034498    22.955154    14333.592    8224.4123     10057.25    9252.8645    -312.6218   -447.54607   -17.723004   -6099.2386 
  581000    283.70236   -9050.0183   -7968.4155   -9050.0183            0    11021.841    24.892784    24.899847    23.003588    14258.233    12193.413    10452.656    10419.455    156.21299    630.94825   -348.15789    -5676.515 
  582000     269.5244   -9038.4824   -8010.9324   -9038.4824            0     10357.89    24.923836    24.776903    23.086157     14256.52    10374.507    11177.892      9521.27   -767.21985    -95.08817    118.59586   -5857.3539 
  583000      261.733   -9055.5311   -8057.6856   -9055.5311            0    10011.518    24.933817    24.963241     22.93367    14274.579     10183.67    8640.8814    11210.002   -697.90467   -611.86902   -966.89269   -5973.4868 
  584000    279.97167   -9021.7705   -7954.3908   -9021.7705            0    8284.3846    24.989509    24.908471    23.123802    14393.422    8815.2543    8318.6223    7719.2773   -1659.1635    176.35103   -166.14007   -6215.3884 
  585000    267.74615   -9055.1155    -8034.345   -9055.1155            0    8620.5889    25.077256    25.014827    22.919754    14377.635    7953.7448     8793.458     9114.564    879.87046    167.97371    473.71543   -6226.7536 
  586000    280.29199   -9069.0575   -8000.4566   -9069.0575            0     8240.931     25.12574    24.918869    22.985195    14391.146    7286.8864     8881.864    8554.0427     277.6863    852.82424   -315.06482   -6270.8491 
  587000    273.48225   -9047.2122   -8004.5731   -9047.2122            0    10104.977    24.867947      24.9802    22.998679    14286.924    10231.979    9598.2656    10484.688    266.11133    479.17267    584.27914   -5899.0987 
  588000    288.55306   -9058.9386   -7958.8428   -9058.9386            0    10504.204    24.875448    25.113175    22.845435    14271.577    10637.428     10407.38    10467.804   -286.19068   -1179.0248    151.47956   -5772.5365 
  589000    265.65163   -9064.6807   -8051.8955   -9064.6807            0    11713.451     24.75856    24.972513    22.943199    14185.401    11623.495    12026.805    11490.055    529.34305     593.4694   -446.68223   -5628.6224 
  590000    273.88262   -9030.5394   -7986.3739   -9030.5394            0    10120.532    24.890033    25.073234    22.860483    14266.625    11281.929    10016.833    9062.8346    67.754418    -644.6153   0.57897277   -5880.6546 
  591000    270.46328   -9063.2066   -8032.0772   -9063.2066            0    10562.733    24.809255    24.986831    22.963503    14235.182        11519    10286.536    9882.6643    1026.9615   -1528.3047    832.61504   -5839.1953 
  592000    276.72146   -9039.5854    -7984.597   -9039.5854            0    10773.755    24.918998    24.978833    22.886828    14245.849     11177.89    10380.205     10763.17   -95.752102    162.38818    1729.8894   -5746.2299 
  593000    287.52858   -9082.3667   -7986.1766   -9082.3667            0    9151.0649    24.935897     25.00762    23.023893    14357.411    8483.7339    9053.3906    9916.0701   -720.85177   -353.42796   -1024.2571   -6070.0525 
  594000    265.01249    -9015.009   -8004.6605    -9015.009            0    10310.106    24.845503    25.042752    22.992135    14305.701    11230.937    9620.7175    10078.664   -272.52553    589.75573    101.69703   -5853.6221 
  595000    271.93876   -9100.8567   -8064.1021   -9100.8567            0    9801.5473    24.972803    25.013902     22.81338    14250.772    10427.047    8835.7597    10141.835   -776.33458    327.16173    291.15623   -6027.0183 
  596000    266.73476   -9026.9142   -8009.9997   -9026.9142            0    8809.5975    24.957788    24.845668     23.19584    14383.575    8646.1519    9332.9503    8449.6903   -106.88013    107.48424   -357.74387   -6162.0131 
  597000    283.73653   -9068.8282   -7987.0951   -9068.8282            0    9516.9697    24.995902    24.979729    22.894935    14295.388    8760.5515    9613.4948    10176.863   -140.60704   -843.63413    -313.4798   -6002.9633 
  598000     269.2381   -9093.8321   -8067.3736   -9093.8321            0    9170.9201    24.866809    24.797749    23.228111    14323.403    9917.1608    9283.9709    8311.6285    385.51787    1294.7485   -1116.0615   -6151.6404 
  599000    276.53685   -9042.3413   -7988.0567   -9042.3413            0    9333.5264    25.086845    24.961319    22.912068    14347.554    8916.3017    8065.4888    11018.789   -294.21595   -551.35915    1069.0996   -6035.0691 
  600000    276.26798   -9089.8264   -8036.5668   -9089.8264            0    11058.699    24.848968     24.93352    22.980972    14238.373    11338.087     10968.52     10869.49   -44.911204    110.35612   -52.725658   -5740.2052 
  601000    283.71556   -9089.6458   -8007.9927   -9089.6458            0    10568.831    24.890036    24.916847    22.945589    14230.424    11242.993    10314.797    10148.702   -112.23438   -235.98123    501.62963   -5814.5784 
  602000    272.10385   -9007.1178   -7969.7339   -9007.1178            0    9579.8191    25.052384    24.954562    22.938887    14340.733    9159.0175    9508.5162    10071.924   -205.05283   -393.85188   -409.77528   -5966.1637 
  603000    269.31185   -9019.0299   -7992.2903   -9019.0299            0    8590.4473    24.986522    25.003184    23.012453     14376.86    8747.7515    7564.1183    9459.4723   -327.53803    -925.9743   -508.15449   -6191.1162 
  604000    271.18674   -9044.5733   -8010.6858   -9044.5733            0     9215.136    24.920487    25.003352    23.026519    14347.725    10270.293    8355.0716    9020.0439    447.39732    2013.5211    389.79172   -6082.4475 
  605000    278.14417   -9044.0259   -7983.6134   -9044.0259            0    8107.9177    25.030806    24.909188    23.074996    14387.192    6895.4688    10014.263     7414.021    636.56841   -844.46174    1497.1796   -6282.3904 
  606000    273.78374   -9067.1885      -8023.4   -9067.1885            0    10436.481    25.095813    24.755005    22.935274     14248.47    8763.7647    13089.702    9455.9776   -777.79283    335.93875    1778.3857   -5854.7063 
  607000    280.96918   -9073.6248   -8002.4422   -9073.6248            0    9064.3372    24.993608    24.842606    23.054366    14314.602    9543.4724    9249.9405    8399.5987   -34.044754    1.2295297    670.30107   -6110.1368 
  608000    275.09822   -9050.1544   -8001.3545   -9050.1544            0    8922.8324    25.181337    24.851595     22.92234    14344.718    6032.5062    10496.146    10239.845    7.8471687     770.1094    103.65905   -6134.6712 
  609000    267.38308   -9036.2466   -8016.8603   -9036.2466            0    8797.4114     25.01697    24.880712    23.047624    14345.764    8261.6093     9718.569    8412.0559   -659.68264    1327.7812    262.49783   -6176.2813 
  610000    266.47829   -9052.1573   -8036.2205   -9052.1573            0    8822.8466    25.077447     24.90844    22.971632    14349.002    7722.8774    10488.357    8257.3057   -724.49607   -310.31193    600.48168   -6189.9034 
  611000     275.8476   -9057.3752   -8005.7183   -9057.3752            0    8964.3837    24.988104    24.944592    23.032254     14356.42    8077.4448    10236.073    8579.6334   -602.28513    866.18263   -868.05509   -6128.8125 
  612000    270.90711   -9020.8197   -7987.9983   -9020.8197            0    9907.0916    24.818142    25.023188    23.049933    14314.678    10274.703     9985.794    9460.7777   -394.16964   -549.66513   -6.8728856   -5919.7453 
  613000    272.58434   -9055.1301   -8015.9144   -9055.1301            0    9067.9907     24.91582    25.083422    22.920993    14325.025      8415.88    9733.2687    9054.8234   -522.07055   -262.90057   -1015.7376   -6121.4678 
  614000    277.15052   -8979.2183   -7922.5942   -8979.2183            0    11641.193    24.767032    24.907501    23.082365    14239.162     13335.05    10913.545    10674.984    186.87982   -563.64633    834.45892   -5505.1424 
  615000     279.5828    -9005.361   -7939.4639    -9005.361            0    10723.569    24.941576    24.926886    22.918593    14248.852    10116.409    10961.957    11092.342    70.440735   -693.70029   -191.70829   -5711.0537 
  616000    275.69248   -9065.7068   -8014.6413   -9065.7068            0    11217.692    24.933734      24.8347    22.986879    14233.977    11013.674    12380.244    10259.157   -606.69289    83.420293    299.85509   -5685.9837 
  617000    271.90806   -9099.1252   -8062.4877   -9099.1252            0    11138.773    24.871533    24.810733    23.012175    14200.375    10948.154    11925.125    10543.039    105.63965   -1074.4577      -8.3718   -5755.6711 
  618000    267.31185   -9078.4995   -8059.3848   -9078.4995            0    10254.561    24.987228    25.018044    22.816775    14263.486    9325.0623     10967.39     10471.23    339.69381    43.347315   -1102.8164   -5926.2484 
  619000    275.26224   -9052.3683   -8002.9431   -9052.3683            0    10567.214    24.783313    24.882812    23.149765    14275.962     11358.44    10690.774    9652.4282   -288.56018   -492.26513    387.92238   -5802.8464 
  620000    265.90896   -9031.7184   -8017.9522   -9031.7184            0    9984.5936    24.936297    24.989042    22.925946     14285.94    10130.623    9444.6335    10378.524    572.90904   -744.75006   -341.04339   -5937.7043 
  621000    275.02926   -9065.5525   -8017.0156   -9065.5525            0    10086.669    24.883134    24.918172    23.031176    14280.301    10079.106    10018.403    10162.498   -438.59566   -777.39129    227.47003   -5916.3302 
  622000    268.29632   -8993.2271   -7970.3592   -8993.2271            0     9691.889    25.141289    24.978969    22.827537    14335.773    8146.1058    10485.003    10444.558    596.20756    751.97768     816.7644   -5944.0513 
  623000    274.70346   -9083.1727   -8035.8779   -9083.1727            0     9249.039    24.928288     24.96666    23.035444     14336.71    9342.5669    9257.4462    9147.1039   -357.42058   -1620.1182   -421.19432   -6102.0313 
  624000    280.13199   -9038.5682   -7970.5773   -9038.5682            0    8473.1882    25.031904      24.8054    23.110309    14349.801    8160.5694    9621.1079    7637.8874   -210.87938   -812.29845     1074.097   -6197.3329 
  625000    277.44768   -9006.5412   -7948.7841   -9006.5412            0    10551.449    25.120087    24.852238    22.894523    14292.831    9445.8298    10798.595    11409.924    257.28794    439.80905    -502.8932   -5749.3738 
  626000    274.78083   -9054.6799   -8007.0901   -9054.6799            0    10876.665    24.945872    24.835172    23.054407    14283.012    9905.4256    12191.085    10533.483    262.95805     296.9852    748.83572   -5741.4473 
  627000    272.83008   -9020.3027     -7980.15   -9020.3027            0    11146.742    25.040823    24.893972    22.847724    14242.484    8764.1059    13188.653    11487.466   -1185.0926   -207.48349   -722.44999   -5664.8378 
  628000    273.69928   -9063.5174   -8020.0509   -9063.5174            0    10375.003    24.796719    24.908337    23.100546    14267.938    10734.309    10255.655    10135.046   -508.10822    128.90955   -489.74439   -5861.1867 
  629000    275.84332    -9038.997   -7987.3565    -9038.997            0    9356.6891    24.910925    25.001483     22.97802    14310.943    10672.006    9438.5677    7959.4937   -72.203263   -691.05343    1454.9214    -6034.518 
  630000    273.40704   -9080.6386   -8038.2862   -9080.6386            0    9918.0591    24.944259    25.057932     22.81855     14262.77    8854.0911    10277.523    10622.563   -576.17691    -862.2754    1306.2573   -5975.2519 
  631000    267.87137   -9058.7886   -8037.5407   -9058.7886            0     10019.59    24.831076     24.89133    23.106462    14281.607    10642.575     9951.031    9465.1628    84.854047    471.07355    575.83748   -5950.6346 
  632000     273.8351   -9062.8794   -8018.8951   -9062.8794            0    8548.7514    25.050869    25.063942    22.899253    14377.834    9293.1278    6830.9056    9522.2208    219.15146    654.63431    725.67131   -6226.3419 
  633000    272.76955   -9062.9798   -8023.0579   -9062.9798            0    8216.8966    24.891719    25.031217    23.086606    14384.572    9217.8087    7227.5874    8205.2936    571.51411    117.18664   -691.98507   -6299.2826 
  634000    268.67637   -9077.9028   -8053.5859   -9077.9028            0    9097.7557    24.899036    25.016686     22.98729    14318.584    9433.1189    8229.5575    9630.5908    258.74714    558.83241    269.81481   -6153.7756 
  635000    267.54178   -9102.2346   -8082.2434   -9102.2346            0    8259.2313    24.990695    25.065389    22.859101    14318.975    8312.5843    6979.0849    9486.0248    906.32461   -152.05928    558.10442   -6357.4882 
  636000    274.04476   -9049.4639   -8004.6803   -9049.4639            0    9073.1726     24.86277    25.003985    23.029138    14316.486    8902.0129    10101.275    8216.2297    340.92378    731.76914    -675.8324   -6110.2811 
  637000    275.71807   -9086.3352   -8035.1722   -9086.3352            0    9372.0908    24.808304    25.071821    23.021364    14319.043    10180.071    9012.2814    8923.9205    410.34494    261.96372     191.4082    -6078.012 
  638000    266.46765   -9013.8818   -7997.9856   -9013.8818            0    10359.748    24.854983    25.044643    22.971854    14299.616    10888.242    9547.0501    10643.953   -291.13325   -182.07407   -716.90461   -5837.5096 
  639000    265.59764   -9058.3748   -8045.7954   -9058.3748            0    11254.716    24.880598    24.969174    22.881419    14215.035    13094.102     10208.81    10461.236   -237.04244   -210.19641   -63.430627    -5712.561 
  640000    276.87584   -9056.2748   -8000.6978   -9056.2748            0    10241.255    24.925285    24.880563    23.024351    14278.669    9917.1186    10726.889    10079.758   -455.59069   -546.70512    804.99587   -5868.0615 
  641000    271.40197   -9085.1409   -8050.4328   -9085.1409            0    8684.1807    25.065226     24.76265     23.13427    14359.011    8265.5663    9667.8526    8119.1233    531.09056   -373.57831   -112.72037   -6231.8659 
  642000    279.46833   -9113.8841   -8048.4233   -9113.8841            0    8936.0579    25.013283    24.952584    22.902896    14294.752     8123.311     9251.936    9432.9266    143.85843    577.60026   -699.13932   -6185.4849 
  643000    276.48482   -9059.0019   -8004.9157   -9059.0019            0    8928.1847    24.939611      25.0334    23.000211    14359.567    9039.9902    8978.5012    8766.0627   -1456.2718   -1300.8484    715.34851   -6135.1792 
  644000    276.05192   -9069.6518    -8017.216   -9069.6518            0     9995.802    24.836006    24.925411    23.091773    14294.908    10786.269    10873.169    8327.9677    14.906279   -15.453897    227.55818   -5933.3255 
  645000    277.73151   -9005.2464   -7946.4072   -9005.2464            0    10843.593    24.922852    24.961511    22.970924    14290.488    11002.781    10829.608     10698.39    458.17635    -302.9457    298.24348   -5686.4711 
  646000    273.42034   -9058.6787   -8016.2757   -9058.6787            0    10838.742    24.951197    24.953291     22.87617    14243.034    10165.052    10601.606    11749.567   -279.13498   -126.61721    165.20507   -5764.8517 
  647000    272.49363   -9056.1515   -8017.2815   -9056.1515            0     11774.22    24.807667    24.860003    23.014834    14193.678    12879.148    12099.453    10344.057    174.60575   -1204.8186   -797.62672   -5580.0153 
  648000    274.89576   -9099.0211   -8050.9931   -9099.0211            0    10412.797    24.916968    24.910142     22.93133    14233.137     10693.27    10115.882    10429.238    36.859133    657.96193     -77.3813   -5889.5494 
  649000    271.88454   -9031.3732   -7994.8253   -9031.3732            0    11298.196    24.973714    24.830405    22.955611    14234.944    11081.355    12161.937    10651.296   -182.14409   -89.604482     1144.546   -5649.2966 
  650000    268.23405   -9052.6638   -8030.0333   -9052.6638            0    9335.0294    25.120462    24.885294    22.844473    14280.767    8139.2737    9979.8064    9886.0082   -414.33081    669.26799    1122.5659   -6085.8235 
  651000    275.15343   -9051.7245   -8002.7141   -9051.7245            0       8977.4    24.959809    24.954873    23.000251     14326.14    7831.3736     9390.257    9710.5693    524.81588    176.12262   -365.88602   -6127.0475 
  652000    269.23297   -9061.0917   -8034.6528   -9061.0917            0    8807.6249    24.881426    25.000734    23.066306    14348.486    10282.151    8137.1191    8003.6043    449.73295   -1439.6285    1437.5888   -6191.5873 
  653000    272.79241   -9034.9303   -7994.9212   -9034.9303            0    8410.6929    24.922409    25.155248    22.941305    14382.578     9236.683    6793.1279    9202.2679     199.6203   -78.667492    804.72039   -6230.7351 
  654000    268.68078   -9075.2985   -8050.9649   -9075.2985            0    9951.8675    24.952434    24.944815    22.967684    14295.864    9625.8893    10038.504    10191.209    345.69114    299.48956    91.591183   -5976.0949 
  655000     266.7843   -9035.0767   -8017.9732   -9035.0767            0    9732.4932    24.844693     24.94399    23.139772    14340.313    10797.507    10556.277    7843.6964   -194.23512    1288.7785     575.2357   -5982.5317 
  656000    266.18013   -9127.2548   -8112.4548   -9127.2548            0    9661.8137    24.970351    25.004335    22.862273    14274.449    9121.4171    10012.574    9851.4502   -1050.4332    1149.6187    1305.4986   -6101.0758 
  657000    271.11464   -9059.2137    -8025.601   -9059.2137            0    9085.5469    24.832666     25.02226    23.085287    14344.491    10458.098    8218.6527    8579.8905    273.04266   -740.48272    122.22831   -6124.9074 
  658000     268.9438   -9032.5002   -8007.1638   -9032.5002            0    9407.6852    24.891595    25.026673    22.987511    14320.158    9696.6302    9129.7012     9396.724   -451.05206    677.65487    553.97376   -6042.4176 
  659000    282.90223   -9061.3619   -7982.8096   -9061.3619            0    9670.3346    24.948017    25.041931    22.904359    14309.419    9384.2631    8495.1852    11131.556    -1048.335   -601.37065    363.85579   -5964.7249 
  660000    265.01442   -9017.6579    -8007.302   -9017.6579            0    10855.735    24.787379    24.942143    23.072163    14264.373    11538.463    10933.828    10094.916    900.00618     -1286.24   -153.31544   -5748.9698 
  661000    270.04098   -9086.3164   -8056.7971   -9086.3164            0    11550.102    24.818394     24.98848    22.883244    14191.591    12145.578    10737.783    11766.944    311.44585    1509.4745    175.30832   -5666.2748 
  662000    268.24491   -9044.4036   -8021.7317   -9044.4036            0    9947.4978    24.890023    25.003689    23.055089     14348.16      11352.5     9078.851    9411.1427   -520.37514   -1265.2504   -160.28593    -5940.186 
  663000    280.27675    -9055.351   -7986.8082    -9055.351            0     9517.155    24.962968    25.041983     22.86742    14294.932      9244.03     9853.579     9453.856    163.33281     1016.074   -1269.6066   -6002.7009 
  664000    267.70978   -9048.3995   -8027.7677   -9048.3995            0    10780.903    24.933951    24.914467     22.95105    14257.562    10022.336    12121.989    10198.384   -292.41201    41.705129    921.39034   -5786.0739 
  665000    272.70746   -9033.2213   -7993.5361   -9033.2213            0    11566.171    24.916488    24.825789    23.018542    14238.614    11862.846     12004.97    10830.699   -600.44278   -88.312455    248.97061   -5591.7561 
  666000    277.83958   -9013.6647   -7954.4135   -9013.6647            0    11795.251    25.000942    24.913332     22.80495    14204.217    11251.128    12260.577    11874.047   -833.57218   -501.81437   -1129.2254   -5510.9809 
  667000    264.20316   -9079.2238   -8071.9609   -9079.2238            0    9235.6805    24.989044    24.884917    23.025956    14318.697    8629.4983     10586.45    8491.0935    63.133034   -65.321161   -1206.4858   -6143.3336 
  668000    280.24097   -9022.8687   -7954.4623   -9022.8687            0    9075.8308     25.16702    24.952054    22.878177    14366.782     7771.704    9235.1345    10220.654    17.252479    -527.8736     1604.053   -6052.8508 
  669000    268.98744    -9035.294   -8009.7912    -9035.294            0    9848.7733    24.924369     24.92508    23.039568    14313.145    10953.097    9876.5009    8716.7222   -12.039539   -1262.8806   -213.53615   -5953.9333 
  670000    280.02268   -9077.6995   -8010.1253   -9077.6995            0    11309.519    24.870177    24.912556    22.948422    14218.376    12598.624    11331.076    9998.8586    351.80592   -1434.2456     864.1042   -5664.9785 
  671000    274.16965   -9069.2392   -8023.9795   -9069.2392            0    10045.161    24.990237     24.98489    22.876415    14283.537    9793.3875    9429.6295    10912.465    299.02486    242.73756    1161.9397   -5931.4646 
  672000    260.23903   -9013.3418   -8021.1919   -9013.3418            0    11685.951    24.852226    24.958206    22.972276    14248.945    12220.597    11299.335     11537.92    136.76416   -750.44752    1006.2386   -5592.7784 
  673000    271.34414   -9034.9308   -8000.4432   -9034.9308            0    11432.357    24.943448     24.98343    22.814278     14217.24     10855.76    11234.923    12206.387    272.24417   -694.42792    1131.1461   -5630.0141 
  674000    275.84379   -9079.7415   -8028.0992   -9079.7415            0    10177.487    24.916255    24.893878    23.017481    14276.873    9587.9805    10550.594    10393.887   -623.59106    231.61541    936.33704   -5909.0084 
  675000    268.72824   -9043.0956   -8018.5809   -9043.0956            0    9892.2616    24.815547    25.015552    23.030544    14296.777    10826.194    9635.8797    9214.7109   -305.48001   -203.45736    -1405.167   -5956.0065 
  676000    260.15747    -9028.783   -8036.9441    -9028.783            0    11398.928    24.860226    24.992953    22.925394    14244.246    10319.236    12579.836    11297.712   -33.436317   -221.99714    758.26002   -5668.9568 
  677000    272.51767   -9049.9316     -8010.97   -9049.9316            0    8445.7463    24.819876    25.194844    22.986144    14373.993    8792.9241    8515.0212    8029.2935    587.45885   -723.88464    746.80366   -6240.4888 
  678000    270.89085   -9059.4143   -8026.6548   -9059.4143            0    8374.6166    24.938038    25.035698    23.041263     14385.61     9390.136    6951.9488    8781.7651   -335.55685   -348.91655   -417.64021   -6269.6656 
  679000    269.70689   -9061.1373   -8032.8916   -9061.1373            0    7878.8832    25.054812    25.068645    22.871524     14365.38    6844.0264    9088.2546    7704.3686    -276.2878   -263.77777    1250.0474   -6382.2315 
  680000     260.6532   -9031.5213   -8037.7924   -9031.5213            0    8934.6964    24.965054    24.968404     22.99624     14334.42    8145.7485     8827.028    9831.3129    924.49687    79.089608     424.3798    -6169.969 
  681000     274.4553   -9059.6995   -8013.3507   -9059.6995            0    9662.6325    24.975285    24.912041    22.980622    14298.206    8626.8554    10879.083    9481.9589    720.51765   -574.86816    334.41493   -5998.4535 
  682000     274.4982   -9024.1877   -7977.6753   -9024.1877            0    10130.175    25.078423     24.86087    22.941367    14303.287    8126.5668    11237.968     11025.99   -127.03725   -622.81328    -79.38574   -5864.5333 
  683000    269.28908   -9041.9061   -8015.2534   -9041.9061            0    10467.058    24.969711    24.847521    23.002084    14271.307    10109.396    10747.964    10543.814   -410.10008    -1039.676   -266.06414   -5836.7196 
  684000    283.81012   -9067.2807   -7985.2671   -9067.2807            0    11081.291    25.036832    24.831983    22.914866    14246.497    10130.553    12157.954    10955.365   -660.09081    280.89325    128.94246   -5682.9013 
  685000    283.87242   -9034.6172   -7952.3661   -9034.6172            0    11128.065    24.944412    24.832477    23.016969    14257.436    10826.939    11580.232    10977.024   -387.32996    -247.1621    286.15732   -5638.5066 
  686000    281.08467   -9042.1211   -7970.4981   -9042.1211            0    8943.8981    24.995608    24.856651    23.043373    14317.012    9822.2653    9615.6926    7393.7364    -171.9003   -1228.8574   -87.533883   -6103.0218 
  687000    257.40776   -9054.7396   -8073.3838   -9054.7396            0    9705.6511    24.970981    24.942321    22.952247    14295.445    9604.4106    10321.701    9190.8416   -745.46102   -452.62239    650.13642    -6049.907 
  688000    274.93955   -9024.6267   -7976.4318   -9024.6267            0    10305.218     24.96304    24.967674    22.898038    14271.638    10303.375     9823.778    10788.502   -113.00127   -83.638295   -35.646468   -5831.5325 
  689000     268.1872    -9087.585   -8065.1331    -9087.585            0    9400.8008    24.867736    24.990964    23.025994    14309.934    8890.8368    9023.5088    10288.057    202.65999    571.43102   -293.97501   -6103.2263 
  690000    283.17233   -9041.1238   -7961.5418   -9041.1238            0    8192.5765    24.865121    25.035877    23.042689    14344.538    8412.8456    8921.6821    7243.2018    237.98429    876.87723   -242.50594   -6247.6517 
  691000    267.42587   -9026.6078   -8007.0585   -9026.6078            0    8150.2207    25.052834    25.096024    22.893674     14393.86    7611.7089    7430.2838    9408.6694   -86.407483   -1214.5914    701.25739   -6296.1667 
  692000    276.11553   -9039.6552   -7986.9769   -9039.6552            0    10008.553    24.933982    25.028061    22.926754    14307.423    9968.1156    9501.5956    10555.948   -642.53492    239.74323    888.15209   -5898.6013 
  693000    272.64585    -9041.936   -8002.4857    -9041.936            0    10283.256    24.828201    24.931408    23.065613    14277.661    10424.936    11000.891     9423.942   -458.24724    584.57404   -195.30821   -5861.2543 
  694000    272.18077   -9054.7404   -8017.0632   -9054.7404            0     9504.735    24.919937    24.947974    23.012626    14306.995    9571.3118     8795.099    10147.794    335.97384    630.40416   -20.733242   -6033.8732 
  695000    272.91249   -9037.0679    -7996.601   -9037.0679            0    10664.551    24.968429    24.999043    22.847714    14261.242    11130.974    10609.164    10253.515    4.6499279   -194.13926   -12.793354   -5778.5281 
  696000    279.12621   -9041.0425   -7976.8861   -9041.0425            0    10958.305    24.783371    24.885332    23.133363    14267.326    11588.034    10202.147    11084.733    563.05775   -1026.3326    823.54361   -5696.7444 
  697000    268.72871   -9030.5055   -8005.9891   -9030.5055            0    9691.8651    24.935005    25.057585    22.946001    14336.914    10534.198     8295.742    10245.656   -466.67123   -377.06229   -337.87444   -5979.5249 
  698000    280.18727   -9052.3491   -7984.1474   -9052.3491            0     9840.382    24.984404    25.046674    22.855448    14302.396    9538.8698    9542.4359     10439.84    312.47023   -447.66995   -74.242858   -5931.5838 
  699000    276.84872   -9023.8365    -7968.363   -9023.8365            0    9959.2383    24.866223    24.970767    23.031515    14300.928    9228.2666    10141.676    10507.773    17.209643    367.96225   -20.171908   -5891.2207 
  700000    270.51438   -9031.2338   -7999.9096   -9031.2338            0    10172.562    24.950258    25.065417    22.821973    14272.602    10374.648    10215.578    9927.4608   -54.152979   -521.06759    689.22142   -5882.4779 
  701000    281.41915   -9033.0439   -7960.1457   -9033.0439            0    11227.116    24.881933    24.837465    23.056207    14248.832    10947.365    11561.656    11172.327    611.46088   -634.67945     728.8952   -5627.0995 
  702000    279.43767   -9075.3574   -8010.0136   -9075.3574            0    11375.941    24.907872    24.858172    22.974995    14225.294    10924.436    12011.772    11191.616     552.4083   -1122.1732    295.47256   -5649.9458 
  703000    268.15739   -9078.8373    -8056.499   -9078.8373            0    10185.668    24.931424    24.823666    23.047145    14263.632    10027.631     9758.474    10770.899    306.18418   -23.345157   -113.00218   -5937.6718 
  704000    283.87987   -9067.5108   -7985.2313   -9067.5108            0    10113.219    24.970395    24.949189    22.919452    14278.615    10466.078    10299.601    9573.9784   -98.146302    760.77966   -598.84947   -5879.2651 
  705000    261.31695   -9045.4065   -8049.1471   -9045.4065            0    9936.1055    24.932385    24.951746    22.972085    14291.084    9443.9693    10225.587     10138.76   -434.53448   -1024.4745    477.36149    -5978.256 
  706000    258.43998   -9073.1895   -8087.8985   -9073.1895            0     9913.829    24.906885    24.870433    23.055091    14281.361    9402.3842    9564.7274    10774.375    -108.3737    30.618049   -1008.8431   -6023.0561 
  707000    265.96847   -9016.6352   -8002.6421   -9016.6352            0    9460.0286    25.025305    25.070067     22.81949     14316.63    10319.099    7751.6084    10309.378   -218.60576   -232.15907   -548.18067   -6027.4509 
  708000    265.56473   -9023.4332   -8010.9793   -9023.4332            0    9275.2051    24.858093    24.887986    23.196621    14351.004    9388.1017    10294.571    8142.9423     347.7414    232.41821   -667.22712   -6069.7283 
  709000    273.52265    -9014.741   -7971.9479    -9014.741            0    9781.7657    24.929019    25.060888    22.914679    14315.793    9724.9484    9436.3441    10184.005    358.61664   -46.270853    993.27272   -5929.6995 
  710000    278.93122   -9056.1538   -7992.7408   -9056.1538            0    10101.464    24.995318    25.024232    22.825899    14277.341    10569.773    8917.1669    10817.453     411.0549   -753.56942   -120.57708   -5889.4102 
  711000    278.18178   -9032.7388   -7972.1829   -9032.7388            0    9646.3619    24.907745    24.876513    23.131591    14332.747    11154.893    9213.2632    8570.9291   -20.308613    514.97332    236.52833   -5955.8192 
  712000    270.85176    -9059.056   -8026.4456    -9059.056            0    9866.1254    25.110568     24.97754    22.816899    14310.764     9767.888    8898.9766    10931.512   -682.75826    463.00377   -179.35452   -5967.3082 
  713000    274.23069   -9078.3309   -8032.8384   -9078.3309            0    9564.6631    24.952503     24.97275    22.957591    14305.624    9532.6445    10156.678    9004.6674    88.655505   -476.62982    -246.9771   -6037.3355 
  714000    265.73974   -9005.0169   -7991.8959   -9005.0169            0    10746.019    24.790728    24.921744    23.140994    14297.159    12635.242    10619.401     8983.413    -495.0908   -881.70388    463.28709     -5751.25 
  715000    269.58491   -9062.5269   -8034.7463   -9062.5269            0    10476.777    24.899049    25.013852    22.895178    14259.601    10391.119    10007.314    11031.898   -1132.6432   -1030.3164   -184.47874   -5855.9785 
  716000    264.53032   -9061.7597   -8053.2495   -9061.7597            0    9694.7114    24.918286    24.951886    22.979015    14287.392    9934.6741    9827.2734    9322.1867    4.7839278   -1001.7255    247.22509    -6033.192 
  717000    281.60711   -9055.7565   -7982.1418   -9055.7565            0    9963.4342    24.807524    24.888859    23.155218    14296.749    10414.168    10300.098    9176.0372    299.23023   -827.11205    104.71048   -5904.7318 
  718000     269.4146   -9023.3259   -7996.1945   -9023.3259            0    10353.183    25.005023    25.019957    22.816725    14274.705    10070.927    10881.571     10107.05    678.01552   -389.55519   -190.40029    -5840.849 
  719000    271.14194   -9082.5117   -8048.7949   -9082.5117            0    9657.4227    24.963617    24.818603    23.096177    14309.516    8777.9759    10852.323    9341.9688   -589.62701    780.57042    749.42609   -6033.3911 
  720000     279.6209   -9079.9693   -8013.9269   -9079.9693            0    9104.9092    25.017328    24.936477     22.93465    14307.644    8449.8616    9365.6677    9499.1984   -265.95611   -1167.2575    1183.5122   -6114.0755 
  721000    265.74383   -9031.7702   -8018.6335   -9031.7702            0    9050.7182    24.917526    25.111487    22.966803    14370.699     9109.176    8897.1682    9145.8103    211.19941    -639.0951   -1284.0583   -6121.7667 
  722000    278.20573    -9085.373   -8024.7259    -9085.373            0     10458.99    24.793041    24.984806     22.99903    14246.734    11473.083    9544.1954    10359.692    124.20706    139.77003   -477.22914   -5851.6197 
  723000    264.54723   -9019.8581   -8011.2834   -9019.8581            0    9895.8366    24.780512     25.01797     23.05556    14293.481    10911.815    10161.837     8613.858    649.61568   -246.83656   -1415.5651   -5948.4393 
  724000    273.73936   -8970.2898   -7926.6705   -8970.2898            0     11533.26    24.832311    25.078233    22.905508    14264.416     12267.21    10622.587    11709.982   -1471.7348   -550.01959   -181.06271   -5527.3849 
  725000    269.66838   -9058.0825   -8029.9837   -9058.0825            0    9189.6393    24.910184     25.02597    22.971212    14320.288    9062.1075    9701.5989    8805.2115   -570.22403   -1276.4893    816.05307   -6110.7577 
  726000    272.40762   -9044.1359   -8005.5938   -9044.1359            0    10553.442    24.775626    24.964127    23.122558    14301.346    10322.759    9774.4625    11563.105   -266.79642   -231.39172     1924.504   -5804.4576 
  727000    280.48812   -9048.8796    -7979.531   -9048.8796            0    9224.4282    24.943474    25.075207    22.969846    14366.784    9759.1773    8813.6097    9100.4976   -632.20377   -944.89292    493.73881   -6046.7845 
  728000     266.7254   -8990.1813   -7973.3024   -8990.1813            0    9328.0591    24.892624    25.094676    22.973154    14350.694    9329.9293    9191.7599     9462.488   -50.128837   -16.289439    151.03824   -6021.0316 
  729000    274.61593   -9071.4524   -8024.4912   -9071.4524            0    10057.534    24.891268     24.98141    23.014777    14311.025    9862.3294    10668.139    9642.1321    775.37437   -606.38731    317.41198   -5925.3671 
  730000    276.05858   -9025.5243   -7973.0631   -9025.5243            0    11142.485    25.014634    24.905237    22.883432    14256.272    10270.788    12309.439    10847.228    222.92405    58.893475   -205.14769   -5656.3944 
  731000    280.76824   -9045.9105    -7975.494   -9045.9105            0    9746.4617    24.971084    24.922357    23.038052    14337.462    8987.5521    10126.721    10125.112    29.882524   -487.60607    1039.6065   -5937.5364 
  732000    271.60647   -9023.4471   -7987.9594   -9023.4471            0    10798.272    25.021961    24.848619    22.929026    14256.378    11567.829    10236.641    10590.345    -766.5263    375.67613     -359.239   -5742.8405 
  733000    281.00839   -9036.0928   -7964.7607   -9036.0928            0    10825.421    24.996573    24.933205    22.844958    14237.998    9645.1904    12066.502     10764.57    1108.5647    775.43823     1309.942   -5716.8989 
  734000    270.09815    -9009.054   -7979.3166    -9009.054            0    10373.969    24.922453    24.826345    23.097291    14291.066    10016.959    11457.734    9647.2134   -723.33506   -693.64203    949.90009   -5817.1684 
  735000    260.59273   -9030.7404    -8037.242   -9030.7404            0    9966.5301    24.886038    24.867691    23.060793    14271.364    9644.3605    10154.893    10100.337   -1395.8906   -41.309834    765.75942   -5962.8762 
  736000    281.91195   -9054.1409   -7979.3639   -9054.1409            0    10343.754      24.9676    24.952824    22.887488    14259.182    9849.1857    10732.063    10450.014   -21.539558   -24.298784    1.8767946   -5828.3229 
  737000    277.32482   -9084.6016   -8027.3129   -9084.6016            0    10606.725     24.96116    24.888396    22.922041    14240.163    10089.209    10840.434    10890.532   -468.47228   -1049.8917    1354.3005   -5824.5277 
  738000    279.99702   -8999.8317   -7932.3553   -8999.8317            0    9219.2968    24.904391    24.835364    23.227867    14366.659    9439.1128    9643.1114    8575.6664   -914.81586    944.95624   -362.65763   -6000.7007 
  739000    280.14251   -9071.8836   -8003.8526   -9071.8836            0    9079.1003    25.072942    24.950133    22.919565    14337.866    7822.3819    9482.8692    9932.0496   -41.560446    141.66509    66.465937   -6105.3848 
  740000    279.76311   -9028.6502   -7962.0656   -9028.6502            0     10158.72    24.964856    25.002987    22.927333    14311.149    11176.577    9527.8665    9771.7179    -1321.407    571.44697   -1041.4091   -5841.8043 
  741000    269.35849   -9017.6528   -7990.7354   -9017.6528            0    9726.0176    24.897621    24.959392    23.039086    14317.167    9640.5838     10716.04    8821.4294   -726.09622     995.2178    1711.1015   -5959.9313 
  742000    280.84729   -9044.6988   -7973.9809   -9044.6988            0    10660.793    24.824332    24.997242    23.005175    14275.628    11375.909    10760.741    9845.7294    183.33145   -294.08395    768.27434   -5754.4529 
  743000    276.64297   -9065.9018   -8011.2127   -9065.9018            0    9671.1903      24.9663     25.10775    22.789415    14285.491    9393.8259    8015.7359    11604.009   -240.44878   -290.58681   -988.32084   -5996.3243 
  744000     268.3022   -9070.1845   -8047.2942   -9070.1845            0    8144.9176    24.884167    25.086117     23.04493    14385.731    8391.8947    7810.9745    8231.8837   -413.50854    170.33515   -627.07445   -6338.4812 
  745000    273.49879   -9038.2055   -7995.5033   -9038.2055            0    9086.4769    24.940141    24.999464    23.027048    14357.137    8848.9842    9443.8602    8966.5864   -802.31978   -255.18143   -665.16526   -6092.9393 
  746000    269.78656    -9049.545   -8020.9956    -9049.545            0    9521.0866    25.023477    24.989686    22.942914    14346.866    9714.5217    9372.0196    9476.7186   -498.65336   -601.21653    374.90147   -6028.8574 
  747000    285.87944   -9044.6076   -7954.7047   -9044.6076            0    10025.902    24.946968    24.891986    23.066699    14323.949    9541.3943    9862.9359    10673.376   -572.91552    56.893968    850.29236   -5860.2927 
  748000    261.59172   -9047.6566   -8050.3497   -9047.6566            0    8924.0488     24.92482    25.040996    22.955831    14327.706    8659.8742    9859.4788    8252.7934     6.961443    378.87404    45.396783    -6185.626 
  749000    261.07228   -9073.1373   -8077.8107   -9073.1373            0    8572.0611    24.854463      25.1268    22.992488     14359.11    8989.4488    8027.6258    8699.1087     509.2567    469.24367    122.28744   -6282.7106 
  750000    277.05773   -9026.5839   -7970.3135   -9026.5839            0    9547.8857     24.94266     25.02039    22.976494    14339.057    10189.405    8698.3356    9755.9161    676.80439    764.67507    968.73183   -5973.6554 
Loop time of 488.357 on 64 procs for 250000 steps with 1920 atoms

Performance: 88.460 ns/day, 0.271 hours/ns, 511.921 timesteps/s
193.8% CPU use with 32 MPI tasks x 2 OpenMP threads

MPI task timing breakdown:
Section |  min time  |  avg time  |  max time  |%varavg| %total
---------------------------------------------------------------
Pair    | 69.074     | 73.03      | 76.245     |  21.6 | 14.95
Bond    | 0.82281    | 1.1071     | 1.3794     |  13.3 |  0.23
Kspace  | 215.95     | 223.82     | 233.1      |  25.7 | 45.83
Neigh   | 5.1593     | 5.8768     | 6.5649     |  17.3 |  1.20
Comm    | 74.825     | 82.42      | 89.5       |  44.1 | 16.88
Output  | 0.67661    | 0.67691    | 0.67884    |   0.0 |  0.14
Modify  | 81.473     | 87.03      | 91.035     |  27.2 | 17.82
Other   |            | 14.39      |            |       |  2.95

Nlocal:        60.0000 ave          64 max          55 min
Histogram: 1 0 3 4 6 5 3 7 1 2
Nghost:        3369.88 ave        3414 max        3321 min
Histogram: 1 2 3 5 3 7 3 4 2 2
Neighs:        21180.2 ave       22630 max       19327 min
Histogram: 1 2 2 6 4 3 2 4 6 2

Total # of neighbors = 677765
Ave neighs/atom = 353.00260
Ave special neighs/atom = 2.0000000
Neighbor list builds = 12714
Dangerous builds = 0

unfix		3
unfix		2
unfix		1

write_data	data.final.${pid}
write_data	data.final.0
System init for write_data ...
PPPM initialization ...
  extracting TIP4P info from pair style
  using 12-bit tables for long-range coulomb (../kspace.cpp:340)
  G vector (1/distance) = 0.37433819
  grid = 30 30 30
  stencil order = 5
  estimated absolute RMS force accuracy = 0.0032861382
  estimated relative force accuracy = 9.8961075e-06
  using double precision FFTW3
  3d grid and FFT values/proc = 5400 960
Last active /omp style is kspace_style pppm/tip4p/omp
WARNING: Not all mixed pair coeffs generated from mixing. Use write_data with 'pair ij' option to store all pair coeffs. (../write_data.cpp:312)

write_restart   restart.lmp.${pid}
write_restart   restart.lmp.0
System init for write_restart ...
PPPM initialization ...
  extracting TIP4P info from pair style
  using 12-bit tables for long-range coulomb (../kspace.cpp:340)
  G vector (1/distance) = 0.37433819
  grid = 30 30 30
  stencil order = 5
  estimated absolute RMS force accuracy = 0.0032861382
  estimated relative force accuracy = 9.8961075e-06
  using double precision FFTW3
  3d grid and FFT values/proc = 5400 960
Last active /omp style is kspace_style pppm/tip4p/omp
Total wall time: 0:08:08
