LAMMPS (30 Jul 2021)
  using 1 OpenMP thread(s) per MPI task
package omp 0
using multi-threaded neighbor list subroutines
echo both

include		in.partitions
variable        pid world 0
include		in.temp
variable        temperature equal 259.10
variable	tempDamp equal 100.0
include		in.pressure
variable        pressure equal 7875.0
variable        pressureDamp equal 1000.0 # This is 1 ps
include		in.seed
variable        seed world 745823

units		real
atom_style	full
read_restart	restart.lmp.${pid}
read_restart	restart.lmp.0
Reading restart file ...
  restart file = 30 Jul 2021, LAMMPS = 30 Jul 2021
  restoring atom style full from restart
  orthogonal box = (0.59570015 1.7931874 0.72675279) to (17.611872 21.835990 21.486443)
  4 by 4 by 4 MPI processor grid
  restoring pair style lj/cut/tip4p/long/omp from restart
  restoring bond style harmonic/omp from restart
  restoring angle style harmonic/omp from restart
  864 atoms
  576 bonds
  288 angles
Finding 1-2 1-3 1-4 neighbors ...
  special bond factors lj:    0        0        0       
  special bond factors coul:  0        0        0       
     2 = max # of 1-2 neighbors
     1 = max # of 1-3 neighbors
     1 = max # of 1-4 neighbors
     2 = max # of special neighbors
  special bonds CPU = 0.346 seconds
  read_restart CPU = 0.725 seconds
include 	in.setup
variable	out_freq equal 1000
variable	out_freq2 equal 10000
variable	out_freq3 equal 1000

timestep	2.0

neigh_modify    delay 7 every 1

include		in.tip4p
# This is TIP4P/Ice

# create groups ###
group ox type 2
288 atoms in group ox
group hy type 1
576 atoms in group hy

# set charges - beside manually ###
set group ox charge -1.1794
Setting atom values ...
  288 settings made for charge
set group hy charge 0.5897
Setting atom values ...
  576 settings made for charge

# ### TIP3P Potential Parameters ###
pair_style lj/cut/tip4p/long/omp 2 1 1 1 0.1577 8.5
pair_coeff 1 1*2 0.000 0.000
pair_coeff 2 2 0.21084 3.1668
bond_style  harmonic
bond_coeff  1 450 0.9572
angle_style harmonic
angle_coeff 1 55 104.52
kspace_style pppm/tip4p/omp 1.0e-5
pair_modify tail yes

thermo          ${out_freq}
thermo          1000
thermo_style    custom step temp pe etotal epair emol press lx ly lz vol pxx pyy pzz pxy pxz pyz enthalpy

restart 	${out_freq3} restart.lmp.${pid} restart2.lmp.${pid}
restart 	1000 restart.lmp.${pid} restart2.lmp.${pid}
restart 	1000 restart.lmp.0 restart2.lmp.${pid}
restart 	1000 restart.lmp.0 restart2.lmp.0


include         in.dump
dump            myDump all atom ${out_freq2} dump.water.${pid}
dump            myDump all atom 10000 dump.water.${pid}
dump            myDump all atom 10000 dump.water.0
dump            myDump2 all dcd ${out_freq2} dump.dcd
dump            myDump2 all dcd 10000 dump.dcd
dump_modify     myDump append yes
dump_modify     myDump2 append yes


variable natoms 	equal  "count(all)"                        # NUMBER ATOMS
variable H      	equal  "enthalpy/v_natoms"                 # ENTHALPY-per-atom
variable Vol      	equal  "vol/v_natoms"                 # volume-per-atom
fix AVG all 		ave/time ${out_freq} 1 ${out_freq} v_Vol v_H file vol_enthalpy.dat
fix AVG all 		ave/time 1000 1 ${out_freq} v_Vol v_H file vol_enthalpy.dat
fix AVG all 		ave/time 1000 1 1000 v_Vol v_H file vol_enthalpy.dat


timer           timeout 23:50:00 every 1000
New timer settings: style=normal  mode=nosync  timeout=23:50:00

fix 		1 all shake 1e-6 200 0 b 1 a 1
       0 = # of size 2 clusters
       0 = # of size 3 clusters
       0 = # of size 4 clusters
     288 = # of frozen angles
  find clusters CPU = 0.253 seconds
fix             2 all nph iso ${pressure} ${pressure} ${pressureDamp}
fix             2 all nph iso 7875 ${pressure} ${pressureDamp}
fix             2 all nph iso 7875 7875 ${pressureDamp}
fix             2 all nph iso 7875 7875 1000
fix             3 all temp/csvr ${temperature} ${temperature} ${tempDamp} ${seed}
fix             3 all temp/csvr 259.1 ${temperature} ${tempDamp} ${seed}
fix             3 all temp/csvr 259.1 259.1 ${tempDamp} ${seed}
fix             3 all temp/csvr 259.1 259.1 100 ${seed}
fix             3 all temp/csvr 259.1 259.1 100 745823

run             250000
PPPM initialization ...
  extracting TIP4P info from pair style
  using 12-bit tables for long-range coulomb (../kspace.cpp:340)
  G vector (1/distance) = 0.37406163
  grid = 24 24 24
  stencil order = 5
  estimated absolute RMS force accuracy = 0.0031838943
  estimated relative force accuracy = 9.5882031e-06
  using double precision FFTW3
  3d grid and FFT values/proc = 2535 216
Last active /omp style is kspace_style pppm/tip4p/omp
Neighbor list info ...
  update every 1 steps, delay 7 steps, check yes
  max neighbors/atom: 2000, page size: 100000
  master list distance cutoff = 10.8154
  ghost atom cutoff = 10.8154
  binsize = 5.4077, bins = 4 4 4
  1 neighbor lists, perpetual/occasional/extra = 1 0 0
  (1) pair lj/cut/tip4p/long/omp, perpetual
      attributes: half, newton on, omp
      pair build: half/bin/newton/omp
      stencil: half/bin/3d
      bin: standard
Per MPI rank memory allocation (min/avg/max) = 9.236 | 9.239 | 9.242 Mbytes
Step Temp PotEng TotEng E_pair E_mol Press Lx Ly Lz Volume Pxx Pyy Pzz Pxy Pxz Pyz Enthalpy 
 8500000    272.30974   -3857.6652   -3390.9356   -3857.6652            0    6280.7366    17.016172    20.042803     20.75969    7080.1294    6110.2935    4628.1865    8103.7299     -187.269    307.23818    155.30447   -2742.4092 
 8501000    257.61332   -3868.9757   -3427.4353   -3868.9757            0    6820.0994    17.096761    20.137726    20.858008    7181.2014    7813.4901    7321.0521    5325.7558    499.83072   -1267.2167    618.23377   -2713.1632 
 8502000     252.2862   -3844.2007   -3411.7907   -3844.2007            0    8400.2424    16.986445    20.007789    20.723423    7043.0875    8857.4764    9389.7987    6953.4522    1618.1743     578.1469    668.74349   -2548.9497 
 8503000    255.10024   -3871.5717   -3434.3386   -3871.5717            0    6266.7187     16.99099    20.013142    20.728968    7048.7424    5232.0617     6507.656    7060.4386    1782.9301    276.51484    708.90094   -2790.1282 
 8504000    237.42529   -3879.1106   -3472.1718   -3879.1106            0    9347.6673    16.926497    19.937178    20.650287    6968.7819    8965.5953    9701.0057    9376.4008    2482.9557   -186.74802    1177.0303   -2522.1446 
 8505000    259.65668   -3849.8361   -3404.7935   -3849.8361            0    8069.3398    16.892267     19.89686    20.608527     6926.589    6617.1054    9096.7332    8494.1809   -21.871851    1789.5558   -1193.4397   -2589.6514 
 8506000    264.64545   -3871.3831   -3417.7898   -3871.3831            0    8396.2884    16.895154     19.90026    20.612049    6930.1413    10220.208    6717.8323    8250.8249    164.48738    1392.9227   -1251.3288   -2569.1853 
 8507000    260.16872   -3867.8862   -3421.9659   -3867.8862            0    10450.804    16.946337    19.960546    20.674491    6993.3151    10248.142    9561.3284    11542.941   -252.88181   -1757.2168    2184.4902   -2356.0851 
 8508000    263.21529    -3895.986    -3444.844    -3895.986            0    6994.6493    16.988352    20.010035     20.72575    7045.4603    8504.8156    7726.9345    4752.1979   -540.08099    1093.2422   -2332.5297   -2726.1381 
 8509000    275.53616   -3884.0257   -3411.7661   -3884.0257            0    7851.3001    16.936346    19.948779    20.662303     6980.954    8397.7529    8056.6857    7099.4618    -287.2986   -828.76178    1970.3265   -2612.4248 
 8510000    270.29717   -3895.5472   -3432.2671   -3895.5472            0    6472.4106    17.016894    20.043654    20.760571    7081.0308    5789.9243    5102.7337    8524.5739   -354.27198    177.94328   -522.61021    -2763.864 
 8511000    265.42822   -3883.5748   -3428.6399   -3883.5748            0    7798.7596    17.023082    20.050942    20.768121    7088.7585    9057.8609    7252.1854    7086.2324    506.80974    175.58311    1467.9896   -2622.3864 
 8512000    257.79366   -3826.0751   -3384.2256   -3826.0751            0    7406.3569     17.05955    20.093896    20.812611    7134.4138    9812.1193    6536.3282    5870.6231    1729.0733     849.4475    598.63989   -2613.6082 
 8513000    280.33649   -3890.6228   -3410.1356   -3890.6228            0    7081.0284    17.042529    20.073848    20.791846    7113.0805    5313.1572    8294.9105    7635.0176   -1503.2784   -931.31773   -790.57948   -2675.5711 
 8514000    261.54785   -3895.5954   -3447.3114   -3895.5954            0    7130.4526    17.036503     20.06675    20.784494    7105.5378    7892.6931    8158.5286    5340.1359    229.74631    53.983787   -668.53118   -2708.4041 
 8515000    256.07206   -3865.7371   -3426.8384   -3865.7371            0    6547.1594    17.089511    20.129187    20.849164    7172.0702    5830.7604    7649.2848    6161.4329   -263.38593   -2342.1149    63.871695   -2742.0232 
 8516000     264.6761   -3885.9562   -3432.3105   -3885.9562            0    7546.2425    17.047855    20.080121    20.798343    7119.7512     9201.095    5648.4137    7789.2188    1167.0325     -1754.95    1876.3643   -2648.7519 
 8517000    263.76619   -3884.2961   -3432.2099   -3884.2961            0    6675.3647    17.032771    20.062354    20.779941    7100.8691    7169.9659    5753.4562     7102.672   -474.12456    1087.0298    1469.9558   -2740.9165 
 8518000    248.88349   -3896.5598    -3469.982   -3896.5598            0    6426.0185    17.070794     20.10714    20.826328    7148.5296      4644.44    7060.0388    7573.5768   -1491.5889    200.30543    481.67665   -2800.0441 
 8519000     260.1608   -3877.3602   -3431.4535   -3877.3602            0     8822.566    17.039147    20.069865     20.78772    7108.8471    8810.7131    9768.7976    7888.1874   -196.78923    463.00149   -147.02649   -2516.7718 
 8520000    253.34996   -3909.0917   -3474.8585   -3909.0917            0     8617.185    16.990793     20.01291    20.728728    7048.4972    8612.6828    8383.7636    8855.1085    1751.0407     1145.566   -1251.3216   -2589.0541 
 8521000    270.98867   -3923.0865   -3458.6212   -3923.0865            0    9848.0681    16.918746    19.928047     20.64083     6959.212    10636.411    9269.1976    9638.5952   -465.15757    1326.3021    977.38826   -2459.1116 
 8522000    279.54114   -3887.7743   -3408.6504   -3887.7743            0    9033.7966    16.975371    19.994745    20.709913    7029.3221    8490.9385    9242.3533    9368.0979     400.3556   -831.70138    4208.0438   -2482.5467 
 8523000    260.00532   -3892.2986   -3446.6583   -3892.2986            0    7585.8577    16.983709    20.004565    20.720085    7039.6842    6800.3726    8908.8569    7048.3435    358.33573    711.40094    1350.4615   -2667.8443 
 8524000    261.37234    -3826.953   -3378.9697    -3826.953            0    10164.314    17.010662    20.036313    20.752968    7073.2535    11642.285    9037.8193    9812.8381   -109.75131     1066.961   -501.33161   -2330.4583 
 8525000    254.93005   -3855.6045   -3418.6631   -3855.6045            0    6858.6349    17.014003    20.040248    20.757044    7077.4219    6668.3112    8269.3092    5638.2844    1211.9025   -1114.4057   -142.93698   -2710.7358 
 8526000    258.45062    -3841.569   -3398.5935    -3841.569            0    8440.1122    16.991491    20.013731    20.729579    7049.3654    8962.7027    8727.1974    7630.4365   -169.19052    1242.3195   -1714.5351   -2530.8845 
 8527000    262.41207   -3858.9205   -3409.1552   -3858.9205            0    7551.4737    16.937398    19.950018    20.663586    6982.2548    7333.1801    7918.9088    7402.3322    1527.9275    588.03065   -401.32004    -2640.196 
 8528000    249.30626   -3863.2226   -3435.9202   -3863.2226            0    7353.3573    16.971873    19.990625    20.705646    7024.9774    7213.6571    7954.3949      6892.02    1332.2777    14.269364   -324.69773   -2682.5534 
 8529000    249.24785   -3871.0825   -3443.8802   -3871.0825            0    7441.0006    16.971187    19.989817    20.704809    7024.1255    8150.6527    7325.1295    6847.2196   -327.47536   -201.55338    509.58342   -2681.6266 
 8530000    269.65877   -3832.3884   -3370.2024   -3832.3884            0    9524.7315    16.983301    20.004085    20.719587     7039.177    7285.5578    10501.829    10786.808    1043.6308    594.79782   -885.27917   -2392.4014 
 8531000    272.45329   -3856.6149   -3389.6393   -3856.6149            0    8428.1039    17.101712    20.143558    20.864049    7187.4422    7640.7048    8928.5758    8715.0312   -195.40979   -1818.1396   -1404.2099   -2506.1931 
 8532000    268.53913   -3858.0308   -3397.7639   -3858.0308            0    9821.3198    17.046429    20.078441    20.796603    7117.9644    12075.611     10542.39     6845.959     753.4119    674.49544   -1192.4245   -2378.2303 
 8533000    251.34081   -3830.2261   -3399.4366   -3830.2261            0    6825.2458    17.062195    20.097011    20.815837    7137.7323    8000.7093    5977.8541    6497.1739    451.83533    283.01362    187.65031   -2688.9523 
 8534000     251.9759   -3870.4874   -3438.6094   -3870.4874            0    8455.6728     17.02699    20.055545    20.772887    7093.6409    8052.7859    8607.2431    8706.9893    410.34238   -209.81422   -259.16339   -2563.8406 
 8535000    255.14142   -3907.2733   -3469.9697   -3907.2733            0    7902.3971    17.064727    20.099995    20.818927    7140.9112    6731.6699    8558.4779    8417.0433    -57.72024    611.85214   -88.907051   -2646.9914 
 8536000     259.9336   -3893.5957   -3448.0784   -3893.5957            0    8201.1036    17.019484    20.046703     20.76373    7084.2637    9018.4725    6308.7857    9276.0527   -340.39923    854.14113   -1102.0148   -2600.7673 
 8537000    269.97159   -3872.2376   -3409.5156   -3872.2376            0    10184.674    17.000006    20.023762    20.739968    7059.9697    10729.298    9769.1358    10055.589   -425.68829   -921.85292    378.62346   -2360.8769 
 8538000    254.54384   -3865.5417   -3429.2623   -3865.5417            0    7959.4832     17.02943    20.058419    20.775865    7096.6918    6275.7445    8366.2502    9236.4549    162.61312   -1269.6025    226.61477   -2605.4719 
 8539000    251.25283   -3860.6315   -3429.9928   -3860.6315            0    8901.8166     17.04407    20.075664    20.793726    7115.0105    7923.1545    10573.858    8208.4376    196.99186    390.33096   -539.74347   -2506.2946 
 8540000    257.23597   -3888.1759   -3447.2822   -3888.1759            0     9267.869    17.004759     20.02936    20.745767    7065.8929    7806.0203    9157.5717    10840.015   -964.30149    1115.7523    180.34022   -2492.2394 
 8541000    251.64145   -3864.8742   -3433.5694   -3864.8742            0    7145.0421    17.051273    20.084147    20.802513    7124.0345    6434.9627    8143.1594    6857.0043    1055.4666   -1253.8132   -524.22225   -2691.2228 
 8542000    257.83147   -3867.1798   -3425.2654   -3867.1798            0    9498.5305    16.976778    19.996402     20.71163    7031.0698    8910.8012    10028.193    9556.5969    843.20728   -877.60218   -1645.7534   -2451.2772 
 8543000     258.1285   -3869.0805   -3426.6571   -3869.0805            0    6671.6302    17.094431    20.134982    20.855166    7178.2664    6694.8107     6686.062    6634.0179   -2152.3577   -705.40788    50.919017   -2728.2198 
 8544000    262.97357   -3883.8273   -3433.0996   -3883.8273            0    7053.9956    17.039518    20.070301    20.788172    7109.3105    6636.8235    7536.9344    6988.2289   -403.01561    462.21469    -47.66408   -2701.7272 
 8545000    246.88839   -3920.6764   -3497.5182   -3920.6764            0    7138.2032    17.029744    20.058789    20.776248    7097.0837    6437.1778    7363.8019    7613.6299    849.01308   -1127.4056   -1740.9217   -2758.6878 
 8546000    268.42246   -3898.5387   -3438.4718   -3898.5387            0    7599.0058    17.059787    20.094176      20.8129    7134.7113    6951.0265     7672.598     8173.393    649.13684    1064.6774   -1756.4468   -2647.7766 
 8547000    252.40492   -3877.4056   -3444.7922   -3877.4056            0    7852.0299     17.04034    20.071269    20.789175    7110.3394    7342.4904    8529.4177    7684.1815    1013.5208    902.00436   -1280.0076   -2630.5602 
 8548000    257.97801   -3840.4628   -3398.2974   -3840.4628            0    9220.3662    17.027952    20.056679    20.774062    7094.8443    8642.9871     10262.24    8755.8721   -549.39241    -172.8984   -1149.2195   -2444.2566 
 8549000    269.28449   -3854.7378   -3393.1934   -3854.7378            0    7388.0274    17.013541    20.039704    20.756481    7076.8462    6795.6049    7578.5355    7789.9417    -98.39428    367.14649   -599.66776   -2630.6858 
 8550000    254.65868   -3878.2431   -3441.7668   -3878.2431            0     7269.771    17.031885    20.061311     20.77886    7099.7608    6670.0827    8174.8169    6964.4134    386.33515   -917.13064    90.007224   -2689.0349 
 8551000    269.00434    -3834.698   -3373.6338    -3834.698            0    8349.6913    16.995042    20.017915    20.733912    7053.7867    5809.6389    9955.7576    9283.6775    507.92682   -131.80418   -2109.4969   -2514.6823 
 8552000    268.56674   -3898.0905   -3437.7763   -3898.0905            0    10848.346    16.968564    19.986727    20.701609     7020.869    9722.6617    13492.613    9329.7623    418.78239   -659.00754   -476.72564   -2326.9907 
 8553000    252.16354   -3866.7469   -3434.5472   -3866.7469            0       7706.5    17.017482    20.044346    20.761288    7081.7647    7045.3487    7723.9477    8350.2036    1185.8307   -242.98155   -144.87531   -2638.6178 
 8554000    269.01508   -3873.8597   -3412.7771   -3873.8597            0    7447.6483    17.032355    20.061864    20.779433     7100.349     8786.101    8114.3026    5442.5412   -980.39276   -1400.0912    -35.48527   -2641.5633 
 8555000    257.54513   -3869.3444   -3427.9208   -3869.3444            0    5987.3891    17.111285    20.154833    20.875727    7199.5182    6224.5893    4871.4139    6866.1641    470.30496   -209.46749   -432.69051   -2799.2594 
 8556000     261.9888    -3827.201   -3378.1612    -3827.201            0    8382.0257    16.938662    19.951506    20.665128    6983.8175    7380.7228    7743.6726    10021.682   -282.13799    84.162031   -225.77066   -2524.4367 
 8557000    259.14032   -3884.2495   -3440.0919   -3884.2495            0    8472.7147     17.01003    20.035568    20.752197     7072.465    7184.5093    8597.5701    9636.0646    57.266313    1374.7721    1270.0158   -2566.1767 
 8558000    259.97562   -3880.5101   -3434.9208   -3880.5101            0    7902.0066    16.984728    20.005766    20.721328    7040.9515    8117.8014    6678.1066    8910.1119    209.12641    -479.9712   -777.45316   -2623.5028 
 8559000    256.57962   -3858.7073   -3418.9386   -3858.7073            0     7782.175    17.032359    20.061869    20.779439    7100.3542     6364.543    9627.7364    7354.2457   -2343.7545    200.74393   -101.79608   -2613.0837 
 8560000    246.73027    -3868.408   -3445.5208    -3868.408            0    5998.6151    17.067641    20.103426    20.822482    7144.5694    6709.3543    7399.5137    3886.9773    394.22511   -603.22652    416.79771   -2820.4878 
 8561000    257.13384   -3860.5228   -3419.8042   -3860.5228            0    7431.1766    17.079761    20.117703    20.837269    7159.8015    8325.5263     7203.553    6764.4506    445.45791   -1383.6603   -1047.9206   -2643.8529 
 8562000    250.91023   -3853.7202   -3423.6687   -3853.7202            0    7183.6735    17.073175    20.109945    20.829234    7151.5219    9292.8096     5893.207    6365.0038   -1268.1515    1401.9984     480.3468   -2674.4287 
 8563000    271.86771   -3839.9067   -3373.9347   -3839.9067            0     6651.283    17.037779    20.068253     20.78605    7107.1342    6385.5445    7152.7426    6415.5618   -1048.7535    2520.9204     355.1984   -2684.5275 
 8564000    260.05229   -3873.2105   -3427.4897   -3873.2105            0    6786.9265    17.083456    20.122054    20.841776    7164.4484    7523.3725    5319.2811    7518.1261   -461.62925   -219.85276    390.43795     -2718.35 
 8565000     244.3847   -3854.8155   -3435.9484   -3854.8155            0    9271.2671    16.960034     19.97668    20.691202    7010.2863    8210.6128    11186.041    8417.1479    180.99233   -3128.3187   -406.43889   -2488.0742 
 8566000    272.15671   -3853.6723    -3387.205   -3853.6723            0    4823.5164    17.045351    20.077172    20.795289    7116.6149    4070.7115    5585.0921    4814.7457   -1713.1767     -2062.02   -380.08748   -2886.5794 
 8567000    256.61173   -3890.1832   -3450.3595   -3890.1832            0    7430.7366    16.966125    19.983855    20.698633    7017.8424    6656.6705    8665.4278    6970.1115    650.78754   -51.442043    2062.8282   -2689.8382 
 8568000    274.99383   -3880.7003   -3409.3703   -3880.7003            0    6895.4044    16.970243    19.988705    20.703657    7022.9532    6386.7546    7862.1683    6437.2902   -206.15063    892.12387    -98.75648   -2703.1253 
 8569000    249.36715   -3909.8873   -3482.4805   -3909.8873            0    7918.6829     17.03796    20.068466    20.786271    7107.3609    7752.5882    8595.2423    7408.2182   -448.65071    251.27144    526.48117   -2661.6808 
 8570000    253.76585   -3863.5607   -3428.6148   -3863.5607            0    6424.1165    17.022189     20.04989    20.767031    7087.6429    7007.1603     6179.251    6085.9382    1203.9128   -490.41251    729.18522   -2764.5795 
 8571000    255.45025   -3878.0521   -3440.2191   -3878.0521            0    7573.1946    17.006154    20.031003    20.747468    7067.6316    8089.3435    6924.9258    7705.3146   -1243.0498    1279.4586    1512.0008   -2659.6185 
 8572000    267.67632   -3846.8044   -3388.0164   -3846.8044            0    7630.3852    16.960012    19.976654    20.691175    7010.2588    7936.4903    7006.6723    7947.9929    1244.4408   -1095.6167   -168.78257   -2607.9054 
 8573000    251.32671   -3926.7713   -3496.0059   -3926.7713            0    6639.4997    16.937983    19.950707      20.6643    6982.9779    6148.6553    7455.9173    6313.9263    2037.1557   -77.901323   -763.95857   -2819.8421 
 8574000    260.96268   -3903.7576   -3456.4765   -3903.7576            0     7068.757    16.934766    19.946917    20.660374    6978.9992    6997.9764    7035.9683    7172.3263   -830.33234    -583.9616    64.050219   -2737.0075 
 8575000    253.89958   -3872.1086   -3436.9334   -3872.1086            0    8741.9292    16.929539    19.940761    20.653999    6972.5401    9106.3389    8318.5201    8800.9285   -154.15833    912.84047    542.69624   -2547.9898 
 8576000    263.05651   -3906.4693   -3455.5995   -3906.4693            0    8867.4628    16.968321    19.986441    20.701313    7020.5678    7902.5473    8875.8961    9823.9449    -599.4447    135.15594    923.56611   -2547.6796 
 8577000    257.19822   -3917.5105   -3476.6816   -3917.5105            0    9242.9491     16.97342    19.992447    20.707533    7026.8981    8176.9249    10183.301     9368.621    188.20815    778.18774    85.074655   -2529.4632 
 8578000    269.72025    -3878.887   -3416.5958    -3878.887            0    6430.0409    16.998249    20.021692    20.737824    7057.7802    6917.3214     5426.438    6946.3633    279.59284   -791.37851    628.39674   -2754.7485 
 8579000    256.18552   -3898.5873   -3459.4941   -3898.5873            0    6844.3864    16.978623    19.998575    20.713881    7033.3625    7538.5259    5289.8399    7704.7933    539.76181   -1400.6246    -1831.852   -2757.4355 
 8580000     282.8409   -3896.7791   -3411.9994   -3896.7791            0    6710.5241    17.029288    20.058252    20.775692    7096.5141    6545.5698    6240.6722    7345.3302     811.8031    403.10461   -1415.4871   -2717.4912 
 8581000    258.56524   -3901.3873   -3458.2153   -3901.3873            0    8206.2922    16.965839    19.983518    20.698285    7017.4875    8686.0759    7182.7132    8750.0875   -538.12779     534.5993   -1520.4924   -2618.3599 
 8582000     271.5875   -3949.3662   -3483.8745   -3949.3662            0    8087.7761    16.976552    19.996136    20.711354     7030.789    6558.4366    9264.4738    8440.4178   -92.282999   -1015.4253   -369.81405   -2654.5795 
 8583000    242.68281   -3860.9538   -3445.0037   -3860.9538            0    8311.8543    16.938989    19.951891    20.665526    6984.2216    8326.0896    8375.7975    8233.6758    790.55734   -1788.1489    660.44047   -2598.3773 
 8584000    283.26955   -3889.7102   -3404.1959   -3889.7102            0    8045.0404    17.044092    20.075689    20.793752    7115.0375    7372.3442     9913.974    6848.8031    757.32871    89.211312    5.2826623    -2569.398 
 8585000    261.77463   -3898.2891   -3449.6164   -3898.2891            0    6819.3789    17.049333    20.081862    20.800147    7121.6034    5692.9597    6426.1962    8338.9808   -98.332817    2228.8965    -1199.877    -2741.347 
 8586000    255.36037   -3869.7331   -3432.0542   -3869.7331            0    7045.1649    17.044401    20.076053     20.79413    7115.4251    7065.2005    8886.7452    5183.5491    594.51268   -968.62667    514.79458   -2700.9692 
 8587000    251.78188   -3905.8916   -3474.3461   -3905.8916            0    7306.5337    17.032783    20.062369    20.779956    7100.8845    6913.6074    7176.8126    7829.1812    1346.7262    47.936999   -268.88067   -2717.6879 
 8588000    266.20466   -3867.8207    -3411.555   -3867.8207            0    7616.7825    17.048797    20.081231    20.799492    7120.9313    8097.9891    7742.0543    7010.3041   -641.45561   -906.85319   -1719.1532   -2620.5409 
 8589000    255.41239   -3921.1405   -3483.3724   -3921.1405            0    9044.9067    16.969106    19.987365     20.70227    7021.5417    10112.743    7880.5063    9141.4705   -1760.6565   -310.95342     882.6304   -2557.1561 
 8590000    250.15212   -3859.5208   -3430.7686   -3859.5208            0    7710.3486    17.008733    20.034041    20.750615    7070.8479    7770.2108    7266.7368    8094.0981   -785.08241   -1693.7994    850.31982   -2635.6693 
 8591000     250.1366   -3885.5058   -3456.7802   -3885.5058            0    9970.0994    16.966101    19.983826    20.698603     7017.812    10035.611    10131.635    9743.0522    83.061284   -209.86467    888.07119   -2436.3646 
 8592000    280.13103   -3907.3696   -3427.2346   -3907.3696            0    7486.7634    17.004403     20.02894    20.745332    7065.4485    8036.4788    7569.6865    6854.1248    447.66199    472.25635   -655.67883   -2655.7811 
 8593000    246.46155   -3893.8255   -3471.3988   -3893.8255            0    8564.9726    16.967314    19.985255    20.700084    7019.3177    5666.5751    10694.083    9334.2595    1008.4315     886.8355   -720.16163   -2594.6064 
 8594000    245.74856   -3893.2671   -3472.0625   -3893.2671            0    8890.7814    16.951939    19.967145    20.681326    7000.2528    8084.9126    8760.7529    9826.6786   -806.22015    683.55428   -757.68507   -2564.3892 
 8595000    257.82071   -3927.5757   -3485.6798   -3927.5757            0    8949.7008    16.980504    20.000791    20.716176    7035.7004    11065.588    8080.2119    7703.3022   -252.65808    654.83044    1457.7948   -2567.3647 
 8596000    260.65968   -3894.9323   -3448.1706   -3894.9323            0    7903.9432     17.01434    20.040645    20.757455    7077.8425    7180.9979    7762.3701    8768.4617    1835.3528    367.78934   -1489.9768   -2632.3013 
 8597000    260.63681   -3884.6161   -3437.8935   -3884.6161            0    7309.3188    16.953447    19.968921    20.683165    7002.1207    8384.7075     6627.701     6915.548     327.7654    226.60804   -1141.3355   -2691.4751 
 8598000    255.42096    -3923.621   -3485.8382    -3923.621            0    8618.6816    16.937569    19.950219    20.663795    6982.4659    8148.9968    8924.9572    8782.0909   -662.89142    -591.0578   -637.28912   -2608.1798 
 8599000    264.30932   -3901.0528   -3448.0357   -3901.0528            0    7818.3287    16.990373    20.012415    20.728216    7047.9748    8493.6311    6842.3699     8118.985   -490.95243   -1073.8672    1471.8558   -2644.4094 
 8600000    253.64293   -3904.1981   -3469.4628   -3904.1981            0    6833.7732    17.005645    20.030404    20.746847    7066.9974    7389.6957    6344.3163    6767.3077   -686.63797    286.24279    839.69102   -2765.1406 
 8601000    254.62733   -3924.6631   -3488.2406   -3924.6631            0    6755.8525     17.05931    20.093614    20.812318    7134.1126    7293.8207    6049.8213    6923.9155    116.69394    579.65579   -840.42198   -2785.3366 
 8602000    275.40145   -3882.2027    -3410.174   -3882.2027            0    7352.5593    16.988836    20.010605     20.72634     7046.062    7177.0942    5112.6729    9767.9107   -1234.2854   -551.60874    1043.2119   -2654.6281 
 8603000    252.59841   -3860.0977   -3427.1527   -3860.0977            0    8218.4477    17.018562    20.045618    20.762605    7083.1125    9062.6667     6912.937    8679.7393    1920.8309   -1534.5562   -1420.4636   -2578.1876 
 8604000    259.45549   -3874.3504   -3429.6526   -3874.3504            0     7664.746    17.038389    20.068972    20.786795    7107.8983     7514.922    6220.7557    9258.5604    2013.5023   -193.49094     1335.268   -2635.1143 
 8605000    276.67087   -3878.8786   -3404.6742   -3878.8786            0    7327.5826    17.000884    20.024796    20.741039    7061.0631    8604.8272    7095.5967     6282.324    346.98106   -692.23767   -513.58205   -2650.0917 
 8606000    240.85026   -3868.7414   -3455.9323   -3868.7414            0    8996.2547    16.963978    19.981325    20.696013    7015.1777    8803.5894    10673.606    7511.5692   -1187.6502    2257.1907    1538.5505   -2535.5329 
 8607000    266.70457   -3930.1293   -3473.0068   -3930.1293            0    7606.7805    17.061613    20.096327    20.815129    7137.0031    9009.8708    8139.2443    5671.2265    45.394308      235.523    713.65282   -2681.2484 
 8608000     260.5232   -3923.5272   -3476.9993   -3923.5272            0    5010.0635    17.066628    20.102233    20.821246    7143.2975    6110.1067    3515.8793    5404.2046    398.95093    1272.5827    17.552692   -2955.0626 
 8609000    247.96316   -3879.4039   -3454.4035   -3879.4039            0    8828.0418    16.981927    20.002467    20.717911    7037.4691    7145.2683    10234.275     9104.582    -916.5158    896.82441   -1777.4723   -2548.3439 
 8610000     241.9755   -3869.9609   -3455.2232   -3869.9609            0    7670.0022    17.019209     20.04638    20.763395     7083.921    7745.3941    10872.793    4391.8199   -2531.3423    1629.4404   -163.85834    -2662.822 
 8611000    273.10291   -3897.5704   -3429.4813   -3897.5704            0     7859.613    16.998945    20.022512    20.738674    7058.6478    8814.4476     8346.317    6418.0744   -513.23126    757.60158   -1485.2261   -2620.3881 
 8612000    264.49636   -3880.5862   -3427.2485   -3880.5862            0    8973.5775    16.954505    19.970168    20.684457    7003.4326    9410.8468    10523.998     6985.888   -982.23493    918.71945   -1309.1044   -2510.7063 
 8613000    264.59461   -3918.9265   -3465.4204   -3918.9265            0    9679.9433    16.971439    19.990113    20.705116     7024.438    9224.8306    9495.4724    10319.527   -532.54382   -685.61555    674.15953   -2473.7661 
 8614000    277.53913   -3891.8178   -3416.1252   -3891.8178            0    8332.5476    17.067093    20.102781    20.821813    7143.8811    7765.2399     8733.601    8498.8018    825.46435    1392.7278   -864.21379   -2547.9889 
 8615000    269.79099   -3867.5175   -3405.1049   -3867.5175            0     8218.945    17.016396    20.043067    20.759963    7080.4088     8523.467    9120.6662    7012.7017    -248.7262    501.63095    112.95277   -2556.4126 
 8616000    258.89393   -3891.0423   -3447.3069   -3891.0423            0    9219.8364      16.9963    20.019397    20.735447    7055.3534    9404.5583    10119.588    8135.3627   -124.43137   -326.96429   -1190.3144    -2498.631 
 8617000    251.61372   -3895.2677   -3464.0104   -3895.2677            0    7987.0846    17.013333    20.039459    20.756227    7076.5864    6116.5819    8390.9984    9453.6734   -1128.9366    109.91517    800.17384   -2639.7053 
 8618000    261.71748   -3898.9576   -3450.3828   -3898.9576            0    8570.6015    16.979452    19.999552    20.714892    7034.3924    8159.3831    9696.1779    7856.2435   -467.04259    -395.5158    857.32372     -2571.13 
 8619000    260.34376   -3867.6378   -3421.4175   -3867.6378            0    7651.4865    17.091186     20.13116    20.851208    7174.1793    8018.9017    8832.4569    6103.1007     249.9157    715.44429   -1085.1012   -2620.8574 
 8620000    268.14914   -3911.4512   -3451.8527   -3911.4512            0    8710.2502     16.98808    20.009714    20.725417    7045.1209    9877.2209    8740.2023    7513.3273    180.82764    196.62674    60.129703   -2556.9105 
 8621000    260.04946     -3875.99   -3430.2741     -3875.99            0    6760.0531    17.031941    20.061377    20.778928    7099.8309    6826.1013    5575.6006    7878.4574   -1051.1104    153.21185   -154.09879   -2730.3128 
 8622000    266.85197   -3867.7177   -3410.3426   -3867.7177            0    7326.7354    17.026053    20.054441    20.771745    7092.4703    7702.0877    6305.6704    7972.4481    1041.6127   -627.39626   -808.63749   -2652.4914 
 8623000     248.2418   -3910.4532   -3484.9753   -3910.4532            0    6558.8372    17.020858    20.048322    20.765407      7085.98    6813.7234    6484.3947    6378.3936    932.76972    447.11248    727.71954   -2807.1736 
 8624000    270.80155   -3896.3345     -3432.19   -3896.3345            0    9379.0726    16.956361    19.972354    20.686721    7005.7327    11697.198    8833.7929    7606.2274   -760.91968    1241.9272    408.42614   -2473.9167 
 8625000    260.25378   -3864.9155   -3418.8494   -3864.9155            0    5821.8756    17.078469    20.116181    20.835693    7158.1768     5646.081    6628.5222    5191.0235    1436.8679    305.81596   -3388.9436   -2811.0766 
 8626000    250.22791   -3859.8314   -3430.9494   -3859.8314            0    7783.1043    17.052766    20.085906    20.804335    7125.9061     6294.925    7726.6204    9327.7674   -636.14615    64.839757   -356.36635   -2622.0978 
 8627000    258.27492   -3889.6038   -3446.9295   -3889.6038            0     7993.695    17.065644    20.101074    20.820046    7142.0622    9668.3471    6596.3806    7716.3572    54.317209    247.02594    529.57671    -2614.309 
 8628000    270.11449   -3906.0893   -3443.1223   -3906.0893            0    7324.9452     17.02554    20.053837    20.771119    7091.8294    8347.8083    6136.6573    7490.3698   -291.41357   -592.73089    1195.2055   -2685.5247 
 8629000    272.66474   -3922.6203   -3455.2823   -3922.6203            0    5678.6555    17.076137    20.113434    20.832848    7155.2448    4660.9951    5633.6973    6741.2742   -176.46959   -1585.3379   -29.761834   -2862.7038 
 8630000    244.85177   -3921.3477   -3501.6801   -3921.3477            0     8979.072    17.025434    20.053713     20.77099    7091.6973    10081.205    8380.2137    8475.7971   -365.57604   -285.24435    519.95511   -2573.0184 
 8631000    240.54419   -3911.9148   -3499.6303   -3911.9148            0    7624.4134      17.0496    20.082177    20.800472     7121.938    6386.0515    7133.9998     9353.189   -1227.3214   -1389.0545   -188.25698   -2707.7118 
 8632000    265.57789   -3884.6628   -3429.4714   -3884.6628            0    9529.5612    17.026869    20.055402     20.77274    7093.4901    9668.9328    10789.125     8130.626    1379.9577   -322.88714    -10.20272   -2443.6261 
 8633000    249.30027   -3900.2325   -3472.9404   -3900.2325            0    6045.8914    17.099146    20.140535    20.860918    7184.2071    5159.8926    7011.3304    5966.4514    1060.3339   -181.17414   -566.04565   -2839.4864 
 8634000    243.59426   -3887.9681   -3470.4559   -3887.9681            0    8516.2204    16.980102    20.000317    20.715684       7035.2    8843.1367    9996.1773    6709.3473     782.9971    1242.2033   -1358.9461   -2596.6817 
 8635000    260.13305   -3937.3106   -3491.4514   -3937.3106            0    6628.3191    17.020255    20.047612    20.764671    7085.2269    7043.9985    6426.7631    6414.1957   -634.62156    -866.5106   -488.36279   -2806.5421 
 8636000    258.13432   -3898.7912   -3456.3578   -3898.7912            0    8401.5433    16.989228    20.011066    20.726818    7046.5493    7273.2309    9359.1786    8572.2205    1622.1111   -351.95683   -23.784688    -2592.959 
 8637000    257.02393   -3907.1334   -3466.6031   -3907.1334            0    7778.0999    16.956379    19.972375    20.686743    7005.7554    6902.9023    6923.8661    9507.5312    321.78953   -1237.5245    1963.2968    -2671.901 
 8638000    255.49281   -3874.0071   -3436.1012   -3874.0071            0     9794.577    16.944729    19.958652    20.672529    6991.3243    11066.006    8797.0356    9520.6892    707.10267    584.00598    796.51623   -2437.4335 
 8639000    245.17395   -3927.3143   -3507.0946   -3927.3143            0    6895.6545    17.035914    20.066057    20.783776    7104.8012    7196.7277    7673.4155    5816.8202    188.23289   -111.03602    421.62286   -2792.5928 
 8640000    263.10357   -3910.7883   -3459.8378   -3910.7883            0    8488.1774    17.025503    20.053793    20.771074    7091.7828    8863.4517    8639.8117    7961.2687   -1672.4202   -731.03928   -674.71385   -2581.9363 
 8641000    244.19327   -3916.9147   -3498.3758   -3916.9147            0    6020.7868     17.06373     20.09882    20.817711    7139.6595    4851.1077    6433.5519    6777.7008    349.96818    1031.4032   -1320.6764   -2871.4637 
 8642000    247.18465    -3897.804    -3474.138    -3897.804            0    7535.1017     17.01039    20.035992    20.752636    7072.9141    7084.5349    7131.3988    8389.3714    163.07991    46.220049    166.24058   -2696.8832 
 8643000    242.80507   -3886.8559   -3470.6964   -3886.8559            0    6258.3246    17.025528    20.053823    20.771105    7091.8146    6410.9157    5771.3424    6592.7156   -412.68997    901.70996   -355.77518   -2823.4176 
 8644000    251.28643   -3883.8818   -3453.1855   -3883.8818            0    7972.2547    16.986617    20.007991    20.723633     7043.301    7804.4581    8005.3496    8106.9564    531.06614   -954.69664    244.22287   -2634.2809 
 8645000    261.85684    -3853.543   -3404.7293    -3853.543            0    9288.2228    17.003421    20.027784    20.744133    7064.2244    8778.9782     9488.166    9597.5244   -965.72788    1666.7078   -570.74491   -2447.8151 
 8646000    251.52093   -3903.3877   -3472.2894   -3903.3877            0     8129.033    16.969243    19.987527    20.702437    7021.7116    8567.3314    8355.3132    7464.4544    1396.0664    1011.2595    509.30816   -2639.8402 
 8647000    254.71735   -3913.0751   -3476.4983   -3913.0751            0      8205.19    16.979191    19.999244    20.714573    7034.0682    8028.4058    9269.8975    7317.2667   -20.316155   -1322.3517    542.43766   -2634.7716 
 8648000    252.50194   -3904.1451   -3471.3654   -3904.1451            0    8252.8246    17.020091    20.047419    20.764472    7085.0226    7284.4922    8883.7436     8590.238    112.45178   -282.28536    974.56581   -2618.6193 
 8649000    261.28982   -3859.9483   -3412.1065   -3859.9483            0    9279.8659    16.973716    19.992795    20.707894    7027.2658    10534.686    10727.711    6577.2013   -177.36618    -896.4684   -1398.8577   -2461.0551 
 8650000    249.97382   -3885.9905   -3457.5439   -3885.9905            0    8181.7225    16.947573    19.962002    20.675999    6994.8455    7236.4126    8418.2222    8890.5328    2168.8336   -917.15736    559.20784   -2622.9047 
 8651000    266.64111    -3883.439   -3426.4253    -3883.439            0    7431.6809    16.990228    20.012244    20.728038     7047.794    7144.2229    6464.6076    8686.2123    586.01558   -45.126579    1400.2068   -2662.5611 
 8652000    247.68124   -3901.2654   -3476.7483   -3901.2654            0     7432.206    17.068817    20.104811    20.823917    7146.0464    7653.7944    6562.5134      8080.31   -852.24776   -2119.3873    341.03615   -2702.1804 
 8653000    260.94775   -3875.5681   -3428.3126   -3875.5681            0    8729.5879    16.956277    19.972254    20.686618    7005.6282    6905.0764      8046.96    11236.727    312.47681    3052.0393   -859.49568   -2536.4115 
 8654000    253.61836   -3908.8862    -3474.193   -3908.8862            0    7836.3611    17.009899    20.035415    20.752037    7072.3024    6919.9904    8148.7214    8440.3715    1201.9296    1231.8724   -901.43184   -2665.9329 
 8655000    247.29621   -3897.2489   -3473.3917   -3897.2489            0    9739.1119    16.986711    20.008102    20.723748    7043.4188    8388.7994     9267.945    11560.591    -104.9542    725.39778   -1457.0156     -2472.98 
 8656000    241.32589    -3913.736   -3500.1117    -3913.736            0    8266.0445    16.988386    20.010075    20.725791    7045.5023      8270.86    8668.5345    7858.7392    353.68551   -480.46983    349.48145   -2650.7638 
 8657000    267.65095   -3888.8374   -3430.0929   -3888.8374            0    10661.003    16.906967    19.914174     20.62646    6944.6873    10486.873    10658.871    10837.264   -2173.1311   -1465.6264    330.18135   -2350.3343 
 8658000    251.75198   -3862.7401   -3431.2458   -3862.7401            0    10537.595    16.904563    19.911342    20.623527    6941.7249    10886.074    10868.384     9858.329   -895.67826    370.16899   -485.34361   -2364.4414 
 8659000    252.07048   -3887.9614   -3455.9213   -3887.9614            0    7098.6141    17.040934    20.071969    20.789899    7111.0829    8529.0658     6567.265    6199.5115    -1558.041   -1584.3605   -198.07017   -2719.7393 
 8660000    267.28448   -3868.5284   -3410.4119   -3868.5284            0    5955.1647    17.054639    20.088111    20.806619    7128.2537    6986.6229    7104.6435    3774.2276    1324.8101   -612.78956   -889.68479   -2791.3233 
 8661000    256.58058   -3877.5693    -3437.799   -3877.5693            0    6425.9197    17.024278     20.05235    20.769579    7090.2518    5710.4598    6902.3046    6664.9948    557.35878   -377.32472   -2541.5525   -2773.3329 
 8662000    244.97634   -3873.2318   -3453.3508   -3873.2318            0    6696.0538    17.073323     20.11012    20.829414     7151.708    9168.6205    5632.3784    5287.1626   -650.56485     987.8663   -183.09443   -2754.9502 
 8663000    257.48585   -3873.0962   -3431.7743   -3873.0962            0    5895.7064    16.968295     19.98641     20.70128    7020.5348    7565.9122     4399.647    5721.5601    822.99931    2506.2502   -1529.1405   -2828.1288 
 8664000    262.31077   -3911.6521   -3462.0604   -3911.6521            0    8354.8383    16.973787    19.992878     20.70798    7027.3534    9073.5615    8365.7744    7625.1789   -420.26028    209.64411    535.90535   -2605.8002 
 8665000    256.85792   -3889.2996   -3449.0539   -3889.2996            0    8545.4154    17.008167    20.033374    20.749924    7070.1415     9296.531    7235.1371     9104.578   -98.899841    66.440468     123.0335   -2567.9296 
 8666000    254.15945   -3872.8578   -3437.2372   -3872.8578            0    7728.8351    17.016841    20.043591    20.760507    7080.9648    5710.0853    8092.6299    9383.7901    106.63685    1520.9962    1577.8897   -2639.0911 
 8667000    248.62369   -3910.3287   -3484.1962   -3910.3287            0    8738.0649    17.023438    20.051361    20.768554    7089.2028    9475.0747    8973.2652    7765.8549    32.794328   -607.32713    184.58194   -2580.7785 
 8668000    272.74939   -3881.9164   -3414.4332   -3881.9164            0    7739.2884    16.993053    20.015572    20.731485    7051.3101    8390.1038    7077.4855    7750.2758   -556.55796   -583.23637    628.48425   -2618.5548 
 8669000    267.14187   -3857.9953   -3400.1233   -3857.9953            0     7558.729     17.00974    20.035227    20.751843    7072.1039    6693.2469    7401.5386    8581.4016    317.81307    1034.5458    1390.5058   -2620.5206 
 8670000    256.39276   -3864.4587   -3425.0103   -3864.4587            0    8095.6064     17.01882    20.045922    20.762921    7083.4357    9171.9036    7316.3728    7798.5428   -426.03306    154.64326   -489.79269   -2588.6965 
 8671000    249.05688   -3883.5374   -3456.6624   -3883.5374            0    7179.3958    17.042093    20.073334    20.791313    7112.5338    7449.0123    8375.7079    5713.4673    283.21473   -719.00989    20.979333   -2711.9508 
 8672000    252.71038   -3894.0696   -3460.9326   -3894.0696            0    7284.3991    17.022794    20.050602    20.767769    7088.3981    7102.5034    8667.4251    6083.2687    87.081116   -709.24814   -712.42901   -2707.8932 
 8673000    268.23625   -3907.8834   -3448.1357   -3907.8834            0    6280.1537    17.010204    20.035773    20.752409    7072.6823    4933.9639    7935.9089    5970.5882    2485.5739   -213.58166   -692.05545   -2800.3515 
 8674000    253.28248   -3906.4703   -3472.3528   -3906.4703            0    6863.7799    17.060707     20.09526    20.814023     7135.866    6545.5863    6275.6254     7770.128   -49.203702   -587.62048   -68.531939   -2758.0441 
 8675000    248.51394   -3868.6068   -3442.6624   -3868.6068            0    8175.2867    17.012645    20.038649    20.755387    7075.7275    6544.9056    8911.9186    9069.0359    713.69162   -876.71982   -167.27187   -2599.0364 
 8676000    264.47412   -3896.5397   -3443.2401   -3896.5397            0     8318.789    16.993759    20.016404    20.732347    7052.1896    7615.2876    9618.6972    7722.3822    564.95086   -797.51519   -75.831747   -2587.6614 
 8677000    273.40839   -3883.7389   -3415.1263   -3883.7389            0    9990.4134    17.019992    20.047302     20.76435    7084.8986    9525.1747    11033.007    9413.0586   -1628.4302   -1766.3521    686.61677    -2382.857 
 8678000    248.88823   -3875.7689    -3449.183   -3875.7689            0     6995.049     17.09145    20.131471    20.851529    7174.5116    7275.4082    6447.0015    7262.7375    970.06257   -805.08826   -661.38681   -2717.2708 
 8679000    254.37433   -3882.1133   -3446.1244   -3882.1133            0    7198.6779    17.064328    20.099524     20.81844    7140.4096    7069.9222    7529.5243    6996.5871    151.50779   -123.44816    1466.7052   -2696.4861 
 8680000    253.87178   -3882.2664   -3447.1389   -3882.2664            0    6243.6226    17.073679    20.110539    20.829849    7152.1556    6502.2432    6799.7869    5428.8377   -147.87233   -719.44424    -40.76757   -2795.8862 
 8681000    253.46841   -3866.3698   -3431.9336   -3866.3698            0    6938.6623    17.078383    20.116079    20.835587    7158.0678    8234.6017    6296.0031    6285.3821   -893.46438   -1108.3524     198.3859   -2707.5853 
 8682000    268.79144    -3830.703   -3370.0037    -3830.703            0    8700.3694    16.999307    20.022938    20.739115    7059.0983    8488.2474    8173.4452    9439.4156    697.03462    207.42807    813.09988   -2474.3032 
 8683000    249.68089   -3862.6212   -3434.6767   -3862.6212            0    8471.3366    16.993486    20.016082    20.732014    7051.8498     8169.712    6870.5977      10373.7    867.63738    145.27876   -1268.7734   -2563.4505 
 8684000    261.74993   -3889.9387   -3441.3083   -3889.9387            0    9897.0819    16.909657    19.917343    20.629742     6948.003    8161.0452    11050.281     10479.92     367.0502    1552.4164    1200.4944   -2438.4419 
 8685000    255.72128   -3826.2159   -3387.9183   -3826.2159            0    7359.0451    16.966936     19.98481    20.699623    7018.8486    7785.9043    6968.9083    7322.3227    336.11842   -1107.8717   -881.94011   -2634.6266 
 8686000     265.8759   -3861.9045   -3406.2023   -3861.9045            0    9125.7973    16.983559    20.004389    20.719902    7039.4981    9280.0658    8134.1624    9963.1636   -528.87863   -2975.4936   -23.591081   -2469.3127 
 8687000     251.0829   -3875.7391   -3445.3916   -3875.7391            0    7863.7366    17.022623    20.050401     20.76756    7088.1846    7305.1323    6703.2689    9582.8087   -1220.0053    731.20489   -1872.9055   -2632.4865 
 8688000    262.08591    -3804.727   -3355.5208    -3804.727            0    7964.5353    17.024542    20.052661    20.769901    7090.5818    8506.8754    5842.3137    9544.4168   -373.24317    701.98484   -2002.3947   -2531.9172 
 8689000    253.82869   -3880.6653   -3445.6117   -3880.6653            0    8733.6807    16.997623    20.020955    20.737061    7057.0011    8168.6328    8338.0285    9694.3807    1478.3462    529.20574   -991.65501   -2546.7489 
 8690000    274.85791   -3859.3765   -3388.2795   -3859.3765            0    7681.6764    17.086055    20.125116    20.844947    7167.7191    8575.6463    7256.2953    7213.0876    1463.2106    853.28017    917.29247   -2585.2844 
 8691000    257.86562    -3873.389   -3431.4162    -3873.389            0    8226.3025    17.040036    20.070911    20.788804    7109.9588    9379.9477    8312.5584    6986.4015   -182.18984    62.414888    1337.9019   -2578.4189 
 8692000    255.63578   -3884.3256   -3446.1746   -3884.3256            0    7617.9702    17.072323    20.108941    20.828194    7150.4509    8811.2849    6723.9381    7318.6875    198.65568   -682.46985    -1301.135   -2651.7575 
 8693000    260.36072   -3895.8036   -3449.5542   -3895.8036            0     6398.981    17.065748    20.101197    20.820173    7142.1929     4481.051    7083.3699    7632.5221    616.36706    430.11634     901.5558   -2783.0264 
 8694000    269.73512    -3895.192   -3432.8753    -3895.192            0    6514.8181    16.992526    20.014951    20.730842    7050.6541    7150.1754    6194.2383    6200.0407   -508.97926   -691.44939   -1240.3639   -2762.9789 
 8695000    250.40137   -3891.0558   -3461.8764   -3891.0558            0     7579.809    17.035075    20.065068    20.782752    7103.7511    7476.0255    9247.3641    6016.0375   -1857.6914   -1054.1713   -2515.6609   -2676.6012 
 8696000    259.02709   -3872.6163   -3428.6527   -3872.6163            0    8204.0082    16.967367    19.985318    20.700149    7019.3838    10529.716    6938.8841    7143.4245   -1749.1235   -433.77036    1464.7004   -2588.8042 
 8697000     260.9661   -3880.7253   -3433.4384   -3880.7253            0    8900.0598    17.076306    20.113632    20.833053    7155.4566    7316.2332     9492.875    9891.0713   -17.292108    1150.8578   -510.18594   -2504.6727 
 8698000    260.73272   -3880.0402   -3433.1533   -3880.0402            0    7718.6111    17.111344    20.154903      20.8758    7199.5935    9514.1717     6307.532    7334.1296   -687.80102     601.9164   -21.198718   -2622.7093 
 8699000    267.18198   -3843.1325   -3385.1917   -3843.1325            0    8614.1285    16.994759    20.017581    20.733566     7053.434    10040.923    8498.8489    7302.6135     370.2466   -1591.7333    478.64237   -2499.0813 
 8700000     267.7718   -3890.3053   -3431.3537   -3890.3053            0    6605.5844    16.976119    19.995626    20.710825    7030.2506    6679.0099    6696.5922    6441.1512    1228.4146   -414.14363    242.70833   -2754.0897 
 8701000    263.97832   -3862.4698     -3410.02   -3862.4698            0    7631.0207    16.979153      19.9992    20.714527    7034.0212    9124.6608    6542.8604    7225.5408   -472.17102    361.96073    1133.6562   -2627.1995 
 8702000    266.20874   -3857.8327   -3401.5601   -3857.8327            0    7727.1222    17.018828    20.045932    20.762931    7083.4455     6562.675    8342.3466    8276.3451    185.44406    1226.5215    -2408.883   -2603.3113 
 8703000    247.51684   -3887.3931   -3463.1577   -3887.3931            0    7024.6033    16.971256    19.989898    20.704893    7024.2112    6544.8303    6917.6008    7611.3788   -241.50013   -314.19848    508.08978   -2743.5509 
 8704000    258.74865   -3921.7434   -3478.2571   -3921.7434            0    7572.6644     17.02926    20.058219    20.775658    7096.4793    8664.8221    7718.0889    6335.0822   -233.24392   -100.27334   -609.34824   -2694.5251 
 8705000    257.74417   -3954.6443   -3512.8796   -3954.6443            0    7628.9972    16.996456     20.01958    20.735636    7055.5471    9678.9028    6277.7563    6930.3324   -840.27219   -148.68598   -1169.4865   -2727.8717 
 8706000    248.20348   -3888.8166   -3463.4043   -3888.8166            0    9128.7481    16.903585     19.91019    20.622334    6940.5205    10024.694    6262.4326    11099.118    -2205.269    349.75496   -572.29517    -2539.389 
 8707000    256.26477   -3882.5079   -3443.2789   -3882.5079            0    7317.4591    17.029381    20.058361    20.775805    7096.6301    7650.9883    7028.9737    7272.4153    231.47551    1610.2526   -1075.5456   -2685.9433 
 8708000    259.70897   -3816.3931   -3371.2609   -3816.3931            0    9966.1098     16.93782    19.950515    20.664101    6982.7764    7795.5707    13241.073    8861.6861   -742.25762    251.48141    489.27891   -2356.3458 
 8709000    260.35716   -3885.5401   -3439.2968   -3885.5401            0    8259.3768    17.039385    20.070144     20.78801    7109.1441    8321.0072    6646.9999    9810.1231   -419.83261    1414.0524   -34.552898   -2582.9681 
 8710000    278.16615   -3887.3643    -3410.597   -3887.3643            0    7371.1731    17.051456    20.084363    20.802737    7124.2643    8841.2653    6482.0979    6790.1562   -456.89912    492.77732   -375.57633   -2644.7315 
 8711000    264.04383   -3896.9253   -3444.3632   -3896.9253            0    7980.5105    17.074882    20.111956    20.831317    7153.6676    7122.8653    8724.5616    8094.1047   -367.54048   -830.08967    664.08554   -2611.7653 
 8712000    273.95503   -3890.1891   -3420.6395   -3890.1891            0    9102.3309    17.016482    20.043168    20.760068    7080.5158    8864.4625    9706.5453     8735.985    293.42971    508.54286   -191.19061   -2480.7141 
 8713000    283.93343   -3895.9057   -3409.2535   -3895.9057            0    7970.9443    17.153134    20.204127    20.926784     7252.472    9744.1802     7884.736    6283.9167   -259.99496   -42.237304   -1.2383206   -2566.1678 
 8714000    246.15315   -3853.2672   -3431.3691   -3853.2672            0    6490.5275    17.122789    20.168384    20.889763    7214.0495    5566.5857    6774.3177     7130.679    567.19714   -34.732867   -1104.1543   -2748.5039 
 8715000    254.41432   -3942.2829   -3506.2255   -3942.2829            0    8471.6149    17.048281    20.080623    20.798862    7120.2844    8705.8681    7146.7052    9562.2715    1202.7722   -512.58795    468.39624   -2626.5157 
 8716000     249.3115   -3880.3459   -3453.0345   -3880.3459            0    7726.0032    17.091319    20.131317     20.85137    7174.3467    7142.4827    7436.1268       8599.4    504.27507    654.91088    456.66253    -2644.659 
 8717000    254.04038   -3894.1623   -3458.7457   -3894.1623            0     5622.954    17.085621    20.124604    20.844417    7167.1725    6979.3009    4459.6532    5429.9078   -334.11206    488.11695   -923.81476   -2871.0016 
 8718000    265.96503   -3864.9312   -3409.0762   -3864.9312            0    7259.3501    17.093807    20.134246    20.854404    7177.4795    6118.0519    7687.0377    7972.9607    -468.9288    1736.0888   -1377.2175   -2649.1952 
 8719000    267.06134   -3866.7377   -3409.0038   -3866.7377            0    7616.9147    16.997229     20.02049    20.736579    7056.5097    7552.6661    7507.2155    7790.8624    609.63853   -111.99288    124.23335   -2625.1322 
 8720000    245.28097   -3906.8056   -3486.4024   -3906.8056            0    7371.1739    16.962781    19.979916    20.694554    7013.6935    9822.2039    5943.3652    6347.9524   -156.71135      547.265   -1084.8181   -2732.4232 
 8721000     255.6534   -3906.5468   -3468.3656   -3906.5468            0    7833.6301    17.067731    20.103533    20.822592    7144.6828    7626.2565    7633.0345    8241.5995    75.680124   -253.00163    1734.0199   -2652.1181 
 8722000    268.19447   -3931.2572   -3471.5811   -3931.2572            0    8829.0602    16.997252    20.020518    20.736608    7056.5389    8039.9432    10032.817      8414.42   -798.80014    513.64793    625.21815   -2562.9615 
 8723000    265.01371    -3927.557   -3473.3325    -3927.557            0    8839.2194    17.021339    20.048889    20.765994    7086.5807    8441.2444    9146.4837      8929.93   -1240.5061   -710.87852   -348.93618   -2559.7947 
 8724000     246.1193   -3863.9468   -3442.1067   -3863.9468            0    8378.7445    17.005568    20.030313    20.746754    7066.9016    9435.4026    7697.8537    8002.9772   -570.46197   -1067.7533   -577.42004   -2578.5639 
 8725000    249.66291   -3888.8925   -3460.9788   -3888.8925            0    9489.2186    16.952139    19.967381    20.681571    7000.5013    9383.9392    10846.788    8236.9283    113.35369   -1120.9047   -1883.2357   -2492.1758 
 8726000    268.57883   -3916.7357   -3456.4008   -3916.7357            0    7517.6214    17.040812    20.071825    20.789751    7110.9304    7322.4859    9082.5204     6147.858   -460.04895    203.75178       151.73   -2676.7811 
 8727000    270.82296   -3841.3642   -3377.1829   -3841.3642            0    8219.5998    17.054205    20.087601     20.80609    7127.7101    8324.8669    9015.9376     7317.995   -60.949029   -340.53674    715.13794   -2522.7527 
 8728000    262.03332    -3862.812   -3413.6959    -3862.812            0    8647.5362    17.008661    20.033956    20.750527    7070.7581    9858.3325    7645.5017    8438.7742   -309.79393   -272.28406      1536.32   -2521.9641 
 8729000    262.61715   -3869.9967   -3419.8798   -3869.9967            0    6693.0952    16.997662       20.021    20.737107    7057.0488    7157.7307    5877.9951    7043.5599    69.504098    733.11023    938.89217   -2731.0277 
 8730000    267.80479   -3852.3506   -3393.3424   -3852.3506            0    8841.1744    16.959054    19.975525    20.690006    7009.0708    8318.0728    8197.0559    10008.395    1675.8555    1024.1987    249.03485   -2489.5966 
 8731000    253.51549   -3875.0654   -3440.5486   -3875.0654            0    7702.1434    17.028739    20.057605    20.775022    7095.8278    8256.5519    7680.3272     7169.551   -476.14384    2175.6134    1364.3787   -2643.4894 
 8732000    263.77433   -3898.4815   -3446.3814   -3898.4815            0    7931.1616    16.972351    19.991188    20.706229    7025.5712    6927.7594    7134.0093    9731.7162    632.96366    515.70371    717.16681   -2633.7486 
 8733000    245.37483   -3866.7987   -3446.2346   -3866.7987            0     9486.209    16.961985    19.978978    20.693582    7012.7054     8864.204    11241.981    8352.4424    268.10496     616.8334    11.682636   -2476.0505 
 8734000    259.06611   -3868.6149   -3424.5845   -3868.6149            0    6750.6508    17.071586    20.108073    20.827295    7149.5252    6305.2755     6654.646     7292.031    1080.6894     107.8347   -1094.4421   -2720.7043 
 8735000    254.15455   -3893.5574   -3457.9452   -3893.5574            0    5818.2372    17.049345    20.081876    20.800161    7121.6181    4784.7934    5360.2743    7309.6438   -1075.1602    26.338497   -652.32749   -2853.6544 
 8736000     248.7156   -3883.9309   -3457.6409   -3883.9309            0    7533.2276    17.048622    20.081025    20.799279     7120.712    7152.6305    7503.3951    7943.6571   -123.06271   -620.29225    -815.4342   -2675.3281 
 8737000    254.31251   -3873.3884   -3437.5055   -3873.3884            0    6292.7032    17.086567    20.125719    20.845572    7168.3642    6341.6401    6355.3601    6181.1093    -1026.231    723.67742    1301.0654   -2779.6459 
 8738000    254.99666   -3852.8633   -3415.8078   -3852.8633            0    8641.7333    16.981265    20.001687    20.717104    7036.6461    7538.1728    8891.2877    9495.7393   -296.08183   -81.444014    619.49964   -2528.9735 
 8739000    257.74747   -3889.3371   -3447.5668   -3889.3371            0    6852.7849     17.06537    20.100752    20.819712    7141.7185    6225.4293    6848.8368    7484.0887    1006.3629   -1543.2114    1798.7226   -2733.8174 
 8740000    267.93671   -3906.9074    -3447.673   -3906.9074            0    7921.1467    16.989314    20.011167    20.726923    7046.6563    9462.7677      5851.47    8449.2023    173.23147   -54.421533    611.87026   -2633.6306 
 8741000    255.92083   -3904.0414   -3465.4018   -3904.0414            0    5968.1683    16.987826    20.009415    20.725108    7044.8056    7020.1071    5608.8323    5275.5655   -779.51609   -369.14039    1777.8147   -2852.2247 
 8742000     257.6703   -3869.3981     -3427.76   -3869.3981            0    8501.1471    16.976364    19.995914    20.711124     7030.555    5699.4314    10840.012    8963.9982   -306.38193   -878.90912    2470.2568   -2556.1082 
 8743000    263.62367   -3871.5982   -3419.7563   -3871.5982            0    7486.9902     17.05137    20.084261    20.802631    7124.1559    7146.1891    8070.0248    7244.7568    429.93434   -32.594925    1471.5435   -2641.8692 
 8744000    264.12385    -3894.247   -3441.5478    -3894.247            0    8704.8834    16.988689    20.010432    20.726161    7045.8793    7574.6598    8950.5094    9589.4811   -983.85604   -59.447551   -132.35558   -2547.0607 
 8745000     267.9855   -3894.3239   -3435.0059   -3894.3239            0    7020.0183    17.036515    20.066764    20.784508    7105.5526    5539.0677    8651.9091    6869.0782   -2855.6636    -274.1435    581.28221   -2707.5411 
 8746000    245.94193   -3868.5486   -3447.0126   -3868.5486            0    7371.1019    16.989963    20.011932    20.727715    7047.4644    8094.4828    6818.3328    7200.4901   -1663.9837    452.57404     77.81537   -2689.4104 
 8747000    254.30767   -3897.4893   -3461.6147   -3897.4893            0    5758.1683    17.045603    20.077468    20.795595    7116.9296    3974.4525    5956.2761    7343.7764   -269.20689      927.986   -147.28635   -2863.9564 
 8748000    261.64421   -3869.6727   -3421.2235   -3869.6727            0    7087.9197    17.014913     20.04132    20.758154    7078.5581    7597.1243    6020.3608    7646.2741   -343.43736    83.698827   -1269.5699   -2689.5127 
 8749000    249.57102    -3914.657   -3486.9008    -3914.657            0    7831.8396    17.024531    20.052649    20.769888    7090.5687    6128.0018    10667.053    6700.4636   -134.85775   -774.86752   -1066.8486   -2677.0207 
 8750000    264.31838   -3874.6381   -3421.6055   -3874.6381            0    5543.9902    17.095558    20.136309     20.85654    7179.6853    6059.6684    5749.9597    4822.3424    -222.1522   -1158.7644    532.74697   -2841.1034 
Loop time of 499.971 on 64 procs for 250000 steps with 864 atoms

Performance: 86.405 ns/day, 0.278 hours/ns, 500.029 timesteps/s
99.0% CPU use with 64 MPI tasks x 1 OpenMP threads

MPI task timing breakdown:
Section |  min time  |  avg time  |  max time  |%varavg| %total
---------------------------------------------------------------
Pair    | 21.095     | 26.574     | 31.264     |  49.2 |  5.32
Bond    | 0.26454    | 0.28509    | 0.29758    |   1.1 |  0.06
Kspace  | 214.37     | 228.6      | 239.21     |  38.6 | 45.72
Neigh   | 5.5473     | 6.7295     | 7.7264     |  25.1 |  1.35
Comm    | 102.03     | 113.07     | 127.47     |  57.1 | 22.61
Output  | 1.0021     | 1.0035     | 1.0156     |   0.2 |  0.20
Modify  | 114.97     | 118.41     | 120.57     |  12.4 | 23.68
Other   |            | 5.304      |            |       |  1.06

Nlocal:        13.5000 ave          18 max           8 min
Histogram: 1 2 4 7 5 6 18 10 8 3
Nghost:        2219.19 ave        2252 max        2184 min
Histogram: 2 7 5 7 8 10 8 10 3 4
Neighs:        4293.77 ave        6040 max        2539 min
Histogram: 4 3 8 7 9 11 8 7 5 2

Total # of neighbors = 274801
Ave neighs/atom = 318.05671
Ave special neighs/atom = 2.0000000
Neighbor list builds = 13706
Dangerous builds = 0

unfix		3
unfix		2
unfix		1

write_data	data.final.${pid}
write_data	data.final.0
System init for write_data ...
PPPM initialization ...
  extracting TIP4P info from pair style
  using 12-bit tables for long-range coulomb (../kspace.cpp:340)
  G vector (1/distance) = 0.37367703
  grid = 24 24 24
  stencil order = 5
  estimated absolute RMS force accuracy = 0.0032283462
  estimated relative force accuracy = 9.7220688e-06
  using double precision FFTW3
  3d grid and FFT values/proc = 2535 216
Last active /omp style is kspace_style pppm/tip4p/omp
WARNING: Not all mixed pair coeffs generated from mixing. Use write_data with 'pair ij' option to store all pair coeffs. (../write_data.cpp:312)

write_restart   restart.lmp.${pid}
write_restart   restart.lmp.0
System init for write_restart ...
PPPM initialization ...
  extracting TIP4P info from pair style
  using 12-bit tables for long-range coulomb (../kspace.cpp:340)
  G vector (1/distance) = 0.37367703
  grid = 24 24 24
  stencil order = 5
  estimated absolute RMS force accuracy = 0.0032283462
  estimated relative force accuracy = 9.7220688e-06
  using double precision FFTW3
  3d grid and FFT values/proc = 2535 216
Last active /omp style is kspace_style pppm/tip4p/omp
Total wall time: 0:08:22
