LAMMPS data file via write_data, version 30 Jul 2021, timestep = 500000

864 atoms
2 atom types
576 bonds
1 bond types
288 angles
1 angle types

0.6005901706518184 17.606982229347658 xlo xhi
1.7989471595741637 21.830230640429317 ylo yhi
0.7327186053773591 21.480477194622992 zlo zhi

Masses

1 1.00794
2 15.9994

Pair Coeffs # lj/cut/tip4p/long/omp

1 0 0
2 0.21084 3.1668

Bond Coeffs # harmonic/omp

1 450 0.9572

Angle Coeffs # harmonic/omp

1 55 104.52

Atoms # full

274 1 2 -1.1794 3.4721005988396283 5.688673910390973 5.073394890379685 0 3 -3
749 1 1 0.5897 1.3266826987633005 3.3021003857429543 2.909160495674126 2 5 0
276 1 1 0.5897 3.145928089034633 4.789284349788714 5.042340048576127 0 3 -3
493 1 2 -1.1794 4.513317636465863 5.009429401875648 2.6467965773426765 -1 -1 0
495 1 1 0.5897 3.8842322324532046 5.195612316970497 1.9497771442125575 -1 -1 0
275 1 1 0.5897 3.9838219445712784 5.786241227242392 4.270355151274801 0 3 -3
135 1 1 0.5897 3.1387460909788922 3.065532312266796 6.664675871927085 0 -5 -1
750 1 1 0.5897 2.567694279512885 2.445559863919513 3.043978534412829 2 5 0
134 1 1 0.5897 3.093897619340272 2.723719160327914 5.190537426942804 0 -5 -1
494 1 1 0.5897 5.308481158222688 5.4720268177187785 2.3822844366681144 -1 -1 0
133 1 2 -1.1794 2.5981587478321266 3.1640397600625243 5.880898741568919 0 -5 -1
720 1 1 0.5897 2.58476047021684 7.616305181978981 6.987420720905169 4 5 0
186 1 1 0.5897 4.4862752755255 3.209919552734118 3.383115800048009 0 5 4
184 1 2 -1.1794 4.201491958503107 2.4424246779090004 3.8792041626081852 0 5 4
570 1 1 0.5897 1.1306575253763618 5.311456623789471 3.482566921266312 2 0 0
748 1 2 -1.1794 1.7670885108012373 2.5423327612443094 2.5283121398036714 2 5 0
662 1 1 0.5897 6.222004848881436 5.529505953718337 7.027790237924301 -3 -4 1
270 1 1 0.5897 1.147330678422343 7.574174512784875 2.784664946462203 1 5 6
268 1 2 -1.1794 1.520016001552235 6.771607863674844 2.4196380391613275 1 5 6
190 1 2 -1.1794 1.4943516765771658 7.427456971382251 5.481104731271997 4 4 -4
192 1 1 0.5897 2.083843696903524 6.684518102767864 5.351502225057841 4 4 -4
326 1 1 0.5897 0.8826751638853797 2.4256752096096745 5.7692701970824745 1 0 -1
851 1 1 0.5897 2.2710596016113023 3.4206735388744045 1.1048484220083925 -4 -1 -1
269 1 1 0.5897 0.9189482895101184 6.526167771192419 1.7162672345734702 1 5 6
567 1 1 0.5897 2.9139361393220278 7.7361056749883605 1.6396665561581076 0 5 -6
446 1 1 0.5897 1.1468704600414763 5.460278276694857 7.440966723981295 3 -1 -1
191 1 1 0.5897 0.6832343506234044 7.036430057895894 5.805816026583451 4 4 -4
663 1 1 0.5897 4.728472441864642 5.64092197834187 7.248906547251247 -3 -4 1
565 1 2 -1.1794 3.334365675503027 8.219354341227763 0.9283581578319076 0 5 -6
414 1 1 0.5897 4.639302959932417 8.415430399252784 4.3973080988511555 2 -2 3
412 1 2 -1.1794 5.5287798679873585 8.269062689623588 4.719274477628183 2 -2 3
719 1 1 0.5897 3.94272225091792 8.174494490495256 7.356634547138163 4 5 0
606 1 1 0.5897 6.509800376872041 7.522331928552875 2.1295338385490323 -5 1 0
48 1 1 0.5897 6.589048407668927 6.813388534206931 5.18646102357547 3 -1 -2
80 1 1 0.5897 8.4001915149602 7.198522178592846 6.314068532142589 1 1 -4
46 1 2 -1.1794 7.259327316625064 6.205588749345381 5.4987924817229406 3 -1 -2
439 1 2 -1.1794 11.03959927648563 5.516181118391182 4.89491861191598 0 0 0
440 1 1 0.5897 10.348172933906918 5.964891907139842 4.408271930644785 0 0 0
441 1 1 0.5897 11.704164392329462 5.314008077606406 4.236333817309392 0 0 0
370 1 2 -1.1794 11.420970692399584 2.8359327471943567 5.477560571356296 3 6 -1
742 1 2 -1.1794 6.976564658397443 2.8351420669742162 2.094610466019359 -2 0 0
47 1 1 0.5897 6.969573204574898 5.348077449585446 5.187401831058789 3 -1 -2
744 1 1 0.5897 7.80695551358173 3.212276821738799 1.8039715277244255 -2 0 0
558 1 1 0.5897 6.973970185467394 3.2928803639612116 4.043932882064672 1 3 2
280 1 2 -1.1794 9.303678241074975 6.2897266359374875 2.5372212005831782 -3 0 2
282 1 1 0.5897 9.668723188011079 7.065630671446872 2.1118200865019077 -3 0 2
281 1 1 0.5897 9.397797408859311 5.593149124698764 1.8874743052381782 -3 0 2
207 1 1 0.5897 7.909060984275081 3.665062654390339 6.413798399390894 -4 3 -3
205 1 2 -1.1794 8.310538724010758 3.5300354792154454 7.27219058602058 -4 3 -3
605 1 1 0.5897 7.483461542208087 6.394566656541335 2.3979564159455338 -5 1 0
12 1 1 0.5897 10.019838803165559 3.3782936553754377 1.1189703403773548 -3 1 6
371 1 1 0.5897 11.063607261503638 3.7203010766509754 5.557693552857407 3 6 -1
372 1 1 0.5897 11.162598206064677 2.5511919028547227 4.60096818126347 3 6 -1
556 1 2 -1.1794 6.951357515281398 3.4658114810348524 4.9851229536540105 1 3 2
557 1 1 0.5897 6.63180664066249 2.650354001648057 5.37135054375394 1 3 2
604 1 2 -1.1794 6.634688722015132 6.582557326049451 1.9973451697321354 -5 1 0
863 1 1 0.5897 10.981442752114956 7.9705756334234525 7.596446040123003 -1 -1 2
79 1 2 -1.1794 9.144579748713236 7.589643843232722 6.771413694344212 1 1 -4
862 1 2 -1.1794 11.920141440915641 8.15185368530146 7.549227124494618 -1 -1 2
10 1 2 -1.1794 9.2506284408775 3.9411648850203265 1.030972291141354 -3 1 6
206 1 1 0.5897 9.090172665622106 4.085309969125869 7.2625156413718805 -4 3 -3
105 1 1 0.5897 10.671159069941789 5.713787113325054 7.071108516492583 3 0 5
743 1 1 0.5897 7.120730266413777 1.8891862865939282 2.0694293342250853 -2 0 0
669 1 1 0.5897 11.714170580572675 2.137318347209863 1.7698357821668258 -7 -3 -1
81 1 1 0.5897 8.754781528802168 8.252975258082415 7.3408783203990735 1 1 -4
568 1 2 -1.1794 17.580844267804615 4.724136343116264 3.9943729869837297 1 0 0
447 1 1 0.5897 17.588677326021738 4.851027780125797 6.175271683655532 3 -1 -1
445 1 2 -1.1794 17.34066739680658 5.364231181510795 6.94426960789717 2 -1 -1
813 1 1 0.5897 16.262511391648488 2.1563214521132874 7.295290534247544 -6 6 -3
128 1 1 0.5897 12.864244001755234 6.775178988922633 6.468613913726473 -1 1 -4
569 1 1 0.5897 16.70709646615836 5.110894140704186 3.937492233785098 1 0 0
127 1 2 -1.1794 13.722386525284266 6.552839219393118 6.107492183391127 -1 1 -4
129 1 1 0.5897 13.748173482529122 5.5960834418304195 6.121714081152126 -1 1 -4
234 1 1 0.5897 12.720188388069683 5.829464428606489 2.0587733427957398 -2 1 0
233 1 1 0.5897 13.69032624907029 5.2562139879622 3.0697952124312677 -2 1 0
232 1 2 -1.1794 12.786136846806635 5.185318055756352 2.76374205672187 -2 1 0
380 1 1 0.5897 14.219878650241416 3.6259925960926753 4.948868615696306 7 3 0
381 1 1 0.5897 12.934774743701166 3.500129736340722 5.739193042959229 7 3 0
379 1 2 -1.1794 13.805419714240978 3.8968563627320556 5.768075611577865 7 3 0
778 1 2 -1.1794 15.260001750307277 6.24567206129532 3.9258627011428953 -2 1 0
779 1 1 0.5897 14.640160979784456 6.247162636353468 4.655278087176752 -2 1 0
668 1 1 0.5897 12.428352596919177 3.4651016413854516 1.6324762067234047 -7 -3 -2
780 1 1 0.5897 15.589547690857998 7.143617083469824 3.8891285626934935 -2 1 0
422 1 1 0.5897 15.320074926460986 3.4861864856086844 1.9068192725904574 -3 1 4
486 1 1 0.5897 15.20512596734848 7.363153761132816 6.4697026466530225 -1 1 0
454 1 2 -1.1794 15.124584075668915 2.7239068336235586 3.578459529652379 1 -1 1
455 1 1 0.5897 15.904917120672184 2.7235848438134287 4.132837466921888 1 -1 1
442 1 2 -1.1794 12.803195295637908 8.258325533625285 3.940084860208117 5 4 -2
667 1 2 -1.1794 11.998502216548111 2.7802441731931937 1.1201797125223516 -7 -3 -1
325 1 2 -1.1794 17.080468034506417 1.9451832689443245 5.591650946995967 0 0 -1
444 1 1 0.5897 12.849679235634586 7.568472302650303 4.602040578791577 5 4 -2
456 1 1 0.5897 14.997697563208012 1.805041425743836 3.342152016318465 1 -1 1
485 1 1 0.5897 16.201381718205518 7.983959766430283 7.425728570498123 -1 1 0
229 1 2 -1.1794 14.317280699963808 8.45107076125144 1.65940615189266 1 4 2
484 1 2 -1.1794 15.875489498795053 8.043950849579273 6.52770514896456 -1 1 0
231 1 1 0.5897 13.819008136387094 8.393365052762586 2.4746626843684463 1 4 2
230 1 1 0.5897 15.224416411290601 8.292958628943275 1.9208595524432293 1 4 2
421 1 2 -1.1794 15.484337439874691 3.7740612619454836 1.00882286113667 -3 1 4
143 1 1 0.5897 2.340874399358793 8.58184699588477 4.4761360778238135 0 5 4
566 1 1 0.5897 4.172947275948249 8.502110162903776 1.2931577978222144 0 5 -6
595 1 2 -1.1794 5.836168541769317 9.400522445931571 1.7399618075052183 1 -3 0
413 1 1 0.5897 5.495723378066622 8.525821800562799 5.640813008380204 2 -2 3
142 1 2 -1.1794 2.985384215804243 9.08818804329971 3.9816888114200877 0 5 4
144 1 1 0.5897 3.233189836976495 9.801211093797559 4.570281865395655 0 5 4
496 1 2 -1.1794 6.164111784789156 11.84980698630739 2.941323743971957 1 0 3
283 1 2 -1.1794 4.077162374571391 12.893173866338142 4.484512265553448 5 0 -2
284 1 1 0.5897 3.4276198392908026 13.584487432381671 4.612713751503871 5 0 -2
311 1 1 0.5897 3.3472985144533536 11.297377987569304 6.950981655769232 -1 2 2
88 1 2 -1.1794 5.459794326911037 14.737980702972822 1.896643039705852 8 -1 4
89 1 1 0.5897 4.508994195384968 14.78967202261878 1.9944122327932259 8 -1 4
312 1 1 0.5897 2.2304226790592647 11.033072381102638 5.9637232910201075 -1 2 2
310 1 2 -1.1794 3.181676647374831 10.98810126208157 6.060379658422207 -1 2 2
285 1 1 0.5897 3.6863620290555006 12.118666607301432 4.889069313461821 5 0 -2
497 1 1 0.5897 5.639733817584439 12.307743364935051 3.598257015161917 1 0 3
508 1 2 -1.1794 2.3085683944319566 11.299937543222402 2.239578011956757 4 -1 4
510 1 1 0.5897 2.7529863104340784 11.47928872273703 1.4109765368223979 4 -1 4
318 1 1 0.5897 1.9281911527722004 13.005439465960082 3.3437137850838985 -5 -5 1
509 1 1 0.5897 2.6587224470412334 10.454926858337116 2.5217186124864615 4 -1 4
114 1 1 0.5897 5.295620907147802 13.742341180749774 5.357247396392135 -1 -3 2
708 1 1 0.5897 2.379203492680684 14.456418127425971 1.0041973555322765 -2 -2 -7
316 1 2 -1.1794 1.4836081220641453 13.794140445641185 3.6544340369738855 -5 -5 1
317 1 1 0.5897 1.7688444355177133 14.482788909823471 3.0538871210817797 -5 -5 0
437 1 1 0.5897 4.902705601089424 12.099540554051085 1.1350008052909106 -1 5 0
148 1 2 -1.1794 1.091940533434547 13.618546716217622 6.677729025861308 -4 -1 1
179 1 1 0.5897 1.778324886295465 15.109437764804738 5.848279990069895 -7 0 0
597 1 1 0.5897 5.87897561671832 10.232563509757593 2.211268922869432 1 -3 0
596 1 1 0.5897 5.808883230979039 9.649196006809927 0.8160205229940627 2 -3 0
112 1 2 -1.1794 5.997185476118409 14.16417626771541 5.85334813611809 -1 -3 2
149 1 1 0.5897 0.9502591554262805 12.80800069084636 6.188653160764767 -4 -1 1
150 1 1 0.5897 1.0454556389135754 13.355464198506997 7.5968995066357525 -4 -1 1
706 1 2 -1.1794 2.6706494132230025 15.114971717667352 1.6347696197810304 -2 -2 -7
628 1 2 -1.1794 5.776348329521359 8.746541933694829 7.267292114263992 -1 -3 3
629 1 1 0.5897 5.912181392481224 9.669320241866203 7.482430414604313 -1 -3 3
443 1 1 0.5897 11.874224533598285 8.484461077318294 3.8939538593309284 5 4 -2
498 1 1 0.5897 6.828724339836804 12.486496508862908 2.6783175813577484 1 0 2
675 1 1 0.5897 9.976363427456693 8.516413063982796 5.417431649587771 -4 -1 -1
113 1 1 0.5897 6.739880215179711 13.565383445866248 5.775273167245806 -1 -3 2
600 1 1 0.5897 6.944580195549015 9.182378843088273 4.346242527692211 0 -4 -4
599 1 1 0.5897 7.139789316873679 10.567036885361878 3.766095996971272 0 -4 -4
238 1 2 -1.1794 8.01477154946251 12.137458111880504 5.963671945628565 -4 -4 -1
239 1 1 0.5897 7.563448193688565 11.824346184789874 6.747587647415515 -4 -4 -1
240 1 1 0.5897 7.861126666487356 11.45549521210886 5.309779886960729 -4 -4 -1
477 1 1 0.5897 8.337364442620814 14.580146832534325 2.546580430915001 5 -3 -1
598 1 2 -1.1794 7.582028314457687 9.89365046839962 4.283030407560501 0 -4 -4
673 1 2 -1.1794 10.042071001568411 8.83801505835634 4.518263722157579 -4 -1 -1
674 1 1 0.5897 9.156487881218686 9.130425080544928 4.3026457491338554 -4 -1 -1
475 1 2 -1.1794 8.419448952083805 13.945405633771488 3.2583524239343546 5 -3 -1
476 1 1 0.5897 8.902241297712933 13.214070337348009 2.873235641707973 5 -3 -1
504 1 1 0.5897 8.915505838519962 10.78428677009314 1.6389627298968301 -4 1 3
45 1 1 0.5897 11.225920604727394 12.961533355402851 4.295047609157961 2 5 -1
770 1 1 0.5897 11.064833092366447 11.110207935851664 2.1967402717619793 3 -1 1
177 1 1 0.5897 11.453207594171054 14.23445103249665 1.7366661780666015 -1 -4 6
502 1 2 -1.1794 9.236821526964755 11.62282275134704 1.9704271979407906 -4 1 3
758 1 1 0.5897 10.43078931732807 10.641946391065401 5.095292277079421 0 1 2
757 1 2 -1.1794 10.62093061885874 11.54943521205162 5.333126395611873 0 1 2
759 1 1 0.5897 9.801162661818145 11.877460979293149 5.702766967187706 0 1 2
515 1 1 0.5897 8.83600625761185 14.660875738399369 4.909314727747165 -4 -4 0
516 1 1 0.5897 9.395981478904107 14.58380248594972 6.313749077872773 -4 -4 0
514 1 2 -1.1794 8.883582282662601 15.146273593817213 5.732952880437735 -4 -4 0
175 1 2 -1.1794 10.892977241055322 14.873920020429885 1.2968076433644986 -1 -4 6
43 1 2 -1.1794 11.632596035129682 13.491710899364758 3.6096418707258655 2 5 -1
694 1 2 -1.1794 8.976793302057184 8.858280980761037 1.2391458661045365 1 -1 1
378 1 1 0.5897 11.929613048946557 11.409207467959341 6.5540062649892326 2 5 3
769 1 2 -1.1794 11.866383542871123 10.69634753524389 1.8766081404032118 3 -1 1
771 1 1 0.5897 11.560833347746875 9.979527595058109 1.3206730505169826 3 -1 1
695 1 1 0.5897 9.761177678953493 9.118366219430682 0.7560809588350779 1 -1 1
503 1 1 0.5897 9.650225428722035 12.037658092747916 1.2132855328210366 -4 1 3
416 1 1 0.5897 16.477049461580286 9.535518933944761 3.0002850088637456 -1 -2 0
864 1 1 0.5897 11.976753546457306 9.103475240706066 7.462845649733688 -1 -1 2
44 1 1 0.5897 11.952247278407679 14.26996859110912 4.066141983658307 2 5 -1
376 1 2 -1.1794 12.404197743054032 10.851542465889304 7.170475374870126 2 5 3
209 1 1 0.5897 16.89425835481567 14.545730668169645 3.2638232627620383 0 -2 2
394 1 2 -1.1794 17.42187646111517 11.244023085074197 5.582582207182411 1 2 5
395 1 1 0.5897 16.549202508087298 11.125209884218451 5.957514641529844 1 2 5
377 1 1 0.5897 13.261910989732892 10.722103353516252 6.765718978118233 2 5 3
225 1 1 0.5897 14.057245690035977 12.361779736817153 2.439354758498477 2 0 -8
223 1 2 -1.1794 14.602835256260159 12.652753492705664 1.7086561025106277 2 0 -8
389 1 1 0.5897 12.884127548700704 12.355136123692521 4.022280558908451 2 5 3
390 1 1 0.5897 12.924222060953982 10.9098878385293 3.573277524283154 2 5 4
388 1 2 -1.1794 13.441832316803374 11.57717852878267 4.023896499030835 2 5 4
140 1 1 0.5897 14.96051071474887 9.664722020917281 6.088100704658014 -2 -2 0
396 1 1 0.5897 17.268983269985263 11.331451140115139 4.641713973657347 1 2 4
417 1 1 0.5897 16.667385982773226 8.652063593649629 4.214877036652798 -1 -2 0
415 1 2 -1.1794 16.658608662866406 8.63169467430362 3.257928583881391 -1 -2 0
139 1 2 -1.1794 14.812383999570724 10.610346013492515 6.077797291412013 -2 -2 0
141 1 1 0.5897 14.335649761080736 10.769718944928876 5.263196720552384 -2 -2 0
25 1 2 -1.1794 16.65674521069542 11.38254098957301 2.9339620413726784 -2 7 6
26 1 1 0.5897 15.9275611336694 11.801476006420241 2.4767536712097677 -2 7 6
27 1 1 0.5897 17.412664012973607 11.529409303316152 2.365392888779424 -2 7 6
224 1 1 0.5897 14.944807034888333 13.502090779732436 1.9878246058091693 2 0 -8
491 1 1 0.5897 14.232308289560525 13.778293298076855 6.429610983663226 0 3 4
490 1 2 -1.1794 13.336378469329818 13.555377908385454 6.682330287506047 0 3 4
528 1 1 0.5897 16.385408497929568 14.65580170080495 6.042946781172095 -3 -5 1
788 1 1 0.5897 12.322560596386207 14.89407422572751 5.887632674926943 3 -1 6
526 1 2 -1.1794 15.496725550769447 14.94775847349232 5.839835368630194 -3 -5 1
208 1 2 -1.1794 16.020109134888692 14.904871197586031 3.1117153613694293 0 -2 2
210 1 1 0.5897 15.620943218667735 14.941103255975065 3.9809686839644796 0 -2 2
492 1 1 0.5897 13.428735793908297 12.77779369038005 7.232861979198812 0 3 4
185 1 1 0.5897 4.821738154826207 21.786627267137412 3.6353463643742843 0 4 4
90 1 1 0.5897 5.805066927281454 15.20056972994755 2.6602173841504104 8 -1 4
773 1 1 0.5897 6.124212738526832 15.237757755226765 7.396968637305181 2 -5 3
178 1 2 -1.1794 2.320283966991626 15.886304671211363 5.710392060672581 -7 0 0
180 1 1 0.5897 1.8153552434664608 16.4263429108287 5.1023955104439365 -7 0 0
342 1 1 0.5897 1.5131972516904046 21.00617941982923 3.285984914110022 2 3 3
341 1 1 0.5897 2.363325760383372 20.193166965497376 4.238998920164764 2 3 3
340 1 2 -1.1794 1.5883983372894899 20.13702706873385 3.679904096347174 2 3 3
147 1 1 0.5897 1.5727025784058686 18.31462548656959 3.5662904605214294 -1 1 -3
145 1 2 -1.1794 1.5845327469213943 17.358284870318734 3.52722118712086 -1 1 -3
803 1 1 0.5897 4.2656012842116215 20.511621521497375 5.564256198573533 5 2 -2
802 1 2 -1.1794 3.509059090837059 19.92551719516512 5.583673134079141 5 2 -2
804 1 1 0.5897 3.881423495270185 19.05819884445782 5.742916339867471 5 2 -2
552 1 1 0.5897 5.3009175069529055 17.200459587878548 5.420880450648217 -2 5 -3
332 1 1 0.5897 3.475088604617375 17.690450696468524 2.6501249345876037 -1 -2 -3
331 1 2 -1.1794 4.373880340848115 18.005644907909826 2.745422820183965 -1 -2 -3
138 1 1 0.5897 2.895115086016198 19.86211722209211 1.8782696575705953 7 -6 1
431 1 1 0.5897 5.680128222849929 20.450175197948155 2.020745920434619 -5 -3 -2
432 1 1 0.5897 5.262415607821306 19.54300885535625 3.1585084552966665 -5 -3 -2
550 1 2 -1.1794 4.716416353693462 17.495703005641012 6.119052817857458 -2 5 -3
136 1 2 -1.1794 2.6971663883566968 20.141301738332118 0.9843354249308812 7 -6 1
219 1 1 0.5897 2.5595286430656854 20.361902740645796 7.290045866147623 5 -1 -2
707 1 1 0.5897 2.670487749314328 15.935640725378455 1.1420681352281792 -2 -2 -7
333 1 1 0.5897 4.839985549475506 17.279866741689446 3.16045022045917 -1 -2 -3
430 1 2 -1.1794 5.740117010186619 20.35100084570272 2.9709041370154523 -5 -3 -2
551 1 1 0.5897 3.9419827768993874 16.939438443277872 6.03497708754092 -2 5 -3
681 1 1 0.5897 5.032401134091088 17.581333658391117 1.1752963915511765 -6 -5 1
106 1 2 -1.1794 6.152381009526437 16.172828588277746 4.1255789754432435 -1 -1 3
146 1 1 0.5897 0.866029742467098 17.133337169000328 2.93612006099824 -1 1 -3
117 1 1 0.5897 1.2661843725018205 17.433214724751004 0.7669705913659541 -1 -3 5
680 1 1 0.5897 6.198282057266846 16.663174513560882 0.875871438939674 -6 -5 1
611 1 1 0.5897 6.071778257693166 21.300829743686066 7.0573235833896035 3 2 -1
610 1 2 -1.1794 5.9317205836264515 21.3264053013528 6.110758504433448 3 2 -1
483 1 1 0.5897 9.038394631018326 21.786284155674192 6.973052709625852 -1 1 -1
108 1 1 0.5897 6.279737901174399 15.666212144511162 4.927677062963246 -1 -1 3
482 1 1 0.5897 10.353305244333624 21.586177499279863 6.249927587183615 -1 1 -1
481 1 2 -1.1794 9.678420774717745 21.11443531277591 6.738025063418247 -1 1 -1
107 1 1 0.5897 7.021518578878376 16.51592913742978 3.9178924294760358 -1 -1 3
24 1 1 0.5897 8.756280944347589 18.228250702202438 4.500064666339005 -3 3 2
612 1 1 0.5897 6.508078159820857 20.645163240541592 5.76438173701644 3 2 -1
22 1 2 -1.1794 9.079435632959925 17.465144946584445 4.021019894340032 -3 3 2
23 1 1 0.5897 9.04352596985092 16.75007075654668 4.656340267959615 -3 3 2
705 1 1 0.5897 11.643224888979363 18.982031516187213 5.444352527813638 2 -3 0
541 1 2 -1.1794 7.876850448004076 19.396540473950388 5.518294375280695 -6 1 3
734 1 1 0.5897 11.408188183029642 20.479462738628236 3.5314469999504032 -1 0 -2
733 1 2 -1.1794 11.108840001351764 21.24627079544765 3.042929645431678 -1 0 -2
735 1 1 0.5897 10.165020770587752 21.11745173240037 2.948833771630971 -1 0 -2
576 1 1 0.5897 7.6789540200132835 20.36030095903166 2.91332429794574 2 0 0
167 1 1 0.5897 10.995912877022395 16.620866217716625 1.972461426334057 -3 0 3
166 1 2 -1.1794 11.11045670373979 17.518691484276594 2.2839810447877977 -3 0 3
168 1 1 0.5897 10.536778786896429 17.58280857161137 3.047549938099706 -3 0 3
546 1 1 0.5897 8.782842987994743 16.3928743271247 2.142228659609664 -4 4 5
574 1 2 -1.1794 8.421047164328513 20.554051316762028 2.3406075036420977 2 0 0
544 1 2 -1.1794 8.171085248914022 16.087060702887975 1.4725384879439682 -4 4 5
542 1 1 0.5897 7.8268780121765085 18.908107024032226 6.339992330481235 -6 1 3
543 1 1 0.5897 8.510524914140461 20.092835934772616 5.691158227355109 -6 1 3
653 1 1 0.5897 10.858909897821544 16.900389779960214 6.068835684846866 -1 -1 0
575 1 1 0.5897 8.27019808790864 20.017386642783173 1.5624786566959816 2 0 0
652 1 2 -1.1794 10.752060169850708 17.66379772242516 6.636326747568156 -1 -1 0
654 1 1 0.5897 9.824468930223134 17.659282578413727 6.872556566993343 -1 -1 0
648 1 1 0.5897 11.170097486864366 19.03640559724611 1.0844190061455776 -5 -1 0
739 1 2 -1.1794 8.058842248663542 17.75454712150288 7.596960977500578 -2 -1 1
800 1 1 0.5897 13.904271002000439 21.66489004596786 6.364600650738061 -1 -2 2
703 1 2 -1.1794 12.18607869412764 19.464453109344667 4.820792129527692 2 -3 0
327 1 1 0.5897 17.37305904849648 21.107042229596388 5.318255100530159 0 -1 -1
787 1 2 -1.1794 12.055718826677323 15.576394414432187 5.27160827054158 3 -1 6
704 1 1 0.5897 12.731025492643202 20.03202235767727 5.365906906825933 2 -3 0
352 1 2 -1.1794 16.588754903143183 18.59772445946949 5.422216032899406 4 2 -1
354 1 1 0.5897 17.058002249997408 17.88250997595916 4.992650556939897 4 2 -1
801 1 1 0.5897 14.791070162324864 20.465411528968865 6.106182827505892 -1 -2 2
799 1 2 -1.1794 13.96151416885012 20.720512425089424 6.509933867373158 -1 -2 2
789 1 1 0.5897 12.702391288438985 16.272248582772193 5.389317043923419 3 -1 6
527 1 1 0.5897 15.28541554757614 15.57343701180402 6.532744062576202 -3 -5 1
353 1 1 0.5897 15.790616960130716 18.191958662254464 5.760713752580558 4 2 -1
762 1 1 0.5897 12.99116898481883 17.79098404739657 2.434500386130926 0 -4 -1
760 1 2 -1.1794 13.8838837124783 17.764289999826588 2.090134797903292 0 -4 -1
761 1 1 0.5897 13.779546029171925 17.51494425683253 1.1718791713757726 0 -4 -1
345 1 1 0.5897 14.34506527060088 17.17402785885214 4.025027712716536 -2 0 -1
308 1 1 0.5897 16.09891922658482 16.575201436482857 1.6900927314299554 1 4 -2
343 1 2 -1.1794 14.0223040939567 17.400318333223368 4.897306878854969 -2 0 -1
344 1 1 0.5897 13.470037063649073 18.169415711901983 4.756792722105998 -2 0 -1
685 1 2 -1.1794 15.405084950282307 20.191855576740977 3.375216796683213 7 -6 -3
687 1 1 0.5897 15.86008100274113 19.819386622310915 4.130528498570618 7 -6 -3
686 1 1 0.5897 15.059835528453519 19.43303308475293 2.904852854788824 7 -6 -3
307 1 2 -1.1794 16.713505814451544 17.230562067872683 1.3598806841850348 1 4 -2
309 1 1 0.5897 16.163432664011445 17.866336350226966 0.9022177707706842 1 4 -2
661 1 2 -1.1794 5.547193270358294 5.4350021903414545 7.70006495455772 -3 -4 1
82 1 2 -1.1794 4.174789574502448 2.8169462748651193 8.301633899725932 -2 -2 -6
83 1 1 0.5897 4.724406644415452 3.59007333732031 8.173387168975452 -2 -2 -6
666 1 1 0.5897 2.7868321334913326 4.91933157047501 11.8516034761379 1 2 3
665 1 1 0.5897 2.950585233815398 3.4439535838500683 11.554282979792283 1 2 3
664 1 2 -1.1794 3.259966808259784 4.309114017865318 11.285888180906525 1 2 3
832 1 2 -1.1794 4.372844756467726 6.198694448286777 13.8884070739564 3 -2 1
833 1 1 0.5897 4.429139742207341 5.271320262850005 13.65810555075663 3 -2 1
49 1 2 -1.1794 2.3992686547271607 5.330454075517116 8.726979094374135 8 1 -1
50 1 1 0.5897 2.799841792672681 5.087134227377637 9.561597855054096 8 1 -1
51 1 1 0.5897 2.822397032437252 6.15547933999145 8.489181569248213 8 1 -1
320 1 1 0.5897 1.5443292630393337 2.3075596034036474 10.29610755971517 2 -2 2
635 1 1 0.5897 3.4167814349212584 6.969865488733238 12.63278158392573 -8 1 1
16 1 2 -1.1794 1.310218261600367 5.147543670660788 13.095105746069631 -2 3 3
319 1 2 -1.1794 1.6402424729273009 2.5788561233050062 9.383172327435858 2 -2 2
374 1 1 0.5897 5.175250276680275 4.774038423344294 11.22511508142732 4 5 0
634 1 2 -1.1794 2.7191495612101977 7.376036197606323 12.11840022548312 -8 1 1
636 1 1 0.5897 1.9571247511845775 6.81488001077793 12.262196391631626 -8 1 1
56 1 1 0.5897 4.571892689795711 2.8185813375246496 13.163198013283486 -2 0 1
373 1 2 -1.1794 5.952050752451452 5.311866386874938 11.378658861595676 4 5 0
84 1 1 0.5897 3.472363788846851 3.115035108156122 8.87955795593653 -2 -2 -6
17 1 1 0.5897 0.8173287818751304 4.892365912337351 12.31523460094415 -2 3 3
617 1 1 0.5897 5.698823001943769 7.127573189982562 12.018057178438898 0 4 0
18 1 1 0.5897 0.6526927613553715 5.197261604679497 13.788966855923341 -2 3 3
321 1 1 0.5897 0.7505783886419654 2.554428143708918 9.030819367130631 2 -2 2
755 1 1 0.5897 0.757738368637062 4.473686788548607 9.9682824130279 -2 -2 -3
616 1 2 -1.1794 5.839872831610782 8.060106242082833 11.854525850702606 0 4 0
630 1 1 0.5897 6.257103743268573 8.269177036198304 7.9434961949630996 -1 -3 3
363 1 1 0.5897 0.6696994556722373 8.125876643433756 9.048286459136099 3 -3 -1
718 1 2 -1.1794 3.161518176927601 7.771412619561148 7.735449789711171 4 5 0
618 1 1 0.5897 5.824412375194253 8.461177124847595 12.723522459768668 0 4 0
4 1 2 -1.1794 0.6878917281620529 2.0935515035759398 11.973660876974327 3 1 0
228 1 1 0.5897 0.9917572445903311 1.814227637385007 13.776963220361216 2 -2 -1
55 1 2 -1.1794 4.636398500285406 3.448542885563179 13.881000692681797 -2 0 1
834 1 1 0.5897 3.6951131234883294 6.23766942144796 14.56325125883556 3 -2 1
162 1 1 0.5897 0.7754347230055502 8.0226921095624 14.39588641136998 3 7 2
57 1 1 0.5897 5.373107278011334 3.1379907569853938 14.407377923246917 -2 0 1
103 1 2 -1.1794 10.60905467320123 5.010020319742111 7.716948437355012 3 0 5
375 1 1 0.5897 6.672969997446814 4.804057936994544 11.006286446325118 4 5 0
29 1 1 0.5897 6.4926686718120425 6.496007648208269 8.872923790891937 -6 -1 5
30 1 1 0.5897 6.521912162130986 7.332754220532311 10.134246631083906 -6 -1 5
28 1 2 -1.1794 6.9011948527414715 7.271534947730339 9.257522907776092 -6 -1 5
621 1 1 0.5897 8.646845176813079 6.566082132858851 9.662805132016503 1 -1 4
619 1 2 -1.1794 9.545064534684096 6.335311760165506 9.899874673870423 1 -1 4
620 1 1 0.5897 9.491538560888795 6.0766786203313226 10.819927098003062 1 -1 4
155 1 1 0.5897 8.567477660530056 3.5905884474788565 10.44820771452909 3 4 -4
467 1 1 0.5897 9.552389805672428 6.7675521656488655 13.275952700039873 5 -2 6
154 1 2 -1.1794 7.732502213576726 3.7881198908690346 10.023881883621897 3 4 -4
156 1 1 0.5897 7.924557979891639 3.750147710784179 9.08690399593624 3 4 -4
466 1 2 -1.1794 9.741567183397146 6.023144599932227 12.704711484366252 5 -2 6
468 1 1 0.5897 10.606384127593978 5.721168263631094 12.982484237181898 5 -2 6
174 1 1 0.5897 10.921263591357956 3.92390752727534 10.754895383951343 1 2 -2
172 1 2 -1.1794 10.270451823046294 3.2252466087536 10.822476265303111 1 2 -2
825 1 1 0.5897 6.864125350164868 4.6095939597180475 12.887915103507325 -1 4 2
290 1 1 0.5897 8.36032659255289 3.126097693171622 13.353143469607915 -7 -5 -6
291 1 1 0.5897 9.615730157889866 2.8346709855839456 12.558808965417326 -7 -5 -6
823 1 2 -1.1794 7.505656601041697 4.488399920860003 13.587914666962458 -1 4 2
824 1 1 0.5897 8.201741540905434 5.113791237576917 13.38641561193336 -1 4 2
688 1 2 -1.1794 11.798944160589004 4.696051665008085 13.758846626113742 2 0 4
104 1 1 0.5897 10.142965985111234 5.4022953804312195 8.455282224810418 3 0 5
21 1 1 0.5897 10.938386637169925 7.794241795341466 10.367510407731556 -4 -4 0
173 1 1 0.5897 10.437727452935627 2.6671590100678992 10.062997873268808 1 2 -2
289 1 2 -1.1794 8.989513699653255 2.431110029296681 13.159827133432952 -7 -5 -6
690 1 1 0.5897 11.83649383784803 3.8166530253173745 13.38267925155857 2 0 4
261 1 1 0.5897 11.817004894610555 2.3220542156718307 11.70790795123523 1 -1 5
659 1 1 0.5897 12.235125987407423 7.8630390517221365 12.369874201393921 0 0 2
164 1 1 0.5897 12.11231220389059 3.7483795515699403 8.088012208152296 -4 2 -1
165 1 1 0.5897 13.612223239224749 3.924989654944006 8.193022861864094 -4 2 -1
5 1 1 0.5897 16.885512458553116 2.5536790897551556 11.749132918306525 2 1 0
812 1 1 0.5897 15.93830573821227 3.343627832617555 8.176840668547722 -6 6 -3
811 1 2 -1.1794 16.37316638790538 2.4909383457205982 8.18525350632381 -6 6 -3
658 1 2 -1.1794 12.912190172445344 7.614284070774081 12.999126151010756 0 0 2
429 1 1 0.5897 12.628131725101806 5.74595911450707 10.140917267803507 1 0 -3
163 1 2 -1.1794 12.892988954454733 3.3677391087587933 8.490393316042221 -4 2 -1
692 1 1 0.5897 13.07241916038837 7.76123899819099 8.928430877789912 1 0 3
756 1 1 0.5897 16.320569172686298 4.926256836596531 10.025356886176937 -3 -2 -3
644 1 1 0.5897 14.79099206823559 5.865413561642401 8.868577975933844 3 -2 0
643 1 2 -1.1794 15.194997707179892 5.086798407892106 8.48544624228862 3 -2 0
645 1 1 0.5897 16.00250099794942 5.408148019330611 8.084289080962872 3 -2 0
754 1 2 -1.1794 17.095591021361905 4.797257852083289 10.572111762346191 -3 -2 -3
362 1 1 0.5897 16.517267945487063 7.571268434901734 9.849213155916756 2 -3 -1
428 1 1 0.5897 12.67141728218689 4.235677443620435 10.045365371038768 1 0 -3
427 1 2 -1.1794 12.453308157086855 4.950361072605036 10.643620240020615 1 0 -3
691 1 2 -1.1794 13.784521235454742 7.300044103534084 9.371664862558587 1 0 3
709 1 2 -1.1794 15.821807274869764 7.495068816506188 11.512351932018742 -5 -1 -2
711 1 1 0.5897 15.46891120083197 6.672717608872601 11.852121186986743 -5 -1 -2
277 1 2 -1.1794 14.623443034895711 5.273830842983895 12.492742655308806 -1 0 0
279 1 1 0.5897 13.776720146416652 5.624309607523969 12.216197886818481 -1 0 0
278 1 1 0.5897 14.856537204730342 4.6436091305104 11.811033630703868 -1 0 0
160 1 2 -1.1794 17.359795246605408 8.387682219745724 13.618115904948088 2 7 2
579 1 1 0.5897 14.073822882631534 3.9653473107226733 14.076177919321665 1 2 -2
159 1 1 0.5897 14.218414860780111 2.370755620087108 11.569680369615817 2 3 -2
693 1 1 0.5897 14.2273744333687 7.977228070760368 9.88308202096066 1 0 3
710 1 1 0.5897 16.492031639382056 7.748951070032341 12.146850747510262 -5 -1 -2
259 1 2 -1.1794 12.504859438941233 2.0110023767332748 12.29642872957058 1 -1 5
335 1 1 0.5897 14.147434861126872 7.023260121574338 14.313374770072755 4 -1 3