LAMMPS (30 Jul 2021)
Processor partition = 1
  using 2 OpenMP thread(s) per MPI task
using multi-threaded neighbor list subroutines
variable        pid world 0 1
variable        phase world IceII IceV

shell cd ${phase}
shell cd IceV
include Restart.lmp
echo both
log log.lammps
#include		in.partitions
include		in.temp
variable        temperature equal 43.26
variable	tempDamp equal 100.0
include		in.pressure
variable        pressure equal 8983.3
variable        pressureDamp equal 1000.0 # This is 1 ps
include		in.seed
variable        seed equal 745823

units		real
atom_style	full
read_restart    restart.lmp.${pid}
read_restart    restart.lmp.1
Reading restart file ...
  restart file = 30 Jul 2021, LAMMPS = 30 Jul 2021
  restoring atom style full from restart
  triclinic box = (-3.0667905 -0.0075257680 0.081699347) to (14.676790 22.587525 19.148299) with tilt (0.017648349 -6.5351444 0.10812137)
  2 by 4 by 4 MPI processor grid
  restoring pair style lj/cut/tip4p/long/omp from restart
  restoring bond style harmonic/omp from restart
  restoring angle style harmonic/omp from restart
  1008 atoms
  672 bonds
  336 angles
Finding 1-2 1-3 1-4 neighbors ...
  special bond factors lj:    0        0        0       
  special bond factors coul:  0        0        0       
     2 = max # of 1-2 neighbors
     1 = max # of 1-3 neighbors
     1 = max # of 1-4 neighbors
     2 = max # of special neighbors
  special bonds CPU = 0.002 seconds
  read_restart CPU = 0.007 seconds

include 	in.setup
variable	out_freq equal 1000
variable	out_freq2 equal 10000
variable	out_freq3 equal 1000

timestep	2.0

neigh_modify    delay 7 every 1

include		in.tip4p
# This is TIP4P/Ice

# create groups ###
group ox type 2
336 atoms in group ox
group hy type 1
672 atoms in group hy

# set charges - beside manually ###
set group ox charge -1.1794
Setting atom values ...
  336 settings made for charge
set group hy charge 0.5897
Setting atom values ...
  672 settings made for charge

# ### TIP3P Potential Parameters ###
pair_style lj/cut/tip4p/long/omp 2 1 1 1 0.1577 8.5
pair_coeff 1 1*2 0.000 0.000
pair_coeff 2 2 0.21084 3.1668
bond_style  harmonic
bond_coeff  1 450 0.9572
angle_style harmonic
angle_coeff 1 55 104.52
kspace_style pppm/tip4p/omp 1.0e-5
pair_modify tail yes

thermo          ${out_freq}
thermo          1000
thermo_style    custom step temp pe etotal epair emol press lx ly lz vol pxx pyy pzz pxy pxz pyz enthalpy

restart 	${out_freq3} restart.lmp.${pid} restart2.lmp.${pid}
restart 	1000 restart.lmp.${pid} restart2.lmp.${pid}
restart 	1000 restart.lmp.1 restart2.lmp.${pid}
restart 	1000 restart.lmp.1 restart2.lmp.1


include         in.dump
dump            myDump all atom ${out_freq2} dump.water.${pid}
dump            myDump all atom 10000 dump.water.${pid}
dump            myDump all atom 10000 dump.water.1
dump            myDump2 all dcd ${out_freq2} dump.dcd
dump            myDump2 all dcd 10000 dump.dcd
dump_modify     myDump append yes
dump_modify     myDump2 append yes


variable natoms 	equal  "count(all)"                        # NUMBER ATOMS
variable H      	equal  "enthalpy/v_natoms"                 # ENTHALPY-per-atom
variable Vol      	equal  "vol/v_natoms"                 # volume-per-atom
fix AVG all 		ave/time ${out_freq} 1 ${out_freq} v_Vol v_H file vol_enthalpy.dat
fix AVG all 		ave/time 1000 1 ${out_freq} v_Vol v_H file vol_enthalpy.dat
fix AVG all 		ave/time 1000 1 1000 v_Vol v_H file vol_enthalpy.dat



fix 		1 all shake 1e-6 200 0 b 1 a 1
Finding SHAKE clusters ...
       0 = # of size 2 clusters
       0 = # of size 3 clusters
       0 = # of size 4 clusters
     336 = # of frozen angles
  find clusters CPU = 0.001 seconds
fix             2 all nph tri ${pressure} ${pressure} ${pressureDamp}
fix             2 all nph tri 8983.3 ${pressure} ${pressureDamp}
fix             2 all nph tri 8983.3 8983.3 ${pressureDamp}
fix             2 all nph tri 8983.3 8983.3 1000
fix             3 all temp/csvr ${temperature} ${temperature} ${tempDamp} ${seed}
fix             3 all temp/csvr 43.26 ${temperature} ${tempDamp} ${seed}
fix             3 all temp/csvr 43.26 43.26 ${tempDamp} ${seed}
fix             3 all temp/csvr 43.26 43.26 100 ${seed}
fix             3 all temp/csvr 43.26 43.26 100 745823


run             250000
PPPM initialization ...
  extracting TIP4P info from pair style
  using 12-bit tables for long-range coulomb (../kspace.cpp:340)
  G vector (1/distance) = 0.37976584
  grid = 24 27 32
  stencil order = 5
  estimated absolute RMS force accuracy = 0.0024273757
  estimated relative force accuracy = 7.3099699e-06
  using double precision FFTW3
  3d grid and FFT values/proc = 5355 672
Last active /omp style is kspace_style pppm/tip4p/omp
Neighbor list info ...
  update every 1 steps, delay 7 steps, check yes
  max neighbors/atom: 2000, page size: 100000
  master list distance cutoff = 10.8154
  ghost atom cutoff = 10.8154
  binsize = 5.4077, bins = 5 5 4
  1 neighbor lists, perpetual/occasional/extra = 1 0 0
  (1) pair lj/cut/tip4p/long/omp, perpetual
      attributes: half, newton on, omp
      pair build: half/bin/newton/tri/omp
      stencil: half/bin/3d/tri
      bin: standard
Setting up Verlet run ...
  Unit style    : real
  Current step  : 7750000
  Time step     : 2
Per MPI rank memory allocation (min/avg/max) = 10.31 | 10.33 | 10.34 Mbytes
Step Temp PotEng TotEng E_pair E_mol Press Lx Ly Lz Volume Pxx Pyy Pzz Pxy Pxz Pyz Enthalpy 
 7750000    45.394769   -5288.4505   -5197.6554   -5288.4505            0    8567.5413     17.74358    22.595051    19.066599    7644.1255    8517.0087    8749.9584    8435.6567   -579.41055   -248.57209   -523.05172   -4242.5311 
 7751000    43.181019   -5295.9265   -5209.5591   -5295.9265            0    8289.1857    17.789556    22.555396     19.07151    7652.4525    7611.5986    8647.4107    8608.5479     42.59252   -89.046188   -382.93418   -4284.4597 
 7752000    43.758826   -5294.2522   -5206.7292   -5294.2522            0    8393.0836    17.702551    22.646857     19.07334     7646.638    7842.3831    8731.3437     8605.524    880.75801    520.30254    797.48541   -4270.7461 
 7753000    41.263613   -5290.2833    -5207.751   -5290.2833            0    9211.8808    17.822277    22.511516    19.038056    7638.1914    7878.2649    9760.0428    9997.3346   -182.38079    146.44516    277.71712   -4181.5918 
 7754000    40.852143   -5294.6861   -5212.9768   -5294.6861            0    8658.6953    17.759546     22.61906    19.012923    7637.5719    8876.4311    8753.5194    8346.1354    194.76762    72.330708   -412.01236    -4248.518 
 7755000    43.168547   -5291.0665   -5204.7241   -5291.0665            0    9371.7723    17.708249    22.589343    19.043838    7617.8726    9844.3002    9510.5294    8760.4872   -847.84857    184.31555   -367.52152   -4163.5309 
 7756000    44.882325    -5292.903   -5203.1328    -5292.903            0    9127.5752    17.788698    22.454857    19.118252    7636.6455    8616.2416    9478.9365    9287.5474   -394.44852    73.918376    200.55835   -4186.5707 
 7757000    44.838802   -5297.1273   -5207.4441   -5297.1273            0    9042.8156    17.631364    22.696701    19.078634    7634.7695     9887.146    8478.8797    8762.4211    823.11495   -87.808645   -59.546057   -4200.5693 
 7758000    43.917309   -5293.3108   -5205.4707   -5293.3108            0    9150.5529     17.73362    22.640685    19.007114     7631.381    10358.827    8864.9703    8227.8613   -245.97892    288.53142   -447.96612    -4187.052 
 7759000    45.066774   -5289.0081    -5198.869   -5289.0081            0    9553.9685    17.738911    22.594092    19.009374    7618.8546    8477.5599    10010.005     10174.34    4.9153516   0.94993958   -814.18554   -4137.2972 
 7760000    43.370652   -5289.1081   -5202.3615   -5289.1081            0    9899.1189    17.724395    22.656138    18.952547    7610.7051    9623.8027    9676.5423    10397.012   -583.72158    403.85759    339.52169   -4103.6154 
 7761000    43.705522   -5292.4344    -5205.018   -5292.4344            0    9060.3353    17.696127    22.600766    19.046561    7617.5962    9698.7261    9372.7584    8109.5214    392.40549   -199.53922    438.17151   -4198.4616 
 7762000    43.599573    -5285.861   -5198.6565    -5285.861            0    9004.9644     17.65737     22.67343    19.057362    7629.6751    9919.6254    8573.4871    8521.7807    117.64999   -372.94498    746.04414   -4196.6652 
 7763000     45.04185   -5289.3522   -5199.2629   -5289.3522            0    9428.8936    17.758849    22.485918    19.104703    7628.9667    9991.1286    9508.2501    8787.3021    224.80654    166.65549    195.36232   -4150.1981 
 7764000    43.899068    -5292.429   -5204.6254    -5292.429            0    9607.2251    17.736631    22.557998    19.035621    7616.2069      10495.1    9193.4116     9133.164   -119.97832   -100.64325   -164.54781   -4137.5071 
 7765000    42.362404   -5293.1985   -5208.4685   -5293.1985            0    8222.0146    17.823007    22.558926    19.051752    7660.0978    7536.1257    8610.5216    8519.3966   -226.80027    -49.39513     493.4673   -4289.9488 
 7766000     40.96964    -5285.873   -5203.9287    -5285.873            0    8868.7524    17.748286    22.619021    19.031466      7640.16    8887.2085    9211.6519    8507.3969   -1.8465391   -69.337933    908.51639   -4215.7377 
 7767000    44.288735   -5294.1104   -5205.5275   -5294.1104            0    8874.3953    17.760256     22.56217    19.049706    7633.4063    9000.2378    9173.4386    8449.5093   -608.12306   -310.11386   -401.06173   -4217.5819 
 7768000    42.571452   -5295.3595   -5210.2114   -5295.3595            0    8723.3648    17.717964     22.63897    19.037023    7636.0632    9289.3277    8545.9969    8334.7697   -716.27843    83.709552   -148.65505   -4238.7413 
 7769000    41.774705   -5292.0029   -5208.4484   -5292.0029            0    9026.0357    17.748186    22.551955    19.113491    7650.2951    8525.0847    9632.4813     8920.541   -178.01791    634.18203    196.66206   -4201.3982 
 7770000    44.016647   -5292.8889   -5204.8502   -5292.8889            0    9606.9394    17.706978    22.744905    18.900397    7612.0124    9335.6883    9534.5145    9950.6153    308.86126    23.393386     51.46942   -4138.3513 
 7771000    42.369192   -5293.8762   -5209.1326   -5293.8762            0    9166.7167     17.65673    22.669987    19.042773    7622.3997    9570.1379    9247.1993    8682.8129   -55.319669   -69.499398   -738.89138   -4190.1156 
 7772000    43.752053   -5293.9149   -5206.4054   -5293.9149            0    9102.9449    17.683666    22.723193    18.999271    7634.4653    9149.6161    9018.9185    9140.3002    164.69273    291.94353    72.636381   -4192.8758 
 7773000    42.689528   -5295.9225   -5210.5381   -5295.9225            0    8897.6357     17.74085    22.621211    19.023786    7634.6164    8445.2283     9089.508    9158.1708    100.70797   -108.01902    66.319421   -4219.8482 
 7774000    46.188157   -5289.3339   -5196.9519   -5289.3339            0    9740.5844    17.784699    22.558952     18.99286    7620.0149    8781.9878    10113.758    10326.008   -124.18701   -61.583744    723.98239   -4114.4797 
 7775000    43.818995    -5287.991   -5200.3476    -5287.991            0    9306.8015    17.708101    22.727346    18.955249    7628.6943    9729.3529     8836.793    9354.2585   -725.23371    141.79361     838.3909   -4164.9038 
 7776000    45.195249   -5292.6655   -5202.2694   -5292.6655            0    9056.1896    17.753575    22.503008    19.106496    7633.2139    9329.4255    9444.6123    8394.5309    74.318269     82.41178   -918.84774   -4194.1109 
 7777000    44.750898   -5292.9788   -5203.4715   -5292.9788            0    8803.9827     17.77946    22.547859     19.06753    7643.9586    8685.0294    9180.0711    8546.8477    560.65216    465.04266   -61.862667   -4222.0097 
 7778000    42.787012   -5295.8424   -5210.2631   -5295.8424            0      8296.49    17.786403    22.680942    18.942286    7641.5525    8409.2894    7893.8659    8586.3148   -154.43454   -42.143851   -91.810516   -4285.6674 
 7779000    42.145427   -5291.0826   -5206.7866   -5291.0826            0    9312.7692    17.740068    22.564717    19.081655     7638.379    9934.4242    9514.4875    8489.3958   -208.72799    172.96847   -376.35714   -4169.3634 
 7780000    45.159511    -5292.046   -5201.7214    -5292.046            0    9760.9843    17.699397    22.643305    19.015311      7620.82    9926.1008    9186.5489    10170.303   -660.20924    121.63293   -512.89831   -4116.8676 
 7781000    45.784446   -5293.4923   -5201.9178   -5293.4923            0    9031.8071    17.651418    22.780309    18.978709    7631.4292    8880.6834    8912.8069    9301.9312    214.66536   -206.31468    932.13694   -4196.7087 
 7782000    43.987998   -5291.7523   -5203.7709   -5291.7523            0    8871.7735    17.759943    22.543092    19.047338    7625.8692    9447.0178    8907.7143    8260.5883    361.20882   -513.22027    507.54882   -4217.0923 
 7783000     44.79027   -5293.3857   -5203.7997   -5293.3857            0     9145.088    17.626318    22.798632    18.968908    7622.7685    9747.7451    8625.5075    9062.0113    -1008.039   -334.34578   -754.89558   -4187.1379 
 7784000    40.697434   -5292.8274   -5211.4275   -5292.8274            0    8726.1884    17.755857      22.6684    18.980268    7639.4984    8269.9334    8608.1106    9300.5211    452.67309   -106.93271   -177.21759   -4239.2058 
 7785000    41.099818   -5292.8202   -5210.6155   -5292.8202            0     9354.403    17.785606    22.490782    19.053451    7621.6124    9158.2855    9724.1465    9180.7771     25.04122    547.45918    1288.7288   -4170.8418 
 7786000    42.103115    -5290.777   -5206.5655    -5290.777            0    9851.6632    17.741088    22.570746    18.990426    7604.3282    9382.3677    10027.981    10144.641    120.83654   -35.656341   -466.45929    -4114.003 
 7787000    44.139878   -5293.5297   -5205.2445   -5293.5297            0    9492.2933    17.680863     22.62219     19.04972    7619.5041     10170.92    9079.7375    9226.2226    82.191972   -104.85474     114.4137   -4150.4357 
 7788000    44.665261    -5296.044   -5206.7079    -5296.044            0    9137.2053    17.705444     22.64486    19.027143    7628.6915    9150.8314    9542.6833    8718.1013    90.972696    822.08168    202.16816   -4190.1332 
 7789000    44.081238   -5296.5547   -5208.3868   -5296.5547            0    8901.6639    17.669756    22.661973     19.05496    7630.2067    10046.636    8537.6149    8120.7404    103.88661   -571.97469    416.41293   -4217.8208 
 7790000    44.192953   -5292.8733   -5204.4819   -5292.8733            0    9063.7676    17.724242    22.502096    19.118915    7625.2465    9196.6192    9304.8424    8689.8412   -360.48383     77.59285    455.24311   -4196.5329 
 7791000    43.937693    -5291.463   -5203.5822    -5291.463            0    9282.4569    17.788369    22.530587    19.029461    7626.6731    9246.9694      8841.51    9758.8913   -183.25815   -434.05648    493.11791   -4171.1205 
 7792000    42.549556    -5289.321   -5204.2167    -5289.321            0    9520.7791    17.673701    22.688273    19.019227    7626.4392    9996.2559     9368.157    9197.9245    -599.9661    446.89561   -873.34315   -4145.2795 
 7793000    44.150522   -5291.2486   -5202.9421   -5291.2486            0    9444.2108    17.712651    22.609175    19.042801    7626.0406    9693.7236    9415.9035    9223.0054    796.30492   -348.74124    744.28018    -4152.576 
 7794000    43.757577   -5297.8454   -5210.3248   -5297.8454            0    8628.0983    17.737893    22.645735    18.990667    7628.3158    8321.4624    8331.5087    9231.3238   -418.84198   -504.16266   -940.07292   -4250.4389 
 7795000    41.666771   -5295.5121   -5212.1734   -5295.5121            0    8923.7596    17.697799    22.612218    19.065508    7629.7589      8870.73    8971.2524    8929.2966   -433.39311   -43.588813   -134.05258    -4219.207 
 7796000    43.194625   -5297.2601   -5210.8656   -5297.2601            0    8938.9862    17.730545    22.619331    19.050382     7640.214    8750.5377    8925.2078     9141.213   -57.720019    -111.7625    217.40432   -4214.8418 
 7797000    46.112393   -5296.7208   -5204.4904   -5296.7208            0    9580.0046    17.719992    22.585453    19.046268     7622.584     10400.26    9258.9273    9080.8264    370.49113    505.49427    257.13907   -4139.5045 
 7798000    42.569659    -5294.556   -5209.4114    -5294.556            0    8987.8138    17.767595    22.582889    19.013666     7629.112    8819.5868    9016.4246    9127.4301    150.87359   -252.52578    854.10924   -4209.4023 
 7799000    45.342261   -5293.1402   -5202.4501   -5293.1402            0    8985.2778    17.675209    22.672205    19.040694    7630.2908    9145.3453    9092.3952     8718.093   -385.59385   -643.49448   -64.865215   -4202.5687 
 7800000    43.274386   -5296.0093   -5209.4552   -5296.0093            0    8990.1148    17.678294    22.643981     19.04733    7624.7787    9236.5765    8607.3547    9126.4133   -907.00338    -633.2433   -356.19113   -4209.7582 
 7801000    47.240868   -5289.2586    -5194.771   -5289.2586            0    9502.2023    17.762416    22.525036    19.053177    7623.1582    9350.6505    9898.3634    9257.5929   -248.39772   -247.53947   -86.113187   -4138.3547 
 7802000    42.695604   -5294.9628   -5209.5663   -5294.9628            0    9221.5563    17.782601    22.590116    18.990203    7628.5739    8548.0138    9244.0861     9872.569    79.625675    271.57957   -289.00669   -4183.6228 
 7803000    40.912007   -5293.3096   -5211.4805   -5293.3096            0    9350.2383    17.682003    22.605094    19.070526     7622.553    8882.7748     9986.265     9181.675   -642.76082    86.415814    43.804052   -4172.0415 
 7804000    45.012845   -5288.3461   -5198.3149   -5288.3461            0    9244.1257    17.749776    22.610826    18.972959    7614.5525    9170.8329    8885.4016    9676.1425    102.56338   -428.49052    1213.6456   -4171.7507 
 7805000    43.654526   -5290.3657   -5203.0513   -5290.3657            0    8792.1735    17.702189    22.747642     18.96395    7636.4615    8664.0639    8575.7961    9136.6604   -28.614824    559.18995    12.239902   -4223.8673 
 7806000    47.165449   -5294.9652   -5200.6285   -5294.9652            0    8988.0435    17.802697    22.471415    19.108181     7644.262    8588.2293    9057.9484    9317.9528   -369.74327   -473.11117   -49.262777    -4198.608 
 7807000    41.583533   -5294.7216   -5211.5494   -5294.7216            0    9068.3243    17.755025    22.537158    19.066385    7629.3722     8591.223    9661.4296    8952.3203   -427.36475    26.485129    133.79034   -4202.5481 
 7808000    42.804343   -5290.1439     -5204.53   -5290.1439            0    9328.0842    17.555976    22.810098    19.020664    7616.8922     9415.443    9009.2373    9559.5723   -624.16471     100.0366    -819.5181   -4168.3238 
 7809000    42.311787   -5291.3879   -5206.7591   -5291.3879            0     9395.142    17.680156      22.6208    19.069344    7626.5796    9780.2392    9555.1622    8850.0248   -699.30264    127.23302    118.47551   -4161.7765 
 7810000    44.036154   -5294.1634   -5206.0857   -5294.1634            0    9139.8601    17.696148    22.617633    19.047011    7623.4704    10136.938     8741.357    8541.2856   -309.48557    56.855725    590.35749   -4189.9115 
 7811000    44.746993   -5292.0532   -5202.5537   -5292.0532            0    8937.1727     17.78985    22.483848    19.076032    7630.1135    8880.9501    9571.3527    8359.2152    308.30653    264.51742   -166.57228   -4208.0486 
 7812000    44.306008   -5287.8036   -5199.1862   -5287.8036            0     9016.605    17.755088    22.511849    19.116231    7640.7545    8598.1426     9898.265    8553.4075   -102.94844    671.49259    217.87559   -4194.4427 
 7813000    45.907315   -5292.9005   -5201.0802   -5292.9005            0    9411.9966    17.734722    22.675485    18.974177    7630.3405    9453.6795    9388.5087    9393.8017    126.86624    376.53267    686.85826   -4153.7067 
 7814000    42.509303   -5290.6607   -5205.6368   -5290.6607            0    9319.5581    17.799423    22.553498    18.966161    7613.7612    8441.6769    9562.5628    9954.4348   -232.11297    -370.0787    248.00056   -4170.8033 
 7815000     42.27767   -5293.8893   -5209.3287   -5293.8893            0    9086.0176    17.738909    22.607622    19.023609    7629.1246    8575.7714    8798.5156    9883.7658    117.09838    203.89092    459.57868   -4198.3915 
 7816000    44.540785   -5287.1418   -5198.0547   -5287.1418            0     9279.617    17.705231    22.607453    19.041806    7621.8667    9264.0731    9530.2804    9044.4976   -256.83486    319.69092    145.25363   -4166.5593 
 7817000     42.66322   -5292.2982   -5206.9665   -5292.2982            0    9785.3051     17.69966    22.610596     19.03173    7616.4961    9974.0791    9461.1433     9920.693   -214.48217   -241.40476    242.95406   -4120.0267 
 7818000    43.413186   -5289.9936   -5203.1618   -5289.9936            0     9556.394    17.624452    22.724853    19.018373    7617.1074    9168.1311    9807.7226    9693.3282   -156.71765    171.59752    105.30891    -4141.564 
 7819000    42.085139   -5297.9942   -5213.8188   -5297.9942            0    8987.1099    17.767981    22.587439    19.042418    7642.3542    9460.2832    8570.0482    8930.9982     269.9132   -92.404873   -133.60549   -4212.1524 
 7820000    43.386248   -5293.3458   -5206.5679   -5293.3458            0    8677.3153    17.840935    22.405647    19.135584    7649.2143    7647.0836    9632.7657    8752.0965   -732.84072     106.8627    400.76717   -4238.5618 
 7821000     42.77638   -5291.3942   -5205.8362   -5291.3942            0    8924.9268    17.750137    22.614193    19.012895    7631.8716    8314.3112    8991.6879    9468.7812     148.6467   -2.4814979    15.190305   -4212.4649 
 7822000    43.485658   -5285.7028   -5198.7261   -5285.7028            0    8715.6425    17.785453    22.455033    19.133041    7641.2187    8095.4681    9370.7653    8680.6942    156.16244   -132.93445   -267.10238   -4227.4607 
 7823000    42.346722   -5296.6555   -5211.9568   -5296.6555            0    9301.0903     17.71299     22.56742    19.075988    7625.3685    9832.4221    9134.1221    8936.7266    177.63672    -211.6868   -78.647365   -4177.5995 
 7824000    43.899826   -5301.8224   -5214.0173   -5301.8224            0     8470.774     17.70014    22.679941    19.051982    7648.1922    9151.4246    8296.4373    7964.4602    -815.2294    503.37076   -405.49372   -4269.1784 
 7825000    43.301379   -5295.4354   -5208.8273   -5295.4354            0    9038.0057    17.792477    22.524856    19.062896    7639.8935    9755.9696    8951.0635     8406.984   -188.57914   -285.50576   -451.65835   -4201.8126 
 7826000    42.590498   -5287.3153    -5202.129   -5287.3153            0    9940.1306    17.726555    22.519829    19.063805    7610.2518    9554.8819    10471.503    9794.0067     105.2627    127.67694   -68.307136   -4098.8966 
 7827000    41.784221   -5296.3412   -5212.7676   -5296.3412            0    8790.7526    17.672159    22.743464    18.972553    7625.5642    9070.4826    8442.7897    8858.9854    525.88822   -261.10583   -518.33464   -4235.1389 
 7828000    46.281508   -5291.9704   -5199.4017   -5291.9704            0    8830.3223     17.72617    22.607921    19.079912    7646.3101    8919.4305    8619.4577    8952.0787   -390.58514   -684.63464    -761.0657   -4214.7008 
 7829000    42.530059   -5292.7444    -5207.679   -5292.7444            0    8856.2107    17.656655    22.612741    19.087896    7621.1358     9539.178    9099.0684    7930.3857    41.111242    240.07343    -219.4089   -4223.3427 
 7830000    44.934094   -5293.9034   -5204.0296   -5293.9034            0    8354.3786     17.71026    22.686432    19.037017    7648.7421    8836.0612    7777.8933    8449.1814    28.080455   -607.47723    293.94524   -4272.1066 
 7831000    42.554966   -5288.8947   -5203.7795   -5288.8947            0     9119.105    17.742162    22.510429    19.098651    7627.6895    8956.9491    9764.4328    8635.9333    664.17407    98.164722    392.90744   -4189.3517 
 7832000    42.506958   -5295.8984   -5210.8792   -5295.8984            0    9052.5667    17.696266    22.731821    18.984584    7636.8972    9336.8887    8958.5309    8862.2806   -284.08568    282.79219   -517.97531   -4202.6377 
 7833000    43.836189   -5291.0363   -5203.3585   -5291.0363            0    9170.3755     17.71064    22.576397    19.076788    7627.7098    9739.2402    9406.5861    8365.3003    34.231415    66.076246   -6.0558285   -4183.2246 
 7834000    43.607267   -5289.3553   -5202.1353   -5289.3553            0    8768.8951    17.727917    22.626219    19.076548    7651.9037     9047.195    8782.1476    8477.3426   -394.29866     455.3761   -309.23075    -4223.569 
 7835000    42.511865   -5294.3115   -5209.2825   -5294.3115            0    8747.7417    17.700595    22.648852    19.031619     7629.741    8543.0205    8845.6138    8854.5909   -340.00191   -426.21584    58.066413   -4235.9042 
 7836000    42.031886   -5294.2642   -5210.1952   -5294.2642            0    8522.6688     17.73384    22.590715    19.062706    7636.9036    8452.2652    8835.7584    8279.9829   -381.09964   -131.65723    -1189.821    -4260.971 
 7837000    42.863186   -5298.8136    -5213.082   -5298.8136            0    7664.5119    17.763787    22.635461    19.066841    7666.6148    8155.6353     7689.772    7148.1283     176.9857    419.88821    42.400099   -4356.1151 
 7838000    42.874831   -5292.9853   -5207.2303   -5292.9853            0    8683.6355     17.68919    22.719632    19.011395    7640.5255    9480.2425     8009.853    8560.8111   -602.54888   -191.88704   -430.74321   -4239.6195 
 7839000    41.234901   -5299.0325   -5216.5576   -5299.0325            0     9072.813    17.699111    22.716509    18.963318    7624.4299      9175.58     9056.958    8985.9009   -44.670965    252.65406    308.63913   -4207.7108 
 7840000    44.399138   -5299.0833   -5210.2795   -5299.0833            0    8695.7138    17.721744      22.6194    19.072742    7645.4079     9566.565    8553.0936    7967.4829    641.98949   -132.96251    1100.0864   -4240.7036 
 7841000    42.416584   -5291.5093   -5206.6708   -5291.5093            0    9299.5849    17.687552     22.58457    19.065158     7615.878    9330.0202    9710.2335    8858.5011    16.349064    594.28385   -68.811712   -4173.7681 
 7842000    43.202519   -5294.2239   -5207.8135   -5294.2239            0    9092.5395    17.676463    22.708845    19.010855    7631.1865     9401.297    9033.4748    8842.8467   -494.77465   -618.05957   -307.55668   -4195.8773 
 7843000    45.794455   -5296.6551   -5205.0605   -5296.6551            0    8631.3578    17.781783    22.586221    19.035506    7645.1022    8347.4705    8605.6003    8941.0026    12.322253    391.10251    29.647303   -4242.6988 
 7844000    42.928526   -5291.1274    -5205.265   -5291.1274            0    9752.5724    17.781114    22.570041    18.997156    7623.9472    9021.4341    9859.1533     10377.13    16.563092    829.42953   -127.92722   -4120.9014 
 7845000    41.914151   -5296.9234   -5213.0899   -5296.9234            0    9333.6037    17.756661    22.508525    19.078994    7625.4208    9291.0578    9732.2375    8977.5157    313.56947    260.39665    444.22037   -4175.1098 
 7846000    43.849098   -5289.5804   -5201.8768   -5289.5804            0    9618.2136    17.739868    22.635715    18.966829    7616.2173    9801.9191    9358.5622    9694.1595   -1087.8432    65.144188   -989.27938   -4133.5365 
 7847000    43.182874    -5292.873    -5206.502    -5292.873            0    8948.6792    17.676047    22.709748    19.009082    7630.5983    8746.9435    9037.9707    9061.1235   -1095.5309    425.12225   -1029.4232   -4210.6531 
 7848000    43.639126   -5294.0281   -5206.7444   -5294.0281            0    9122.6341    17.770433    22.566181    19.049357    7638.9984    8937.6447    8966.3041    9463.9535    328.03772   -156.46594    992.44814   -4190.4195 
 7849000    41.305147   -5290.0337   -5207.4183   -5290.0337            0    9353.5069    17.788778    22.547421    19.021825    7629.4842    8982.7846    9727.0817    9350.6545   -78.145483    314.67385   -171.28014   -4166.6704 
 7850000    42.296125   -5291.9311   -5207.3336   -5291.9311            0    8691.2503    17.715428    22.613008    19.076087     7641.864     10162.17     8016.728    7894.8528    40.922499    6.4000715   -244.63444   -4238.7047 
 7851000    41.786608   -5298.5003   -5214.9219   -5298.5003            0    8416.7191    17.663552    22.705187    19.065556    7646.3221    9323.1674     8311.294    7615.6959   -1099.0652   -113.81608   -581.77206   -4276.3419 
 7852000    42.404412   -5290.6173   -5205.8032   -5290.6173            0    8899.7037    17.675115    22.766797    18.951131    7626.0441    9057.6882    8622.8556    9018.5674    555.13042    226.24343    683.97278   -4215.9957 
 7853000    43.996491   -5291.0083   -5203.0099   -5291.0083            0    9027.7424    17.766857    22.604927    19.006625    7633.4127    8352.1012    8954.8257    9776.3002    365.86412   -409.42515   -116.68544   -4197.9921 
 7854000    43.079379   -5288.3514   -5202.1874   -5288.3514            0    9202.2224    17.779386     22.50236    19.059213    7625.1746    8692.8462    9752.9918    9160.8291   -507.02832    352.13029    165.16981    -4178.851 
 7855000    43.729775   -5286.5731   -5199.1082   -5286.5731            0    9076.9588    17.764445    22.594419    19.013444    7631.5651    9004.6127     8894.165    9332.0985    182.08955    186.69341     -1464.81   -4188.8558 
 7856000    41.100962   -5291.8403   -5209.6333   -5291.8403            0    9672.4395    17.677304    22.688449    18.987579      7615.36    10013.191    9416.7397    9587.3883   -37.384478     6.156085   -440.01943   -4135.3908 
 7857000    42.470662   -5289.4581   -5204.5115   -5289.4581            0    8991.9047     17.77988    22.571534    19.026205    7635.5807    9372.4059    9055.3711    8547.9372    281.82894    -123.8046   -230.04097    -4203.199 
 7858000    42.087061   -5286.4997   -5202.3204   -5286.4997            0    9253.0529     17.80189    22.560334    18.996399    7629.2691    9262.8012    9201.5667    9294.7907    559.93167   -356.00077    762.67419   -4172.7788 
 7859000    42.524563    -5292.604   -5207.5496    -5292.604            0    8979.9873    17.699407    22.564618    19.105104    7630.2035    9230.2625    9177.2432    8532.4563    231.11578     13.86674   -32.797817   -4208.2684 
 7860000    46.243969   -5294.9452   -5202.4515   -5294.9452            0    8928.3965    17.746466    22.616483     19.00743    7628.8724    9116.2157    8765.9127     8903.061    262.26391   -502.41414    -32.94449   -4209.0845 
 7861000    45.425058   -5291.1927    -5200.337   -5291.1927            0    8623.2313    17.682831    22.627241    19.090186    7638.2445    8992.6552     8854.907    8022.1317      182.813   -136.49784   -132.02001   -4239.7439 
 7862000    44.467649   -5294.2324   -5205.2917   -5294.2324            0    9413.6892    17.651916    22.676945    19.058948    7629.1351    10135.039    9027.6829    9078.3454    557.45486   -595.86756   -510.96793   -4157.8953 
 7863000    42.200032   -5290.7144   -5206.3091   -5290.7144            0    9274.3916    17.697649    22.681733    18.979512    7618.6296    9151.4849    9013.2495    9658.4405   -111.64127   -202.86717   -307.48718   -4175.8324 
 7864000    45.743903   -5295.8549   -5204.3615   -5295.8549            0    8988.7443    17.718267    22.585448    19.104075     7644.973    9396.2044      8927.69    8642.3386   -77.198343     584.2639    577.23854   -4202.1696 
 7865000    43.635058   -5294.7373   -5207.4618   -5294.7373            0    8946.0177     17.79359    22.574522    19.013179    7637.2473    9132.5128    9017.1732    8688.3672    419.85605    443.13839    160.94967   -4211.0417 
 7866000    42.287612   -5298.0647   -5213.4843   -5298.0647            0     8206.493    17.830863    22.610131     18.99018    7656.0461    7925.7456    8064.4075    8629.3258    570.16254   -747.20021    598.63423   -4297.1835 
 7867000    41.560667   -5292.7011   -5209.5747   -5292.7011            0    9729.5655    17.720221    22.671353    18.943032    7610.2001    9429.0075    9497.5349    10262.154    64.434026   -421.41328   -107.13723   -4129.7198 
 7868000    42.014032   -5294.1637   -5210.1304   -5294.1637            0    8862.3267     17.75456    22.633853    18.984016    7628.8051    8150.3888     9420.954    9015.6374   -366.03674     2.547307    -169.7509   -4224.1231 
 7869000    42.496615    -5294.774   -5209.7755    -5294.774            0    9124.4148    17.730811     22.49411    19.115773     7624.112    8620.5968     9613.949    9138.6985     202.4024    66.642773    256.30461   -4195.2332 
 7870000    43.454614   -5294.6817   -5207.7671   -5294.6817            0    8489.8508    17.722271    22.626418    19.053771    7640.4001    7972.4984    8798.2072    8698.8468    316.75752     17.00576    294.33481   -4261.7651 
 7871000    42.605501   -5295.3706   -5210.1543   -5295.3706            0     9206.711    17.760351    22.575736    19.037574    7633.1721    8834.6397    9650.3591    9135.1343   -137.10273    421.98348    757.61809    -4185.245 
 7872000    44.380433   -5289.9015   -5201.1351   -5289.9015            0    9237.9872    17.717521    22.586036    19.072186    7632.0895    9290.4309    9588.8271    8834.7036   -70.022076   -26.444101    105.00574   -4172.8899 
 7873000    43.816021   -5294.5953   -5206.9579   -5294.5953            0    8855.8528    17.733445    22.675841     18.97127    7628.7422    9365.9545    8293.1641    8908.4399   -1064.4236   -477.48369   -654.35247   -4221.6789 
 7874000    44.244942   -5291.9123    -5203.417   -5291.9123            0    9055.0329    17.742783    22.524207    19.091203    7629.6489    9142.7632    9336.1723    8686.1632     536.1561    73.112198    330.50967    -4195.858 
 7875000    42.908398    -5287.364   -5201.5419    -5287.364            0    8879.2016    17.782543    22.606559    18.987252    7632.9153    8987.3775    8880.5098    8769.7175    182.96793   -98.207853    338.74542   -4213.1248 
 7876000    42.757485   -5294.3376   -5208.8174   -5294.3376            0    9138.0256    17.749352    22.562862    19.031506    7621.6648    9752.6529    9188.4198    8473.0043     651.6517   -260.03321   -419.17336   -4193.0878 
 7877000    42.784586   -5293.4784   -5207.9039   -5293.4784            0    9278.9704    17.839264    22.488964    19.007005    7625.3552    9080.5847    9532.7106    9223.6159   -480.06937    364.47861   -227.64628   -4176.0083 
 7878000    41.841336   -5295.0783   -5211.3905   -5295.0783            0    8454.8728      17.7021    22.740165    18.965791    7634.6536    8604.2944    8168.7736    8591.5505    224.69282    97.808657    442.00285   -4269.9946 
 7879000    42.880693   -5286.6284   -5200.8617   -5286.6284            0    8330.4532    17.720508    22.535061    19.166474    7653.8001    8659.7059    8603.7879    7727.8657   -72.249647   -426.41339    1284.1832    -4270.993 
 7880000    40.748603   -5294.7621   -5213.2598   -5294.7621            0    8856.1698    17.741837    22.633284    19.018446    7636.9721    9180.3301    9156.4903    8231.6891    11.935655    251.31414    494.30601   -4226.8826 
 7881000    40.760416   -5292.8797   -5211.3539   -5292.8797            0    9188.6592    17.728444    22.628642    18.987462     7617.212    9945.8705     9043.693     8576.414   -56.385367   -10.437457    140.10058   -4190.5928 
 7882000    45.253229   -5293.7628   -5203.2508   -5293.7628            0    8913.8044    17.800113    22.527089    19.072524    7647.7909    9332.1623    8829.4865    8579.7643    188.26339   -4.5334985   -336.46331   -4209.0479 
 7883000    42.722646   -5289.0116    -5203.561   -5289.0116            0    8765.5725    17.761141    22.632521     19.00858    7641.0578    9003.2119    9098.8399    8194.6658   -167.93992    142.74565   -5.5050175    -4226.752 
 7884000    42.753198   -5294.1095   -5208.5978   -5294.1095            0    9236.9271    17.699679    22.689911    18.981744    7623.1465    8677.5148    8985.9238    10047.343   -320.01588    8.4690742   -395.97823   -4181.6753 
 7885000    42.087794   -5292.1354   -5207.9546   -5292.1354            0    9037.1992    17.670483    22.545869    19.129744    7621.2208    9628.4869    9499.1333    7983.9775    34.168473   -372.35891     509.8382   -4203.4908 
 7886000    45.483687   -5296.7923   -5205.8193   -5296.7923            0    8701.6189    17.734183    22.638642    19.056261    7650.6662    9083.0114    8552.1502    8469.6951    212.90591    230.64782    724.99039   -4234.9177 
 7887000    43.679715   -5295.7114   -5208.3466   -5295.7114            0     9321.001    17.749021    22.632032    18.980512    7624.4035    9379.0061     9259.201    9324.7959   -498.99914    593.36362   -339.43604   -4171.9062 
 7888000    42.729584   -5291.3477   -5205.8833   -5291.3477            0    9443.1192    17.774939     22.55121    19.016732     7622.788    8897.2699    9744.6436     9687.444   -121.45057    133.48266   -274.06104   -4156.0866 
 7889000     42.68642   -5296.7157   -5211.3376   -5296.7157            0    8857.6409     17.72247    22.667794    18.994151    7630.5071    8438.0352    9200.6839    8934.2037   -269.52808    293.80715   -464.70966   -4225.6317 
 7890000    45.306655   -5292.1262   -5201.5073   -5292.1262            0    9363.4365     17.67933    22.643781     19.04765    7625.2865    10516.457    8904.1647    8669.6881      31.3997   -127.86711     378.4687   -4160.2278 
 7891000    41.552467   -5289.9754   -5206.8653   -5289.9754            0    9452.2278    17.775048    22.568626    19.002077     7622.843    9319.1575     9630.587    9406.9388    56.065893   -298.23019   -238.10454   -4156.0484 
 7892000    43.836796   -5296.4535   -5208.7745   -5296.4535            0    8601.8458    17.748156    22.631263    19.012916    7636.7884    8119.6051    8799.2021    8886.7304    30.535763     3.955293   -244.43253   -4250.7463 
 7893000    42.540743   -5295.4726   -5210.3859   -5295.4726            0    9014.5866    17.726408    22.601206    19.062415    7637.1312    8679.9013    9474.5086    8889.3501    -324.0522    616.90125   -260.03014   -4206.3437 
 7894000    45.536481   -5299.1553   -5208.0768   -5299.1553            0    8805.8314    17.805025    22.575457    19.009158    7640.8561    8538.6938    8899.4075    8979.3928    97.914538    60.341956   -412.45621   -4226.8073 
 7895000    42.728915   -5293.2259   -5207.7627   -5293.2259            0    8806.8174    17.748287    22.593511    19.031733    7631.6512    8552.0679    9020.4961    8847.8883    1072.0355    111.88763    969.77095   -4227.5657 
 7896000      42.8573   -5296.7998   -5211.0799   -5296.7998            0    8704.0655    17.779617    22.627052    18.993954     7641.274    8441.2564    8630.4653    9040.4748   -574.37582   -738.90046    231.38071   -4241.0976 
 7897000    41.045082   -5294.8568   -5212.7616   -5294.8568            0     8889.917     17.66282    22.739955    18.993827    7628.9037     8887.431    8494.2348    9288.0852    189.79273   -412.17611   -342.55189   -4223.6718 
 7898000    43.677597   -5296.6533   -5209.2928   -5296.6533            0    8925.8664    17.744033    22.643563    18.997628    7633.0215    9045.2003    8837.3722    8895.0267   -482.55337   -301.04561   -343.18552   -4215.6672 
 7899000    44.260204   -5293.0733   -5204.5474   -5293.0733            0    8900.0773    17.819676    22.516887    19.052426    7644.6645    8441.5691    9029.3843    9229.2786   -119.41506   -26.168245   -680.18063   -4212.2815 
 7900000    41.929016   -5293.6257   -5209.7625   -5293.6257            0    9023.1803    17.746619     22.59862    19.012261    7624.8505    10144.883    8817.8056    8106.8528   -310.83872    -255.8102   -331.85675   -4206.3792 
 7901000    45.958003   -5292.7707   -5200.8491   -5292.7707            0    8682.7102    17.719343    22.655934    19.022838    7636.6854     8316.984    8783.2152    8947.9314    553.74933    33.790172    112.24194   -4233.8276 
 7902000    41.566077   -5290.6613    -5207.524   -5290.6613            0    8837.4895    17.760172    22.550914    19.082748    7642.7956    8680.9821    9443.5496    8387.9368    -292.0164    -209.6897   -25.819913   -4222.4768 
 7903000    45.596566   -5297.8583   -5206.6595   -5297.8583            0    8217.3429    17.721541    22.816461     18.91027    7646.2328    8224.8014    8222.0097    8205.2175   -1.2706176    573.35632     628.2753   -4290.3233 
 7904000    43.222015   -5294.0653   -5207.6159   -5294.0653            0    9026.1079    17.745967    22.641683    18.999714    7634.0578    9094.6024    9272.2092     8711.512   -10.102238    190.13294     796.2582   -4202.6951 
 7905000     41.79464   -5292.3675   -5208.7731   -5292.3675            0     9654.689    17.761201    22.642579    18.951442    7621.5003    9466.5832    9530.5412    9966.9425    62.953512    311.65202   -469.02565   -4135.6374 
 7906000    42.435372   -5294.5562   -5209.6802   -5294.5562            0    9869.6195    17.614873    22.607257    19.096888    7604.8383     10482.78    9775.6494    9350.4294    961.95972    -239.9455    279.99895   -4115.0529 
 7907000    42.570666   -5292.9075   -5207.7609   -5292.9075            0    8904.3758    17.714873    22.621911    19.024618    7624.0073    8797.5775    9216.7788    8698.7711   -412.24253    33.275758   -539.43328   -4217.6982 
 7908000    40.837334   -5294.3215   -5212.6418   -5294.3215            0    8888.7635    17.726897    22.596243    19.048573    7630.1206    8687.4441    8725.0962    9253.7502    198.93053    -89.44822   -492.05762   -4223.5226 
 7909000    42.347056   -5295.1056   -5210.4062   -5295.1056            0    8687.0175    17.744894    22.669805    18.997844    7642.3249    8802.5319    8026.9005    9231.6202    323.53121   -167.27696   -445.46867   -4242.1906 
 7910000    44.658644   -5297.3093   -5207.9865   -5297.3093            0      8603.96    17.695017    22.634425    19.071059    7638.2744    8401.2647    8860.4209    8550.1943    131.30285    177.48741   -565.15306   -4249.5364 
 7911000    41.235882   -5292.6875   -5210.2107   -5292.6875            0    8985.2967    17.644727    22.750059    18.991492     7623.538    8114.8886     8692.229    10148.773   -719.57719    -43.97525   -19.815141    -4211.212 
 7912000    44.198783   -5296.3885   -5207.9855   -5296.3885            0    8817.0656    17.674927     22.63368    19.091982    7637.7213     9426.659     8871.388    8153.1499    391.45766    66.947156   -111.06774   -4225.8672 
 7913000     41.04702   -5292.8764   -5210.7773   -5292.8764            0    8649.3351    17.762878    22.536834    19.095768    7644.3994    7849.6307     9218.878    8879.4965   -565.05813    123.11124   -972.67733   -4246.4999 
 7914000    44.578896   -5299.2904   -5210.1271   -5299.2904            0    8429.9716    17.824667    22.523838    19.032513    7641.1717    8547.1058    8408.0432    8334.7658     197.8993   -441.38754    36.161732   -4270.7024 
 7915000    43.117607   -5296.7491   -5210.5086   -5296.7491            0    8371.4978    17.790714    22.632017    18.979717    7641.9882    7606.5709    8869.8152    8638.1072   -162.34159    139.07482   -672.14638   -4277.5005 
 7916000    46.972395   -5292.6912   -5198.7406   -5292.6912            0    9268.4272    17.700352    22.679732    18.991024    7623.7421    9118.8756    9608.5197    9077.8863     167.8673   -135.01032   -403.18357   -4168.2355 
 7917000    42.257664   -5292.9721   -5208.4515   -5292.9721            0    8847.2644    17.658751    22.760156    18.982373    7629.3181    8832.1394    8891.6348    8818.0189   -306.10909    158.48878   -254.27663   -4224.0538 
 7918000     43.34695   -5286.8614   -5200.1622   -5286.8614            0     9006.627      17.6092      22.7807    19.002992    7623.0484    9229.5124     8595.697    9194.6714   -223.42929   -241.35024    66.072837   -4198.8564 
 7919000    44.275449   -5285.6063   -5197.0499   -5285.6063            0    10013.811    17.725013    22.611813    18.981009    7607.4878    9777.6185    9756.8304    10506.984   -338.24664   -306.56038   -264.73667   -4086.0436 
 7920000    44.615778   -5294.4584   -5205.2213   -5294.4584            0    9872.4514    17.788262     22.49423    19.051511    7623.1433    9189.0961    10463.826    9964.4324   -418.50514    445.32529    132.21917   -4107.6443 
 7921000    42.900438   -5289.4063   -5203.6001   -5289.4063            0    9110.2657    17.784068    22.517104    19.053193    7629.7693    8185.2134    9860.4566    9285.1272   -1188.5849    383.16499     -212.504   -4189.8794 
 7922000    42.180386   -5292.7616   -5208.3956   -5292.7616            0    9496.5684    17.703295    22.616515    19.040267    7623.4719    9349.9664    9646.1509    9493.5879    -88.20481   -238.96061   -122.18143   -4152.5622 
 7923000    42.004132    -5295.077   -5211.0635    -5295.077            0    8971.0292    17.755758    22.599186    19.030988    7636.4826    9365.5765    8783.4601    8764.0511   -82.359988    106.18904    369.83232   -4211.9576 
 7924000    42.806811   -5293.5099    -5207.891   -5293.5099            0    8763.1659    17.637804     22.68504    19.078074    7633.4099     8218.291    9544.0642    8527.1425    470.60851    617.13059    127.68681   -4232.3276 
 7925000    43.468465   -5295.9288   -5208.9865   -5295.9288            0    9059.4412     17.70748     22.66088    19.019957    7632.0825    9291.8315    8988.2617    8898.2303    506.92566    192.61551    758.46927   -4200.6155 
 7926000    41.103154   -5291.8133   -5209.6019   -5291.8133            0    8664.1877    17.760015    22.560875     19.08016    7645.0664    8741.5135    9220.2484    8030.8011   -425.81897    359.04877   -411.16515   -4243.5844 
 7927000    42.793403   -5290.0329   -5204.4408   -5290.0329            0    8563.2337    17.810612    22.579294     19.00801     7644.091    8077.6152    9188.9089    8423.1771   -185.24383    521.14216   -1246.8389    -4249.801 
 7928000    43.790809   -5294.2851   -5206.6981   -5294.2851            0    8197.7296     17.72234    22.657559    19.039928    7645.3869    8516.6733    8075.6684    8000.8472    -221.2196   -134.27144    146.64379   -4292.6502 
 7929000    43.021435   -5288.4597   -5202.4115   -5288.4597            0    8981.4619    17.735092    22.635104    18.994125    7624.9191    7541.5786    9439.2646    9963.5425    152.20794   -424.46547   -17.158836   -4203.6583 
 7930000     42.96349   -5291.3372   -5205.4049   -5291.3372            0    9064.9948    17.683892    22.758656     18.94766    7625.7058    8954.9367    8600.0921    9639.9555    166.50542   -79.603496     1298.534   -4197.2587 
 7931000    42.698361    -5293.773    -5208.371    -5293.773            0    9002.4469    17.861834    22.541142    18.952744      7630.87    8649.9651    8875.5871    9481.7885   -266.83086    -33.94057   -231.29811    -4206.503 
 7932000    44.538346   -5292.1539   -5203.0717   -5292.1539            0    9436.6094    17.750125    22.621312    18.980563    7621.2865    9327.5818    9653.2163      9329.03    583.44028    194.35253    372.01362   -4154.2054 
 7933000    44.592488    -5301.306   -5212.1155    -5301.306            0    8836.6067    17.751173    22.609098    19.022118    7634.2993    8581.8493    8892.1561    9035.8147    230.66704    441.50676   -444.52896   -4228.2616 
 7934000    41.708057   -5293.8374   -5210.4161   -5293.8374            0    9003.7422    17.809233    22.443855    19.077187    7625.3015    8446.5034    9672.0783    8892.6449    223.77627   -263.58057    401.78636   -4209.1352 
 7935000    44.740993   -5291.0613   -5201.5738   -5291.0613            0    8724.2766    17.691103    22.706814    18.990564    7628.6725    8979.2363    8361.1751    8832.4184   -624.62742   -323.63899    1194.0332   -4230.9425 
 7936000     43.67312   -5290.3207    -5202.969   -5290.3207            0    9303.0295    17.663331    22.702319    18.985331    7613.0907    9021.9871    9065.8114    9821.2901    103.87907   -166.22165    2.3949299   -4170.0619 
 7937000    42.494669   -5294.6202   -5209.6257   -5294.6202            0    8944.6226    17.815269    22.575805    18.971122    7630.0722    9005.0147    8753.5968    9075.2564   -456.06743   -56.496942    241.89681   -4214.2969 
 7938000    43.781904   -5291.0772    -5203.508   -5291.0772            0     9251.966    17.802528    22.505952    19.048642    7632.0833    9179.4455    9411.6582    9164.7943    315.50828     321.9444   -231.94783   -4173.7077 
 7939000    42.733856   -5295.4332   -5209.9603   -5295.4332            0    9149.7304     17.69508    22.681657     18.97385     7615.226    9523.0986    8506.7776     9419.315    315.94193   -86.326406    518.64665   -4193.7888 
 7940000    45.743995   -5287.7009   -5196.2073   -5287.7009            0    10238.739    17.756369    22.516387    19.026482    7606.9638    10858.165    9782.2418    10075.809    471.77923   -819.30306     161.0208    -4060.324 
 7941000    42.732685   -5289.8062   -5204.3355   -5289.8062            0    9160.3437    17.762702    22.558898    19.025892    7623.8079    9198.6162    9327.5262    8954.8888   -111.43044   -217.84809    541.06454   -4185.8389 
 7942000    47.135214   -5299.4623    -5205.186   -5299.4623            0    8982.3614    17.771542    22.517776    19.083603    7636.7922    7986.4935    9622.3569    9338.2337   -189.83979    67.386277   -60.609425   -4204.7775 
 7943000    41.798799   -5289.6807    -5206.078   -5289.6807            0    9279.0549    17.805557    22.590013    18.938283    7617.5034    9302.6969    9610.7461    8923.7218    12.294096    243.76166   -133.22685   -4175.2355 
 7944000    44.942824   -5296.8262    -5206.935   -5296.8262            0     8866.119    17.769922    22.603622    18.997672    7630.6922    8611.9708    9139.0799    8847.3064    162.20858  -0.15258037    462.45523   -4220.2617 
 7945000    43.326886   -5291.6336   -5204.9745   -5291.6336            0    8877.9577    17.659617    22.765335    18.971378    7627.0078    8409.4295    9194.0551    9030.3885    591.65853    83.080789    1104.2241   -4217.4608 
 7946000    42.193484   -5294.0797   -5209.6875   -5294.0797            0    8408.8111    17.685907    22.652108    19.070343    7640.0193    8300.6337      8353.94    8571.8598    673.40511   -277.06556    395.35011   -4272.7623 
 7947000    42.234402   -5292.9613   -5208.4872   -5292.9613            0     8411.576    17.772747    22.605477    19.045627    7651.7981    8495.0088    8745.4185    7994.3008    667.09328    250.61383    714.24761    -4269.809 
 7948000     43.55405   -5296.8906   -5209.7771   -5296.8906            0     8191.721    17.797451    22.634329    19.001998    7654.6388    7554.4093    8280.9113    8739.8423     202.2785    409.26055    229.26173   -4295.2939 
 7949000     43.83549   -5293.3536   -5205.6772   -5293.3536            0    8438.9102    17.815003    22.518733      19.0698    7650.2566    8464.0627     8197.303     8655.365     384.6998   -578.49436   -525.52948   -4264.1384 
 7950000      42.2983   -5293.3435   -5208.7417   -5293.3435            0     9047.194    17.765472    22.573625    19.037015    7634.4354    9569.1345    9177.0069    8395.4406   -137.40709    -303.6641    15.652212   -4201.4234 
 7951000    43.602781   -5290.0392   -5202.8282   -5290.0392            0    9834.1248    17.692713    22.580786      19.0323    7603.6965    9148.8163    10225.014    10128.544   -164.83115   -198.82657   -260.31682   -4112.3013 
 7952000    42.030952   -5290.6529   -5206.5858   -5290.6529            0    9285.5183    17.700097    22.587775    19.065753    7622.5987    9715.5099    9415.2454    8725.7997    431.23383    161.95782    1366.3859   -4174.3353 
 7953000    40.490385   -5292.6308    -5211.645   -5292.6308            0    8945.9284    17.670795    22.732739    19.002649      7633.47    9122.4346    8380.7648    9334.5857   -303.51949    189.31685   -99.871161   -4215.7276 
 7954000    40.971638   -5292.6693    -5210.721   -5292.6693            0    9322.0553    17.699988    22.619358    19.043669    7624.3683    9862.6478    9206.5746    8896.9435   -685.64464   -417.72987    -448.0052   -4174.1682 
 7955000    41.956051   -5295.5335   -5211.6162   -5295.5335            0    9354.5678    17.821111    22.494926    19.030093    7628.8707    8983.2699    9241.5714     9838.862    51.467558    273.63493    245.09497    -4170.834 
 7956000    42.165893   -5293.8039   -5209.4669   -5293.8039            0    8942.5828    17.756358    22.542239    19.063859    7630.6536     8818.536    9282.1776    8727.0348    113.17205    296.84799   -229.38121   -4214.2893 
 7957000    44.199678   -5295.5834   -5207.1785   -5295.5834            0     8868.133    17.687041    22.763707    18.957002    7632.5179    8927.7798     8588.162    9088.4571   -145.43782   -2.7556221    263.20169    -4220.045 
 7958000    45.217505   -5292.2229   -5201.7823   -5292.2229            0    9127.4918    17.669644    22.639242    19.053034    7621.7349    9350.3439     8866.972    9165.1595     391.7363   -110.55312    396.60606   -4187.2143 
 7959000    44.670324   -5294.2696   -5204.9234   -5294.2696            0    9212.9908    17.755542     22.60071    18.993911    7622.0256    8058.7619    9399.4297    10180.781    142.77226     -83.6476   -4.0319122   -4180.8127 
 7960000    44.369436   -5293.2146   -5204.4703   -5293.2146            0    8984.0549    17.741652     22.59097    19.062755    7640.3737    9271.4269    8762.7427    8917.9949   -209.14647   -13.479865   -67.381662   -4203.4038 
 7961000    43.478093   -5294.8102   -5207.8486   -5294.8102            0    8838.4316    17.836276    22.556415    19.018489    7651.5649    8062.2119    8810.1702    9642.9128    755.06376    354.05914   -123.88365    -4221.566 
 7962000    43.516534   -5296.6387   -5209.6003   -5296.6387            0    8070.8151    17.831589     22.56289    19.035519    7658.6017    7641.7265    8164.3898     8406.329    62.747232   -75.255283    674.26618   -4308.1479 
 7963000    42.305516   -5292.9809   -5208.3647   -5292.9809            0    8034.4759    17.724993    22.642796    19.039932    7641.5509    7567.1351    8483.6903    8052.6025   -668.50387    -218.8464   -71.974369   -4312.9691 
 7964000     42.30696    -5291.287   -5206.6679    -5291.287            0    9272.0326    17.731468    22.613345    19.003391    7619.7479    8651.2392     9799.717    9365.1416   -471.45451   -419.87921    414.92796   -4176.3021 
 7965000    41.899783   -5299.4979   -5215.6932   -5299.4979            0    8014.7544    17.728683    22.626337    19.058072    7644.8628    7426.5312    8530.7504    8086.9816    203.45819   -72.474261     55.64899   -4322.1083 
 7966000    42.721061   -5292.1041   -5206.6567   -5292.1041            0    9672.2657    17.809399    22.571185    18.959431    7621.2976    9648.5389    9427.4775    9940.7806    169.16008   -203.62141   -48.157571   -4131.5959 
 7967000      42.1761   -5297.2641   -5212.9067   -5297.2641            0    8789.4634    17.784729    22.615103    18.991215    7638.3326    8036.2608    9063.8028    9268.3268    543.85324    28.726969    839.38308   -4233.7847 
 7968000    43.902741   -5293.9039    -5206.093   -5293.9039            0    9038.9492    17.695662     22.69077    19.036754    7643.7935    8875.8507    8531.7864    9709.2105   -543.35745    2.2180105   -593.29121   -4198.4591 
 7969000    43.072748   -5296.6498    -5210.499   -5296.6498            0    8061.7428    17.711152    22.758203    18.976654    7648.9956    8318.3145    7408.7916    8458.1222    124.53482   -567.54138    229.20477   -4311.1894 
 7970000    40.733617    -5295.121   -5213.6487    -5295.121            0    8461.2019    17.712063    22.674593    19.004493    7632.4672    9038.8398    7852.6557    8492.1101   -537.67817   -852.54604   -1516.3846   -4271.8179 
 7971000     41.02794   -5292.4726   -5210.4116   -5292.4726            0    8750.4674    17.779399    22.470329    19.133075    7643.8347    8708.9557    8607.7367    8934.7096    -183.0074   -695.26445    657.79148   -4234.9315 
 7972000     40.54423   -5296.1519   -5215.0584   -5296.1519            0    9135.0571    17.764598    22.557647    19.043703    7631.3362    8989.4131    9073.6422    9342.1159    49.806557   -170.14007   -707.42647   -4198.3703 
 7973000    41.682638   -5296.5423   -5213.1719   -5296.5423            0    8784.8878    17.790706    22.546893    19.040812    7637.7482     8765.212    8705.3831    8884.0682   -232.27672   -127.79717   -162.55156   -4234.6344 
 7974000    45.894014   -5300.3718   -5208.5781   -5300.3718            0    8928.2146    17.680071     22.71832    19.007266    7634.4873     9512.907      8502.39    8769.3468   -739.10129    122.38496   -184.69449   -4214.5003 
 7975000    42.412794   -5295.9998    -5211.169   -5295.9998            0    8669.2097    17.721327    22.644276      19.0276    7635.5212    8936.2648    8457.9775    8613.3869    699.24239   -482.13451   -549.98803   -4245.7984 
 7976000    40.890227   -5290.5291   -5208.7436   -5290.5291            0    9282.7829    17.759146    22.528396    19.075496    7631.8211    9502.4999    9434.4499    8911.3989    -968.6036    176.51384   -102.17504   -4175.5487 
 7977000    45.907307   -5285.6346   -5193.8143   -5285.6346            0    9508.7828    17.740067     22.59029    18.984031    7607.9125    9478.4294     9485.248    9562.6711   -769.70897    26.256163   -962.77464   -4138.7806 
 7978000    43.721811   -5291.6525   -5204.2034   -5291.6525            0    8545.8266    17.741804    22.590349    19.080314    7647.2668     8758.165      8659.77    8219.5447   -964.20693   -87.706234   -329.02631   -4251.1084 
 7979000    42.513908    -5291.363   -5206.3299    -5291.363            0    8964.3923    17.775981    22.533574    19.084095    7644.2562    8985.2948    9442.9031     8464.979    227.75065    461.83924   -470.99712   -4206.9469 
 7980000    47.156236   -5294.0146   -5199.6963   -5294.0146            0    8972.7812    17.691578    22.668406    19.030433    7631.9626    8501.9784    9595.5701    8820.7952    179.53486    228.45063    282.97268   -4200.9867 
 7981000    44.565804     -5292.16   -5203.0229     -5292.16            0    9171.3673    17.699942    22.551916    19.107834    7627.2281    9724.8665    9593.5477    8195.6876     619.9157    378.65085    886.27228   -4182.8431 
 7982000    42.903169   -5290.4724   -5204.6608   -5290.4724            0     9790.463     17.74166    22.558755     19.02693    7615.1436    9656.9555     9981.006    9733.4275    124.75511    469.38235    757.55291   -4117.3412 
 7983000    41.834251    -5296.031   -5212.3574    -5296.031            0    8806.0917     17.75157    22.584422    19.076882    7648.0925    9952.2304    8165.9941    8300.0507   -293.95775   -275.57428   -354.04358   -4230.1296 
 7984000    44.893598   -5291.2911   -5201.4984   -5291.2911            0    8811.7008    17.766362    22.568869    19.018346    7625.7232    9182.0831    8610.0228    8642.9966    -33.44098    249.45744   -369.10079   -4221.5196 
 7985000    42.561961   -5295.5706   -5210.4414   -5295.5706            0    9133.9016     17.69463    22.679337    18.997436     7623.718    8640.9442    9661.2786     9099.482   -556.77575    247.37744   -326.02598   -4194.8967 
 7986000    43.688413   -5297.1266   -5209.7444   -5297.1266            0    8986.5082    17.714367    22.712724     18.96672    7631.0992    8557.7669    8880.3644    9521.3935    185.28183   -273.31037    323.21332   -4209.6201 
 7987000    42.932298   -5295.3975   -5209.5276   -5295.3975            0    8823.6798     17.79533    22.510859    19.045783    7629.5152    9199.2769    8934.3888    8337.3737    205.84777   -468.75955    25.963289   -4227.7286 
 7988000    43.630014   -5290.6721   -5203.4067   -5290.6721            0      9247.59    17.724041    22.671533    18.969141    7622.3923    8876.6662     9341.885    9524.2188   -101.86392   -20.966724    1535.3249   -4175.4005 
 7989000    42.845751   -5288.6848    -5202.988   -5288.6848            0     9830.806    17.739064    22.550081    19.037277    7615.2403    10576.726    9803.4083    9112.2838    486.55383   -283.50271    -41.05927    -4111.174 
 7990000    44.321245   -5290.3749    -5201.727   -5290.3749            0    9759.0079    17.698176      22.5996    19.021377    7608.0124    10054.431    9518.1345    9704.4581     331.9102   -637.80638    438.67759   -4118.9157 
 7991000    41.856898   -5294.0893   -5210.3703   -5294.0893            0    8872.9063    17.749488    22.647928     18.98082    7630.0836    8709.7199    8569.5133    9339.4856   -268.18137   -428.32797    299.65221   -4223.0204 
 7992000    44.066089   -5298.4612   -5210.3236   -5298.4612            0     8756.621    17.678542    22.696998    19.033265    7637.0948     9410.465    8455.8924    8403.5056    992.11174   -327.06335     749.9191   -4235.0182 
 7993000    46.768013    -5294.067   -5200.5251    -5294.067            0    9394.2952    17.750751    22.561268    19.037331    7624.0602    9481.0911    9275.5475     9426.247    118.67481   -72.461364   -13.455765   -4155.9819 
 7994000    43.021075   -5289.5639   -5203.5165   -5289.5639            0    8834.4468    17.730318     22.61806    19.048858     7639.076    8364.2973    8907.3246    9231.7186    340.98862    31.824344   -44.730697   -4219.2876 
 7995000    43.814464   -5289.5141   -5201.8798   -5289.5141            0    9028.1498    17.717868    22.610529    19.038946     7627.199    8294.3306    9892.4675    8897.6513    239.64335    387.51632    129.43767   -4197.6347 
 7996000    42.744067   -5296.3552   -5210.8617   -5296.3552            0    8501.5004    17.769262    22.618464    19.048387    7655.8023    8314.3376    8460.1667    8729.9968   -219.32755     500.8596   -123.46033    -4261.652 
 7997000     41.44509   -5292.5477   -5209.6524   -5292.5477            0    8381.0762    17.720113    22.693714    19.033234    7653.9327    8212.0001    8200.1507    8731.0777    183.31911   -204.21093    -449.8325   -4274.1168 
 7998000    44.025308   -5290.6819   -5202.6259   -5290.6819            0    8745.6383    17.699814    22.666941    19.027312    7633.7697    8832.7825    8675.6408    8728.4917    220.79178    10.631187   -853.33465   -4228.9678 
 7999000    43.587088   -5294.8473   -5207.6677   -5294.8473            0     9322.717    17.801673    22.528033    18.996316    7618.2195    9018.8545    9370.7697    9578.5268   -588.07714   -130.07864   -209.91935   -4171.8773 
 8000000    43.861104   -5293.3104   -5205.5827   -5293.3104            0    8758.9067    17.712435    22.631243    19.093342    7653.6507    9001.1508     8660.436    8615.1333    633.45231    105.58839     -173.845   -4227.9079 
Loop time of 522.169 on 64 procs for 250000 steps with 1008 atoms

Performance: 82.732 ns/day, 0.290 hours/ns, 478.772 timesteps/s
195.3% CPU use with 32 MPI tasks x 2 OpenMP threads

MPI task timing breakdown:
Section |  min time  |  avg time  |  max time  |%varavg| %total
---------------------------------------------------------------
Pair    | 36.841     | 41.158     | 54.743     |  50.9 |  7.88
Bond    | 0.87639    | 1.1501     | 1.9236     |  19.0 |  0.22
Kspace  | 254.74     | 271.31     | 285.52     |  40.8 | 51.96
Neigh   | 0.29285    | 0.32088    | 0.38378    |   4.9 |  0.06
Comm    | 73.272     | 86.242     | 93.078     |  58.1 | 16.52
Output  | 0.5426     | 0.54289    | 0.54511    |   0.1 |  0.10
Modify  | 99.394     | 101.73     | 104.78     |  13.0 | 19.48
Other   |            | 19.72      |            |       |  3.78

Nlocal:        31.5000 ave          38 max          27 min
Histogram: 4 2 4 4 9 4 3 1 0 1
Nghost:        2984.09 ave        2998 max        2964 min
Histogram: 1 2 1 2 5 4 4 4 6 3
Neighs:        10905.7 ave       13208 max        9335 min
Histogram: 3 3 4 4 9 5 2 1 0 1

Total # of neighbors = 348983
Ave neighs/atom = 346.21329
Ave special neighs/atom = 2.0000000
Neighbor list builds = 609
Dangerous builds = 0

unfix		3
unfix		2
unfix		1

write_data	data.final.${pid}
write_data	data.final.1
System init for write_data ...
PPPM initialization ...
  extracting TIP4P info from pair style
  using 12-bit tables for long-range coulomb (../kspace.cpp:340)
  G vector (1/distance) = 0.3802614
  grid = 24 27 32
  stencil order = 5
  estimated absolute RMS force accuracy = 0.0023607622
  estimated relative force accuracy = 7.1093653e-06
  using double precision FFTW3
  3d grid and FFT values/proc = 5355 672
Last active /omp style is kspace_style pppm/tip4p/omp
WARNING: Not all mixed pair coeffs generated from mixing. Use write_data with 'pair ij' option to store all pair coeffs. (../write_data.cpp:312)

write_restart   restart.lmp.${pid}
write_restart   restart.lmp.1
System init for write_restart ...
PPPM initialization ...
  extracting TIP4P info from pair style
  using 12-bit tables for long-range coulomb (../kspace.cpp:340)
  G vector (1/distance) = 0.3802614
  grid = 24 27 32
  stencil order = 5
  estimated absolute RMS force accuracy = 0.0023607622
  estimated relative force accuracy = 7.1093653e-06
  using double precision FFTW3
  3d grid and FFT values/proc = 5355 672
Last active /omp style is kspace_style pppm/tip4p/omp
Total wall time: 0:08:42
