LAMMPS data file via write_data, version 30 Jul 2021, timestep = 10000000

864 atoms
2 atom types
576 bonds
1 bond types
288 angles
1 angle types

0.3530301550815764 17.854542244910725 xlo xhi
1.5073541612937174 22.121823638709024 ylo yhi
0.43069596461706716 21.782499835389423 zlo zhi

Masses

1 1.00794
2 15.9994

Pair Coeffs # lj/cut/tip4p/long/omp

1 0 0
2 0.21084 3.1668

Bond Coeffs # harmonic/omp

1 450 0.9572

Angle Coeffs # harmonic/omp

1 55 104.52

Atoms # full

262 1 2 -1.1794 4.377758233068518 4.989853552784478 2.30997161272886 2 -3 6
523 1 2 -1.1794 1.3774967062200256 4.413764366483258 5.227948669606164 2 0 5
754 1 2 -1.1794 1.90112321127124 3.5311144431917993 2.7009654460541066 -4 -1 -2
524 1 1 0.5897 1.51433034837078 4.046974611346019 4.354432937495485 2 0 5
264 1 1 0.5897 3.8241003943843443 5.769145669358092 2.2603173837342587 2 -3 6
525 1 1 0.5897 1.4507793818670887 5.360233971636214 5.1050031321330875 2 0 5
756 1 1 0.5897 1.879602297532811 2.5797220733151702 2.8043794230451384 -4 -1 -2
755 1 1 0.5897 2.8315522775104727 3.7434424987542565 2.626660057622784 -4 -1 -2
606 1 1 0.5897 4.658104021783885 5.059812932322037 5.641610086590933 -6 0 -1
274 1 2 -1.1794 4.278158313335485 1.549482878842453 2.569343742753321 -2 3 -2
557 1 1 0.5897 3.2266442955521852 5.0798129824362395 8.22095344678076 4 2 3
827 1 1 0.5897 1.0705405491215987 2.146413649325365 9.759631181384647 -1 1 4
158 1 1 0.5897 1.1070384787093501 4.24021132462895 8.32675764144248 2 2 -2
159 1 1 0.5897 0.6240147579644647 2.946120788142067 7.707033345036528 2 2 -2
691 1 2 -1.1794 3.692865477695726 4.260907463840769 6.787500427751025 3 2 4
693 1 1 0.5897 3.789455226074558 3.3184907967122292 6.924655297455402 3 2 4
556 1 2 -1.1794 2.690656161727879 5.631023482846255 8.791194477137473 4 2 3
639 1 1 0.5897 1.7547472037905003 5.6249186824550685 10.260910483276493 -6 1 3
692 1 1 0.5897 2.863627584036901 4.351328457898111 6.317866943406975 3 2 4
157 1 2 -1.1794 0.38039618091331023 3.6173477411037145 8.344527769774071 2 2 -2
454 1 2 -1.1794 4.371203426458064 1.9483791635246324 10.016999427018616 1 -1 0
826 1 2 -1.1794 1.5652158885979217 1.7978414446843307 10.501335091277232 -1 1 4
828 1 1 0.5897 2.4548930475691315 2.1266668829824917 10.372264542713861 -1 1 4
637 1 2 -1.1794 1.1269168342056188 5.728968168312867 10.975955940621978 -6 1 3
558 1 1 0.5897 2.4843213333294045 6.398763218891692 8.2580052352574 4 2 3
574 1 2 -1.1794 3.794199974572082 1.6533698570686284 7.078071268851117 3 0 0
256 1 2 -1.1794 1.0814929091144185 1.587450165846434 6.479648009747603 0 -3 0
576 1 1 0.5897 4.284145256229585 1.6164005475252665 7.8995830818433745 3 0 0
785 1 1 0.5897 3.3157990489700535 2.657169110398627 14.063862672997814 4 5 3
786 1 1 0.5897 2.248118620374944 2.420657121043541 15.110855782917204 4 5 3
784 1 2 -1.1794 2.392642029098264 2.4249617537760235 14.164587706436489 4 5 3
446 1 1 0.5897 1.9828558522932904 5.505313334760178 12.812177919178852 1 -1 0
336 1 1 0.5897 0.3595869716485464 2.384791611973173 14.267711188947539 8 0 2
445 1 2 -1.1794 1.994095696188002 5.2665979841502315 13.739145181459726 1 -1 0
383 1 1 0.5897 4.145355494284869 5.714675881037208 13.221967408566599 -9 -3 -3
447 1 1 0.5897 2.041337590494767 4.310526659513598 13.7401407879301 2 -1 0
499 1 2 -1.1794 0.9083302707904783 6.345263792089022 15.938063739382322 1 -1 -3
501 1 1 0.5897 1.299865981387215 6.043662931393359 15.118289410140008 1 -1 -3
384 1 1 0.5897 4.658456453059689 6.394207804987191 11.970158942207108 -9 -3 -3
189 1 1 0.5897 4.526677019003248 6.021634935829239 16.392320227959928 -1 4 2
516 1 1 0.5897 3.201542707985452 1.9721245414475566 21.31058478979878 -1 -4 -1
712 1 2 -1.1794 1.2338353266262074 5.4474264433639705 18.51883243099123 -4 -1 3
223 1 2 -1.1794 3.7769910312243065 4.505369182805385 18.82766429599716 5 2 -7
225 1 1 0.5897 3.6205393202916323 3.7788447342798257 19.430962328263533 5 2 -7
714 1 1 0.5897 2.116145538355263 5.079091416578522 18.472494981180397 -4 -1 3
713 1 1 0.5897 1.088931802327132 5.8327543634139225 17.654645823476123 -4 -1 3
514 1 2 -1.1794 3.8667730898188264 2.3575254678035127 20.74026976035539 -1 -4 -1
224 1 1 0.5897 4.227405967349602 5.163843637954377 19.356652840073764 5 2 -7
478 1 2 -1.1794 2.800059703463703 1.89139868145104 16.822038872034568 -3 2 -3
479 1 1 0.5897 3.568267437508164 1.9606992677691635 17.38892086104432 -3 2 -3
188 1 1 0.5897 4.443616026559958 4.694589209277899 17.116280615842555 -1 4 2
480 1 1 0.5897 2.0696426787617517 1.7486155597727178 17.424041269875886 -3 2 -3
515 1 1 0.5897 4.50275397485989 2.745397054329681 21.341409523052143 -1 -4 -1
254 1 1 0.5897 4.4405037592785055 6.513553557608376 21.134093907487838 2 7 -8
183 1 1 0.5897 0.8905707883732231 1.8487584002396313 21.771349489982768 -5 2 -2
233 1 1 0.5897 1.9763685444678238 7.17046975625366 0.8684913052037944 -1 2 2
666 1 1 0.5897 3.9579455698635435 9.299311685961193 3.324991422835798 2 4 2
664 1 2 -1.1794 3.215090907921429 8.795688665490012 2.991996065338034 2 4 2
192 1 1 0.5897 1.1573188664886536 11.164145710585453 3.1084896216573514 5 4 -6
349 1 2 -1.1794 1.7575977575224464 7.009448792718107 4.774003773734422 -7 2 -2
351 1 1 0.5897 2.3693844028732935 7.487042351052894 4.213731704317961 -7 2 -2
665 1 1 0.5897 2.4779922310368576 9.405566413861813 3.0240392879634177 2 4 2
234 1 1 0.5897 3.1448682982610285 7.826759956353096 1.5727453649309293 -1 2 2
232 1 2 -1.1794 2.9164077633021463 7.077076186635394 1.0231326785698207 -1 2 2
190 1 2 -1.1794 0.7934320237830911 10.281302196822843 3.1752599325399227 5 4 -6
191 1 1 0.5897 0.4311828327032691 10.237327518680761 4.060203690903399 5 4 -6
93 1 1 0.5897 4.4742075746215635 11.107076941692258 0.6314387693341884 1 -5 1
350 1 1 0.5897 0.8979201155651626 7.176112314449854 4.387382072792345 -7 2 -2
29 1 1 0.5897 1.4837213640545714 8.6131748236193 7.657232518891688 -7 2 6
186 1 1 0.5897 3.58568073594321 8.023683780458523 10.911803014611253 0 4 4
364 1 2 -1.1794 0.9008248100827717 10.012950109582603 8.947640960478354 0 5 2
30 1 1 0.5897 1.8946664339524582 7.617412378364519 6.593461059051545 -7 2 6
184 1 2 -1.1794 4.223157581233142 7.399180849356642 10.565491474027631 0 4 4
403 1 2 -1.1794 4.185429308283464 11.36886266791031 10.419311712478054 4 -5 -1
28 1 2 -1.1794 2.1137457778000455 7.915594140731479 7.476285587512751 -7 2 6
319 1 2 -1.1794 4.356826323068491 9.534899234802156 8.067912932406948 -1 -3 0
521 1 1 0.5897 1.3118466207831203 11.673228760726953 9.561302269185008 -3 0 -2
320 1 1 0.5897 3.5929257120324554 9.018540806351684 7.810767374973393 -1 -3 0
365 1 1 0.5897 1.1438068039132214 9.344506403127289 9.588292164189982 0 5 2
321 1 1 0.5897 4.649632975182318 9.95051543553546 7.2568407882695665 -1 -3 0
74 1 1 0.5897 0.5594876697389667 10.654621905145932 6.252179515562103 3 0 3
404 1 1 0.5897 4.432653230475651 10.741601224940787 9.739784302233678 4 -5 -1
405 1 1 0.5897 3.3664297840383393 11.7523185192524 10.105435179139295 4 -5 -1
185 1 1 0.5897 3.7471330626047124 6.922515014396896 9.885425625714829 0 4 4
748 1 2 -1.1794 0.6394496080956155 9.006195950817428 14.95289474030005 3 4 -1
53 1 1 0.5897 3.8405620786525536 9.958409826999208 13.281139768207257 -5 -2 2
52 1 2 -1.1794 2.9495925908829843 10.021277849075268 13.625384923853138 -5 -2 2
481 1 2 -1.1794 4.057527857966745 10.409558370036969 16.097192035816704 1 5 -1
749 1 1 0.5897 1.438398001400816 9.231655566119466 14.476279333769558 3 4 -1
483 1 1 0.5897 3.7567404466124987 10.361626463852344 15.18970008147606 1 5 -1
54 1 1 0.5897 2.6057995192293455 10.834012431005503 13.25449410949397 -5 -2 2
347 1 1 0.5897 2.2275736981859655 9.423386023159397 11.874013415723033 1 3 -3
750 1 1 0.5897 0.3933111052203385 9.813661699416578 15.404270848606025 3 4 -1
500 1 1 0.5897 0.7771068042979207 7.284767229833965 15.809977149275817 1 -1 -3
348 1 1 0.5897 1.367814543567667 8.177292114448338 11.86207238241975 1 3 -3
346 1 2 -1.1794 1.8760351026660778 8.751830879992507 11.28942830039349 1 3 -3
267 1 1 0.5897 1.1885766030387275 8.910588363830465 18.903613548271743 -2 -1 -3
802 1 2 -1.1794 1.7996686539474036 10.437059606608436 18.02611435213614 5 1 -1
91 1 2 -1.1794 4.126712547563715 11.030951676152046 21.094568022838324 1 -5 0
266 1 1 0.5897 1.0188735049935627 7.413532509957277 19.052577365040108 -2 -1 -3
803 1 1 0.5897 1.0233195751336772 10.861944789279187 17.66134308874596 5 1 -1
92 1 1 0.5897 3.281334853224193 11.478708774877632 21.12827144850253 1 -5 0
482 1 1 0.5897 3.2593601894292057 10.546060767370463 16.60768933357277 1 5 -1
265 1 2 -1.1794 0.5574323799720988 8.243435901974927 19.173623968100742 -2 -1 -3
804 1 1 0.5897 2.2051691857031193 11.10841349882557 18.574875627212343 5 1 -1
838 1 2 -1.1794 4.691542783226897 7.892590403756218 16.68341302321965 0 -2 -3
839 1 1 0.5897 4.398368038347961 8.775426994412648 16.45771148143419 0 -2 -3
794 1 1 0.5897 0.37404946661262056 15.21530939026 1.609155283193301 -3 0 6
205 1 2 -1.1794 4.558861245168369 15.241794561450643 2.2983969119354093 -4 3 -2
498 1 1 0.5897 2.9552827602105065 12.710216147654295 3.2465572386461163 1 0 1
180 1 1 0.5897 3.4681569380058734 16.561523481183766 2.098992783793158 -7 1 -2
496 1 2 -1.1794 2.1211701154719886 12.742477396471923 2.778042897121465 1 0 2
206 1 1 0.5897 4.53876979871812 14.487521852229177 2.8874291218531627 -4 3 -2
43 1 2 -1.1794 2.39491704530715 16.588669501769544 4.87670524502985 2 6 -2
497 1 1 0.5897 1.7535039452057324 13.597657468426664 3.001188121973785 1 0 2
207 1 1 0.5897 4.614438119645451 14.860572043295514 1.422118117539115 -4 3 -2
373 1 2 -1.1794 4.577166687183814 13.31076878778515 4.278651415703001 5 6 -2
720 1 1 0.5897 1.902146264260553 12.511866079893618 1.0099541430505687 5 4 0
793 1 2 -1.1794 0.35745204549379017 15.067414960554625 2.5547452737203735 -3 0 6
45 1 1 0.5897 2.3977611232777254 16.483779952353032 3.9252413748563884 2 6 -2
822 1 1 0.5897 1.4413333971357773 15.146324332925095 5.739789789146631 1 0 5
375 1 1 0.5897 4.363045557097728 12.818195815529538 5.07101002499692 5 6 -2
613 1 2 -1.1794 1.6107043071572165 12.093085275618208 6.691858354901143 -4 1 4
248 1 1 0.5897 0.9243643718282522 15.189941296029115 10.416571309678357 -6 3 -3
221 1 1 0.5897 4.221953660612542 15.39533754746042 10.373086089825094 2 -4 4
520 1 2 -1.1794 1.876947375372379 12.445261930040637 9.530752209734416 -3 0 -2
222 1 1 0.5897 3.2369474244770693 16.064886026229523 9.438473858381192 2 -4 4
522 1 1 0.5897 1.4024925402616704 13.109876609601946 10.030224790260775 -3 0 -2
821 1 1 0.5897 1.1135915634843465 13.85179386288624 6.4531009778756125 1 0 5
260 1 1 0.5897 1.070690292883039 15.970726125160285 8.333350627284085 2 -2 6
220 1 2 -1.1794 4.141778536345558 16.114849796160108 9.746838389809025 2 -4 4
615 1 1 0.5897 1.3994876383446244 12.105723971095632 7.625410998531848 -4 1 4
259 1 2 -1.1794 1.3714352799663918 16.4433570486691 9.109533684419352 2 -2 6
825 1 1 0.5897 4.043809739183162 12.294521178243997 8.144001818917134 -2 3 2
614 1 1 0.5897 2.5626018501121735 12.188861208572957 6.659838924884603 -4 1 3
823 1 2 -1.1794 4.312211631465726 12.497997084671198 7.247980578619341 -2 3 2
824 1 1 0.5897 4.618731699653465 13.40388913690328 7.28913218833076 -2 3 2
247 1 2 -1.1794 0.4624818547052971 14.428569097403297 10.767668696485568 -6 3 -3
261 1 1 0.5897 0.5969955300525973 16.91272907332929 9.419764033666489 2 -2 6
820 1 2 -1.1794 0.7817131321892064 14.736397292641062 6.299406848794859 1 0 5
419 1 1 0.5897 4.362989860222028 13.057591703314538 11.098972365544068 -6 -2 5
121 1 2 -1.1794 2.4502612414820923 13.371268092670103 15.9060336295199 -1 -1 -2
293 1 1 0.5897 4.212125245118376 14.043918699732075 13.156208685192459 -2 0 1
406 1 2 -1.1794 1.5278406239118623 12.288485949183034 12.867957464768727 -5 -2 3
138 1 1 0.5897 0.741324135365222 15.647392052996484 13.649687620222274 5 -8 1
122 1 1 0.5897 3.12439873337712 13.419652325614324 15.228178385412935 -1 -1 -2
292 1 2 -1.1794 4.645002208551931 14.009892138620284 14.009295280736891 -2 0 1
123 1 1 0.5897 1.8418024142310871 12.70229630549646 15.592058684756223 -1 -1 -2
407 1 1 0.5897 1.3164853413500426 13.208493211413266 13.026703424609472 -5 -2 3
506 1 1 0.5897 3.7194829216150302 16.65595717758773 14.283891834627758 5 0 -3
55 1 2 -1.1794 1.9568281765494469 16.8198099733114 13.70237272093016 -1 0 1
408 1 1 0.5897 0.7159757887664318 11.910631470678823 12.529721237134302 -5 -2 3
418 1 2 -1.1794 4.418510689929072 13.964186498600656 11.40114720919877 -6 -2 5
505 1 2 -1.1794 4.636608442522243 16.65984597758617 14.558028519809112 5 0 -3
689 1 1 0.5897 0.369866675186175 14.981409392569686 20.401375176007193 3 -2 3
236 1 1 0.5897 4.210319439933556 12.375105045586011 18.891983230550096 1 -3 -5
849 1 1 0.5897 2.7733634784904733 16.422514916007067 20.370912084694467 0 -3 4
452 1 1 0.5897 3.3045523421712533 16.05413140254798 17.383608298115327 -1 -2 4
781 1 2 -1.1794 0.9766927204770447 14.33011314743247 18.63944958704304 -2 -3 2
719 1 1 0.5897 0.8228192249740979 12.26651210477178 21.328854514084362 5 4 -1
235 1 2 -1.1794 3.3409520972159608 12.678162177113473 18.629970095307094 1 -3 -5
399 1 1 0.5897 3.5571404808071914 14.32639429330261 19.87791634389555 3 4 -7
782 1 1 0.5897 1.627748995307126 13.659792993151358 18.847072213853544 -2 -3 2
398 1 1 0.5897 2.6167627503695474 14.20652440574493 21.058324242392494 3 4 -7
237 1 1 0.5897 3.410494771338495 12.819380882314046 17.685773202492527 1 -3 -5
783 1 1 0.5897 1.431160171526789 14.931545263011229 18.04948891073147 -2 -3 2
397 1 2 -1.1794 3.3333358836126874 14.73861884578883 20.712361122442736 3 4 -7
718 1 2 -1.1794 1.7613611554734359 12.432121965806381 21.418297087783372 5 4 -1
453 1 1 0.5897 2.508723025351891 15.154957982265557 16.461553567895272 -1 -2 4
451 1 2 -1.1794 2.4136055030749684 15.878785906343452 17.080677633724733 -1 -2 4
252 1 1 0.5897 2.620536933461687 18.943346435211083 3.3528983122378415 3 -4 1
710 1 1 0.5897 1.3280248184056505 20.74047642264543 3.8776899281638055 -4 -4 -2
179 1 1 0.5897 2.7627857249759917 17.266816055869008 0.9601141774651972 -7 1 -2
276 1 1 0.5897 4.0286244899784 21.28293171678844 2.2903771648315656 -2 2 -2
251 1 1 0.5897 3.054228726526516 19.177308735350735 4.784409367204176 3 -4 1
250 1 2 -1.1794 2.6024364706218033 19.596802717619333 4.052152245204124 3 -4 1
709 1 2 -1.1794 0.6867723295519074 21.44019476744341 3.7532841849819722 -4 -4 -2
178 1 2 -1.1794 2.920869403606359 17.321910778696022 1.902588522853085 -7 1 -2
833 1 1 0.5897 0.5856354217288284 20.358847156292867 0.9553254124180892 2 -3 0
44 1 1 0.5897 1.75132455124432 17.278118548471465 5.040227210443252 2 6 -2
662 1 1 0.5897 4.037054772238561 19.069167831090603 1.274318469417412 -3 -4 -1
258 1 1 0.5897 1.0294052939444083 21.903934305173113 5.571476192218852 0 -4 0
536 1 1 0.5897 1.9033068743247148 20.596087650083234 10.32665530923781 6 5 3
145 1 2 -1.1794 4.481684089443608 18.488288915241448 6.501029524660862 0 1 -3
147 1 1 0.5897 4.584440451976299 17.827082306301477 5.816532320586933 0 1 -3
535 1 2 -1.1794 1.9825858423819642 19.64852448127047 10.216432249155975 6 5 3
778 1 2 -1.1794 2.021683351110868 18.638917098594646 7.665173303994281 -2 0 -1
146 1 1 0.5897 3.6713401257473293 18.245838443213657 6.949193822360837 0 1 -3
273 1 1 0.5897 3.727715094861793 17.181267073663808 11.106068869443577 -1 2 3
779 1 1 0.5897 1.2473355771326955 18.695743378169112 7.1053154053967535 -2 0 -1
575 1 1 0.5897 4.413890811810264 21.96317021304153 6.415135267749716 3 -1 0
537 1 1 0.5897 2.2229616009263795 19.533152992532187 9.29707528761459 6 5 3
780 1 1 0.5897 1.9429195944686224 17.788858999345422 8.098165289069993 -2 0 -1
257 1 1 0.5897 1.987174944033176 22.02958320030671 6.737203596420993 0 -4 0
455 1 1 0.5897 4.5562378941962285 21.697466951428744 10.381914984273482 1 -2 0
272 1 1 0.5897 2.977260351315216 18.49469979154697 11.044644906862473 -1 2 3
310 1 2 -1.1794 2.450388266428601 20.39634872922381 13.48878244584538 -1 1 1
354 1 1 0.5897 4.02058429761036 19.797838677438534 13.953704667109125 5 4 -3
659 1 1 0.5897 1.6458550834983232 17.382712820143592 16.311723025683968 1 0 0
312 1 1 0.5897 1.5452078945944092 20.11645477219792 13.35238226014446 -1 1 1
658 1 2 -1.1794 1.2504635883354032 18.22930076401633 16.103686405001156 1 0 0
581 1 1 0.5897 4.163748140438998 19.898373316809874 15.830359047959401 -2 -4 0
57 1 1 0.5897 1.4180490643356702 17.517637635939074 14.07525072904673 -1 0 1
311 1 1 0.5897 2.4022398158553657 21.351346140234888 13.532890195199172 -1 1 1
660 1 1 0.5897 1.9930039598278855 18.82842846468735 16.02620465557379 1 0 0
271 1 2 -1.1794 3.3361901170438686 17.85606109489615 11.660756982398564 -1 2 3
56 1 1 0.5897 2.1399885035483326 17.10958738929029 12.808630258736594 -1 0 1
88 1 2 -1.1794 1.1537641872049516 21.576643772788877 18.919276306714934 6 -2 4
847 1 2 -1.1794 2.7416526896308775 17.340955376749868 20.638776945161908 0 -3 4
669 1 1 0.5897 1.4702636229116095 18.657906696085327 17.913974238447523 -7 -4 -1
848 1 1 0.5897 2.083159919133484 17.73520681550071 20.066695460800602 0 -3 4
668 1 1 0.5897 0.49981061559305373 18.57697578603478 19.07316246823975 -7 -4 -2
182 1 1 0.5897 1.5417755368897907 21.610336678808558 20.703374562825637 -4 1 -2
181 1 2 -1.1794 1.5671423898615588 21.79861943611941 21.64156755101324 -5 1 -2
667 1 2 -1.1794 1.4108867229975481 18.78048722928925 18.86146603458873 -7 -4 -1
89 1 1 0.5897 1.2114483617795402 20.644027380394824 18.711428359818136 6 -2 4
584 1 1 0.5897 4.580537199868253 17.388485319838388 20.89130454874912 4 -3 2
582 1 1 0.5897 3.2857882248324075 20.832186949338812 16.63610380895937 -2 -4 0
580 1 2 -1.1794 3.569847273607191 19.91975298487248 16.580771925379494 -2 -4 0
695 1 1 0.5897 6.6784005245789535 3.618655707213549 1.0345628059853769 2 -1 -2
694 1 2 -1.1794 5.914596608747505 3.6429152571350776 0.45810664991442 2 -1 -2
817 1 2 -1.1794 7.302945480133656 3.6906357547902187 5.188911423857969 4 -1 2
722 1 1 0.5897 7.687100690265367 4.215784852922219 3.35950799109838 0 1 -1
604 1 2 -1.1794 5.213856451018472 5.413080129043917 4.946883760070496 -6 0 -1
721 1 2 -1.1794 7.877268789575812 4.391981315131977 2.4380426812044553 0 1 -1
605 1 1 0.5897 6.0821622068784045 5.05303585433559 5.12773718814382 -6 0 -1
819 1 1 0.5897 7.077292688854216 2.771831294151058 5.334572716333237 4 -2 2
318 1 1 0.5897 6.998404572808402 5.956031132967064 1.6848221910784051 -4 -4 0
696 1 1 0.5897 5.281249621351613 4.190774852925074 0.9218430104459777 2 -1 -2
275 1 1 0.5897 5.187570300714582 1.6425697283816922 2.2854258104353473 -2 3 -2
723 1 1 0.5897 8.823298305445585 4.535566410464176 2.4114341748296004 0 1 -1
317 1 1 0.5897 6.257351805347299 6.512042284704075 0.4874237756188741 -4 -4 -1
263 1 1 0.5897 4.7470634432815295 5.013673718190003 3.1927788083351407 2 -3 6
818 1 1 0.5897 8.051746078852485 3.8479698305035375 5.764136905609961 4 -1 2
731 1 1 0.5897 5.8885348982781265 4.805587165584019 9.179114959060769 2 3 -5
329 1 1 0.5897 9.089721890259328 3.4661005883045437 7.628341425161462 2 6 1
730 1 2 -1.1794 6.2982123124022635 5.192543652782871 8.40534787986245 2 3 -5
13 1 2 -1.1794 8.717135162265459 4.816359347884967 10.328416229411086 0 -3 -5
15 1 1 0.5897 9.045441145909303 4.045134062588757 10.790731832908211 0 -3 -5
592 1 2 -1.1794 8.210857154300573 1.838621862058989 8.225177955537058 -1 0 -1
415 1 2 -1.1794 6.003367589897225 4.19156960607007 10.920410068661429 -2 -2 1
456 1 1 0.5897 4.937732801224712 2.5425470182654175 10.509252557738058 1 -1 0
732 1 1 0.5897 7.2360992184367445 5.050965662022076 8.53421974625921 2 3 -5
417 1 1 0.5897 6.95104626432289 4.312186840931805 10.980786273693976 -2 -2 1
416 1 1 0.5897 5.648221025057051 4.719225037872371 11.635770288709523 -2 -2 1
458 1 1 0.5897 6.811772531141072 3.440286839121492 13.538520274414873 1 -1 -1
674 1 1 0.5897 4.946521030570327 3.813541013073137 14.981670382251341 -4 -2 -5
457 1 2 -1.1794 7.706143935907598 3.5109961556914535 13.204729696742941 1 -1 -1
812 1 1 0.5897 8.264767058974275 6.394438598829253 11.298341291086274 -4 5 -4
673 1 2 -1.1794 5.067744963702604 3.097147753479609 14.358455280409771 -4 -2 -5
620 1 1 0.5897 8.810306517503744 4.090655672291576 15.840086779223268 2 -2 5
164 1 1 0.5897 6.835129846541784 2.203097133030727 12.085524832196223 -4 1 -1
552 1 1 0.5897 8.445433263601133 6.236154235842684 14.6847185820797 -2 6 -3
675 1 1 0.5897 5.461323476779623 2.393805559454661 14.874880631034957 -4 -2 -5
459 1 1 0.5897 8.245473123293692 3.085868681606281 13.871573467924975 1 -1 -1
727 1 2 -1.1794 7.511515057177861 5.324817972037417 16.128577055658404 -1 4 1
728 1 1 0.5897 6.556736483354917 5.258372942957289 16.112077515337926 -1 4 1
187 1 2 -1.1794 4.798544766184866 5.106056963612111 16.328238789744635 -1 4 2
382 1 2 -1.1794 4.95244122351246 5.985907999395082 12.784498487034671 -9 -3 -3
687 1 1 0.5897 6.683603579724733 4.110031903448657 20.143804116561384 8 -7 -5
686 1 1 0.5897 7.766692495540201 4.8518549573878875 19.389704304323494 8 -7 -5
549 1 1 0.5897 6.112192773328439 2.390284127138142 18.08836905234749 7 -1 4
412 1 2 -1.1794 8.575036376819432 1.7855145059725275 17.409821872277703 3 0 1
253 1 2 -1.1794 5.058941051688981 6.36130094744939 20.419497176876156 2 7 -8
591 1 1 0.5897 7.872214028733141 2.2670598614142254 20.401451715425218 3 5 2
685 1 2 -1.1794 7.391142763712161 3.979937459142456 19.512300662260095 8 -7 -5
729 1 1 0.5897 7.722589936234792 5.522612922718889 17.041054331738216 -1 4 1
547 1 2 -1.1794 5.330921025756145 1.982410412876855 17.714820631585845 7 -1 4
286 1 2 -1.1794 9.0806291378746 6.500903865682657 18.63950617769212 2 1 2
65 1 1 0.5897 5.517773917038306 10.836380839813511 2.5211429208983653 4 1 -3
431 1 1 0.5897 8.711553130618727 6.7440746908982945 0.44041104535771425 -3 -2 -4
315 1 1 0.5897 7.4535661606902694 9.804195786139692 0.8464268823937233 -2 -1 0
344 1 1 0.5897 7.723438839455892 11.259420119547308 5.381031549463605 -2 1 0
316 1 2 -1.1794 6.9407007310528215 6.728163824617482 1.1219758457645312 -4 -4 0
313 1 2 -1.1794 7.338197543186936 9.724780142997178 1.7933601013611922 -2 -1 0
314 1 1 0.5897 7.134485190148091 8.800025573222316 1.9335945231165799 -2 -1 0
35 1 1 0.5897 5.828904329925311 10.652563634417813 4.843333419054996 -2 2 0
34 1 2 -1.1794 5.246308117169 9.979265675155983 4.491855226634606 -2 2 0
841 1 2 -1.1794 6.71827408466718 7.652206670403609 4.943411202449931 -3 0 2
36 1 1 0.5897 5.7303362730099066 9.161000984782447 4.603433285816507 -2 2 0
372 1 1 0.5897 8.375852697684026 10.302584667151585 3.284693947240928 4 7 0
842 1 1 0.5897 6.0701853268528225 6.94874548750524 4.980993778584693 -3 0 2
599 1 1 0.5897 8.444982981404454 7.5196390047143264 3.9181143599242274 -1 -1 -4
370 1 2 -1.1794 8.87664301932158 10.566860074900918 4.0564948532097675 4 7 0
64 1 2 -1.1794 5.2984565121313825 11.709403606529808 2.195527080161678 4 1 -3
769 1 2 -1.1794 6.520095914066987 9.008794360666943 10.405549402097083 4 -1 0
345 1 1 0.5897 7.184683106214636 11.342107289721982 6.7934523188382085 -2 1 0
771 1 1 0.5897 5.808782023964686 8.389441477563444 10.242055482141554 4 -1 0
230 1 1 0.5897 6.42372729474289 8.4917368861149 8.167830106686946 3 5 0
770 1 1 0.5897 7.241117466346716 8.466984698238534 10.726323922309593 4 -1 0
231 1 1 0.5897 6.349098953450394 7.0027509429352754 7.904223687930719 3 5 0
126 1 1 0.5897 8.59939575930229 7.376975948569711 7.399341565391532 1 0 3
229 1 2 -1.1794 6.742699026381567 7.81094053652548 7.575276548490317 3 5 0
391 1 2 -1.1794 7.630913988970237 10.708910272949822 8.556714513811 2 -4 -2
393 1 1 0.5897 7.076316026275279 10.09838004828815 9.04248250965411 2 -4 -2
743 1 1 0.5897 8.984606582567611 10.266659450652503 9.81926901346737 -2 1 1
392 1 1 0.5897 7.7614627832020755 11.443687119014033 9.156288481865301 2 -4 -2
343 1 2 -1.1794 7.041017622919349 11.675541757974417 5.907751558137957 -2 1 0
843 1 1 0.5897 6.790834867647693 7.960183467018393 5.84683660679442 -3 0 2
160 1 2 -1.1794 8.19724901471151 9.268134293583763 15.789283617026106 2 8 4
332 1 1 0.5897 6.3286069797017 11.287580012090979 13.052402643453366 1 -2 -2
246 1 1 0.5897 5.800893497361169 9.486943795262215 11.909952718124416 -2 4 -1
860 1 1 0.5897 5.7081764748207116 7.580699396409168 15.110397842666869 -2 -2 2
813 1 1 0.5897 8.287515355992909 6.882409233760372 12.731319506522013 -4 5 -4
861 1 1 0.5897 6.155957100120536 6.844933891786311 13.865336925940772 -2 -2 2
162 1 1 0.5897 7.735134440460728 8.534976039457074 15.382787598392099 2 8 4
811 1 2 -1.1794 8.098407100608453 7.167769803672696 11.837386883777095 -4 5 -4
244 1 2 -1.1794 5.444141152769836 9.63364430893147 12.786038807304623 -2 4 -1
859 1 2 -1.1794 6.308761043780068 7.6452204518565745 14.367818572572553 -2 -2 2
245 1 1 0.5897 5.915868041345057 9.015132194516676 13.34390488382465 -2 4 -1
161 1 1 0.5897 7.530782467822015 9.948559041966218 15.88484392773072 2 8 4
301 1 2 -1.1794 6.511225932854968 11.659648517286055 16.068291801926144 -2 2 5
302 1 1 0.5897 5.628664186090583 11.373031815072318 16.303341020240197 -2 2 5
255 1 1 0.5897 5.36619593699551 7.235058285731461 20.177763724760098 2 7 -8
777 1 1 0.5897 7.542041239003711 11.152500396471874 20.132131394235685 3 -3 0
775 1 2 -1.1794 7.78492906454844 10.270028367405919 20.412384591404184 3 -3 0
840 1 1 0.5897 5.242590017182744 8.013086358307262 17.456791489186934 0 -2 -3
171 1 1 0.5897 4.920431783962857 9.486822272171338 19.74326700291104 -3 4 -3
170 1 1 0.5897 6.381425265991718 9.484233303711099 19.34622466617254 -3 4 -3
169 1 2 -1.1794 5.565984962491077 8.995272246142985 19.235372108402494 -3 4 -3
776 1 1 0.5897 8.448977052047109 9.992110377197022 19.781434267572827 3 -3 0
129 1 1 0.5897 5.658404101658226 15.678420528765562 4.89107505653494 -1 1 -4
127 1 2 -1.1794 5.667062600910794 16.618420939903 4.7104792995747395 -1 1 -4
629 1 1 0.5897 7.982910109097395 14.69546742898071 3.138456526009324 -2 -4 5
213 1 1 0.5897 7.604570696037001 13.322364120018603 5.269263423279259 3 1 3
100 1 2 -1.1794 7.242049918038012 13.048814703946112 0.6399069344192113 7 -4 1
200 1 1 0.5897 7.1949359273978395 16.704698469964434 1.910882959848162 1 -5 -2
102 1 1 0.5897 7.315982245730601 13.727223132080612 1.3111824954475089 7 -4 1
211 1 2 -1.1794 8.089438159184656 14.052959805853414 4.885295630973667 3 1 3
628 1 2 -1.1794 8.075450334904794 15.125879835034233 2.2884662005207748 -2 -4 5
630 1 1 0.5897 9.008535945819688 15.058531414661207 2.085693547688642 -2 -4 5
128 1 1 0.5897 5.740831748115541 16.679141196094765 3.7580311163947884 -1 1 -4
66 1 1 0.5897 6.012723702207591 11.928799736337352 1.5971990064294834 4 1 -3
374 1 1 0.5897 5.009344585946029 12.673847093129531 3.709576116888327 5 6 -2
752 1 1 0.5897 7.537291918162083 16.724042480257985 4.748424075197769 4 0 0
212 1 1 0.5897 9.004819264445564 13.872257134640911 5.099089241069991 3 1 3
741 1 1 0.5897 7.308136843123283 16.726507491667753 10.781050861387316 -1 0 2
429 1 1 0.5897 7.966919545792568 14.8554353255137 6.756724664372811 2 0 -5
595 1 2 -1.1794 5.199267733542474 14.953623114198258 7.565999627693398 0 -4 0
705 1 1 0.5897 7.776974025054142 13.730285577737243 9.331298523363415 2 -2 -3
597 1 1 0.5897 4.9276225109915135 15.553961323766014 8.260338497482877 0 -4 0
427 1 2 -1.1794 7.869416747125492 15.013030872410903 7.695861220564334 2 0 -5
703 1 2 -1.1794 7.891190239092564 13.310349575157565 10.183882531481153 2 -2 -3
596 1 1 0.5897 6.155331797034183 15.000950521116287 7.568288788846856 1 -4 0
428 1 1 0.5897 8.695431704336379 15.419555696157014 7.958025257858977 2 0 -5
704 1 1 0.5897 8.832928754407638 13.355409940271304 10.349371033696434 2 -2 -3
299 1 1 0.5897 7.398362227201758 15.28069168894387 12.690428137857603 -3 -3 1
23 1 1 0.5897 7.648194962588111 15.046772110054274 15.37263558166289 -6 3 1
24 1 1 0.5897 8.630585319331523 15.010982506951338 14.221264812866771 -6 3 1
420 1 1 0.5897 5.32264680515285 14.062698538593617 11.699708441291124 -6 -2 5
41 1 1 0.5897 8.400540161232028 12.123711172744876 12.99220070762674 1 -2 5
22 1 2 -1.1794 7.799680403632345 15.399092212072068 14.49558788098572 -6 3 1
300 1 1 0.5897 7.276708700808662 14.575084712985783 11.356493797038056 -3 -3 1
294 1 1 0.5897 5.457573733415284 13.530587866973809 13.847137728250493 -2 0 1
331 1 2 -1.1794 6.6901645128227205 12.130519276289466 13.326350946481318 1 -2 -2
298 1 2 -1.1794 6.9180852760130565 15.30406628367914 11.862733405983121 -3 -3 1
507 1 1 0.5897 4.966959413620806 15.798352265753326 14.303085870002013 5 0 -3
333 1 1 0.5897 6.80202554664517 12.047297822569512 14.273369951193782 1 -2 -2
210 1 1 0.5897 5.128070875237315 16.335063574992088 16.355466363324094 -1 -2 0
607 1 2 -1.1794 6.812170071651154 15.18253697515592 19.654483806235156 3 5 1
208 1 2 -1.1794 5.158689016290746 16.08141664120349 17.277969361653923 -1 -2 0
641 1 1 0.5897 6.042398475227131 13.31350745536607 19.511296039111194 4 1 -5
390 1 1 0.5897 7.232860857175687 14.493757361721734 17.709262763212145 2 7 4
389 1 1 0.5897 8.43369629772487 13.742047691827567 17.175346153710805 2 7 3
609 1 1 0.5897 7.5922415338231675 15.269746070025041 20.202362391293384 3 5 1
388 1 2 -1.1794 7.576425673528902 14.080674989020652 16.9170246360544 2 7 4
608 1 1 0.5897 6.272829165814513 15.939753322023584 19.88256008197103 3 5 1
640 1 2 -1.1794 6.112152736703291 12.358869115421967 19.500508722170984 4 1 -5
209 1 1 0.5897 5.474692904431776 16.862974970992433 17.731401298064846 -1 -2 0
642 1 1 0.5897 5.832161161828175 12.08786973564804 20.37486988223654 4 1 -5
303 1 1 0.5897 6.625832070026502 12.488913177688794 16.53248120087565 -2 2 5
101 1 1 0.5897 7.9391706400948685 13.251511378042569 21.367816128990547 7 -4 0
201 1 1 0.5897 6.348567071990318 17.836151847987217 1.367283713364177 1 -5 -2
653 1 1 0.5897 6.402949277104744 20.496899128566113 1.7070389204234557 -1 0 -1
652 1 2 -1.1794 7.096311468562964 21.139867019183193 1.855820003569625 -1 0 -1
199 1 2 -1.1794 6.875227403991086 17.581217921739423 2.1248598263546015 1 -5 -2
568 1 2 -1.1794 5.602119689761238 21.61174622355177 5.027713953425956 2 -1 1
654 1 1 0.5897 7.385835805006994 21.388119943171667 0.9778407107520175 -1 0 -1
567 1 1 0.5897 7.737670119313539 19.057945706027105 3.9313512577586947 -1 4 -4