LAMMPS data file via write_data, version 30 Jul 2021, timestep = 23750000

1296 atoms
2 atom types
864 bonds
1 bond types
432 angles
1 angle types

-10.712099796563335 12.692099796563335 xlo xhi
-9.150852477357166 12.140850477357166 ylo yhi
0.05650149799055271 21.803497502012725 zlo zhi
-9.278149908705306 1.8108782560004733 2.9685940690304222 xy xz yz

Masses

1 1.008
2 15.999

Pair Coeffs # lj/cut/tip4p/long/omp

1 0 0
2 0.21084 3.1668

Bond Coeffs # harmonic/omp

1 450 0.9572

Angle Coeffs # harmonic/omp

1 55 104.52

Atoms # full

280 94 2 -1.1794 -9.619122955637703 -4.514698066712913 1.3047240739532746 1 1 0
270 90 1 0.5897 -8.461352775943869 -7.38107752692175 1.8652371540810861 1 1 0
269 90 1 0.5897 -9.200062113717097 -6.0847093203227445 2.1211734215132654 1 1 0
268 90 2 -1.1794 -8.98529860021246 -6.925789978401152 2.5243958564475437 1 1 0
314 105 1 0.5897 -8.731588017366462 -6.688618933602265 4.394496932983724 1 1 0
299 100 1 0.5897 -6.499178173847052 -7.834897632731924 3.87513680634762 1 1 0
163 55 2 -1.1794 -7.202202684227204 -7.9533410499275075 0.7312475434656591 1 1 0
164 55 1 0.5897 -6.351151219863269 -8.19427469790785 1.0972087649478413 1 1 0
298 100 2 -1.1794 -5.804008161059569 -7.185463954112151 3.9808649836350813 1 1 0
73 25 2 -1.1794 -8.463681157793534 -3.620882576251394 4.6084204763256045 1 0 0
324 108 1 0.5897 -7.223725963705938 -4.283212044295996 3.4733614136175115 1 1 0
107 36 1 0.5897 -9.307152979676804 1.698285677509995 3.1872424050806316 1 0 0
282 94 1 0.5897 -10.462194101795106 -4.086887071818979 1.4545623744502425 1 1 0
84 28 1 0.5897 -8.254812585883162 -0.3520751323785838 3.8559811627123226 1 0 0
75 25 1 0.5897 -9.295225505688542 -3.265553987579807 4.294536808308198 1 0 0
281 94 1 0.5897 -8.970708773585306 -3.8825471572840202 1.6148289107577272 1 1 0
301 101 2 -1.1794 -7.984181786086985 -2.1945564405689604 1.6232590873691446 1 1 0
53 18 1 0.5897 -12.36974449533149 1.1213078994005858 2.0900905343201566 1 0 0
403 135 2 -1.1794 -5.238733734676806 -2.825125384981683 5.486416957000549 1 0 0
59 20 1 0.5897 -13.587498677687089 -0.7256767017958019 3.2912809418022517 1 0 0
322 108 2 -1.1794 -6.565042372083437 -4.677011793219587 2.901217798917761 1 1 0
300 100 1 0.5897 -4.993722842053349 -7.694167275185368 3.9510956034687874 1 1 0
3 1 1 0.5897 -1.3467017504276235 -3.5251148481233736 4.351052409634761 0 0 0
256 86 2 -1.1794 -12.181770686534653 -3.2779613114188635 1.774177723883864 1 1 0
258 86 1 0.5897 -12.735052887350744 -2.7232231307732313 1.2243079818951323 1 1 0
165 55 1 0.5897 -7.397372576312829 -8.646665979726144 0.10078178086243064 1 1 0
90 30 1 0.5897 -3.727235144322023 -0.35355996184155636 2.06320954716308 1 0 0
69 23 1 0.5897 -11.143137680406651 -2.530027470604826 3.124654451922192 1 0 0
272 91 1 0.5897 -9.53435158948283 -1.2996418615381389 1.318518761372308 1 1 0
83 28 1 0.5897 -9.685491884111268 -0.8195052549663018 4.0190326482567595 1 0 0
82 28 2 -1.1794 -9.142418611575701 -0.03133008648623381 4.015751420577679 1 0 0
271 91 2 -1.1794 -10.261065493922446 -0.8443709392715437 0.8932628643928912 1 1 0
98 33 1 0.5897 -11.932560421994102 0.35597704653189943 4.30664961169194 1 0 0
54 18 1 0.5897 -11.590598996403711 -0.16528157567277546 1.918719548213741 1 0 0
67 23 2 -1.1794 -10.770556298874206 -2.2646063018254097 3.965536983774246 1 0 0
68 23 1 0.5897 -11.4381201070445 -2.50149109193399 4.609360475920298 1 0 0
52 18 2 -1.1794 -12.23305470334866 0.2607579340256869 2.48619453670215 1 0 0
261 87 1 0.5897 -6.667757374451299 -5.045237834043373 1.0237275225879872 1 1 0
323 108 1 0.5897 -6.4639731776954665 -5.569940718104046 3.2307351834197355 1 1 0
199 67 2 -1.1794 0.473622800269176 -7.934031652089374 0.8853018163455196 1 1 0
25 9 2 -1.1794 -3.9609192301415046 0.7956238946858498 5.3029738239016915 0 0 0
103 35 2 -1.1794 -2.8501911366461705 -2.5037039952615467 4.07966890739898 1 0 0
260 87 1 0.5897 -7.1173996696251 -6.2636808702148885 0.24582540191386656 1 1 0
315 105 1 0.5897 -8.597256224392012 -5.374426719688618 5.133908190281308 1 1 0
27 9 1 0.5897 -3.797459790923978 1.7199943281239918 5.116068265817694 0 0 0
88 30 2 -1.1794 -4.362161552171195 0.10060154342114203 2.617183455248472 1 0 0
302 101 1 0.5897 -7.538195790069299 -1.880749039987795 2.409997660784283 1 1 0
99 33 1 0.5897 -11.805659385618629 1.5679157472559435 5.2049994947335705 1 0 0
306 102 1 0.5897 -0.8887260977549278 -7.387192728711535 2.1302715263292997 1 1 0
304 102 2 -1.1794 -1.4527955015115044 -6.914553800401217 2.742423696434353 1 1 0
318 106 1 0.5897 -2.612501420371089 -4.072969207031004 1.2337401268263744 1 1 0
242 81 1 0.5897 -1.0029327669908241 -6.719167621652073 4.602597152849632 0 1 0
305 102 1 0.5897 -1.5121895458315553 -6.030542665830395 2.380326370668031 1 1 0
316 106 2 -1.1794 -1.7724383418917036 -4.516830055864382 1.349966533573197 1 1 0
311 104 1 0.5897 -2.7935288909605944 -8.165999263729436 3.47180345423415 1 1 0
293 98 1 0.5897 -5.034231063672168 -3.7288208306402737 2.3538844370349676 1 1 0
303 101 1 0.5897 -7.323287935336037 -2.1361928095763396 0.9332540070619822 1 1 0
294 98 1 0.5897 -4.773626781986744 -2.9357744289379646 1.0909223482626058 1 1 0
74 25 1 0.5897 -8.17947680044066 -3.0054413604243404 5.284259997525236 1 0 0
96 32 1 0.5897 -6.139278616394054 -1.77364794047371 4.315664876303155 1 0 0
95 32 1 0.5897 -5.977068272572456 -0.6818546717205525 3.2796012879934886 1 0 0
105 35 1 0.5897 -3.203531079060469 -2.7491478049018943 3.224530615797431 1 0 0
94 32 2 -1.1794 -6.640412511540541 -1.169751988834264 3.767596045445771 1 0 0
104 35 1 0.5897 -3.5475438750505974 -2.7201380804894004 4.698635397900582 1 0 0
26 9 1 0.5897 -4.1584118823368525 0.409509952876423 4.449590681124985 0 0 0
292 98 2 -1.1794 -4.3270609612280735 -3.4012946311194128 1.7981137624854395 1 1 0
89 30 1 0.5897 -4.447293121703801 0.9684934364407347 2.2226774067912984 1 0 0
259 87 2 -1.1794 -6.830123354117726 -5.357596772321747 0.1335432010109059 1 1 0
97 33 2 -1.1794 -11.969142596409652 0.625046546882027 5.224594634463581 1 0 0
243 81 1 0.5897 -0.7953574805771169 -5.3885299003348495 5.294091048590837 0 1 0
275 92 1 0.5897 -10.410860824614577 -8.058836760517266 3.084801787004103 1 1 0
241 81 2 -1.1794 -1.0409576011085253 -6.298339250566036 5.461552819187793 0 1 0
309 103 1 0.5897 -2.8060977259652216 -1.3891792751123946 0.10663805395590925 1 1 0
313 105 2 -1.1794 -8.816202629280863 -6.297074665709255 5.263912197606417 1 1 0
417 139 1 0.5897 -8.947159639270069 1.0712008755500406 5.475370346465535 1 0 0
633 211 1 0.5897 -5.636651445032116 -6.091223427735288 5.348893258314183 1 1 0
44 15 1 0.5897 -9.886708690702863 0.8472667640244165 0.20249713170508993 1 0 0
273 91 1 0.5897 -10.468256766510105 -1.3834486858669823 0.129859230155206 1 1 0
201 67 1 0.5897 0.20260243014366175 -8.556408888596664 0.21040262970664292 1 1 0
420 140 1 0.5897 -9.35839711130153 -6.296099605907022 9.803676694502323 1 0 0
618 206 1 0.5897 -7.73045470230873 -7.007362100987972 6.6797857577160284 1 1 0
413 138 1 0.5897 -7.480048270241607 -3.630436832029149 7.490262631232006 1 0 0
419 140 1 0.5897 -9.016574212717078 -5.400840751264322 8.631703184757594 1 0 0
418 140 2 -1.1794 -9.74820832342186 -5.856508028786292 9.04798824451752 1 0 0
414 138 1 0.5897 -6.814461896326114 -4.981706375288186 7.339322745696166 1 0 0
350 117 1 0.5897 -7.35398820645954 -4.2388237170245935 9.662912630517631 0 0 0
412 138 2 -1.1794 -7.439677327072701 -4.502352599803936 7.883017793335056 1 0 0
429 143 1 0.5897 -6.5736686643951545 -7.077338348519227 8.780400824734537 1 0 0
427 143 2 -1.1794 -6.048589880216524 -6.86159898263623 9.551170569998833 1 0 0
428 143 1 0.5897 -6.666228222952535 -6.902006146601124 10.281368819494121 1 0 0
544 182 2 -1.1794 0.40612426049790606 -7.799220034718605 7.396984343681228 0 1 0
522 174 1 0.5897 -10.065387753767128 2.2564093908537153 7.282548099215657 1 0 0
330 110 1 0.5897 -3.2638407080911316 -0.14346253740836445 6.658189093625226 0 0 0
435 145 1 0.5897 -7.555239394174045 -0.8651157632792525 9.589126468111058 0 0 0
425 142 1 0.5897 -7.486729574583551 -1.292947867569712 6.7407440757807064 1 0 0
400 134 2 -1.1794 -10.556880488692578 -0.562450007210014 7.169143806009043 1 0 0
536 179 1 0.5897 -9.79568091982697 0.2443513117390097 9.944988324128822 1 0 0
402 134 1 0.5897 -11.108844454540469 -0.23491655478466456 6.458976834966586 1 0 0
526 176 2 -1.1794 -12.82604913842043 1.4199095351809436 9.005438784571798 1 0 0
617 206 1 0.5897 -8.312115004640297 -8.024252266846052 7.638608561866083 1 1 0
537 179 1 0.5897 -9.516983717696343 0.11294846740128506 8.462674521065848 1 0 0
426 142 1 0.5897 -8.974611188159964 -1.5175634526842865 6.90719782434728 1 0 0
401 134 1 0.5897 -11.119722481208317 -1.1689806565552985 7.6503009245455305 1 0 0
527 176 1 0.5897 -12.123064586699044 1.7974704348269182 8.47676504177935 1 0 0
535 179 2 -1.1794 -9.11613846252928 0.38980953792944284 9.286700867321118 1 0 0
424 142 2 -1.1794 -8.15505645909428 -1.9780244170748364 6.726785586939015 1 0 0
528 176 1 0.5897 -12.373417714598647 0.9213754802099441 9.685748846230588 1 0 0
442 148 2 -1.1794 -7.3836895522581845 2.6586094595179457 9.662432940462581 0 0 0
337 113 2 -1.1794 -6.329611975867133 0.38837825594282016 6.946329680818459 0 0 0
411 137 1 0.5897 -13.515601435236102 0.4162060194430577 6.216298483841886 1 0 0
631 211 2 -1.1794 -5.479860910010789 -5.443312308315759 6.035858813628547 1 1 0
415 139 2 -1.1794 -8.689485498167816 1.6763560852184867 6.170851967244583 1 0 0
329 110 1 0.5897 -3.4396509585332016 -1.1705764359979671 7.756334225454621 0 0 0
454 152 2 -1.1794 -5.020091165722654 1.3740112014950014 9.103418709221557 0 0 0
335 112 1 0.5897 -5.061896881427051 -5.353026936503575 9.540380677561682 0 0 0
433 145 2 -1.1794 -6.757750239573884 -1.246823403266009 9.955943573116567 0 0 0
351 117 1 0.5897 -7.292983686799687 -2.966324131264618 10.48079660894156 0 0 0
356 119 1 0.5897 1.194338636223966 -6.995836592075442 10.23159368770251 0 0 0
555 185 1 0.5897 -2.4881974660935757 -6.717555986034193 6.3314130903932 0 1 0
416 139 1 0.5897 -7.951459099606675 1.2458677584570435 6.602403915658335 1 0 0
347 116 1 0.5897 -1.1316637436820418 -5.444257757865867 8.805748406820364 0 0 0
348 116 1 0.5897 -1.525340415526605 -6.41951818836332 9.894646357209853 0 0 0
336 112 1 0.5897 -3.590526897460019 -5.036586089141124 9.37643331886866 0 0 0
359 120 1 0.5897 -4.739494802215767 -3.128511524962118 8.611274164593445 0 0 0
346 116 2 -1.1794 -1.8918696777532436 -5.790776278285541 9.272920538860737 0 0 0
632 211 1 0.5897 -4.683876911332131 -5.745255154109299 6.473464928245304 1 1 0
546 182 1 0.5897 -0.04344461844992331 -7.170798172579029 6.832028221863507 0 1 0
553 185 2 -1.1794 -3.1767867869687123 -6.895018647199261 6.972214320234034 0 1 0
554 185 1 0.5897 -2.873273230614368 -6.470269020915898 7.774590480890844 0 1 0
334 112 2 -1.1794 -4.445765779013942 -4.622202897529893 9.490871696517797 0 0 0
410 137 1 0.5897 -13.78926313138876 0.49866189772269287 7.703072912702966 1 0 0
338 113 1 0.5897 -6.008541581763261 0.6463101251815004 7.810471011850663 0 0 0
464 155 1 0.5897 -1.9517358848458404 -0.0688839410057156 10.305105391636628 0 0 0
456 152 1 0.5897 -4.6622212101532465 0.8871841482390348 9.845826158372498 0 0 0
360 120 1 0.5897 -5.503307750237182 -1.8342634444364716 8.793651378940218 0 0 0
328 110 2 -1.1794 -2.7782865272369808 -0.6300946537169434 7.324272982284173 0 0 0
339 113 1 0.5897 -5.570808266940454 0.48236322993932035 6.370442560711308 0 0 0
455 152 1 0.5897 -4.251497497452831 1.725388417898177 8.65393898213512 0 0 0
616 206 2 -1.1794 -7.4855427289820575 -7.622548258624932 7.3709922539152615 1 1 0
444 148 1 0.5897 -6.55613696782409 2.1929614600866305 9.541758978477066 0 0 0
358 120 2 -1.1794 -4.876457477770416 -2.2681781838085247 8.214803276284943 0 0 0
443 148 1 0.5897 -8.056721691161306 1.9943818356767018 9.513987539285186 0 0 0
405 135 1 0.5897 -5.1108040748498365 -2.5524955989804026 6.395079835956712 1 0 0
627 209 1 0.5897 -10.388382803284777 -6.700826852090866 6.316286658870801 1 1 0
430 144 2 -1.1794 -12.421472000805455 -2.2741881222716387 8.35290669445627 1 0 0
404 135 1 0.5897 -5.477302009531438 -3.750223325216912 5.544747319868487 1 0 0
516 172 1 0.5897 -14.351073226830206 2.2916497392601585 9.474431801131919 1 0 0
349 117 2 -1.1794 -7.46902248916925 -3.9044035971931326 10.552454510969065 0 0 0
434 145 1 0.5897 -6.485911408169887 -0.6287995067206538 10.634500069237285 0 0 0
669 223 1 0.5897 -4.137421815758129 -3.2497922320423553 10.730856119691838 0 0 0
465 155 1 0.5897 -1.7800087727951173 -0.19634580484010122 8.80628672675718 0 0 0
357 119 1 0.5897 1.306999326534605 -7.055113272959856 8.722953939780142 0 0 0
835 279 2 -1.1794 -11.314183678632002 -0.21245416839108344 10.80678849187695 1 0 0
652 218 2 -1.1794 -5.957706933441338 -5.125505444681123 12.57881287517911 0 0 0
780 260 1 0.5897 -7.6540032335312915 -3.6765615985284423 15.310691013554614 0 0 0
779 260 1 0.5897 -7.362174296817686 -2.745143621554808 14.153481019943394 0 0 0
778 260 2 -1.1794 -8.08297121655717 -3.143873218528684 14.641018960375218 0 0 0
768 256 1 0.5897 -9.74116205637378 -2.5822438978701854 14.885752688934511 0 0 0
654 218 1 0.5897 -6.485863510024918 -4.772059347166887 11.862992455698688 0 0 0
653 218 1 0.5897 -6.56609118000567 -5.667757311280743 13.080835017458075 0 0 0
662 221 1 0.5897 -9.039753796755871 -4.042641492755569 13.229222675699555 0 0 0
661 221 2 -1.1794 -9.445011056734371 -4.344601445121984 12.4162475572987 0 0 0
663 221 1 0.5897 -8.837649799815066 -4.070525637491216 11.729035008011584 0 0 0
684 228 1 0.5897 -8.547477680158874 -6.536298337250538 14.262887453051972 0 0 0
682 228 2 -1.1794 -7.767345811694107 -6.784954645997468 13.767059561060414 0 0 0
727 243 2 -1.1794 -8.368486501186766 -7.27661454337248 11.146275574283107 1 0 0
806 269 1 0.5897 -4.081336996223907 2.9081377600025498 13.211448828741924 0 0 0
924 308 1 0.5897 -2.7151489319664535 3.453559336185105 15.196136438527756 0 0 0
740 247 1 0.5897 -10.883093987968858 -3.224121177209053 12.163445284712033 1 0 0
766 256 2 -1.1794 -10.568208200534155 -2.100536286532135 14.899100669215146 0 0 0
729 243 1 0.5897 -8.075394809390977 -7.148735154494519 12.048550877040428 1 0 0
771 257 1 0.5897 -11.843220326355379 2.9387472795664262 11.760899192217364 0 0 0
790 264 2 -1.1794 -10.900294258835036 0.26924910517757183 13.60139850498283 0 0 0
762 254 1 0.5897 -9.267238652347435 2.2400355065806536 11.824398952511991 0 0 0
761 254 1 0.5897 -9.424204958140828 1.3677137067129763 13.051712358942208 0 0 0
655 219 2 -1.1794 -0.49119110638049257 -7.4441890564385265 11.153294950467306 0 0 0
792 264 1 0.5897 -11.716341383715577 0.4958635971421188 14.047483131042089 0 0 0
764 255 1 0.5897 -3.7128317347513873 -1.1527315191766592 11.128076800783347 0 0 0
760 254 2 -1.1794 -8.763170499929057 1.7567244401986049 12.479051000924873 0 0 0
837 279 1 0.5897 -11.272023445114256 0.1749793970026996 11.681128731399188 1 0 0
791 264 1 0.5897 -10.685186699240447 -0.6056781440648287 13.924443369862527 0 0 0
794 265 1 0.5897 -1.9363082410921528 -5.045872932730785 16.250883667030347 0 0 0
788 263 1 0.5897 -5.263718617509603 -4.491197617049885 15.602721988169304 0 0 0
1231 411 2 -1.1794 -2.03570322573308 2.378769158900896 16.33313770395737 0 0 0
896 299 1 0.5897 -8.139848777185438 2.6555739018485927 15.447917241192695 0 0 0
797 266 1 0.5897 -1.7741127276743907 1.3921493832011578 13.114678846686694 0 0 0
805 269 2 -1.1794 -4.541615829760282 2.6776777326231294 12.404370437105577 0 0 0
769 257 2 -1.1794 -12.479231923431875 2.794315229080846 12.46154979749299 0 0 0
897 299 1 0.5897 -7.938772996718674 2.688911665643074 13.947705877836738 0 0 0
678 226 1 0.5897 -4.321698878676538 -5.88043402862606 12.357247767522928 0 0 0
802 268 2 -1.1794 -2.7379146190600583 -2.156039855064069 14.970721182123828 0 0 0
816 272 1 0.5897 -0.003026469974560797 -3.9745211522028754 15.253769059476468 0 0 0
767 256 1 0.5897 -11.241720360071577 -2.7783347385429975 14.842895806364314 0 0 0
667 223 2 -1.1794 -3.85929026924034 -2.816620967706081 11.537911901294427 0 0 0
789 263 1 0.5897 -4.93571752697613 -4.51182337939077 14.124828602766026 0 0 0
676 226 2 -1.1794 -3.4964302483562895 -6.365339132860447 12.351995684164681 0 0 0
814 272 2 -1.1794 -0.3139896562191815 -3.41649573111264 14.540933287806059 0 0 0
785 262 1 0.5897 -5.765377626269528 1.192221122022021 12.364743306158244 0 0 0
657 219 1 0.5897 -0.5913129367021082 -7.2359245238542265 12.082252163680819 0 0 0
803 268 1 0.5897 -3.417628998573888 -2.8289094042209584 14.933123328040343 0 0 0
795 265 1 0.5897 -3.014671807372176 -5.4927996538265695 15.286785911871489 0 0 0
720 240 1 0.5897 -0.7684655524750585 -6.368950832299927 14.537991406524446 0 0 0
804 268 1 0.5897 -1.9160634656844948 -2.6403779562734773 14.891937919843226 0 0 0
698 233 1 0.5897 -1.269547328640412 -4.076043548002253 13.202203148506884 0 0 0
699 233 1 0.5897 -1.012541158438502 -4.216417641172228 11.716793807292232 0 0 0
697 233 2 -1.1794 -1.708031640780657 -4.265614049507446 12.372659374468181 0 0 0
718 240 2 -1.1794 -0.11597509604528788 -6.823734300929743 14.005351739985587 0 0 0
677 226 1 0.5897 -2.821030307524845 -5.690443223906948 12.419396192558136 0 0 0
668 223 1 0.5897 -3.057585961783521 -3.2738645889138125 11.791738761686869 0 0 0
793 265 2 -1.1794 -2.0954746161336857 -5.6346521114678865 15.513103487353842 0 0 0
773 258 1 0.5897 -5.965733141763039 -1.1001979244496543 12.971362619658793 0 0 0
774 258 1 0.5897 -5.045755776120986 -2.28896429589825 12.791755336539953 0 0 0
818 273 1 0.5897 -5.415202430796497 -1.9410405320114812 15.226863257359517 0 0 0
787 263 2 -1.1794 -4.53207983596308 -4.427751849161435 14.988748668246808 0 0 0
901 301 2 -1.1794 -5.245280344286062 1.0669428251053645 15.44180632288526 0 0 0
772 258 2 -1.1794 -5.760224652740184 -1.9603410261165832 13.33749090857465 0 0 0
836 279 1 0.5897 -11.440244972708262 -1.1480173667876965 10.964719608941367 1 0 0
765 255 1 0.5897 -3.587875770231358 0.11307926876269647 11.949062234562808 0 0 0
784 262 2 -1.1794 -6.405406443266556 0.49204081733750726 12.237054218643513 0 0 0
828 276 1 0.5897 -3.9639878094739656 0.6563197282372784 14.368206295346356 0 0 0
826 276 2 -1.1794 -3.2094969810963434 0.37495768918295624 13.850650860877794 0 0 0
763 255 2 -1.1794 -3.6337219171120845 -0.20237240160892078 11.046428706937805 0 0 0
895 299 2 -1.1794 -7.464203996994045 2.751608294015446 14.776672987158502 0 0 0
903 301 1 0.5897 -6.038504824133873 1.4521943000738133 15.069490897286345 0 0 0
786 262 1 0.5897 -7.254910749447722 0.9255335510904477 12.318696961495501 0 0 0
827 276 1 0.5897 -2.961735246951961 -0.46945272575850794 14.227092584783211 0 0 0
817 273 2 -1.1794 -5.57841021588451 -1.5870761983655672 16.1011725525796 0 0 0
689 230 1 0.5897 1.3067022548374592 -6.032918106639621 13.208765370432452 0 0 0
739 247 2 -1.1794 -11.705445875408232 -2.8585357949463184 11.837358638963526 1 0 0
888 296 1 0.5897 -10.61945000794051 3.2507921063179417 15.208496710725521 0 0 0
770 257 1 0.5897 -12.011762820655953 3.0310593492970224 13.262652250031309 0 0 0
819 273 1 0.5897 -5.471759931438331 -0.6412050510613199 16.000869432216405 0 0 0
807 269 1 0.5897 -3.896344293462003 2.8184015160267073 11.711474064104605 0 0 0
902 301 1 0.5897 -4.920547836400353 1.7289706943800631 16.052172721781673 0 0 0
757 253 2 -1.1794 -9.910663727805744 -5.83026270972297 15.575819458288406 0 0 0
1101 367 1 0.5897 -10.420650711689056 -0.8816388665024633 16.333750627837876 0 0 0
1137 379 1 0.5897 -2.4601767193878636 -1.0474118678320288 16.325788557796166 0 0 0
866 289 1 0.5897 -12.840920215697366 1.6943778497655515 15.989183299131199 0 0 0
1232 411 1 0.5897 -2.2680006759298443 1.4505048231112205 16.310928672480532 0 0 0
326 109 1 0.5897 -3.537275084685758 -7.500705844632013 10.941626784578984 0 0 0
1150 384 2 -1.1794 -6.520287660453136 -4.3138833190701025 19.214957611612043 0 0 0
1152 384 1 0.5897 -7.069726058287527 -3.860121587995195 19.85410469533211 0 0 0
1227 409 1 0.5897 -9.101839009076766 -2.801497346476026 20.590992003751712 0 0 0
1109 370 1 0.5897 -8.899811871038867 -3.528680690322499 17.841232005018473 0 0 0
1089 363 1 0.5897 -6.739000670412163 -4.465254305759569 17.435837757941623 0 0 0
1151 384 1 0.5897 -6.411303571895143 -5.19425867303477 19.574352849047635 0 0 0
1108 370 2 -1.1794 -9.623455460531545 -4.154702088447086 17.816141969065082 0 0 0
1225 409 2 -1.1794 -8.33228212046447 -3.2556706519636736 20.93411939048392 0 0 0
1253 418 1 0.5897 -4.182965084898723 3.4646239286120757 17.489231145310978 0 0 0
1132 378 2 -1.1794 -1.2267115342179231 -6.543610952719487 18.93404095448849 0 0 0
1124 375 1 0.5897 1.1845625166084055 -5.73416400998193 16.643017963439288 0 0 0
1229 410 1 0.5897 -7.962681101025361 3.7116126324366334 18.589612369431137 0 0 0
1130 377 1 0.5897 -7.477879583650132 -1.58661128726912 18.58032302632065 0 0 0
1248 416 1 0.5897 -5.966581386440758 -1.4701660641213437 20.637238854227316 0 0 0
1218 406 1 0.5897 -13.426659036441745 3.136237277786041 17.507334138694766 0 0 0
1129 377 2 -1.1794 -7.878489792248752 -1.9315109497776852 17.782268020478305 0 0 0
1295 432 1 0.5897 -1.450515851667575 1.8860222798596453 19.48795620192947 0 0 0
1131 377 1 0.5897 -7.1992575831257675 -1.8403517158842106 17.113970780583717 0 0 0
1178 393 1 0.5897 -1.1216142672173426 -6.201615139398171 20.728859895230645 0 0 0
1246 416 2 -1.1794 -6.447957783026612 -0.8761963174373744 20.061318788734262 0 0 0
1233 411 1 0.5897 -1.9761478018460483 2.5890678569884074 17.265119739598223 0 0 0
1125 375 1 0.5897 1.0361765874919069 -4.3952586912563785 17.333776781201077 0 0 0
1251 417 1 0.5897 -11.714821980639115 1.9648783136520507 21.49354936078324 0 0 0
1121 374 1 0.5897 -4.906211646841623 -3.4718383680119747 18.545422358802437 0 0 0
1186 396 2 -1.1794 1.3436458972271996 -4.1448661598786165 19.16060428838347 0 0 0
1099 367 2 -1.1794 -10.04684559322237 -0.2893278177694363 16.986231806896143 0 0 0
1236 412 1 0.5897 -7.964399555384819 -0.022726067104095193 20.2711978703081 0 0 0
1009 337 2 -1.1794 -11.486203059901623 3.6529545405996906 21.097497094781453 0 -1 0
1100 367 1 0.5897 -9.260642611425913 -0.7388900732792578 17.29608769736247 0 0 0
1234 412 2 -1.1794 -8.821629662704645 0.4027295371777484 20.251836971088387 0 0 0
1259 420 1 0.5897 -9.257284190283343 1.9476325795887242 19.489219959661035 0 0 0
1258 420 2 -1.1794 -9.43128587903674 2.854742348181354 19.238232588558798 0 0 0
1260 420 1 0.5897 -10.205749857815729 3.099556116532934 19.744736851548765 0 0 0
1216 406 2 -1.1794 -12.543437941519494 2.7799517172957984 17.411263064575493 0 0 0
1197 399 1 0.5897 -9.527672174025994 2.6078011827087515 17.38036470806582 0 0 0
1206 402 1 0.5897 -11.313058884025605 0.17966687962318773 18.125481504113107 0 0 0
1235 412 1 0.5897 -9.443906239353598 -0.3030083596127664 20.427549935971783 0 0 0
1205 402 1 0.5897 -12.279986216937994 1.3231201372094645 18.347695048475465 0 0 0
1011 337 1 0.5897 -12.327849543934812 4.03282149616302 20.84535625860579 0 -1 0
1110 370 1 0.5897 -10.402273441031934 -3.6159061958435768 17.67700582180389 0 0 0
1196 399 1 0.5897 -9.687529833672077 1.4030239292483753 16.477645725677363 0 0 0
1165 389 2 -1.1794 0.06150051782711863 -1.8002742817053763 17.97333109612164 0 0 0
1272 424 1 0.5897 -0.1724094141117387 -0.022387691919643515 20.447618457294233 0 0 0
1143 381 1 0.5897 -8.640160056253169 -5.013426930056461 21.546423430017434 0 0 0
1250 417 1 0.5897 -11.828982863146084 0.7188488892954474 20.64132963907388 0 0 0
1088 363 1 0.5897 -6.873318941870753 -5.64811244313342 16.50054970141465 0 0 0
1142 381 1 0.5897 -8.823218900361278 -6.2563855615361055 20.701765446219376 0 0 0
1204 402 2 -1.1794 -12.065150067425545 0.4428095626472377 18.65595579038396 0 0 0
1249 417 2 -1.1794 -11.925332761985294 1.032363759284781 21.540649760678907 0 0 0
1252 418 2 -1.1794 -4.856915208586357 2.7899191770381577 17.571330073415623 0 0 0
1240 414 2 -1.1794 -4.3152455795937685 0.3651409014879299 18.731781630461956 0 0 0
1123 375 2 -1.1794 1.0963713483376427 -4.797458486924246 16.467197452184998 0 0 0
1097 366 1 0.5897 -9.244740045957105 -5.79416174610699 18.625369369894297 0 0 0
1247 416 1 0.5897 -5.799788041488805 -0.5868466294264838 19.419126034751336 0 0 0
1010 337 1 0.5897 -11.05190869264763 4.343083976052348 21.598849366071878 0 -1 0
1145 382 1 0.5897 -1.1224529669068382 -3.2079322217262405 17.81853248874008 0 0 0
1122 374 1 0.5897 -4.608113841318936 -2.467915657099816 17.45223988913659 0 0 0
1242 414 1 0.5897 -3.4921211738564804 0.1044483314578617 18.318527103037084 0 0 0
1270 424 2 -1.1794 -1.0350591357172423 0.3899122127896266 20.4932601441924 0 0 0
1271 424 1 0.5897 -1.64744845847766 -0.30854908086853783 20.262325916218405 0 0 0
1144 382 2 -1.1794 -1.6658113295237449 -3.9929357079513803 17.749979843138245 0 0 0
1263 421 1 0.5897 -1.4328115705434676 -2.7838461018242615 20.70690488420959 0 0 0
1133 378 1 0.5897 -1.2327075084350003 -5.62290546754718 18.67255228886416 0 0 0
1188 396 1 0.5897 0.6480920842701945 -3.6834749046414847 19.629205436333415 0 0 0
1257 419 1 0.5897 -3.30068509353974 -2.152459512567674 19.5420036676998 0 0 0
1255 419 2 -1.1794 -2.9032982980702133 -1.8440153478024968 20.35643141014449 0 0 0
1261 421 2 -1.1794 -0.6657248799541389 -3.242640348698444 21.04941430024572 0 0 0
1256 419 1 0.5897 -3.5946814734864523 -1.9384374755290619 21.011681357147662 0 0 0
1120 374 2 -1.1794 -4.189748865900526 -2.979776088492324 18.144484617512727 0 0 0
1146 382 1 0.5897 -2.5595669359446624 -3.678974846130874 17.88739532477846 0 0 0
1087 363 2 -1.1794 -6.728751121572962 -4.70198311752757 16.508359481594997 0 0 0
1045 349 2 -1.1794 -3.6588313824447987 3.526710628211081 20.869550769995865 0 -1 0
1296 432 1 0.5897 -2.185133398644755 3.1789876372791994 19.771376367284233 0 0 0
1254 418 1 0.5897 -5.677546528983052 3.277629887933605 17.64157539753049 0 0 0
1135 379 2 -1.1794 -2.2275374554620093 -0.4660437084897602 17.049799969397856 0 0 0
1286 429 1 0.5897 -4.0793256353999725 0.4819456232019732 20.738256905163208 0 0 0
1136 379 1 0.5897 -1.4297669830112127 -0.8470187648126046 17.416763002935305 0 0 0
1219 407 2 -1.1794 -10.577820288187862 -1.7961018966845401 20.38043690477091 0 0 0
1241 414 1 0.5897 -4.507363514237573 1.2266032021717823 18.361512247199737 0 0 0
1187 396 1 0.5897 1.370289116240361 -5.012349443371721 19.56417601295891 0 0 0
1141 381 2 -1.1794 -8.658725274415705 -5.968889421223166 21.599898839353965 0 0 0
1177 393 2 -1.1794 -1.1192261074972798 -5.849221518004272 21.61889847538185 0 0 0
1047 349 1 0.5897 -4.426280205964158 3.9628255899808256 20.49933492359431 0 -1 0
1179 393 1 0.5897 -0.9194001678507 -4.919713829415707 21.508433578064786 0 0 0
1285 429 2 -1.1794 -4.033985306852599 0.9615126129794511 21.565479111225724 0 0 0
1217 406 1 0.5897 -11.967190196232309 3.538574703740192 17.50403619351671 0 0 0
1294 432 2 -1.1794 -1.6709071415752899 2.7322658232682038 19.098831854536122 0 0 0
1046 349 1 0.5897 -3.4522575629392733 4.031269763002616 21.656366770133502 0 -1 0
1226 409 1 0.5897 -8.048561004171233 -2.7207450329958736 21.67552035063703 0 0 0
1287 429 1 0.5897 -3.892737635995183 1.8723023598326964 21.307362194288707 0 0 0
1221 407 1 0.5897 -10.977017282807083 -1.9278446316550486 19.52041531476143 0 0 0
1262 421 1 0.5897 -0.34353288038527374 -2.6794053391483112 21.753167442710186 0 0 0
1195 399 2 -1.1794 -9.538404220708347 2.3482930155727946 16.459006037540753 0 0 0
758 253 1 0.5897 -9.678700108897498 -5.352718355785847 16.372355791813916 0 0 0
40 14 2 -1.1794 -15.09214676823196 3.5785097723007837 1.8451473906978395 1 0 0
177 59 1 0.5897 -14.257438023074108 4.542995335937038 3.269471987419578 1 0 0
56 19 1 0.5897 -12.570230181633395 5.952118249077204 1.070608030868146 1 0 0
66 22 1 0.5897 -13.482364644754266 2.958481108748769 1.2876585076693692 1 0 0
65 22 1 0.5897 -12.030962281066568 3.3889825033065026 1.2917015203370052 1 0 0
64 22 2 -1.1794 -12.592649169298431 2.6218921327477407 1.1810505442037413 1 0 0
191 64 1 0.5897 -12.788268972007408 6.2292437890610906 4.13071334090201 1 0 0
183 61 1 0.5897 -12.2911833640271 3.570782311493483 4.331884012177076 1 0 0
175 59 2 -1.1794 -13.840740809052644 4.631159762871141 4.12675651215093 1 0 0
176 59 1 0.5897 -14.55684569658664 4.527791573064643 4.753486202292893 1 0 0
181 61 2 -1.1794 -11.416355058896798 3.3677836007347484 4.663136337451649 1 0 0
55 19 2 -1.1794 -13.476273252328518 6.156376140431858 0.8390496053001985 1 0 0
42 14 1 0.5897 -15.483660094041191 4.15939987164959 1.1928568387262026 1 0 0
108 36 1 0.5897 -10.257441992344589 2.8317933563967372 3.5096298099255154 1 0 0
215 72 1 0.5897 -12.463112824972177 8.598458425576766 3.3423644716990744 1 0 0
190 64 2 -1.1794 -12.186585709626671 6.97360197106816 4.138380546514037 1 0 0
101 34 1 0.5897 -4.430502715957751 3.1943400830107187 1.3921935087950914 1 0 0
153 51 1 0.5897 -12.823119362381416 9.201125958964266 1.1678141895897376 1 0 0
216 72 1 0.5897 -13.394153979641644 9.791834631980343 3.370248791177262 1 0 0
162 54 1 0.5897 -14.63484396079781 6.73377116039857 2.0492159580068727 1 0 0
91 31 2 -1.1794 -5.752198441333946 6.3306492707953215 0.6597205280441899 1 0 0
148 50 2 -1.1794 -18.330317852130417 10.78908881737405 1.7260270888455733 1 0 0
174 58 1 0.5897 -16.77819079247889 9.894782294108623 1.6153524728797717 1 0 0
214 72 2 -1.1794 -12.601234381592358 9.460032674644694 2.948993619912755 1 0 0
194 65 1 0.5897 -13.864525057344474 11.98127285309791 2.3814834163126966 1 0 0
206 69 1 0.5897 -15.116844751145933 7.421565411058449 4.443686418898055 1 0 0
160 54 2 -1.1794 -15.235763373152587 7.121082362994141 2.6857534054455217 1 0 0
173 58 1 0.5897 -15.309132947416852 10.259184795703845 1.6473026362572532 1 0 0
85 29 2 -1.1794 -11.070538152018926 4.959561590987729 1.3802056968945977 1 0 0
152 51 1 0.5897 -13.034310749889379 7.943219205011953 0.352359784854916 1 0 0
291 97 1 0.5897 -15.481837510436314 10.928609039103783 4.342917988909765 1 0 0
161 54 1 0.5897 -15.484221575127197 7.961402812168025 2.300702884604588 1 0 0