#include		in.partitions
include		in.temp
variable        temperature equal 253.83
variable	tempDamp equal 100.0
include		in.pressure
variable        pressure equal 7250.0
variable        pressureDamp equal 1000.0 # This is 1 ps
include		in.seed
variable        seed equal 745823

units		real
atom_style	full
read_restart	restart.lmp.${pid}
read_restart	restart.lmp.1
Reading restart file ...
  restart file = 30 Jul 2021, LAMMPS = 30 Jul 2021
  restoring atom style full from restart
  orthogonal box = (0.59681431 1.7944997 0.72811207) to (17.610758 21.834678 21.485084)
  2 by 4 by 4 MPI processor grid
  restoring pair style lj/cut/tip4p/long/omp from restart
  restoring bond style harmonic/omp from restart
  restoring angle style harmonic/omp from restart
  864 atoms
  576 bonds
  288 angles
Finding 1-2 1-3 1-4 neighbors ...
  special bond factors lj:    0        0        0       
  special bond factors coul:  0        0        0       
     2 = max # of 1-2 neighbors
     1 = max # of 1-3 neighbors
     1 = max # of 1-4 neighbors
     2 = max # of special neighbors
  special bonds CPU = 0.002 seconds
  read_restart CPU = 0.007 seconds
include 	in.setup
variable	out_freq equal 1000
variable	out_freq2 equal 10000
variable	out_freq3 equal 1000

timestep	2.0

neigh_modify    delay 7 every 1

include		in.tip4p
# This is TIP4P/Ice

# create groups ###
group ox type 2
288 atoms in group ox
group hy type 1
576 atoms in group hy

# set charges - beside manually ###
set group ox charge -1.1794
Setting atom values ...
  288 settings made for charge
set group hy charge 0.5897
Setting atom values ...
  576 settings made for charge

# ### TIP3P Potential Parameters ###
pair_style lj/cut/tip4p/long/omp 2 1 1 1 0.1577 8.5
pair_coeff 1 1*2 0.000 0.000
pair_coeff 2 2 0.21084 3.1668
bond_style  harmonic
bond_coeff  1 450 0.9572
angle_style harmonic
angle_coeff 1 55 104.52
kspace_style pppm/tip4p/omp 1.0e-5
pair_modify tail yes

thermo          ${out_freq}
thermo          1000
thermo_style    custom step temp pe etotal epair emol press lx ly lz vol pxx pyy pzz pxy pxz pyz enthalpy

restart 	${out_freq3} restart.lmp.${pid} restart2.lmp.${pid}
restart 	1000 restart.lmp.${pid} restart2.lmp.${pid}
restart 	1000 restart.lmp.1 restart2.lmp.${pid}
restart 	1000 restart.lmp.1 restart2.lmp.1


include         in.dump
dump            myDump all atom ${out_freq2} dump.water.${pid}
dump            myDump all atom 10000 dump.water.${pid}
dump            myDump all atom 10000 dump.water.1
dump            myDump2 all dcd ${out_freq2} dump.dcd
dump            myDump2 all dcd 10000 dump.dcd
dump_modify     myDump append yes
dump_modify     myDump2 append yes


variable natoms 	equal  "count(all)"                        # NUMBER ATOMS
variable H      	equal  "enthalpy/v_natoms"                 # ENTHALPY-per-atom
variable Vol      	equal  "vol/v_natoms"                 # volume-per-atom
fix AVG all 		ave/time ${out_freq} 1 ${out_freq} v_Vol v_H file vol_enthalpy.dat
fix AVG all 		ave/time 1000 1 ${out_freq} v_Vol v_H file vol_enthalpy.dat
fix AVG all 		ave/time 1000 1 1000 v_Vol v_H file vol_enthalpy.dat


timer           timeout 23:50:00 every 1000
New timer settings: style=normal  mode=nosync  timeout=23:50:00

fix 		1 all shake 1e-6 200 0 b 1 a 1
       0 = # of size 2 clusters
       0 = # of size 3 clusters
       0 = # of size 4 clusters
     288 = # of frozen angles
  find clusters CPU = 0.001 seconds
fix             2 all nph iso ${pressure} ${pressure} ${pressureDamp}
fix             2 all nph iso 7250 ${pressure} ${pressureDamp}
fix             2 all nph iso 7250 7250 ${pressureDamp}
fix             2 all nph iso 7250 7250 1000
fix             3 all temp/csvr ${temperature} ${temperature} ${tempDamp} ${seed}
fix             3 all temp/csvr 253.83 ${temperature} ${tempDamp} ${seed}
fix             3 all temp/csvr 253.83 253.83 ${tempDamp} ${seed}
fix             3 all temp/csvr 253.83 253.83 100 ${seed}
fix             3 all temp/csvr 253.83 253.83 100 745823

run             250000
PPPM initialization ...
  extracting TIP4P info from pair style
  using 12-bit tables for long-range coulomb (../kspace.cpp:340)
  G vector (1/distance) = 0.37407244
  grid = 24 24 24
  stencil order = 5
  estimated absolute RMS force accuracy = 0.0031826528
  estimated relative force accuracy = 9.5844645e-06
  using double precision FFTW3
  3d grid and FFT values/proc = 3549 432
Last active /omp style is kspace_style pppm/tip4p/omp
Neighbor list info ...
  update every 1 steps, delay 7 steps, check yes
  max neighbors/atom: 2000, page size: 100000
  master list distance cutoff = 10.8154
  ghost atom cutoff = 10.8154
  binsize = 5.4077, bins = 4 4 4
  1 neighbor lists, perpetual/occasional/extra = 1 0 0
  (1) pair lj/cut/tip4p/long/omp, perpetual
      attributes: half, newton on, omp
      pair build: half/bin/newton/omp
      stencil: half/bin/3d
      bin: standard
Per MPI rank memory allocation (min/avg/max) = 10.19 | 10.20 | 10.20 Mbytes
Step Temp PotEng TotEng E_pair E_mol Press Lx Ly Lz Volume Pxx Pyy Pzz Pxy Pxz Pyz Enthalpy 
11000000    263.99211   -3856.6263   -3404.1529   -3856.6263            0    7262.2077    17.013944    20.040178    20.756972    7077.3483     7063.926    8047.1078    6675.5893   -443.65396   -152.46601    1223.6988   -2654.5778 
11001000    260.24418   -3896.4278   -3450.3782   -3896.4278            0    7134.0891    17.045109    20.076887    20.794994    7116.3118    5958.8204    8982.3394    6461.1074   -2172.3084    425.68971   -696.99287   -2709.9731 
11002000    252.18644   -3889.4565   -3457.2176   -3889.4565            0    6874.7553    17.044246    20.075871    20.793941    7115.2309     6534.935    5938.6517    8150.6792    976.59564   -793.19188   -1038.3256   -2743.8356 
11003000    246.21637   -3892.7606   -3470.7541   -3892.7606            0    5768.6955    17.064095     20.09925    20.818156    7140.1177    4809.8218    4166.1219    8330.1428    342.57923    479.69181   -1690.6853   -2870.0524 
11004000    246.16866   -3916.2954   -3494.3707   -3916.2954            0    5790.9409    17.060775    20.095339    20.814105    7135.9505    7025.3747     4325.098    6022.3499    496.80404    559.09913   -1715.4617   -2891.7045 
11005000    252.86061   -3909.7134    -3476.319   -3909.7134            0    8105.7136    17.139145    20.187649    20.909717    7234.7421    8657.9678    6990.4705    8668.7025   -256.15582   -1636.0733    625.53554   -2621.0747 
11006000    258.37913   -3897.6406   -3454.7877   -3897.6406            0    8137.9023    17.084806    20.123644    20.843423    7166.1471    6858.4745    8383.9751    9171.2572   -1133.5676   -1108.6315   -512.97333   -2604.2881 
11007000    254.27029   -3875.7445   -3439.9339   -3875.7445            0    8450.8425    17.009514     20.03496    20.751567    7071.8211    10561.051    7335.0258    7456.4506   -1474.0241   -239.16583    120.66174   -2568.3541 
11008000    262.38127   -3899.0105    -3449.298   -3899.0105            0    8312.8282    17.080048     20.11804    20.837618    7160.1618    8469.3747    7894.8667    8574.2432   -201.24872    125.44015   -770.90461   -2581.2424 
11009000    248.41912   -3855.5917   -3429.8099   -3855.5917            0    9286.2789    17.071389    20.107841    20.827055    7149.2775    10133.575    9300.3288    8424.9326   -369.70156   -846.88775    608.97485   -2461.5771 
11010000    257.69382   -3875.5896   -3433.9112   -3875.5896            0    8397.7271    17.052891    20.086053    20.804487    7126.0627    8167.5978    6858.4091    10167.174   -840.63881    16.772065    982.08386   -2561.1663 
11011000    261.20331    -3885.251   -3437.5575    -3885.251            0    6961.1568    17.073578     20.11042    20.829725    7152.0284    5160.9261    7282.6388    8439.9055   -279.09599    847.94596   -805.66716    -2711.474 
11012000     253.7198   -3830.3938   -3395.5268   -3830.3938            0    7560.9959    17.090749    20.130645    20.850674    7173.6285    6092.9137    8665.2933    7924.7806   -1142.3602    42.716708   -2602.6771   -2604.4953 
11013000    250.91107   -3851.5836   -3421.5307   -3851.5836            0     5892.872    17.091878    20.131974    20.852051    7175.0498    5032.6011    7849.0069    4797.0081    485.93239   -1569.8839   -120.28095   -2804.8962 
11014000    243.99986   -3903.0098   -3484.8024   -3903.0098            0    7145.9911    17.052076    20.085094    20.803493    7125.0414    7341.3931    4901.5246    9195.0556    941.81084    2485.6495    249.24548   -2742.2523 
11015000     263.9362   -3893.7877   -3441.4101   -3893.7877            0    7616.2294    17.013186    20.039286    20.756047    7076.4025    7030.1812    8608.6925    7209.8144    515.67436   -1045.1603    432.17814   -2655.3994 
11016000    260.34051   -3885.6474   -3439.4327   -3885.6474            0    8317.9049    16.973097    19.992067    20.707139    7026.4973    7293.5763    8479.2626    9180.8758    301.83183    142.96524   -496.87993   -2587.0616 
11017000     253.8141   -3887.0277   -3451.9991   -3887.0277            0    7403.5296     17.05589    20.089585    20.808146    7129.8227    8626.3267    6341.8846    7242.3776   -619.76613   -943.34012    672.66511   -2682.1715 
11018000    245.03656    -3918.041   -3498.0567    -3918.041            0    7131.7089    17.066302     20.10185    20.820849     7142.889    6561.7017    7166.2113    7667.2138   -83.252255     419.0354   -1056.8704   -2755.1344 
11019000    271.59255   -3942.5147   -3477.0144   -3942.5147            0    8199.3539    16.977021    19.996689    20.711926    7031.3719    9322.2974    7601.1995    7674.5649   -1459.3577   -1259.9974    1012.5121   -2636.2088 
11020000    258.81876   -3946.3592   -3502.7527   -3946.3592            0    6646.1868    16.989334    20.011192    20.726948    7046.6819     6340.369    8472.1348    5126.0566    90.149527    -294.7869    1168.0441   -2819.7332 
11021000     253.4512   -3928.3968   -3493.9901   -3928.3968            0    7759.8055    17.005106    20.029768    20.746189    7066.3249    6282.5204    8637.8115    8359.0847   -385.28973   -1441.6077   -77.531403   -2694.3025 
11022000    262.61509   -3895.6754   -3445.5622   -3895.6754            0    6666.3503    17.009444    20.034878    20.751482     7071.734    7886.1437    6208.1771    5904.7302    405.25153   -512.55082    750.08402   -2758.0349 
11023000    245.41636   -3912.7575   -3492.1222   -3912.7575            0     7302.547    16.967251    19.985181    20.700007    7019.2397    7438.8891    6640.4549    7828.2971   -151.36134   -1602.5164   -1338.5886   -2744.5721 
11024000    255.97705   -3854.7639    -3416.028   -3854.7639            0    8126.1855    17.042353    20.073641    20.791631    7112.8601    8869.9238    8043.7099    7464.9227    31.693005   -346.37223   -1135.3324   -2573.0682 
11025000    265.59641    -3917.812   -3462.5889    -3917.812            0    7579.3934    17.001376    20.025376    20.741639    7061.6768    4554.3486    7268.4025    10915.429   -419.46927    127.61715     656.4354   -2682.0075 
11026000    257.02484    -3874.598   -3434.0662    -3874.598            0    6465.7168    17.050984    20.083807    20.802161    7123.6724    6093.1578    7081.9941    6221.9985    56.882924    84.886616    1134.2015   -2762.3335 
11027000    254.51595   -3881.9646    -3445.733   -3881.9646            0    6394.0528    17.099199    20.140598    20.860983    7184.2739    8532.9997    4692.2809    5956.8779   -608.36728    712.64352    -1038.499   -2775.7944 
11028000    250.24226   -3903.1467     -3474.24   -3903.1467            0    8026.3673    17.036144    20.066328    20.784056     7105.089    8127.4937     8815.001    7136.6072    787.99841   -320.48732   -1120.6905   -2642.5443 
11029000    248.12859   -3921.3154   -3496.0314   -3921.3154            0    6964.6696     17.01254    20.038525    20.755259    7075.5965    8471.0057    5870.0437    6552.9593    835.02231    105.92793   -1262.2891    -2777.345 
11030000    268.63069   -3885.8851   -3425.4613   -3885.8851            0    6900.3513     17.00906    20.034426    20.751014    7071.2559    8032.4698    5634.0144    7034.5697    699.50706    -347.3766    793.95502   -2713.8487 
11031000    265.61381   -3886.8443   -3431.5913   -3886.8443            0    5578.2522    17.086534     20.12568    20.845532    7168.3224    5119.1528     6489.568    5126.0358   -831.22358    580.81854   -925.21556   -2848.4262 
11032000    253.37005   -3866.4556    -3432.188   -3866.4556            0    6918.7375    17.055371    20.088975    20.807513    7129.1725    8252.9931    4500.1776    8003.0419   -710.38684   -767.08266    2490.2637   -2712.8353 
11033000    271.51555   -3921.9586   -3456.5902   -3921.9586            0    6083.6185    17.062013    20.096797    20.815616    7137.5041    6415.9143    6902.7827    4932.1585    1347.5957    797.47308    -563.9345    -2823.327 
11034000    243.46782     -3920.31   -3503.0145     -3920.31            0    6284.4487    17.111818    20.155461    20.876378    7200.1917    6857.8884    6842.9297     5152.528   -175.30957     1786.649   -551.53181   -2843.1008 
11035000    258.29131   -3959.9832   -3517.2808   -3959.9832            0    7690.1093    17.028541    20.057372     20.77478    7095.5804    8240.7984    7428.6211    7400.9082    182.89343   -281.52856    1385.5073   -2721.4947 
11036000    244.69814   -3910.5607   -3491.1564   -3910.5607            0    7360.8196     17.04329    20.074744    20.792774    7114.0332    5255.4002    8179.9331    8647.1254    841.47519     1606.807    976.60833   -2727.4649 
11037000    250.47185   -3900.4972    -3471.197   -3900.4972            0    6649.5574    17.060829    20.095403    20.814172    7136.0187    7177.8358    6132.2587    6638.5777    -664.3383   -1238.4164    465.67735   -2779.1675 
11038000    251.15681   -3894.3201   -3463.8459   -3894.3201            0    5888.2615    17.079415    20.117295    20.836847    7159.3662    4750.1171    6165.7631    6748.9044   -644.56485   -1007.8303    630.47894   -2849.0407 
11039000    250.10303   -3898.8131   -3470.1451   -3898.8131            0     6930.393     17.07724    20.114733    20.834193    7156.6313    6726.6779    6987.6981    7076.8031   -383.55946   -380.52804    497.82205   -2746.8052 
11040000    248.67932   -3883.4074   -3457.1796   -3883.4074            0    8227.8239    17.066751    20.102379    20.821397    7143.4524    6066.3432     10749.94    7867.1883   -1663.0065   -60.220024    27.328997   -2600.0055 
11041000    252.72588   -3884.0775    -3450.914   -3884.0775            0     7407.373    17.038544    20.069155    20.786984    7108.0922    7298.4557    8900.5723    6023.0912   -1066.1339   -64.502505   -182.12409   -2683.0343 
11042000    249.10956    -3880.456   -3453.4908    -3880.456            0    8133.6121    16.998344    20.021804     20.73794     7057.899    7097.1654    9390.9004    7912.7704    1115.7625   -108.10999    2521.2633   -2616.2801 
11043000    254.84041   -3895.7583   -3458.9705   -3895.7583            0    5927.4303    17.080061    20.118056    20.837635     7160.179     5916.567     6782.664    5083.0598   -439.24768    1231.3484    -314.5208   -2840.0053 
11044000    259.28552   -3910.9994   -3466.5929   -3910.9994            0    8386.8058    17.024162    20.052215    20.769438    7090.1081    7653.8272    8584.2814    8922.3087    664.69807    919.90409    1191.7612   -2599.3808 
11045000    249.68335   -3935.8768   -3507.9281   -3935.8768            0    7759.3428     17.09926     20.14067    20.861058    7184.3513    6100.3424    7853.9583    9323.7275   -598.07571   -186.99328    1403.3739   -2694.9322 
11046000    263.65848   -3895.7032   -3443.8016   -3895.7032            0     6633.444    17.134548    20.182234    20.904108     7228.922    6336.8008    8246.8173    5316.7138    478.41508    761.11156    97.349028   -2744.4614 
11047000    255.45637   -3894.6664   -3456.8229   -3894.6664            0    6691.6238    17.077684    20.115256    20.834735    7157.1895    6809.9262    6520.7733    6744.1718   -303.43514    445.11032    503.87753   -2758.3494 
11048000    251.72698   -3880.0871   -3448.6357   -3880.0871            0    10242.211    17.012438    20.038405    20.755135    7075.4695    9729.3614    9498.4602    11498.812   -845.45298    1067.2277   -588.51532   -2391.7576 
11049000    262.62133   -3888.1967   -3438.0727   -3888.1967            0    7151.4501    17.099669    20.141151    20.861556     7184.866    7650.9222    7048.8948    6754.5332   -388.90352    365.94903    547.38525   -2688.7159 
11050000    256.55226   -3878.0127   -3438.2909   -3878.0127            0    8515.3143    16.995001    20.017866    20.733861    7053.7351      7138.69    10939.066    7468.1869    923.94315    964.52894    122.50132   -2562.3079 
11051000    270.17437   -3867.4542   -3404.3846   -3867.4542            0    6433.5453    17.058793    20.093005    20.811688    7133.4646    5319.7654    7277.1817    6703.6888   -1229.8407    1493.0711     1418.786   -2735.0755 
11052000    245.71589   -3879.7407    -3458.592   -3879.7407            0    9437.5737    16.981393    20.001838    20.717259    7036.8049    7791.5573    11163.122    9358.0413   -946.78648    514.33551   -1580.2422    -2490.065 
11053000    248.22894   -3899.2331   -3473.7772   -3899.2331            0     8896.364     17.03588    20.066017    20.783734    7104.7587    11027.266    7795.4696    7866.3562    1643.9729    933.36283   -1113.9037   -2551.9749 
11054000    253.58611   -3860.8282   -3426.1903   -3860.8282            0    7884.4892    17.045604     20.07747    20.795597    7116.9315    8149.9329    8075.4122    7428.1224   -924.28155    -47.23848    2187.8126   -2607.8343 
11055000    239.50071   -3885.9122   -3475.4162   -3885.9122            0    6144.0247    17.093926    20.134387     20.85455    7177.6296    6616.8882    6341.1529     5474.033    774.12561      580.144     648.5464   -2832.2697 
11056000    261.54153   -3878.4727   -3430.1995   -3878.4727            0    9948.1978    16.965374     19.98297    20.697717    7016.9105    10920.902     9077.793    9845.8986     1560.215   -142.68009     1206.671   -2412.1562 
11057000    255.17952   -3904.8175   -3467.4486   -3904.8175            0    7605.6208      17.0312    20.060504    20.778024    7098.9046    8053.8827    7706.2881    7056.6915    1479.9441   -25.104984    113.48924   -2680.0368 
11058000    256.01185   -3903.2341   -3464.4385   -3903.2341            0    6291.9141    17.045992    20.077927    20.796071    7117.4177    4303.2214    8436.8953    6135.6256    -301.1291   -17.222755   -187.83868   -2811.3364 
11059000     255.7815    -3900.118   -3461.7172    -3900.118            0    6035.8804    17.056697    20.090536     20.80913    7130.8348    7720.2794    6443.1068     3944.255    1458.9095   -745.50752    -1065.698   -2834.0103 
11060000    246.54512   -3919.6784   -3497.1085   -3919.6784            0    8139.1988    16.983602     20.00444    20.719955    7039.5517    7956.2763    7935.5864    8525.7337   -1191.5621   -1130.8242    208.97451   -2661.5006 
11061000    237.96801   -3857.3467   -3449.4776   -3857.3467            0    7511.0943    16.986819    20.008229     20.72388    7043.5529    8689.7121    7379.4716    6464.0991   -510.16164   -1413.0131   -80.272742   -2677.9155 
11062000     261.1042   -3881.2222   -3433.6985   -3881.2222            0    5261.1419    17.040042    20.070918    20.788811    7109.9666    7644.9585    5233.1578    2905.3094   -1281.6961   -1282.2089    64.088215   -2888.1625 
11063000    268.05073   -3888.7504   -3429.3206   -3888.7504            0     6878.291    17.053667    20.086967    20.805434    7127.0353    7730.9538    5866.8013    7037.1179    968.71382   -1027.1422    183.75134   -2714.3876 
11064000    255.09153   -3903.0226   -3465.8044   -3903.0226            0    5679.1831    17.024025    20.052053    20.769271    7089.9363    6062.6179     4503.712    6471.2195    -171.0829   -72.997448    102.36177     -2878.58 
11065000    244.67898   -3922.1774    -3502.806   -3922.1774            0    6182.8297     16.98044    20.000715    20.716097    7035.6206      7013.79    4410.3281    7124.3712   -1457.0034   -1550.0752    900.94095   -2868.4025 
11066000    258.71443   -3880.7262   -3437.2985   -3880.7262            0    8398.6978    16.995684    20.018671    20.734695     7054.586    7676.4153    9300.1973    8219.4809    1356.6644    474.64765   -564.15648   -2573.2078 
11067000    256.57858   -3937.6763   -3497.9094   -3937.6763            0    10443.199    16.886548    19.890124     20.60155    6919.5565    11123.888    9328.3016    10877.408    162.67184   -103.75173    258.13144   -2444.0378 
11068000    254.16281   -3910.3646   -3474.7382   -3910.3646            0    7541.7074     17.04179    20.072978    20.790944    7112.1554    8014.9815    6080.9417    8529.1989    471.15436   -446.35821   -601.39946    -2692.486 
11069000    241.75625   -3907.2302   -3492.8682   -3907.2302            0    7961.9548    16.996277     20.01937    20.735418    7055.3247    8844.0583    9033.9805    6007.8256   -144.88814   -956.88978   -1279.2007   -2673.6255 
11070000    247.26214    -3883.122   -3459.3232    -3883.122            0    5745.0809    17.083969    20.122659    20.842402     7165.094    6754.1378    5107.1801    5373.9246    1210.3783    2004.8642    1034.0615   -2858.9878 
11071000    256.76978   -3913.4285   -3473.3339   -3913.4285            0    6744.3251    17.056829    20.090691    20.809291    7131.0005    6424.3689    8539.0615     5269.545    2948.1592    156.73988    25.923447   -2771.9353 
11072000      264.298   -3858.2189   -3405.2212   -3858.2189            0    7208.3849    17.084849    20.123696    20.843476    7166.2022    9014.9628     6954.606    5655.5859    170.84839    -23.86093   -1172.8444   -2651.8606 
11073000    254.45249   -3918.6961   -3482.5733   -3918.6961            0    6855.8831    17.024208    20.052268    20.769494    7090.1647    5815.0528    6175.7115    8576.8849    554.96803   -401.22979    277.32153   -2773.6559 
11074000    251.12385   -3907.0833   -3476.6656   -3907.0833            0    8363.4596    17.081368    20.119595    20.839229    7161.8219     9878.307    6622.8406    8589.2311   -382.49135    1257.7971     142.7832   -2603.1204 
11075000    253.03483   -3887.4357   -3453.7426   -3887.4357            0    8400.0744    17.050426     20.08315     20.80148    7122.9729    9869.7064    8980.8976     6349.619   -784.55612    520.33819     -849.001   -2581.1324 
11076000    253.66292   -3890.0898   -3455.3202   -3890.0898            0    9041.6405    17.033521    20.063238    20.780856    7101.8074    10225.584    8048.5304    8850.8068   -1199.7108   -1274.8909     1648.292   -2518.8542 
11077000    246.89011   -3888.4431   -3465.2819   -3888.4431            0     7096.485     16.98151    20.001975    20.717402    7036.9502    6638.4483    7739.4817    6911.5251    181.32803   -11.211095   -822.72662   -2736.9931 
11078000    269.84728   -3885.8638   -3423.3548   -3885.8638            0    7223.7554    17.049746    20.082349    20.800651    7122.1213    7641.9612    8125.7954    5903.5096    277.63805    533.67713    -505.0955   -2673.0317 
11079000    244.14606   -3889.3806   -3470.9226   -3889.3806            0    7212.5759     16.99295    20.015451     20.73136    7051.1823    8274.2867    6776.7878    6586.6531   -145.71253    536.21447    126.56448   -2729.2227 
11080000    271.90122   -3888.8707   -3422.8413   -3888.8707            0    8460.0568    16.974422    19.993627    20.708756    7028.1431    11428.199    6741.7253     7210.246   -1719.2564   -794.09889     770.0232   -2555.7002 
11081000     252.4492   -3898.8617   -3466.1725   -3898.8617            0    5548.4445    17.002131    20.026264     20.74256    7062.6165    4657.6201    6373.5966    5614.1168    412.71414   -978.24488   -41.189281    -2894.677 
11082000    263.55339   -3959.3771   -3507.6557   -3959.3771            0    6981.6737    17.010947    20.036649    20.753316    7073.6093    6973.1429     6582.004    7389.8741   -256.08229    556.84293   -114.44482   -2787.4169 
11083000    245.35816   -3924.1528   -3503.6173   -3924.1528            0    8843.5307     17.01755    20.044426    20.761371    7081.8496    10881.443    7328.4022    8320.7471   -26.250445   -805.43207   -78.450321   -2590.2441 
11084000    272.11549   -3915.7656   -3449.3689   -3915.7656            0    5400.2844    17.072704     20.10939    20.828659      7150.93    3870.3768    7722.7677    4607.7087   -487.30319   -986.78514    -1007.955   -2886.1788 
11085000    252.19681   -3901.8414   -3469.5847   -3901.8414            0    7006.1811    16.981629    20.002116    20.717548    7037.0987    6312.1095     7495.944    7210.4898    25.982962    1149.3025    2173.3675   -2750.5483 
11086000    262.44868   -3920.7645   -3470.9365   -3920.7645            0    5395.0609    17.035119     20.06512    20.782806    7103.8066     2950.817    6819.8909    6414.4747     476.0672    263.57226    814.29634   -2911.9988 
11087000    247.90744   -3927.9119   -3503.0071   -3927.9119            0    4803.9567    17.045542    20.077396    20.795521     7116.853    5840.1829    4417.4056    4154.2817    1398.0594   -411.26725   -1099.6878   -3004.3948 
11088000    268.22314   -3905.9471   -3446.2218   -3905.9471            0    8475.5496    17.037683     20.06814    20.785933     7107.014    9741.5478    6093.0694    9592.0317    1537.6301   -1032.0967   -85.092538   -2567.7438 
11089000    236.49795   -3898.6629   -3493.3135   -3898.6629            0    6410.8934    17.008373    20.033617    20.750175    7070.3985    7473.1775    4438.9095    7320.5932    1149.3416   -1580.0771    611.07918   -2832.2574 
11090000    251.35272    -3898.173    -3467.363    -3898.173            0    8239.7327    17.046113     20.07807    20.796219    7117.5694    9373.4913    8376.2694    6969.4373   -11.667241   -1236.3506   -634.75049   -2612.0586 
11091000    240.85263   -3902.7009   -3489.8877   -3902.7009            0    7851.4524    17.028296    20.057084    20.774482    7095.2742    10235.589    5889.0883    7429.6805    748.24359    1416.5837   -11.229819   -2677.4407 
11092000    262.82175   -3904.9642   -3454.4967   -3904.9642            0    8530.8144    17.028668    20.057522    20.774935     7095.739    9473.2003    7456.4129    8662.8302    1048.3824     -951.449    -220.0739   -2571.6933 
11093000    244.92681   -3923.1204   -3503.3242   -3923.1204            0    8486.7179    17.071716    20.108227    20.827454    7149.6886    9727.7836    9673.9412     6058.429      34.5728   -279.58407   -155.72224   -2618.4067 
11094000    260.81296   -3930.0738   -3483.0493   -3930.0738            0    5208.7992    17.054528    20.087981    20.806485    7128.1153    5490.4155    4810.8175    5325.1645    596.97272    348.02308    -381.8531   -2941.5621 
11095000     247.7242   -3923.4859   -3498.8951   -3923.4859            0    8152.4217    17.024054    20.052087    20.769307     7089.973    7505.9588    8700.2803    8251.0261   -777.80828    1595.5681    1078.4227   -2655.9348 
11096000    248.20569   -3874.4004   -3448.9843   -3874.4004            0    5602.0172    17.096061    20.136901    20.857154    7180.3189    6151.6535    4822.6894    5831.7087    441.24024   -461.30856    705.58183   -2862.3546 
11097000    258.89535   -3896.7053   -3452.9676   -3896.7053            0    7746.2996    17.033522    20.063238    20.780857     7101.808     8700.895    6532.9136    8005.0901   -1668.2426   -350.58162   -1548.9852   -2650.6633 
11098000    240.84817   -3888.0274   -3475.2219   -3888.0274            0    9032.4179    16.968322    19.986442    20.701314    7020.5688    10150.127    7933.1074    9014.0197    1536.5674   -1492.1726    756.46845   -2550.4125 
11099000    255.11677   -3889.5695    -3452.308   -3889.5695            0    5829.6623    17.045568    20.077428    20.795553    7116.8865    6524.9849    5549.8593    5414.1427    632.90973   -66.314244    35.159311   -2847.2329 
11100000    241.60768   -3870.0779   -3455.9706   -3870.0779            0    7161.8063    17.031092    20.060377    20.777893    7098.7697    6755.5061    9056.8156    5673.0972    230.02984    1111.8526   -378.81937   -2714.5211 
11101000    242.63986   -3910.6914    -3494.815   -3910.6914            0    8261.7956    17.072175    20.108767    20.828014    7150.2656    8048.9683    8575.0996     8161.319    1364.6553   -991.07242   -104.08692   -2633.2808 
11102000     247.3314   -3875.5311   -3451.6135   -3875.5311            0    7547.7909    17.086475     20.12561    20.845459    7168.2473    7754.8096    8031.3194    6857.2437    253.40869   -208.20067   -585.64857   -2662.5559 
11103000    238.83232   -3846.4937   -3437.1433   -3846.4937            0     7462.576    17.100174    20.141746    20.862173    7185.5033    8484.3573    7248.9602    6654.4105    650.80362   -1021.8222   -462.12059   -2655.1161 
11104000    265.58627   -3909.0846   -3453.8788   -3909.0846            0    7565.4279    17.062684    20.097588    20.816434    7138.3464    6248.4322     9298.551    7149.3005     201.9032   -3419.1751   -648.26193   -2666.2765 
11105000    263.99932   -3887.7512   -3435.2654   -3887.7512            0    6115.7956    17.127467    20.173894     20.89547    7219.9634    6332.6266    7482.2959    4532.4643   -375.74342    736.49253    331.39437    -2791.298 
11106000    248.76578   -3905.0349   -3478.6589   -3905.0349            0    5421.6353    17.102813    20.144855    20.865392    7188.8302    4689.1568    7108.6904    4467.0588   -98.114608   -218.09526   -350.69123   -2910.2453 
11107000    238.38795   -3877.1992   -3468.6104   -3877.1992            0    7167.3668    17.052239    20.085286    20.803692    7125.2458    7249.7474    7146.5003    7105.8528   -713.33105   -188.99081    662.16117   -2723.8178 
11108000    249.62154   -3858.0534   -3430.2106   -3858.0534            0    7378.1186    17.080836    20.118969    20.838581    7161.1537    9507.5899    5776.9132    6849.8527   -2270.6855    741.61759   -2380.1828   -2659.6541 
11109000    263.29878   -3907.1786   -3455.8935   -3907.1786            0    6550.8564    17.038111    20.068644    20.786455    7107.5494    6385.2803    6396.1895    6871.0993    570.81074   -90.987557   -1524.7862   -2776.8558 
11110000    237.10121   -3871.6183   -3465.2349   -3871.6183            0    4344.7748    17.064744    20.100015    20.818948    7140.9326    3565.9382    4414.3286    5054.0575   -391.22822     896.4696     728.6657   -3012.7563 
11111000     257.6032    -3895.272    -3453.749    -3895.272            0    7329.3159    17.055769    20.089443    20.807998    7129.6711    8627.0552    7288.8864    6072.0063    197.71136     -389.099    17.259047   -2691.6545 
11112000    243.50746   -3867.8935     -3450.53   -3867.8935            0    6767.3523    17.041661    20.072826    20.790787    7111.9937    7679.7001    6160.4447     6461.912    704.86947    456.52864   -604.02829   -2748.6126 
11113000    251.76114   -3905.7244   -3474.2144   -3905.7244            0    8053.3804    17.086556    20.125706    20.845558    7168.3499    8268.8097    7984.6008    7906.7306   -397.07297    384.04323    814.64896   -2632.2896 
11114000    269.80193    -3877.562   -3415.1307    -3877.562            0    7029.0279    17.061766    20.096506    20.815314    7137.1942    7972.3028    6656.0606    6458.7204   -1445.9508    545.99463    68.987785   -2683.4887 
11115000    259.78301   -3866.7569   -3421.4977   -3866.7569            0    8920.6659      17.0489    20.081352    20.799618      7121.06    9650.0558    9625.2982    7486.6436   -212.70887    1698.3172    385.53921   -2495.0566 
11116000    242.41857   -3880.1258   -3464.6287   -3880.1258            0    6000.5883    17.114022    20.158057    20.879067     7202.974    5795.2449    6557.0672    5649.4529    881.59208    521.42463   -214.35526   -2834.2789 
11117000    239.60656   -3887.5516   -3476.8742   -3887.5516            0    7804.5844    17.003135    20.027447    20.743785    7063.8683    7005.0989    8531.1253     7877.529   -1073.2518   -844.69252    192.27506   -2672.8515 
11118000     246.0581   -3893.3225   -3471.5873   -3893.3225            0    7482.9037      17.0222    20.049903    20.767044    7087.6564    7293.2336    8222.7853    6932.6922    -275.8601     746.0776   0.93768881    -2698.108 
11119000    257.89867   -3894.9999   -3452.9704   -3894.9999            0    6374.6675    17.046223      20.0782    20.796353    7117.7072    4813.3359     6691.913    7618.7536    1078.3553    1012.7032   -386.56459   -2791.2515 
11120000    244.62908   -3902.8287   -3483.5428   -3902.8287            0    6759.1756    17.070079    20.106298    20.825456    7147.6317    6079.6634    6903.6432      7294.22   -1350.2862    -41.11829   -1469.8977   -2778.9605 
11121000    258.34706   -3932.0716   -3489.2736   -3932.0716            0    7164.3589    17.043681    20.075205    20.793251    7114.5233    7560.2658    7470.9403    6461.8706   -1285.1237    382.91454   -628.04882   -2745.9139 
11122000    258.99641   -3879.3136   -3435.4026   -3879.3136            0    6890.0862     17.10699    20.149775    20.870488    7194.0989    6881.2051     5610.761    8178.2924    -1126.788    672.37435   -93.834104   -2712.5047 
11123000    242.99186   -3919.0937   -3502.6139   -3919.0937            0     6445.974    17.029632    20.058657    20.776111    7096.9442    5721.4437    6175.8549    7440.6233   -563.94506     1098.596    184.99708    -2835.445 
11124000     260.8287   -3862.2565   -3415.2051   -3862.2565            0    6357.7397     17.01568    20.042224     20.75909    7079.5154    6629.0561    6662.1932    5781.9697   -542.54971   -162.13628      217.623   -2758.7845 
11125000     256.2355   -3839.4472   -3400.2684   -3839.4472            0     7298.181    16.980346    20.000605    20.715982    7035.5037    8245.0756    6893.4174      6756.05    1566.3825    886.11747   -98.879279   -2651.4341 
11126000    257.35637    -3901.814    -3460.714    -3901.814            0    7889.0819    17.065867    20.101337    20.820318    7142.3421    8863.0805    6888.0159    7916.1494    816.65752   -409.84135    782.26247   -2638.9578 
11127000    260.52771   -3889.0995   -3442.5639   -3889.0995            0     7232.214     17.05171    20.084662    20.803046    7124.5823    10026.227    6616.9843    5053.4305    807.77983    771.06355    485.79522   -2691.1027 
11128000     251.2738   -3868.1723   -3437.4976   -3868.1723            0    10935.361    16.935704    19.948022    20.661519    6980.1596    9688.9007    14443.821    8673.3606   -1829.0867    50.256153    349.15062   -2324.2947 
11129000    266.96895   -3885.3547   -3427.7791   -3885.3547            0    6254.3516    17.030992    20.060259    20.777771    7098.6445    7192.1962    5684.7125    5886.1462    1594.3356    504.50951   -370.85683   -2780.2882 
11130000    255.96404    -3928.401   -3489.6874    -3928.401            0    5661.5335    17.007221    20.032259    20.748769    7068.9615    5736.3451    4997.1551    6251.1003    180.86793     -37.3181    1178.0213   -2906.0198 
11131000    259.51537   -3950.4262   -3505.6258   -3950.4262            0    6825.6095    16.994633    20.017433    20.733413     7053.278    6344.2235    8043.2022    6089.4027    467.62989   -362.92569     653.5531   -2803.5106 
11132000    256.34186   -3871.8459   -3432.4847   -3871.8459            0    8930.5805    17.023549    20.051492     20.76869     7089.342     8924.456    8574.1068    9293.1788   -364.79804    355.54037   -127.46064    -2509.145 
11133000    250.01311   -3896.2875   -3467.7736   -3896.2875            0    7119.9753    16.978389      19.9983    20.713595    7033.0717    6564.6569    7644.0752    7151.1938    42.609846   -917.44087    348.02245   -2737.4768 
11134000    251.37299   -3944.0942   -3513.2495   -3944.0942            0    8454.6269    17.050779    20.083566    20.801911    7123.4159    7497.7095    9088.1445    8778.0268    668.08754    284.65477   -1467.9239   -2634.9176 
11135000    249.44804   -3938.2221   -3510.6767   -3938.2221            0    6762.8769     17.03726    20.067642    20.785418    7106.4852    5919.8062    6494.6174    7874.2072      -395.02   -181.60046    1101.3142   -2809.7667 
11136000    252.18208   -3914.4341   -3482.2027   -3914.4341            0    6354.1568    17.078712    20.116467    20.835989    7158.4819    5083.3382    8005.3798    5973.7526    231.56144    505.66399   -568.15487   -2818.8343 
11137000    251.60602   -3935.9403   -3504.6962   -3935.9403            0    6707.6279     17.04868    20.081093     20.79935    7120.7847    6148.9025    5699.8275    8274.1536    518.29114    -1088.784   -1673.0073   -2808.1135 
11138000    259.31619   -3915.8611    -3471.402   -3915.8611            0     6381.663    17.050846    20.083644    20.801992    7123.4991    6780.3195     4541.767    7822.9023    117.99663    -2339.054    2048.2586   -2808.4179 
11139000    230.58811   -3931.7315   -3536.5114   -3931.7315            0    6388.5033    17.057425    20.091393    20.810018    7131.7477    7175.8234    6209.3581    5780.3284    3033.5703   -1657.0424    659.34685   -2872.0481 
11140000    256.40828   -3933.5264   -3494.0514   -3933.5264            0    6958.7461    17.025369    20.053636    20.770911    7091.6158    7453.3996    6841.5637    6581.2749   -356.95516   -512.09056    2037.1173   -2774.3504 
11141000    242.44971   -3934.8486   -3519.2981   -3934.8486            0    5109.6294    17.026795    20.055315     20.77265    7093.3976    5686.8761    5152.4804    4489.5316   -99.030346   -244.07455    1233.0674   -2990.7073 
11142000    237.51611   -3908.2671   -3501.1726   -3908.2671            0    4856.3494    17.027783    20.056479    20.773855    7094.6325    5732.1859    2794.4716    6042.3906    871.29646     80.50701   -104.46969   -2998.6961 
11143000     247.6592    -3946.302   -3521.8226    -3946.302            0    7461.2752    17.009371    20.034792    20.751393    7071.6432    7287.6377    8364.2201    6731.9678    1570.8803    365.50186    1686.7619   -2752.3215 
11144000    251.01572   -3933.7023     -3503.47   -3933.7023            0    6338.3687    17.023748    20.051727    20.768933    7089.5903    6443.4735    6527.3084    6044.3243    624.28024   -1856.9966   -382.10541   -2848.1181 
11145000    260.68834   -3904.9884   -3458.1775   -3904.9884            0    7513.2154    17.040632    20.071613    20.789531     7110.705    4866.3688     8622.708    9050.5694    472.41764   -389.94319    73.464225   -2679.0395 
11146000    243.32557   -3918.0847    -3501.033   -3918.0847            0    6117.8071     17.00526     20.02995    20.746377    7066.5171    7508.0763    4627.7158    6217.6294    144.75797   -161.22855    1447.7064   -2870.5447 
11147000    250.96539   -3935.1959   -3505.0498   -3935.1959            0    9262.5197    16.965561     19.98319    20.697945    7017.1426    11699.941    9128.2257    6959.3924   -336.42505   -179.01259    -441.6442   -2557.1437 
11148000    241.33711   -3943.8723   -3530.2287   -3943.8723            0    8263.1124    16.952762    19.968115     20.68233    7001.2729    9425.3525    7957.2173    7406.7674    700.61373    380.19761    756.26646   -2686.5122 
11149000    259.71445   -3917.0905   -3471.9488   -3917.0905            0    8401.1415    17.040731     20.07173    20.789651    7110.8287    8267.1427    7800.3569    9135.9248   -95.162984   -216.06867   -210.77945   -2600.7157 
11150000    232.89625   -3900.1452    -3500.969   -3900.1452            0    6368.4402     17.07332    20.110115     20.82941    7151.7034    5729.0251    6268.6253      7107.67    1644.8132    718.06287   -759.65849    -2836.739 
11151000    266.69178   -3921.0542   -3463.9536   -3921.0542            0    7123.0347    16.996303      20.0194     20.73545    7055.3569    6914.2582    7592.1961    6862.6498    1235.7684    53.444026   -654.23328   -2731.0279 
11152000    241.57913    -3953.436   -3539.3776    -3953.436            0    6824.2754    17.080631    20.118728     20.83833    7160.8957    7691.9137    3765.9168    9014.9956   -718.22306   -680.34906    710.12176   -2826.6891 
11153000    246.54149   -3907.0189   -3484.4552   -3907.0189            0    6966.9181    17.008072    20.033263    20.749809    7070.0239    5697.2946    5826.2467     9377.213   -413.51841    -737.6929    1138.8044   -2766.1029 
11154000    234.91197   -3921.1929   -3518.5618   -3921.1929            0     6237.371     17.06193      20.0967    20.815515    7137.4003    5965.7167    6084.4323     6661.964    2142.1024    1534.4788     1450.768   -2869.3035 
11155000    247.73478   -3913.5777   -3488.9688   -3913.5777            0    6324.2282    17.058479    20.092635    20.811305    7133.0708    4202.4343    7780.4002    6989.8502   -134.34349   -785.09515   -2588.3217   -2831.0687 
11156000      248.042   -3960.2028   -3535.0673   -3960.2028            0    7428.5423    17.022185    20.049886    20.767026     7087.638    7102.1653    6241.7159    8941.7456    1173.7363   -377.73489   -1507.4697   -2767.2091 
11157000    244.19913   -3918.7195   -3500.1705   -3918.7195            0    7475.1236    17.044954    20.076704    20.794804    7116.1167    8086.0673    8133.8907    6205.4127    1125.2909   -322.36544    14.125984   -2724.3928 
11158000     257.0593   -3913.5404   -3472.9495   -3913.5404            0     5503.057    17.054811    20.088315     20.80683    7128.4699    4735.5167    6763.1729    5010.4813    1011.3943   -813.43002   -239.40487   -2900.8439 
11159000    244.13947   -3900.7349   -3482.2882   -3900.7349            0    8218.4772    17.077583    20.115137    20.834611    7157.0622    9785.9399    8122.1544    6747.3374   -221.04507   -307.41185    709.19805   -2624.4566 
11160000    265.47458   -3913.7352   -3458.7209   -3913.7352            0    9065.6896     17.06987    20.106052    20.825201    7147.3689    9021.3033    9173.3345    9002.4309    223.94506   -1037.7116    470.04983   -2513.7402 
11161000    248.84137   -3945.5789   -3519.0733   -3945.5789            0    8416.8931    17.025356    20.053621    20.770895    7091.5996    8778.2951    8636.0082    7836.3762   -429.17364   -1649.9953    1400.4475   -2648.5671 
11162000    243.55725   -3915.8616   -3498.4128   -3915.8616            0    8712.8298    17.128102    20.174642    20.896245    7220.7671    8412.9934    8820.9044    8904.5917    1265.8877   -613.09568    2510.6512   -2580.8866 
11163000    251.66668   -3906.8638   -3475.5157   -3906.8638            0    9235.5858    17.074479    20.111481    20.830824    7153.1604    8781.4097    10710.299    8215.0482    1243.6537   -580.80841    916.04967   -2512.0454 
11164000    269.08962   -3936.7378   -3475.5274   -3936.7378            0    8359.7971    17.095329    20.136039    20.856261    7179.3972    11075.667    6929.7047    7074.0192    -1120.367   -587.57765    1459.0062    -2600.222 
11165000    241.34335   -3872.2945   -3458.6403   -3872.2945            0    8677.4043    17.063113    20.098094    20.816958    7138.8855    9438.8875    8031.6063     8561.719   -155.55168    148.53068   -1786.1201   -2555.2069 
11166000    256.30922   -3884.3853     -3445.08   -3884.3853            0     6801.166    17.186255    20.243138    20.967191    7294.5641    8170.4618    4958.4665    7274.5696   -1430.2211   -71.394765   -347.89664   -2721.5466 
11167000    239.78267   -3896.3274   -3485.3481   -3896.3274            0    7600.4189    17.094981     20.13563    20.855837    7178.9592    7512.5308    6427.0886    8861.6374    194.07085   -1905.9643    86.874077   -2689.6013 
11168000    269.87469   -3878.1187   -3415.5628   -3878.1187            0     8745.197    17.027126    20.055705    20.773054    7093.8115    7462.8649    10201.199    8571.5274   -128.23672   -974.22965    817.77564     -2510.82 
11169000    265.20222   -3902.7314   -3448.1839   -3902.7314            0    5435.7323    17.118618     20.16347    20.884674    7208.7782    5953.9536    3928.8102    6424.4331    1039.4751    70.312219   -971.84302    -2876.711 
11170000    246.86447   -3877.9696   -3454.8523   -3877.9696            0    6510.8674    17.111977    20.155648    20.876571    7200.3916    6241.3652    5677.8963    7613.3406   -833.26792    195.76802   -172.98109    -2771.144 
11171000     254.4181   -3912.0232   -3475.9593   -3912.0232            0    5371.7534    17.155249    20.206617    20.929364    7255.1546     3962.782    6644.1647    5508.3134    169.55475    382.84062   -89.757174   -2907.5795 
11172000    251.23449   -3908.0565   -3477.4492   -3908.0565            0     5940.898    17.056668    20.090501    20.809095    7130.7983    4951.2882    8820.1893    4051.2167    489.85783    1382.1525   -710.39331   -2859.6232 
11173000    250.24061   -3903.4498   -3474.5459   -3903.4498            0    8859.6102    17.009707    20.035188    20.751803    7072.0625    6410.4402    11863.915    8304.4757   -118.96022   -523.20078   -594.95577   -2560.7766 
11174000    246.29676   -3897.5382   -3475.3939   -3897.5382            0    6150.8153    17.040197    20.071102    20.789001    7110.1611    6263.4497    6415.4403     5773.556    509.05715   -667.38441   -1595.4508   -2837.5888 
11175000     240.0059   -3842.9158   -3431.5539   -3842.9158            0    8930.5131    17.057157    20.091078    20.809692    7131.4119    10837.463     9586.076    6367.9999   -243.47431   -282.21546    922.54783   -2502.7419 
11176000    247.50862   -3894.0843    -3469.863   -3894.0843            0    6209.3366    17.056799    20.090656    20.809255    7130.9627     5428.951    6206.3702    6992.6887    784.84375   -485.15792   -1973.2276   -2824.1058 
11177000    263.78605   -3874.7313    -3422.611   -3874.7313            0    8335.8977     17.03239    20.061906    20.779476     7100.393    8682.0297    8188.0853    8137.5781    377.74185    23.637816    295.37674   -2559.4126 
11178000    249.75647   -3875.1758   -3447.1018   -3875.1758            0    8528.1946    17.034442    20.064323    20.781979    7102.9592    8215.8605    8418.6575    8950.0659   -892.75678   -519.73455    1631.5252   -2563.6714 
11179000    254.16041   -3902.1586   -3466.5363   -3902.1586            0    5763.9271    17.116442    20.160907    20.882019    7206.0297    4935.6539    6368.0331    5988.0943   -1313.4395    440.44508    1105.5695   -2860.7905 
11180000    244.74617   -3888.8047   -3469.3181   -3888.8047            0    6243.7963    17.093689    20.134108    20.854261     7177.331    6416.0517     6305.122    6010.2153    225.50352    1073.7779   -112.04875   -2815.7549 
11181000    279.98749   -3936.0571   -3456.1681   -3936.0571            0    6931.8867    17.115827    20.160183    20.881269     7205.253     5951.257     6941.807    7902.5961    1597.0967   -1154.4002    35.534905    -2727.757 
11182000    266.46386   -3903.3546   -3446.6447   -3903.3546            0     7372.187     17.08248    20.120906    20.840586    7163.2216    7076.2457    7436.7323     7603.583    53.013849   -525.67889    599.43417   -2676.4853 
11183000    256.22618   -3915.3136   -3476.1507   -3915.3136            0    9983.3547    17.010835    20.036516    20.753178     7073.469    11369.538    9801.4802    8779.0464   -921.78339    652.78105   -1005.4685   -2446.2749 
11184000     239.6852   -3906.2384   -3495.4262   -3906.2384            0    6255.9899    17.053888    20.087227    20.805703    7127.3124    4654.7507    7194.7282    6918.4908    43.863975   -155.39848    526.97485   -2845.1502 
11185000    254.08204   -3879.7951   -3444.3072   -3879.7951            0    8157.5223    16.985856    20.007095    20.722705    7042.3548    7871.0499    7697.2406    8904.2763   -388.03647   -1232.5982    1221.4478   -2606.4846 
11186000    260.30072   -3894.3783   -3448.2317   -3894.3783            0    7388.4509    17.054334    20.087753    20.806248    7127.8718     7693.958       5615.8    8855.5949   -429.26623   -66.578186    961.61679   -2680.1823 
11187000    244.87244   -3928.9976   -3509.2946   -3928.9976            0    8024.9178    17.036902    20.067221    20.784981    7106.0376    6842.9303    8821.9528    8409.8703    17.250416    1711.7364   -1813.5356   -2677.6381 
11188000    262.49272   -3892.6607   -3442.7572   -3892.6607            0    9807.5546    16.968902    19.987125    20.702021    7021.2886    10787.059     10061.21    8574.3949    977.81699   -521.08054   -560.12206   -2438.4803 
11189000    250.02724   -3928.0261   -3499.4879   -3928.0261            0    6466.8885    17.013157    20.039252    20.756012    7076.3664    7301.0297    5777.9809    6321.6548   -491.67525    1060.8428    152.77173    -2832.095 
11190000    259.21601   -3868.7184    -3424.431   -3868.7184            0     6113.323    17.039479    20.070255    20.788124    7109.2619     7227.818    5225.3739     5886.777    1973.5722   -584.49528   -462.25467   -2790.5938 
11191000    247.26385   -3896.1665   -3472.3647   -3896.1665            0    7967.0018    17.042904     20.07429    20.792303    7113.5501    8919.1327      7069.37    7912.5028    229.76169   -2214.5344    933.41613   -2645.8374 
11192000    252.51062   -3890.3292   -3457.5346   -3890.3292            0    8584.2038    17.031781    20.061188    20.778733    7099.6308    10364.101    5772.6366    9615.8742    91.620364    740.33643    289.77627    -2568.719 
11193000    257.22045   -3891.0219   -3450.1549   -3891.0219            0     7008.426    17.015784    20.042346    20.759217    7079.6448     7351.036    7312.0665    6362.1755   -191.82805    574.74144    546.39464   -2726.5394 
11194000    261.78655   -3898.9615   -3450.2683   -3898.9615            0    6820.3289    17.042036    20.073268    20.791244    7112.4634     7157.189     6461.639    6842.1588    248.31613    1258.9601    622.19794   -2742.8093 
11195000    250.74256   -3893.8336   -3464.0694   -3893.8336            0    7604.1515     17.01824    20.045239    20.762213    7082.7109    7999.7871    6629.8895    8182.7778    1467.0427    1007.2819   -1240.2009   -2678.6057 
11196000    256.70912   -3920.5469   -3480.5563   -3920.5469            0    5429.3983     17.08305    20.121576    20.841281    7163.9381    6297.4799    3542.3324    6448.3826    1049.3563   -934.94899   -875.23126   -2913.2998 
11197000    252.17464   -3898.6677    -3466.449   -3898.6677            0    7160.7585    17.060564    20.095091    20.813848    7135.6863    5253.2818    8117.7393    8111.2543    836.55345    -904.0999    219.68033   -2721.2527 
11198000    252.82667   -3886.6636   -3453.3274   -3886.6636            0    5835.9116    17.137722    20.185972     20.90798    7232.9396    5086.1001    6229.2801    6192.3545   -1686.7721   -891.02045   -1333.4461   -2837.7262 
11199000    249.20127   -3875.9559   -3448.8335   -3875.9559            0     5598.102    17.093902    20.134359     20.85452    7177.5994    4999.4034    6814.4518    4980.4509    501.94468   -398.88855   -1048.7726   -2862.8358 
11200000    246.22362    -3873.234   -3451.2151    -3873.234            0    8422.9741    16.999631     20.02332    20.739511    7059.5027    7779.5261    8592.1898    8897.2065    322.02269   -561.67576   -1712.3952   -2584.0227 
11201000    251.25419   -3887.3001   -3456.6591   -3887.3001            0    7706.6834    16.999609    20.023294    20.739483    7059.4744    9524.2354    6956.3276    6639.4872    634.17974   -1812.1976   -769.98126    -2663.216 
11202000    254.05477   -3882.2407   -3446.7996   -3882.2407            0    6289.8944    17.086851    20.126054    20.845918    7168.7211    5439.8566    6542.0947    6887.7318    757.73683    172.57511    1426.1619   -2789.2009 
11203000    249.30639   -3912.1475   -3484.8449   -3912.1475            0    8638.8987     17.02079    20.048242    20.765324    7085.8953    7915.5947    9094.6359    8906.4654   -1083.4074   -121.61903    792.98581   -2592.0967 
11204000    244.98473   -3898.5375   -3478.6421   -3898.5375            0    9017.5109    17.075805    20.113043    20.832442    7154.8273     8050.819    7858.8295    11142.884   -48.102118    1277.5325   -346.98941   -2537.7025 
11205000    238.06404   -3896.0833   -3488.0497   -3896.0833            0    8380.4402    17.078655      20.1164    20.835919    7158.4102    8517.7639    7940.4709    8683.0858    1547.7774    138.68851   -221.85961   -2613.1479 
11206000    241.91101   -3886.7453   -3472.1181   -3886.7453            0    6725.8042    17.103145    20.145245    20.865797    7189.2485    4235.5268    8547.1199    7394.7659    1417.2292    1546.4464   -388.87138   -2766.9322 
11207000    257.54925    -3909.969   -3468.5384    -3909.969            0    6299.2174    17.057425    20.091393    20.810018    7131.7478    5919.1382    6961.5223    6016.9917   -210.70524   -2178.6046    380.31586   -2813.3617 
11208000    248.32837   -3871.7679   -3446.1416   -3871.7679            0    5942.0887    17.058581    20.092756     20.81143    7133.1988    4550.8349    6990.4884    6284.9427    -369.8135      -989.74   -1018.1124   -2827.9838 
11209000    254.95713   -3895.2567   -3458.2689   -3895.2567            0    7425.2427      17.0037    20.028112    20.744474    7064.5723    6103.2071    7805.3639    8367.1569    1520.8379   -1078.7916   -2238.4652   -2693.2496 
11210000    257.96239   -3859.2874   -3417.1487   -3859.2874            0    8654.4085    17.043122    20.074546    20.792569    7113.8227    8182.3267    7568.4933    10212.405    2117.6457   -1050.0686    576.59179   -2519.2728 
11211000    251.29694   -3907.5512   -3476.8368   -3907.5512            0    7527.8597    17.078111    20.115759    20.835256    7157.7266    9784.3193    7731.4862    5067.7737    838.39909   -549.95941   -139.93634   -2691.0179 
11212000    257.70017   -3919.7973   -3478.1081   -3919.7973            0    5907.8323    17.118586    20.163433    20.884635    7208.7379    7658.3079    4761.0062    5304.1827    379.51626    399.46052   -818.78312   -2857.0056 
11213000    252.09148   -3866.9626   -3434.8864   -3866.9626            0    8093.8529    17.035994    20.066151    20.783873    7104.9014    7692.0944    7249.3542    9340.1102   -834.61567    1940.5784    634.03228     -2596.22 
11214000    247.48932   -3889.3235   -3465.1352   -3889.3235            0     6964.103     17.04015    20.071046    20.788944    7110.1023    5883.4994    6696.7931    8312.0166    831.64424    374.72095   -742.90099   -2743.0027 
11215000    242.07384   -3954.2757   -3539.3694   -3954.2757            0    6242.0444    17.071479    20.107947    20.827164    7149.3903    4772.2677    6484.1796    7469.6858    -2079.032   -345.43834   -1329.2733   -2888.5332 
11216000    254.58802   -3923.0336   -3486.6784   -3923.0336            0    7113.4175     17.00835     20.03359    20.750147    7070.3701    8221.0317    8507.4983    4611.7224   -45.782344   -344.00107   -312.38875   -2753.1848 
11217000    242.77207   -3913.6183   -3497.5153   -3913.6183            0    6904.1209    16.995029    20.017899    20.733896    7053.7705    6989.2234    5902.5757    7820.5634   -345.93055    383.52767    -1403.454   -2787.2745 
11218000    260.43139   -3931.5204   -3485.1499   -3931.5204            0    7446.4585    17.030497    20.059675    20.777166    7098.0249    7888.3671    8129.0892    6321.9191   -832.84465   -341.91225     637.9136   -2714.3118 
11219000    251.78222    -3886.929   -3455.3829    -3886.929            0    8498.8746    17.060729    20.095285    20.814049     7135.893    8427.4723    7953.0932    9116.0582    488.25576   -100.54704   -300.31708   -2570.9078 
11220000    239.74624    -3929.309   -3518.3921    -3929.309            0     5627.233     17.07021    20.106453    20.825617    7147.7971    5461.7083    5094.8048    6325.1859   -384.53372   -2091.5226   -455.20315   -2931.7909 
11221000    262.15874   -3931.5834   -3482.2523   -3931.5834            0    8520.4008    17.034176    20.064009    20.781655    7102.6263    7470.9329    11133.592    6956.6775   -265.14975    98.504007   -606.80878   -2599.6706 
11222000    243.58955   -3904.7261   -3487.2219   -3904.7261            0    6586.9734    17.013181    20.039279    20.756041    7076.3959     7291.908    6284.0099    6185.0022    868.87822    1322.8941    246.54095   -2807.4332 
11223000    245.85753   -3905.1804   -3483.7891   -3905.1804            0     8184.113    17.016576    20.043279    20.760183     7080.634    8166.7653    8209.2329    8176.3409    107.54023   -392.28704   -1289.1333   -2638.6666 
11224000    253.24936   -3914.8113   -3480.7506   -3914.8113            0    7392.3381    17.050098    20.082763    20.801079    7122.5614    7439.3415    8562.8039    6174.8688    733.28702   -776.18214     399.7839   -2712.8696 
11225000    251.18751   -3939.8133   -3509.2865   -3939.8133            0    8443.4341    17.117464    20.162112    20.883266    7207.3209    6561.5391    9625.4394    9143.3237    1522.6465   -1423.3497     79.42137   -2621.7855 
11226000    252.18449   -3907.2053   -3474.9697   -3907.2053            0    7133.6125    17.062569    20.097452    20.816294    7138.2019    7647.1962    7176.0103     6577.631    129.98861   -1105.8233   -1307.1172   -2732.3367 
11227000    262.39726   -3852.0763   -3402.3364   -3852.0763            0    8803.2193    17.027069    20.055638    20.772985    7093.7405    8870.9094    8736.7941    8801.9545    789.83996   -515.73174   -42.863345      -2491.6 
11228000    259.87063   -3888.4848   -3443.0755   -3888.4848            0    6760.2517    17.047625     20.07985    20.798063     7119.463      5380.01    8115.0857    6785.6594   -556.28241   -1634.9657    1067.2424   -2741.1581 
11229000    263.94805   -3907.3487   -3454.9508   -3907.3487            0    8270.2078    16.995048    20.017922    20.733919     7053.794    8596.0548    8196.3052    8018.2632   -1950.9997     207.3333   -1279.2316   -2604.1751 
11230000     256.9303   -3884.2277    -3443.858   -3884.2277            0    6923.5795    17.080642     20.11874    20.838343    7160.9087    7254.6051    7620.2244     5895.909    1091.8152   -670.89671    -1119.737   -2720.7974 
11231000    257.54215    -3887.081   -3445.6625    -3887.081            0    6993.4055    17.054558    20.088016    20.806521    7128.1524     8032.013    7585.6718    5362.5316   -964.06611    1632.7397   -783.67684   -2718.6505 
11232000    250.51415   -3869.7361   -3440.3635   -3869.7361            0    7035.5893    17.063992    20.099129    20.818031    7139.9886    6893.0308    8798.1194    5415.6177    1116.1746     739.6848   -537.88467   -2707.7517 
11233000    242.11829   -3860.8281   -3445.8457   -3860.8281            0    9183.9289    16.986755    20.008153    20.723801    7043.4727    8462.2414    9840.2301    9249.3152     1211.477   -267.29825    2017.7887   -2502.4557 
11234000    264.94235   -3881.6697   -3427.5676   -3881.6697            0    7567.1822    17.125148    20.171162     20.89264     7217.031    8189.7759     7881.214    6630.5565     234.5161    11.129819      1067.91    -2631.099 
11235000    251.56113   -3889.6043   -3458.4372   -3889.6043            0     6652.866    17.130773    20.177788    20.899503    7224.1452    6768.7831    7561.1727    5628.6424   -98.743338    396.51046    -408.6177   -2757.5128 
11236000    249.60839   -3892.5411   -3464.7209   -3892.5411            0    5416.3008    17.163049    20.215805     20.93888    7265.0553    5085.1738    4204.3825     6959.346   -293.88695   -738.44156    19.334106   -2890.8455 
11237000    255.78455   -3896.0963   -3457.6903   -3896.0963            0    6146.4553    17.091675    20.131736    20.851804     7174.795    5630.4509    6335.5119    6473.4031    240.97127   -647.17668   -2063.6141   -2814.5435 
11238000    259.25271   -3902.2281   -3457.8778   -3902.2281            0    7054.0982    17.091045    20.130994    20.851035    7174.0017     5726.927    7130.6412    8304.7264   -1630.2477    291.28593   -1856.3021   -2719.8395 
11239000      243.164   -3893.1299   -3476.3552   -3893.1299            0    6706.2963      17.1189    20.163803    20.885018    7209.1354    6602.8056    7639.6912    5876.3921     -878.732    973.04185   -2922.8406   -2771.2696 
11240000    257.52962   -3891.9178   -3450.5209   -3891.9178            0    7119.7138    17.082076    20.120429    20.840093    7162.7129    6991.6642    7455.9993     6911.478   -657.04682    227.84167   -89.999332   -2706.7897 
11241000    251.50533   -3908.8797   -3477.8082   -3908.8797            0    7963.8788    17.024133     20.05218    20.769402    7090.0708    7766.5507    8495.7906    7629.2951    -650.1486   -343.64047   -409.75733   -2654.3319 
11242000    250.68014   -3871.3781   -3441.7209   -3871.3781            0    7565.8615    17.058643    20.092828    20.811505    7133.2764    7514.8995    7584.2962     7598.389    119.85785   -987.28766   -1005.7204   -2654.6329 
11243000    268.31269   -3867.5674   -3407.6887   -3867.5674            0    8673.0589    17.049429    20.081975    20.800263    7121.7232    8956.4584    6678.3475    10384.371    155.22495   -435.67797   -1291.3421   -2506.8785 
11244000    259.28357   -3876.0737   -3431.6705   -3876.0737            0    7063.6007    17.087136     20.12639    20.846266    7169.0803    6992.1967    6214.9799    7983.6255    882.73668   -227.37014   -505.21327   -2693.1451 
11245000    254.66486   -3873.1356   -3436.6488   -3873.1356            0    6298.2347    17.180154    20.235952    20.959748    7286.7983    7464.2263    4836.4079    6594.0699   -531.77806   -1378.2582    361.56471   -2767.3323 
11246000    246.95835   -3861.1441   -3437.8659   -3861.1441            0    5057.7399    17.082305    20.120698    20.840372    7163.0003    4806.6331    4898.0299    5468.5566    2236.0208    71.659376    -1489.911   -2909.5091 
11247000    246.88211   -3865.1303   -3441.9828   -3865.1303            0    8592.6317    16.988757    20.010511    20.726243    7045.9632    6097.6114    9445.1657    10235.118   -1032.8278    1435.4456   -34.799933   -2559.0199 
11248000    266.45685   -3905.1535   -3448.4555   -3905.1535            0    4908.4313     17.08769    20.127042    20.846942    7169.7774    7031.9037    3459.3717    4234.0185   -957.94831     732.2887    879.12833   -2935.2111 
11249000    242.63968   -3894.7533   -3478.8772   -3894.7533            0    6795.1588    17.073227    20.110006    20.829297    7151.5867    7014.2717    6879.7799    6491.4246    144.89519    799.00127    345.98693   -2770.1519 
11250000    271.08459   -3889.2109   -3424.5812   -3889.2109            0     7503.115    17.049986    20.082631    20.800943    7122.4209    6896.6898    6779.3932    8833.2621    317.94902    1362.1682    1894.0376   -2645.2086 
Loop time of 462.447 on 64 procs for 250000 steps with 864 atoms

Performance: 93.416 ns/day, 0.257 hours/ns, 540.603 timesteps/s
189.5% CPU use with 32 MPI tasks x 2 OpenMP threads

MPI task timing breakdown:
Section |  min time  |  avg time  |  max time  |%varavg| %total
---------------------------------------------------------------
Pair    | 26.852     | 33.644     | 42.365     |  60.1 |  7.28
Bond    | 0.64235    | 0.9428     | 1.3575     |  18.5 |  0.20
Kspace  | 204.88     | 216.71     | 224.12     |  30.5 | 46.86
Neigh   | 4.4552     | 4.8159     | 5.1893     |   9.9 |  1.04
Comm    | 89.666     | 96.748     | 101.56     |  29.9 | 20.92
Output  | 0.52878    | 0.52907    | 0.53074    |   0.0 |  0.11
Modify  | 83.193     | 87.039     | 92.449     |  28.9 | 18.82
Other   |            | 22.02      |            |       |  4.76

Nlocal:        27.0000 ave          32 max          20 min
Histogram: 2 0 2 3 2 9 3 4 2 5
Nghost:        2586.16 ave        2620 max        2551 min
Histogram: 2 2 3 2 7 5 2 6 2 1
Neighs:        8661.78 ave       10954 max        6588 min
Histogram: 2 4 5 0 6 5 4 3 2 1

Total # of neighbors = 277177
Ave neighs/atom = 320.80671
Ave special neighs/atom = 2.0000000
Neighbor list builds = 13220
Dangerous builds = 0

unfix		3
unfix		2
unfix		1

write_data	data.final.${pid}
write_data	data.final.1
System init for write_data ...
PPPM initialization ...
  extracting TIP4P info from pair style
  using 12-bit tables for long-range coulomb (../kspace.cpp:340)
  G vector (1/distance) = 0.37389768
  grid = 24 24 24
  stencil order = 5
  estimated absolute RMS force accuracy = 0.0032027747
  estimated relative force accuracy = 9.6450609e-06
  using double precision FFTW3
  3d grid and FFT values/proc = 3549 432
Last active /omp style is kspace_style pppm/tip4p/omp
WARNING: Not all mixed pair coeffs generated from mixing. Use write_data with 'pair ij' option to store all pair coeffs. (../write_data.cpp:312)

write_restart   restart.lmp.${pid}
write_restart   restart.lmp.1
System init for write_restart ...
PPPM initialization ...
  extracting TIP4P info from pair style
  using 12-bit tables for long-range coulomb (../kspace.cpp:340)
  G vector (1/distance) = 0.37389768
  grid = 24 24 24
  stencil order = 5
  estimated absolute RMS force accuracy = 0.0032027747
  estimated relative force accuracy = 9.6450609e-06
  using double precision FFTW3
  3d grid and FFT values/proc = 3549 432
Last active /omp style is kspace_style pppm/tip4p/omp
Total wall time: 0:07:42
