LAMMPS data file via write_data, version 30 Jul 2021, timestep = 34750000

1008 atoms
2 atom types
672 bonds
1 bond types
336 angles
1 angle types

-3.1236627158675585 14.733661715421766 xlo xhi
-0.05992862915676156 22.639927629152652 ylo yhi
0.04916583228658844 19.180832167704853 zlo zhi
0.024858511426730442 -6.863905022528172 0.12286355138646801 xy xz yz

Masses

1 1.008
2 15.999

Pair Coeffs # lj/cut/tip4p/long/omp

1 0 0
2 0.21084 3.1668

Bond Coeffs # harmonic/omp

1 450 0.9572

Angle Coeffs # harmonic/omp

1 55 104.52

Atoms # full

21 7 1 0.5897 1.1896706556516623 2.2126712030990503 0.9188799447257046 0 0 0
55 19 2 -1.1794 -0.6898212288382259 4.098039775818589 3.4819700498918835 0 0 0
56 19 1 0.5897 -1.2749148564983808 3.572362116136163 2.9364118723775787 0 0 0
57 19 1 0.5897 0.08824549532687476 4.230794443100323 2.940531007894866 0 0 0
121 41 2 -1.1794 -2.496163561332051 2.4820007019052337 2.310435537296493 1 0 0
122 41 1 0.5897 -2.5123049723817887 2.036529437174413 1.4632735353226403 1 0 0
86 29 1 0.5897 -2.389506514237724 1.5846282868970478 3.953121161738435 1 0 0
31 11 2 -1.1794 1.3418138977013898 1.0959775371277398 2.292757824302293 0 0 0
32 11 1 0.5897 1.1450497238283308 1.3975162997028425 3.179724901001977 0 0 0
123 41 1 0.5897 -3.3847514114785895 2.8202724908632715 2.420676493177506 1 0 0
46 16 2 -1.1794 1.8028605332570944 4.7034830562525975 2.4062632587056343 0 0 0
33 11 1 0.5897 0.614726241262165 0.5146423287210559 2.0699906230485854 0 0 0
53 18 1 0.5897 4.407244752902063 2.649921448795359 2.813252827441587 0 0 0
70 24 2 -1.1794 3.8649051842531925 0.3249796914728672 1.5491878817686862 0 0 0
101 34 1 0.5897 -2.5162752644263953 4.507651696069846 0.3365673066236871 1 0 0
158 53 1 0.5897 -4.073734367673783 4.594806846450853 4.242333260659702 1 0 0
76 26 2 -1.1794 0.7556451286513037 2.1354476370911826 4.692066685188953 0 0 0
54 18 1 0.5897 3.068626715061347 3.3562134199484635 2.8450519813766744 0 0 0
527 176 1 0.5897 4.060178288600198 1.834112749250045 0.5004289513067937 0 0 1
71 24 1 0.5897 3.1047452532608837 0.5235660413531893 2.0959225095318605 0 0 0
52 18 2 -1.1794 3.698830304522355 2.9030455341825294 3.4051279206376237 0 0 0
47 16 1 0.5897 2.008008680097533 5.190516531124977 1.6081849287867052 0 0 0
602 201 1 0.5897 -0.5371222177798205 5.358610913640593 0.6230479401632685 1 0 1
78 26 1 0.5897 0.1108400207927609 2.7999953314356634 4.449617116992907 0 0 0
6 2 1 0.5897 3.665625752130434 1.516518120411212 4.494643998887623 0 0 0
48 16 1 0.5897 2.057736407785579 5.290671271529938 3.118045224252011 0 0 0
482 161 1 0.5897 -1.0356498220202308 0.052883796274746514 0.8954161857335522 1 1 0
16 6 2 -1.1794 5.530621014874594 4.735053782167476 0.28773226179439854 0 0 0
603 201 1 0.5897 -0.10128520331115576 3.9729186517673556 0.19653553921445618 1 0 1
19 7 2 -1.1794 1.1551462706009001 2.7016123102926675 0.09670183321739423 0 0 0
134 45 1 0.5897 -2.4566253855897693 2.7231528673881735 6.105917603111014 1 0 0
135 45 1 0.5897 -1.7178617905942333 3.7807967848420394 6.898221430842131 1 0 0
60 20 1 0.5897 2.7904922458663055 3.6763860410824827 6.733684932002274 0 0 0
34 12 2 -1.1794 0.009641415208994086 1.114747637836149 7.07567719053507 0 0 0
35 12 1 0.5897 0.12113335695456051 1.7741858082142945 7.7605822566094655 0 0 0
36 12 1 0.5897 -0.8892521657357033 0.8046357444884162 7.185155561026339 0 0 0
159 53 1 0.5897 -3.1680882112220905 4.52942411389215 5.453766303232774 1 0 0
669 223 1 0.5897 -5.266528191637237 1.7503986410862966 9.199182541652815 1 0 0
124 42 2 -1.1794 -4.990024144701446 2.3558412649295093 7.555699139229314 1 0 0
58 20 2 -1.1794 2.1119956733041523 4.082828026950859 6.194566939262922 0 0 0
59 20 1 0.5897 1.86160519292339 3.4018480418073658 5.570122780394739 0 0 0
68 23 1 0.5897 -3.2904292788112053 0.008467600572223496 7.949558161568492 0 0 0
43 15 2 -1.1794 -0.34472121892900853 4.958064446071229 7.199642062866336 0 0 0
126 42 1 0.5897 -4.117278993615615 2.7404792441719716 7.4748958403841685 1 0 0
45 15 1 0.5897 0.514079463053049 4.572026822700477 7.027581925650813 0 0 0
133 45 2 -1.1794 -2.596750262904282 3.4501425982126137 6.712715298842124 1 0 0
401 134 1 0.5897 2.1911096311804252 0.22953797222879185 8.964866491800416 0 1 0
402 134 1 0.5897 1.246506294685795 0.03596303684397499 7.797674308961204 0 1 0
4 2 2 -1.1794 3.82399538646893 0.7683254698720913 5.070240245734089 0 0 0
98 33 1 0.5897 -4.12147327548432 5.039957840519203 8.793215133643718 1 0 0
77 26 1 0.5897 0.3534816537251091 1.666258032386961 5.423041307627846 0 0 0
69 23 1 0.5897 -2.723564949151264 1.106967148556026 8.823715195004938 0 0 0
67 23 2 -1.1794 -2.4655805027219437 0.4164485322888628 8.213002880463648 0 0 0
44 15 1 0.5897 -0.29475580829802484 5.260149793342796 8.106626594032825 0 0 0
5 2 1 0.5897 3.0981294468071168 0.17040828605391997 4.891804979775365 0 0 0
87 29 1 0.5897 -3.4488566712023863 1.264449523816518 4.98611114887794 1 0 0
522 174 1 0.5897 2.182755942899048 5.3847153786454305 9.065835777323803 0 0 0
157 53 2 -1.1794 -3.6288846650850353 5.146744658866793 4.8856293413981495 1 0 0
125 42 1 0.5897 -5.583792399347468 3.0419252239861407 7.250903901187016 1 0 0
85 29 2 -1.1794 -2.508297732343986 1.4117682026940612 4.88709021469489 1 0 0
22 8 2 -1.1794 0.2720570295880762 2.853583775523937 9.409274737432304 0 0 0
24 8 1 0.5897 0.9767992174607123 3.482620971751465 9.56381012119086 0 0 0
574 192 2 -1.1794 0.4937026852641013 0.7207203595992553 11.050466348988204 0 0 0
589 197 2 -1.1794 -5.88337380851746 1.051588984518827 14.282598720030737 1 0 0
560 187 1 0.5897 -4.782440182733064 3.96207341585822 12.701828627849485 0 0 0
576 192 1 0.5897 -0.2559349070791326 0.7272045991559454 11.645618157867707 0 0 0
23 8 1 0.5897 0.45065414136443804 2.1383694412038268 10.019820057589081 0 0 0
523 175 2 -1.1794 -2.326073554474792 2.704208955675117 10.10540000770372 0 0 0
627 209 1 0.5897 -6.815883699561526 2.877672140725668 12.259824265744376 1 0 0
987 329 1 0.5897 -3.4747498003082735 0.1282354249741063 11.880011475082318 1 1 0
535 179 2 -1.1794 -2.020132648406297 1.1860438292570998 12.252227310593643 0 0 0
536 179 1 0.5897 -2.105036732684959 1.7378477224810014 13.029845125730787 0 0 0
537 179 1 0.5897 -2.12921628048775 1.7890725365113884 11.516922896467424 0 0 0
99 33 1 0.5897 -4.013678929302901 5.335051174890127 10.27427284352173 1 0 0
625 209 2 -1.1794 -5.910597428020006 2.6004762949852136 12.119163078742917 1 0 0
556 186 2 -1.1794 0.39283947928362917 3.431533094439832 13.133908918043325 0 0 0
561 187 1 0.5897 -3.639951218763038 3.816000125153046 13.68432154748959 0 0 0
668 223 1 0.5897 -5.676912690763622 1.7690499583759118 10.656339879932998 1 0 0
558 186 1 0.5897 -0.4230673348590672 3.830998174394332 12.832414689528695 0 0 0
559 187 2 -1.1794 -4.12368007231469 4.468135251887566 13.177458881843785 0 0 0
550 184 2 -1.1794 -1.6324257657939638 5.17778486313234 12.198779003307957 0 0 0
552 184 1 0.5897 -2.5411265084551538 4.882532969495877 12.255821155992933 0 0 0
626 209 1 0.5897 -5.7742802637987225 1.8957049681938787 12.752339792493624 1 0 0
557 186 1 0.5897 0.11726274616891885 2.6320743694783566 13.582357775496313 0 0 0
986 329 1 0.5897 -4.679465899349758 0.1336241130002414 10.96318494290219 1 1 0
524 175 1 0.5897 -2.912981945290775 3.429567052328757 9.891899127089323 0 0 0
662 221 1 0.5897 -7.627251726934956 4.592614557181385 14.040295652119829 1 0 0
520 174 2 -1.1794 2.3446406083370874 4.686671630457927 9.700445529596667 0 0 0
97 33 2 -1.1794 -4.184847551240344 4.6262385229701115 9.654065959797883 1 0 0
667 223 2 -1.1794 -5.557673777385341 1.1804268375550755 9.910911002901335 1 0 0
575 192 1 0.5897 1.149187783678844 0.184079475176067 11.496039184104 0 0 0
606 202 1 0.5897 -5.946140792655473 5.009021543836303 9.665793471821686 1 0 0
551 184 1 0.5897 -1.4910084409299866 5.6761837388543634 13.003755810195797 0 0 0
661 221 2 -1.1794 -6.981480203195508 5.206250182453983 14.390595800249768 1 0 0
525 175 1 0.5897 -1.461523114888513 3.0046490740900538 9.825324549550338 0 0 0
547 183 2 -1.1794 -3.8593803456452918 4.929579007218843 17.097983258601182 0 0 0
581 194 1 0.5897 -2.9413293089396717 1.9086343791774065 15.029758896572456 0 0 0
526 176 2 -1.1794 -2.90261726689592 2.6745605643076193 19.006404405305027 0 0 0
630 210 1 0.5897 -8.257572219556112 2.045860227673617 16.270975781134403 1 0 0
582 194 1 0.5897 -2.066486265286705 3.1441235573774775 15.036496705600122 0 0 0
563 188 1 0.5897 -1.0422811015742148 4.937366800738478 15.643586643119233 0 0 0
639 213 1 0.5897 -5.9173452385412535 3.9159010205251863 15.2802686640923 1 0 0
20 7 1 0.5897 -5.845438469960982 2.155901815705768 18.557019271655882 0 0 -1
538 180 2 -1.1794 -3.3148022539577733 1.1728084777512477 16.743877691808784 0 0 0
539 180 1 0.5897 -3.128735615313035 1.7810524614271848 17.459267361559917 0 0 0
528 176 1 0.5897 -3.846199155528568 2.830325020355141 18.967046879271265 0 0 0
540 180 1 0.5897 -4.180182967421649 0.8188445447840623 16.94878571704438 0 0 0
638 213 1 0.5897 -6.520416297156984 3.120382954361864 16.418369798137938 1 0 0
549 183 1 0.5897 -4.520085596543662 4.2588335120121465 16.925320298047446 0 0 0
562 188 2 -1.1794 -1.3225285847739565 4.19140554071587 16.17385657925979 0 0 0
165 55 1 0.5897 -9.636477385727652 0.55683057680184 18.661758656966548 1 0 -1
564 188 1 0.5897 -2.0971381668311375 4.5058729069046946 16.640019150479667 0 0 0
637 213 2 -1.1794 -5.702006090387364 3.258193958522954 15.941520079336131 1 0 0
164 55 1 0.5897 -8.71249798878938 1.7334205056335845 18.430073530911756 1 0 -1
628 210 2 -1.1794 -8.05058805192111 2.6019219188995235 17.022201498231766 1 0 0
590 197 1 0.5897 -5.710395940376447 1.7187559691888452 14.946927231766585 1 0 0
548 183 1 0.5897 -3.9974602450269394 5.584220278770576 16.413453836021695 0 0 0
571 191 2 -1.1794 -5.809919789008811 0.3907472356926238 17.66963011566002 0 0 0
601 201 2 -1.1794 -7.642173919318255 4.755775208373887 19.178906548875155 1 0 0
580 194 2 -1.1794 -2.609234692058534 2.604015613956264 14.462017184319333 0 0 0
614 205 1 0.5897 -7.586060985150795 5.6158478607044175 17.58496069977931 1 0 0
629 210 1 0.5897 -8.686035544842927 3.3161537741946323 16.9744610659264 1 0 0
508 170 2 -1.1794 0.41604220412984194 1.1045305820440907 14.707851191013626 0 0 0
593 198 1 0.5897 -7.683707018942975 0.908414880007236 14.698418263967529 1 0 0
84 28 1 0.5897 -4.163640916108538 5.660147571026297 18.632301089790154 0 0 -1
591 197 1 0.5897 -5.280358742979324 0.3392791023734335 14.495131870989066 1 0 0
18 6 1 0.5897 -1.8380187421135679 4.082828464694383 19.172909130041113 0 0 -1
163 55 2 -1.1794 -9.07757254696762 1.1826112142261274 19.12254749101904 1 0 -1
289 97 2 -1.1794 -2.654081383353198 10.113990067769713 2.376566235288808 1 0 0
255 85 1 0.5897 -2.2275852875567663 9.18128202770306 3.8390356710539697 1 0 0
146 49 1 0.5897 -1.4765907394068372 6.886121745296446 1.9599810701316562 1 0 0
147 49 1 0.5897 -0.8504568857969312 7.618860736956497 0.7925679502631433 1 0 0
332 111 1 0.5897 -2.289567262009286 9.463185090143385 0.8316363543353837 1 0 0
145 49 2 -1.1794 -0.6527835637860533 6.986050574292818 1.4829862009785302 1 0 0
112 38 2 -1.1794 -3.155054238198834 6.566644106482187 2.6051074917264225 1 0 0
291 97 1 0.5897 -3.4902655159073275 10.498712991917962 2.639196375906019 1 0 0
290 97 1 0.5897 -2.0028031250912735 10.777817982696597 2.6033317966662213 1 0 0
221 74 1 0.5897 4.322116417266665 10.493083983803471 2.9165765322488504 0 0 0
188 63 1 0.5897 0.6711025638782502 9.911247337096256 1.050856804002388 0 0 0
200 67 1 0.5897 0.5979452060385615 8.056193261393105 2.1668898810568487 0 0 0
199 67 2 -1.1794 1.0897464497907636 8.791903193099234 2.531789708088091 0 0 0
694 232 2 -1.1794 3.7395670171204793 10.332053084618833 0.20424941887911519 0 0 1
220 74 2 -1.1794 3.622561434309228 10.66007075625682 3.548217447650463 0 0 0
10 4 2 -1.1794 2.1060030325972434 6.35568335012484 4.53408496503121 0 0 0
187 63 2 -1.1794 0.897914093088402 10.309652933602143 0.21058091650371508 0 0 0
245 82 1 0.5897 0.8786706448433428 9.508547540652032 4.049351887707101 0 0 0
114 38 1 0.5897 -3.2599552286088027 5.8592535536709605 1.9687435442925525 1 0 0
239 80 1 0.5897 3.763579449678569 8.877349037195458 1.2439886752381455 0 0 0
238 80 2 -1.1794 3.615719723192898 8.04606917344487 1.6948685749221324 0 0 0
201 67 1 0.5897 2.00672961017184 8.573495822675888 2.365657347442266 0 0 0
240 80 1 0.5897 3.2887614862678403 7.458389572240022 1.0136230708628338 0 0 0
696 232 1 0.5897 4.4404526032041876 10.98292696312752 0.1679065259695341 0 0 1
189 63 1 0.5897 1.8543560426186243 10.346737360946154 0.21299720937096014 0 0 0
113 38 1 0.5897 -3.2316436008626557 6.136646236886922 3.456849955809222 1 0 0
9 3 1 0.5897 -0.8043367695365795 5.758422157431219 4.390961964181088 0 0 0
174 58 1 0.5897 3.620910961233127 9.139447979724139 4.550968484662446 0 0 0
12 4 1 0.5897 1.1582475277663482 6.484988146320815 4.4994411428381555 0 0 0
224 75 1 0.5897 -0.356146034057633 11.11625150694344 3.938400836983612 0 0 0
331 111 2 -1.1794 -1.9578290153051132 8.961889480362599 0.08665676219898649 1 0 0
222 74 1 0.5897 2.9582071513237533 11.136242132396031 3.0501355767280947 0 0 0
82 28 2 -1.1794 2.438390123645723 6.11411417785853 0.2183005048462717 0 0 0
254 85 1 0.5897 -1.6440887160520787 8.088809512196118 4.709570242684117 1 0 0
244 82 2 -1.1794 0.7825660219118618 10.089296816999354 4.804253592580792 0 0 0
253 85 2 -1.1794 -2.1774847588341633 8.882723327115906 4.747120842798733 1 0 0
191 64 1 0.5897 0.3773255523881227 9.652417770320392 8.604509709419697 0 0 0
8 3 1 0.5897 -0.4705382961619242 6.214778760105385 5.795436083099512 0 0 0
109 37 2 -1.1794 -4.328161258093635 6.220929795880933 7.417294429010212 1 0 0
111 37 1 0.5897 -5.1769758498951735 6.660450602890566 7.467266810642355 1 0 0
293 98 1 0.5897 -3.8838461580810586 10.278917811721533 7.208194184023934 1 0 0
11 4 1 0.5897 2.234015505414713 5.701492817011609 5.220998815752496 0 0 0
292 98 2 -1.1794 -4.799355540441975 10.001978629110175 7.244418713265296 1 0 0
110 37 1 0.5897 -4.247943688076603 5.957397773964814 6.500514187383265 1 0 0
246 82 1 0.5897 0.5893616607991095 9.50254087290263 5.535413442661646 0 0 0
294 98 1 0.5897 -4.941310287123866 9.761730011301033 8.160059778719603 1 0 0
172 58 2 -1.1794 3.835652688709734 8.39122589180839 5.107953600441309 0 0 0
64 22 2 -1.1794 2.1471838252545314 6.7849686835689775 7.993279893011284 0 0 0
258 86 1 0.5897 -5.030635550723366 8.917108065620603 5.86983848699238 1 0 0
202 68 2 -1.1794 0.23694321086597814 8.666560796123433 7.048750515066732 0 0 0
203 68 1 0.5897 -0.60043060236241 8.306386732776637 7.340700616502797 0 0 0
204 68 1 0.5897 0.8813323195446934 8.000755955372517 7.288860587494176 0 0 0
588 196 1 0.5897 -1.3658169274692247 6.657555230550002 9.38751628895978 0 0 0
235 79 2 -1.1794 -2.192997959930466 7.786336426838062 8.14140819760897 0 0 0
236 79 1 0.5897 -2.9872452313646076 7.293528156843067 7.935188155302412 0 0 0
237 79 1 0.5897 -2.5034097132997357 8.547977904720272 8.631172150719605 0 0 0
302 101 1 0.5897 -2.0213541248939815 10.16134916919147 6.039450638739239 1 0 0
301 101 2 -1.1794 -2.2980030055195444 10.869958648622688 6.620551182178698 1 0 0
837 279 1 0.5897 -6.015627067122212 8.460318026835486 9.100605085444863 1 0 0
65 22 1 0.5897 2.508781608309815 7.3304941779629385 8.691862614287633 0 0 0
303 101 1 0.5897 -1.4803270860729856 11.252331842390886 6.939028519648767 1 0 0
66 22 1 0.5897 2.9138014790718634 6.461325389721897 7.5202365384278425 0 0 0
257 86 1 0.5897 -4.003948236874717 8.364247234789133 4.904320833005474 1 0 0
228 76 1 0.5897 2.0276326813184777 11.299558748615755 5.677271519162394 0 0 0
692 231 1 0.5897 -1.5924142990119932 10.236779522038095 9.478156560710786 0 0 0
192 64 1 0.5897 0.8020612158545992 10.84724453556486 9.431665764809914 0 0 0
190 64 2 -1.1794 0.2203862409087951 10.08714703053614 9.44281200026004 0 0 0
173 58 1 0.5897 3.186798103406244 7.726348227363701 4.8773389305308985 0 0 0
7 3 2 -1.1794 -0.6351672567207691 6.543639780011473 4.9116903346866225 0 0 0
691 231 2 -1.1794 -2.509366320456086 10.058637323130169 9.686993023572487 0 0 0
794 265 1 0.5897 -5.35928054283886 10.681646544359392 12.297152772409566 1 0 0
750 250 1 0.5897 -3.283891828720546 10.561171279091207 14.236655733277559 0 0 0
618 206 1 0.5897 -6.6041717646394735 6.230681521182371 11.348929721488055 1 0 0
742 248 2 -1.1794 0.31958513158032886 8.047971464400204 11.313475887389368 0 0 0
724 242 2 -1.1794 0.5694655222628242 10.822596288968773 12.917359351234868 0 0 0
616 206 2 -1.1794 -6.54664885601348 6.831000214765956 12.092362304512799 1 0 0
693 231 1 0.5897 -2.491477704825361 9.73162964481129 10.586441889308464 0 0 0
649 217 2 -1.1794 -4.08712803220776 7.091511318859967 11.038312932161212 1 0 0
650 217 1 0.5897 -3.399505226368361 7.599006643821853 11.469485789434561 1 0 0
651 217 1 0.5897 -4.810894984144951 7.087538177503764 11.664695463228623 1 0 0
795 265 1 0.5897 -5.917575365069112 9.808254180994908 11.193638341656008 1 0 0
744 248 1 0.5897 0.08084345486352129 7.397386651556131 10.653085828627948 0 0 0
793 265 2 -1.1794 -6.036367370839029 10.029348787025818 12.117417478412593 1 0 0
586 196 2 -1.1794 -0.6971997111836163 6.075246380479041 9.74812083492537 0 0 0
759 253 1 0.5897 -5.821851638810369 9.037321399909986 13.661023490340694 1 0 0
703 235 2 -1.1794 -2.1355147182351892 8.746723642576208 12.107856712881725 0 0 0
704 235 1 0.5897 -1.2067502509910755 8.558487406810317 11.97322688134688 0 0 0
705 235 1 0.5897 -2.1694774070767053 9.1951288446499 12.952939474344383 0 0 0
743 248 1 0.5897 0.4880034912497102 8.846670545881429 10.813577744687063 0 0 0
678 226 1 0.5897 0.4377086500467975 9.310553234349692 13.919125727290783 0 0 0
836 279 1 0.5897 -4.863012926008378 8.358596370593908 10.076851528130488 1 0 0
663 221 1 0.5897 -6.824539583649406 5.8233292093707485 13.67590684340561 1 0 0
513 171 1 0.5897 -4.267795385829155 5.92646889327146 14.213613314597458 0 0 0
617 206 1 0.5897 -7.282380196413763 7.431582182670392 11.973331142756715 1 0 0
726 242 1 0.5897 -0.15297433670521166 11.276046854028422 12.483016351361968 0 0 0
835 279 2 -1.1794 -5.4321429035604005 8.992954222693585 9.641121468406993 1 0 0
587 196 1 0.5897 -1.1010071337325416 5.702325029468535 10.531745626656175 0 0 0
797 266 1 0.5897 -7.2319529149828625 10.738395185656715 16.575689699021034 1 0 0
695 232 1 0.5897 -3.042117990780893 9.967550376468639 18.516103858608467 0 0 0
741 247 1 0.5897 -6.086695245887272 8.858225631166793 18.18370258243153 0 0 0
613 205 2 -1.1794 -7.655992910154333 6.323442379457389 16.944169197839564 1 0 0
740 247 1 0.5897 -6.38527053908858 7.60217322521473 17.39288937881758 0 0 0
568 190 2 -1.1794 -1.3221836766154267 7.239910427890321 17.925700700935963 0 0 0
333 111 1 0.5897 -8.59839206758042 9.746688904615446 18.563990786280606 1 0 -1
515 172 1 0.5897 -2.1359450250215524 6.812181980570999 14.717262982527107 0 0 0
758 253 1 0.5897 -5.455847207847352 9.446400593331628 15.072032863815162 1 0 0
83 28 1 0.5897 -5.016754572207227 6.87119014249757 18.944513456782538 0 0 -1
569 190 1 0.5897 -1.4857067773170591 6.508812951797236 18.521474595852084 0 0 0
749 250 1 0.5897 -2.6633877816838343 9.720209919795696 15.331922365187019 0 0 0
798 266 1 0.5897 -8.34178122258189 9.766949362392827 16.234361975991433 1 0 0
511 171 2 -1.1794 -4.096909761820198 6.597530740790464 14.874564568230491 0 0 0
796 266 2 -1.1794 -8.096063905104446 10.444703772242228 16.8641599803018 1 0 0
706 236 2 -1.1794 -3.1752422693481597 9.031047097856948 16.966083166852123 0 0 0
707 236 1 0.5897 -4.059593061238371 8.711130700834053 17.144222838906344 0 0 0
708 236 1 0.5897 -2.599497000592889 8.341543804348017 17.29665790775035 0 0 0
739 247 2 -1.1794 -5.665636401076952 8.09629697362193 17.78562188124431 0 0 0
762 254 1 0.5897 -7.695661387510493 8.467032967821755 14.684738675166846 1 0 0
615 205 1 0.5897 -7.47978139933267 5.9031732308508476 16.102331726851723 1 0 0
805 269 2 -1.1794 -5.553370606944879 11.134308028272752 15.877529530866038 1 0 0
570 190 1 0.5897 -0.5432357398375487 6.9793549785194395 17.4342053963844 0 0 0
512 171 1 0.5897 -4.771135972367796 7.260008133549675 14.723859328172702 0 0 0
757 253 2 -1.1794 -5.761163508858077 8.700814046952663 14.555084497006813 1 0 0
676 226 2 -1.1794 0.5106007488446265 8.613804520157766 14.571372140690555 0 0 0
748 250 2 -1.1794 -2.4576575085453234 10.161023095999012 14.507552810958657 0 0 0
514 172 2 -1.1794 -1.2586602385487877 6.470513205569696 14.544622594628377 0 0 0
516 172 1 0.5897 -0.6978266098153005 7.246046071312921 14.529411382331704 0 0 0
280 94 2 -1.1794 -3.494723997988456 13.701009072480772 2.61674235183743 1 0 0
281 94 1 0.5897 -3.6102703058945513 13.302816332909401 3.479490186280155 1 0 0
282 94 1 0.5897 -2.587773775747486 14.006949812689102 2.6132091455273234 1 0 0
500 167 1 0.5897 -1.5171397902538573 15.693844714336846 0.6268565244054839 1 0 0
423 141 1 0.5897 -2.3897343306660845 16.58044130667442 3.9935545291650425 1 0 0
313 105 2 -1.1794 -0.9103372012271809 14.504350369663454 2.0430042507036807 1 0 0
315 105 1 0.5897 -0.676991253660844 13.81820870260022 1.4176132567721236 1 0 0
223 75 2 -1.1794 -0.7459264547053159 11.730219256338714 3.3160555233110904 0 0 0
225 75 1 0.5897 -0.9307975435596623 12.51302183851624 3.8350710035555307 0 0 0
314 105 1 0.5897 -0.08188148281314778 14.941462651027326 2.240005668996913 1 0 0
368 123 1 0.5897 2.0869492529718663 15.874843443756149 2.691025403841265 0 0 0
770 257 1 0.5897 -1.4692033628792784 12.244156582841091 0.13907314332673018 1 0 1
406 136 2 -1.1794 3.7821881925419794 15.425411088325784 1.909120871195186 0 0 0
407 136 1 0.5897 4.654227230706153 15.102371812220362 2.1357410503171437 0 0 0
215 72 1 0.5897 1.9962749395007142 12.892936508712234 1.82096666965377 0 0 0
252 84 1 0.5897 3.187055346479137 14.146850546458884 0.7347814663367043 0 0 0
214 72 2 -1.1794 1.8481590879434213 12.602960119597578 2.721094483764918 0 0 0
408 136 1 0.5897 3.9451847504345734 16.174213718562875 1.3356104344222457 0 0 0
216 72 1 0.5897 0.9189686625311051 12.37505327835269 2.7499231866714826 0 0 0
367 123 2 -1.1794 1.1635887797403823 16.120058571167732 2.749681225377735 0 0 0
180 60 1 0.5897 2.0605435297913317 13.756737823054792 4.166152733779123 0 0 0
184 62 2 -1.1794 5.610313693547729 12.381258226465135 0.455415598451539 0 0 0
369 123 1 0.5897 1.0876894516456943 16.56972544942983 3.5913604992040065 0 0 0
499 167 2 -1.1794 -2.1757470031961397 16.300582686790925 0.28879717582572895 1 0 0
250 84 2 -1.1794 2.6659622187440952 13.500350842790667 0.25852072198344767 0 0 0
769 257 2 -1.1794 -0.5813193172981244 12.601669841269972 0.1427436453229401 1 0 1
404 135 1 0.5897 -1.6209803355138512 15.63839383769557 7.812667525887296 0 0 0
326 109 1 0.5897 -3.2574099900173628 11.877786104196252 5.600605824736707 1 0 0
340 114 2 -1.1794 3.710530810227999 16.215117443836142 5.122183801865552 0 0 0
327 109 1 0.5897 -4.186325419391671 13.033055114708091 5.9077929298942085 1 0 0
405 135 1 0.5897 -2.4665059956280233 16.379058693120818 8.826844125436125 0 0 0
211 71 2 -1.1794 -0.19088277564578426 12.410206461844894 7.36818463791786 0 0 0
227 76 1 0.5897 1.5533079432481163 11.966580661648644 6.950966224589433 0 0 0
213 71 1 0.5897 -0.4690284037492769 13.028120692848216 6.692150487832881 0 0 0
212 71 1 0.5897 -0.33971778023378807 12.873367131421416 8.192622142632064 0 0 0
341 114 1 0.5897 3.204857757982678 15.40315099046538 5.157226339420294 0 0 0
232 78 2 -1.1794 2.109329736294673 14.670802067561105 8.140069837338633 0 0 0
371 124 1 0.5897 0.14309301093516913 16.888426950304172 7.850661747918181 0 0 0
234 78 1 0.5897 1.457380219827824 15.058810721270488 7.5564396374028036 0 0 0
370 124 2 -1.1794 0.0161350022908211 16.238033324571088 7.159827204125769 0 0 0
179 60 1 0.5897 2.1485716471294856 13.299315237707498 5.606644202365765 0 0 0
277 93 2 -1.1794 -4.527311931979087 13.909805505728992 7.351732605821858 1 0 0
278 93 1 0.5897 -3.9184924455925554 14.61399605103083 7.5746775727262605 1 0 0
177 59 1 0.5897 0.17283968964183227 14.1643963049687 4.9949713201460355 0 0 0
233 78 1 0.5897 2.8818399774582257 14.547323171546731 7.588533940731612 0 0 0
403 135 2 -1.1794 -2.4375317716988185 15.575086637572554 8.308059600304144 0 0 0
756 252 1 0.5897 -1.720120505021626 14.228597158554944 9.22235325221492 0 0 0
267 89 1 0.5897 -4.074829056525271 12.723366927079013 8.676399861830932 1 0 0
279 93 1 0.5897 -5.392300274338659 14.269101813533876 7.548920210761489 1 0 0
690 230 1 0.5897 1.888116728983663 13.013016064534206 8.984653645400734 0 0 0
226 76 2 -1.1794 2.3410892051062397 11.791720055837338 6.436155135978523 0 0 0
1004 335 1 0.5897 -5.175708883757591 16.909069668412315 8.973575898940659 1 0 0
425 142 1 0.5897 -4.007430734717872 16.021522046254205 4.994535479887867 1 0 0
372 124 1 0.5897 0.24249220943504657 16.698710623836266 6.351893068074048 0 0 0
325 109 2 -1.1794 -3.890753734828918 12.468692643131547 5.19331064708297 1 0 0
176 59 1 0.5897 -1.2348451671165153 14.719967830840037 4.956273889349632 0 0 0
175 59 2 -1.1794 -0.7449633355406373 13.907529755653428 5.0834096602164704 0 0 0
421 141 2 -1.1794 -2.254418659402085 16.157327778382253 4.8414376386221685 1 0 0
422 141 1 0.5897 -2.032817727101382 16.87479472971919 5.435145735519386 1 0 0
178 60 2 -1.1794 2.0088947776713564 14.077227762673044 5.06670634760389 0 0 0
688 230 2 -1.1794 1.976661238676316 12.278438622615143 9.591903139905137 0 0 0
266 89 1 0.5897 -3.6089520765019376 11.519134863220145 9.466702312400505 1 0 0
265 89 2 -1.1794 -4.1278776774878985 12.319857147982491 9.542778178377635 1 0 0
754 252 2 -1.1794 -0.9527169172004681 13.786750899652898 9.585730832594548 0 0 0
774 258 1 0.5897 -5.937767581507513 12.271085346352443 9.897779121269313 1 0 0
728 243 1 0.5897 -3.29677358643532 11.81729245373858 12.558798812889053 0 0 0
755 252 1 0.5897 -0.47693113351629446 14.47526749620284 10.050353830626948 0 0 0
718 240 2 -1.1794 -1.5737924043952507 12.189550600952904 11.931401390840415 0 0 0
912 304 1 0.5897 0.8486798260115567 15.24628937572544 11.442571644834752 0 0 0
720 240 1 0.5897 -1.49213360279182 12.899818930374447 12.56797840764279 0 0 0
925 309 2 -1.1794 -5.648086654400842 16.23308429355407 14.21589206080144 1 0 0
871 291 2 -1.1794 -2.2883293989935902 16.40267704381755 12.245976547469667 0 0 0
725 242 1 0.5897 0.9168631766853483 11.463603178213685 13.537675770796461 0 0 0
784 262 2 -1.1794 -6.65593675571605 14.086756041988052 12.098768952046042 1 0 0
729 243 1 0.5897 -4.264221633523454 12.610047558197577 13.411778199503315 0 0 0
911 304 1 0.5897 -0.5385251999164504 15.831758181785048 11.59952315749964 0 0 0
910 304 2 -1.1794 0.2022125801474437 15.791812039145563 10.994608926409475 0 0 0
1005 335 1 0.5897 -4.871449678968631 16.015053463878722 10.15680285662421 1 0 0
727 243 2 -1.1794 -4.121551563263462 11.74026467346379 13.038365101829815 0 0 0
719 240 1 0.5897 -1.4731952881740646 12.616813426913389 11.080774339423337 0 0 0
786 262 1 0.5897 -6.850053125835849 13.693029326814102 12.949378619429725 1 0 0
817 273 2 -1.1794 -4.009478136180311 14.48115825192572 11.191195700670804 1 0 0
818 273 1 0.5897 -4.858175400956206 14.355149393595012 11.615462225264942 1 0 0
819 273 1 0.5897 -3.875274200595115 13.682427356456927 10.680937155668273 1 0 0
873 291 1 0.5897 -2.8745267762529743 15.675683929163442 12.035947716868039 0 0 0
680 227 1 0.5897 -2.943036311739773 14.27043767237945 14.317116819414943 0 0 0
926 309 1 0.5897 -5.002891910665434 15.531561810990382 14.304118740000513 1 0 0
682 228 2 -1.1794 -1.119709875431715 14.079744497400496 14.04360071744674 0 0 0
831 277 1 0.5897 -7.7191853642355746 12.304788715184328 14.225158869586267 1 0 0
1003 335 2 -1.1794 -5.583623279455105 16.49489865224906 9.73402057874507 1 0 0
684 228 1 0.5897 -0.606413448366923 14.857251341526194 14.263337735167644 0 0 0
785 262 1 0.5897 -7.329449060726777 14.757372348960574 11.985443204554056 1 0 0
773 258 1 0.5897 -6.908122251370303 12.979634294014378 10.818848029504444 1 0 0
846 282 1 0.5897 0.18771495572802355 16.938416023282148 14.021827512748612 0 0 0
930 310 1 0.5897 -7.488511468155163 15.998392863647535 14.273752861059915 1 0 0
679 227 2 -1.1794 -3.8715685422212855 14.131974471448235 14.503678807257101 0 0 0
731 244 1 0.5897 -1.53947157876895 11.543292343241157 15.250190811497959 0 0 0
717 239 1 0.5897 -2.7671587524486316 12.500854063079986 16.791293346313843 0 0 0
783 261 1 0.5897 -8.744612327756272 14.401307848889592 17.018974176788653 1 0 0
683 228 1 0.5897 -0.8593782926161548 13.428411047575276 14.69490207747396 0 0 0
681 227 1 0.5897 -3.880698289065477 13.642765247362888 15.326371953719931 0 0 0
830 277 1 0.5897 -7.463827911309719 13.376802164455412 15.263350798897857 1 0 0
251 84 1 0.5897 -4.855596772722446 14.140446197003191 18.925272270320235 0 0 -1
715 239 2 -1.1794 -3.6811680530801194 12.752932352486773 16.92244788389108 0 0 0
716 239 1 0.5897 -3.741849055328979 12.958854301765687 17.855334999711765 0 0 0
874 292 2 -1.1794 -3.2258840469799406 16.302764678598002 16.974797092832922 0 0 0
907 303 2 -1.1794 -5.686878040396536 15.574789781938161 17.9530317633415 0 0 0
875 292 1 0.5897 -3.114613424548735 16.62711758486374 16.08111242721457 0 0 0
876 292 1 0.5897 -2.559527743014054 15.62193424231582 17.06767377676448 0 0 0
736 246 2 -1.1794 -1.1082557158040451 14.727339706775554 17.79868068204449 0 0 0
909 303 1 0.5897 -5.0328004652267575 15.791233709710097 17.28855245461294 0 0 0
781 261 2 -1.1794 -7.827340241448148 14.145742926186228 16.92179028778679 1 0 0
782 261 1 0.5897 -7.6777465915988685 13.515736729022402 17.62670698171278 1 0 0
730 244 2 -1.1794 -1.1637530993750413 12.102079023811239 15.930586341009576 0 0 0
908 303 1 0.5897 -6.417800875536335 15.204157683205256 17.458396959716872 0 0 0
737 246 1 0.5897 -0.7455525003610886 15.445973957834903 18.31671225302709 0 0 0
844 282 2 -1.1794 0.34733402642713074 16.274634658095707 14.69273512888511 0 0 0
927 309 1 0.5897 -5.478805947120349 16.809969529235374 14.960834023362594 1 0 0
185 62 1 0.5897 -1.3857052534271643 13.258723960393556 19.01322918533034 0 0 -1