LAMMPS data file via write_data, version 30 Jul 2021, timestep = 1000000

864 atoms
2 atom types
576 bonds
1 bond types
288 angles
1 angle types

-0.039746990210474564 18.247319390206645 xlo xhi
0.031981337166838486 23.597196462838113 ylo yhi
0.01111742208355615 22.202078377916266 zlo zhi

Masses

1 1.00794
2 15.9994

Atoms # full

707 1 1 0.5897 2.375690090603017 1.8312995287649234 4.157294457325202 0 0 0
706 1 2 -1.1794 2.46610917392083 1.6899731914064124 3.2149186835398873 0 0 0
495 1 1 0.5897 7.924860394950508 2.0983150539774313 2.275177210218 0 0 0
20 1 1 0.5897 0.3457855890983381 3.173739878704108 0.21917767586523274 0 0 0
668 1 1 0.5897 4.867264133633785 2.9500589078487325 0.30447615646741344 0 0 0
708 1 1 0.5897 1.748398275694009 2.190892314096803 2.8271519860440812 0 0 0
29 1 1 0.5897 4.082007953669197 2.18221259975637 2.3588729169242613 0 0 0
28 1 2 -1.1794 4.849550999793865 2.6907291405921048 2.0969256262391567 0 0 0
595 1 2 -1.1794 0.24601071576734496 5.6009147365054135 3.002450461866877 0 0 0
1 1 2 -1.1794 0.32998997884720555 2.8471991093956177 2.0138750105718306 0 0 0
30 1 1 0.5897 4.784618430261987 3.5009877168711556 2.6024567221742116 0 0 0
493 1 2 -1.1794 7.279180464414456 1.6838434165041631 2.8475522830015576 0 0 0
494 1 1 0.5897 6.435628594902853 2.0089981680947195 2.5328732800470766 0 0 0
3 1 1 0.5897 0.3333732932540538 3.692526200162353 2.463004109554356 0 0 0
846 1 1 0.5897 7.306447495720471 2.210207896353491 4.660912044133417 0 0 0
597 1 1 0.5897 0.43368999668428276 5.7168232259382386 3.933866556222083 0 0 0
819 1 1 0.5897 7.330620152244802 0.13017783143070044 2.0395928380101696 0 0 0
136 1 2 -1.1794 4.593733396004921 5.589777606816752 3.1666423178908425 0 0 0
137 1 1 0.5897 4.601683667242547 5.457517015914549 4.114598433304116 0 0 0
419 1 1 0.5897 8.80093068899246 3.00764373004405 6.116571126562459 0 0 0
686 1 1 0.5897 4.78766174380658 4.907600417737113 6.346291990804303 0 0 0
36 1 1 0.5897 1.3526324982047053 2.283461949076834 10.133680557493449 0 0 0
844 1 2 -1.1794 6.985696516236445 2.279123946044117 5.5601047692964825 0 0 0
673 1 2 -1.1794 3.0340692969785787 1.8236153771232984 10.915173762414108 0 0 0
355 1 2 -1.1794 7.953995903650667 1.8481324232943814 10.531515082854018 0 0 0
674 1 1 0.5897 3.7496567041687037 2.231116076412486 10.42711751210556 0 0 0
675 1 1 0.5897 2.771969869488853 1.0761925645302375 10.377568599216591 0 0 0
34 1 2 -1.1794 0.5230914517538888 2.6794581764066603 9.866509165978288 0 0 0
845 1 1 0.5897 7.112193076033504 1.4043717690948416 5.927695105265138 0 0 0
274 1 2 -1.1794 5.37420246569585 2.7790333151857345 9.41250276706191 0 0 0
784 1 2 -1.1794 0.2953762556995579 3.2105458250461822 7.2230327701630745 0 0 0
83 1 1 0.5897 4.060823347142533 2.5058811137711765 6.666605943439605 0 0 0
785 1 1 0.5897 0.34243180028668324 2.9412183500387523 8.140332364055725 0 0 0
82 1 2 -1.1794 4.7619601947992045 3.1493053105275974 6.770312790437427 0 0 0
678 1 1 0.5897 5.2780519075102275 4.531584895180279 9.82197889025438 0 0 0
276 1 1 0.5897 6.29130759187835 2.62807491315704 9.64152855171216 0 0 0
183 1 1 0.5897 0.5682375641877248 4.859545582632099 6.379975442429966 0 0 0
275 1 1 0.5897 5.373923873375019 2.850906049637577 8.458042849341789 0 0 0
84 1 1 0.5897 5.481245448095337 2.808270332622911 6.238698487961089 0 0 0
112 1 2 -1.1794 0.6066230346746667 5.503308169662824 10.211678363443623 0 0 0
35 1 1 0.5897 0.5635474009111928 3.573526261154991 10.206126219162465 0 0 0
676 1 2 -1.1794 5.168924493630637 5.436761218669506 10.113653420490063 0 0 0
356 1 1 0.5897 7.775814119031224 1.0089849660664174 10.10675908812773 0 0 0
488 1 1 0.5897 1.6962685538239102 2.379485716280165 6.158162686029552 0 0 0
181 1 2 -1.1794 0.6782402661909307 5.635605689495277 5.830475188677477 0 0 0
677 1 1 0.5897 5.9517014199304015 5.8872076829963005 9.796347294672614 0 0 0
489 1 1 0.5897 2.234659825264285 0.9657238738555257 6.098094495055631 0 0 0
685 1 2 -1.1794 4.929016636156002 5.777721868318023 5.97316220332508 0 0 0
487 1 2 -1.1794 2.4638291773531322 1.8723644663250283 5.893569290972688 0 0 0
166 1 2 -1.1794 2.9828490976187783 1.5607226549961148 13.556224885197356 0 0 0
167 1 1 0.5897 3.011718421330334 1.6603709386733096 12.604701133576711 0 0 0
71 1 1 0.5897 5.35885332788766 2.882133547481978 16.35915522556069 0 0 0
459 1 1 0.5897 4.251823485142863 2.4669697808178497 14.33606234544667 0 0 0
168 1 1 0.5897 2.131798107178894 1.9185236952951077 13.809274810227766 0 0 0
594 1 1 0.5897 8.389554261150707 2.0718213296025207 14.118938048246552 0 0 0
357 1 1 0.5897 8.27848965426709 1.612930653059404 11.40076566683898 0 0 0
592 1 2 -1.1794 7.763840462287044 1.7486904757223762 13.470602076351392 0 0 0
458 1 1 0.5897 5.684133223797279 2.4830814182489434 13.84575921327446 0 0 0
593 1 1 0.5897 7.606078374371197 0.8386110178399576 13.722018882187413 0 0 0
457 1 2 -1.1794 5.078152811181308 2.9413788461242163 14.428041259063281 0 0 0
466 1 2 -1.1794 0.8349607707238738 2.8448258637609256 14.332044502977636 0 0 0
762 1 1 0.5897 5.608584928821285 4.966481620192615 13.674486770884517 0 0 0
365 1 1 0.5897 0.5191174107172772 4.485581936442946 13.523841974890907 0 0 0
468 1 1 0.5897 0.9008836122906034 2.741232963954729 15.281300930690334 0 0 0
113 1 1 0.5897 0.6557931759764243 5.516631829142373 11.16748902811106 0 0 0
761 1 1 0.5897 5.349324899185089 5.276062519199839 12.215470477313781 0 0 0
364 1 2 -1.1794 0.5580599136955788 5.3426322761167 13.099246972679724 0 0 0
760 1 2 -1.1794 5.490206350025589 5.694736188915316 13.064635597971513 0 0 0
467 1 1 0.5897 0.03578006404371692 2.37461410054171 14.094248738141392 0 0 0
366 1 1 0.5897 1.4112624111818837 5.6965061253581295 13.350611201550072 0 0 0
289 1 2 -1.1794 2.7878730140143526 1.3324819593871422 17.916209968444598 0 0 0
669 1 1 0.5897 4.050482705967654 2.795243157810534 21.23023221496632 0 0 0
133 1 2 -1.1794 0.4772587626097021 2.5864394936985406 17.0625277300964 0 0 0
756 1 1 0.5897 7.0309725020893 2.6007749769147708 17.788958455914113 0 0 0
41 1 1 0.5897 6.245553776203569 2.4571962872418722 20.7624904679355 0 0 0
569 1 1 0.5897 1.8129348014080078 1.9446351098161816 20.992485488755356 0 0 0
570 1 1 0.5897 2.76336485474776 1.4865518642524915 19.906767798525564 0 0 0
568 1 2 -1.1794 2.6446961021928193 1.4907047483015483 20.85656413468415 0 0 0
134 1 1 0.5897 0.46113384422727854 3.5342811308526607 17.195498912484773 0 0 0
291 1 1 0.5897 1.9212189901911478 1.6893160732540942 17.72149951472467 0 0 0
667 1 2 -1.1794 4.898533096219153 3.1022878678759533 21.550953979699806 0 0 0
72 1 1 0.5897 4.546592700737274 2.341456746714089 17.51666165233638 0 0 0
278 1 1 0.5897 5.452181890098973 4.739411808447204 17.702664023139732 0 0 0
19 1 2 -1.1794 0.3443900936663344 3.2081510972462737 21.453596698696487 0 0 0
143 1 1 0.5897 5.253156187920285 4.88779929276335 21.017193047769133 0 0 0
290 1 1 0.5897 2.756152870921368 0.4332742798233834 17.58949005657712 0 0 0
360 1 1 0.5897 9.001777979879286 2.9917207668286805 20.67248551033522 0 0 0
70 1 2 -1.1794 5.212563673922508 2.9935877280496968 17.298502102133064 0 0 0
754 1 2 -1.1794 7.887928748311451 2.3168337565041317 18.107263769677793 0 0 0
40 1 2 -1.1794 7.155431707670354 2.18674371484144 20.638554991059976 0 0 0
755 1 1 0.5897 7.824504137181556 2.3844699565102854 19.05992741059876 0 0 0
42 1 1 0.5897 7.163823179501768 1.2584245729930634 20.872070390160232 0 0 0
572 1 1 0.5897 1.2764842392584956 5.918158479858651 17.117571101771034 0 0 0
21 1 1 0.5897 0.34488581236112703 4.142869625481963 21.24707797899579 0 0 0
323 1 1 0.5897 7.585704611455771 0.4335688506332831 17.67610402520257 0 1 0
571 1 2 -1.1794 0.5237626085628232 5.563749117053563 17.591012160197565 0 0 0
144 1 1 0.5897 5.436151289075642 5.750796504406517 19.786901272906015 0 0 0
277 1 2 -1.1794 5.5578484911946875 5.636140747114066 18.02053938530628 0 0 0
648 1 1 0.5897 0.4552222323925797 5.8089066112324605 19.463467425061268 0 0 0
142 1 2 -1.1794 5.32737021598646 5.800000039874504 20.736610767741517 0 0 0
255 1 1 0.5897 1.713064693176857 6.613796332108904 2.052874041564086 0 0 0
123 1 1 0.5897 2.5763332695035923 9.012090477971125 2.500277648891413 0 0 0
121 1 2 -1.1794 2.8794766058160652 9.89230133541116 2.7231858960169184 0 0 0
122 1 1 0.5897 2.954232332865511 9.885822272605056 3.6774261318613948 0 0 0
44 1 1 0.5897 1.3446302640972045 10.685255501326655 2.4217493516617057 0 0 0
253 1 2 -1.1794 2.476125140290241 7.16930232844824 1.8932152503006503 0 0 0
712 1 2 -1.1794 7.390798355744084 9.74044363357395 5.446652977101771 0 0 0
416 1 1 0.5897 6.156613757802773 6.232053770877265 2.4917352639033736 0 0 0
219 1 1 0.5897 4.4731689479300965 10.569495901515557 1.9714214612615235 0 0 0
217 1 2 -1.1794 5.255721495182534 10.864375023190556 1.5056423849273302 0 0 0
218 1 1 0.5897 5.979061419691662 10.415667999553335 1.9435373566767398 0 0 0
417 1 1 0.5897 7.664895232202935 6.238055479560799 2.3605962612120814 0 0 0
66 1 1 0.5897 7.208668678881623 9.615708518603867 3.7185121087161117 0 0 0
65 1 1 0.5897 6.902006252773795 8.726676229191547 2.5321288514721845 0 0 0
64 1 2 -1.1794 7.315334983247432 9.556940080043578 2.769125601028008 0 0 0
415 1 2 -1.1794 6.883838338517663 6.745654719029621 2.1400670464778093 0 0 0
254 1 1 0.5897 2.699726983406327 7.01203790384407 0.9759120605667825 0 0 0
396 1 1 0.5897 0.5851495087391947 11.0075670381447 0.2751368244425482 0 0 0
43 1 2 -1.1794 0.5509459534634237 11.078158022134069 2.0584235813033764 0 0 0
162 1 1 0.5897 7.425163842267311 7.130466725660138 0.40505034352540537 0 0 1
138 1 1 0.5897 3.8409714052040056 6.160056608672531 3.010177655858196 0 0 0
773 1 1 0.5897 8.657247739714673 10.468878120507485 2.1234319697693893 0 0 0
257 1 1 0.5897 3.2922530795493015 8.684025912644493 9.598589121310445 0 0 0
256 1 2 -1.1794 3.2272265139480267 9.5899234888136 9.901018941490294 0 0 0
795 1 1 0.5897 3.8098854194330354 9.630653588681042 6.246865394130396 0 0 0
14 1 1 0.5897 0.7550504762122534 11.783609408256916 9.803898542130574 0 0 0
822 1 1 0.5897 8.578676068481919 9.617112570903279 10.31736524197483 0 0 0
13 1 2 -1.1794 0.7632673739453183 10.96053510436661 9.315250604169753 0 0 0
258 1 1 0.5897 4.047406085750711 9.996087139656424 9.620529984470721 0 0 0
15 1 1 0.5897 1.578076562643284 10.532924876684483 9.578996712563525 0 0 0
551 1 1 0.5897 0.9130745705819344 11.30054506254584 7.560027133720741 0 0 0
577 1 2 -1.1794 5.495952010275165 10.856591195531136 6.921340414028672 0 0 0
794 1 1 0.5897 2.462383320020726 10.280719311388607 6.014817112606954 0 0 0
649 1 2 -1.1794 2.9413280839424294 6.923200951795134 9.468543799826373 0 0 0
550 1 2 -1.1794 1.2098686180303655 11.278234440311724 6.650300170205655 0 0 0
146 1 1 0.5897 6.757563751638566 6.657254446449258 6.124065450235562 0 0 0
581 1 1 0.5897 6.624918357612328 10.216605095118071 9.876915652756521 0 0 0
114 1 1 0.5897 1.4171798960826567 5.923368813616363 9.923816386626118 0 0 0
147 1 1 0.5897 7.428799365386604 7.0536373378232655 7.42181396504553 0 0 0
687 1 1 0.5897 4.248289481799658 6.322077259931141 6.368906432926796 0 0 0
580 1 2 -1.1794 5.897324903830796 10.804679552843506 9.67416140443994 0 0 0
12 1 1 0.5897 2.817217661816948 7.875254156267349 6.224695435389907 0 0 0
650 1 1 0.5897 2.9047692895618544 6.857170848655106 8.514352714847469 0 0 0
526 1 2 -1.1794 7.414097434776334 6.6659809718548475 9.204150973908366 0 0 0
582 1 1 0.5897 5.919924811661121 10.894797066487198 8.721519277354725 0 0 0
145 1 2 -1.1794 7.443746653162771 7.22206181275908 6.479696786813763 0 0 0
820 1 2 -1.1794 7.863228232913219 9.058391477292027 10.621152278173904 0 0 0
651 1 1 0.5897 3.7040359710838566 6.400444207362343 9.716206761510588 0 0 0
527 1 1 0.5897 7.366812089393128 7.557116495780922 9.55054222493821 0 0 0
10 1 2 -1.1794 2.7925820830382078 7.112997253209726 6.803172066928821 0 0 0
714 1 1 0.5897 7.467768041682071 8.87453266918802 5.8474002076035525 0 0 0
578 1 1 0.5897 6.100663219640743 10.47901045626189 6.282572578360264 0 0 0
11 1 1 0.5897 2.105801436678996 6.55574157802172 6.4368817600093875 0 0 0
713 1 1 0.5897 8.106998614611449 10.246853323385244 5.829945920523218 0 0 0
528 1 1 0.5897 8.219824661930456 6.3065127920165605 9.575521926327982 0 0 0
579 1 1 0.5897 5.42592608597688 11.77768012122167 6.670300245391462 0 0 0
793 1 2 -1.1794 3.0480062389158875 9.607687444603329 5.667808768574503 0 0 0
476 1 1 0.5897 6.963555287068298 9.823552218378065 13.546595099588737 0 0 0
332 1 1 0.5897 3.0350380885756674 7.819029266591525 13.369881639224692 0 0 0
797 1 1 0.5897 2.889213323999043 9.47024627936277 11.701231576411466 0 0 0
796 1 2 -1.1794 2.8362345330565715 9.426388158765661 12.655931741873376 0 0 0
798 1 1 0.5897 2.0594503677088647 9.940265146223497 12.877040608933926 0 0 0
723 1 1 0.5897 5.217749803973096 10.262147153851245 14.956766618419516 0 0 0
445 1 2 -1.1794 0.7366215453231562 11.183579493203801 16.640480218288616 0 0 0
331 1 2 -1.1794 3.035911556645579 6.999747059025119 13.864950224861152 0 0 0
477 1 1 0.5897 7.865225946894824 8.610622186834739 13.636116322914242 0 0 0
826 1 2 -1.1794 7.818762340356273 6.854542723578197 13.854756545794771 0 0 0
225 1 1 0.5897 3.059626178808253 6.945340794588038 15.761738274542774 0 0 0
333 1 1 0.5897 3.8618355036218746 6.577415274833432 13.628708630451182 0 0 0
722 1 1 0.5897 4.552907009402617 10.007212091767718 13.620784144004704 0 0 0
259 1 2 -1.1794 0.5685650340455125 10.836431566587384 13.683549451261813 0 0 0
721 1 2 -1.1794 5.307641264708835 10.439578948436514 14.02048740090887 0 0 0
828 1 1 0.5897 7.884865200835335 6.736523237042129 14.802312794495862 0 0 0
475 1 2 -1.1794 7.869809992822259 9.542928091022853 13.418969155660191 0 0 0
261 1 1 0.5897 0.6587588528846673 10.8484965813902 14.636379171332425 0 0 0
827 1 1 0.5897 6.910757423900785 6.632844189085913 13.648071250325899 0 0 0
821 1 1 0.5897 7.895073399455157 9.125384758050712 11.575435391973562 0 0 0
520 1 2 -1.1794 7.716750198913836 7.049248869583371 16.603871249222756 0 0 0
689 1 1 0.5897 3.564647532432198 9.999308765746285 20.438356786254353 0 0 0
160 1 2 -1.1794 7.462474031427696 7.3138517343504335 21.65730606758116 0 0 0
626 1 1 0.5897 2.480817236255934 9.502374406707364 18.508163205611346 0 0 0
6 1 1 0.5897 2.859023292161364 7.817610233274167 20.728244196196748 0 0 0
161 1 1 0.5897 6.697622867038936 6.866667037622854 21.29486429254795 0 0 0
224 1 1 0.5897 2.8418387652301136 7.772776572099868 17.010655084610214 0 0 0
627 1 1 0.5897 2.224399438422305 10.095832111284334 17.13927427781673 0 0 0
690 1 1 0.5897 2.097146594225734 10.115545556141768 20.791980236667293 0 0 0
521 1 1 0.5897 7.089659631509757 6.516187545544613 17.092650514289005 0 0 0
688 1 2 -1.1794 2.726597524592718 9.545063486267772 20.350798654201967 0 0 0
522 1 1 0.5897 7.633568735104349 7.9247633638129615 16.981857598259253 0 0 0
680 1 1 0.5897 4.525681898237144 10.090050897076619 17.34576831409452 0 0 0
681 1 1 0.5897 5.075470657096724 11.47597550194074 17.082717722934113 0 0 0
140 1 1 0.5897 6.527915571782898 10.390148793443137 20.615285252054704 0 0 0
361 1 2 -1.1794 4.928226873427815 11.166117963339474 20.89001781572754 0 0 0
4 1 2 -1.1794 2.7739833432669077 6.955871859318759 21.13626783265488 0 0 0
5 1 1 0.5897 3.6565901811077963 6.586710250261124 21.103632737556865 0 0 0
394 1 2 -1.1794 0.7080338092786587 11.009711053116012 21.51685540881882 0 0 0
679 1 2 -1.1794 5.283421546178444 10.547131868567707 16.980739240783436 0 0 0
625 1 2 -1.1794 2.7455242390831494 9.431997869331374 17.591019010977064 0 0 0
9 1 1 0.5897 6.981116330576258 9.861209176283573 17.342655807275627 0 0 0
7 1 2 -1.1794 7.731782281097371 9.491196512977282 17.807312243936828 0 0 0
141 1 1 0.5897 7.339592128845099 9.130879720983948 20.8334613012374 0 0 0
8 1 1 0.5897 7.563332259683915 9.68633127933824 18.729125372646727 0 0 0
139 1 2 -1.1794 7.383643392557696 10.00048815271299 20.43576451207604 0 0 0
287 1 1 0.5897 8.875414741106097 10.599183792073404 21.200113504535693 0 0 0
647 1 1 0.5897 1.1048550887141966 6.2179908351385125 20.768257042075383 0 0 0
223 1 2 -1.1794 3.1211907067319475 6.9058678888710245 16.716104304636907 0 0 0
646 1 2 -1.1794 0.2704626897888702 5.934852864413921 20.394152949445697 0 0 0
279 1 1 0.5897 4.789711503812822 6.100703251964358 17.688155439702626 0 0 0
363 1 1 0.5897 4.835682561279422 11.137341036032165 21.84226534921261 0 0 0
557 1 1 0.5897 2.5951506498429646 14.852852554240089 2.122343078380437 0 0 0
479 1 1 0.5897 8.315074715279763 14.34826789664263 2.159937795945632 0 0 0
293 1 1 0.5897 3.402341507749059 17.070166194426363 2.456184412315059 0 0 0
558 1 1 0.5897 3.3777813591516126 15.281871466260498 0.8994994684702049 0 0 0
556 1 2 -1.1794 3.40274971391911 15.29255556327708 1.8562777800638783 0 0 0
200 1 1 0.5897 4.844044574720926 13.446852714264608 5.036012995620995 0 0 0
173 1 1 0.5897 4.64719543804493 13.919628561399373 2.4139223591798284 0 0 0
174 1 1 0.5897 5.255029700191375 12.536000651325912 2.5049686375604723 0 0 0
373 1 2 -1.1794 0.9834731628452917 14.024927140741926 2.622188310956086 0 0 0
480 1 1 0.5897 6.822573320914491 14.396221227074093 1.9103882492568842 0 0 0
374 1 1 0.5897 1.0515253050932802 14.30639539244466 3.53452538934105 0 0 0
478 1 2 -1.1794 7.661603012476615 14.666081335594908 1.5368543095803666 0 0 0
449 1 1 0.5897 7.88544658833684 16.609538724320302 2.5547622607833786 0 0 0
172 1 2 -1.1794 5.352446263646524 13.428906964881593 2.8359619701789813 0 0 0
448 1 2 -1.1794 7.522669560307583 17.28751071098064 3.1248812487341704 0 0 0
308 1 1 0.5897 7.659231774810881 17.52888694820858 4.925331026858266 0 0 0
375 1 1 0.5897 0.19199804658398567 14.454095364472739 2.2970286690658526 0 0 0
450 1 1 0.5897 6.793775195433038 17.656173055591694 2.6257650105246353 0 0 0
45 1 1 0.5897 0.5557117738500185 11.977006199097714 2.387626727901226 0 0 0
294 1 1 0.5897 3.335392728581692 17.696855977480872 3.8326678672350876 0 0 0
766 1 2 -1.1794 1.1931857044889032 14.042069813463256 10.433576568031427 0 0 0
811 1 2 -1.1794 3.6631012798695046 15.21195729499754 9.973948149681803 0 0 0
812 1 1 0.5897 4.463617552115855 14.72771876347014 10.176487390479586 0 0 0
813 1 1 0.5897 2.959104198818656 14.674447394571335 10.336985681686226 0 0 0
17 1 1 0.5897 3.2367552724153947 15.021966100421862 8.179304271270912 0 0 0
384 1 1 0.5897 3.1216430312820433 16.848249582864483 10.31445805373077 0 0 0
239 1 1 0.5897 3.3019005482142028 16.719869915184972 6.168161014457149 0 0 0
519 1 1 0.5897 7.970841564977102 14.703044759969258 6.5223131392345515 0 0 0
16 1 2 -1.1794 3.0325989794826897 15.120561098791518 7.24932671440985 0 0 0
518 1 1 0.5897 7.216597555593623 16.01360772625818 6.446737856484942 0 0 0
454 1 2 -1.1794 5.5673071455681855 13.275218317886027 10.773868937165604 0 0 0
201 1 1 0.5897 5.6800502519082245 14.052851820756711 6.143188647330579 0 0 0
18 1 1 0.5897 3.696335479686851 14.596275204816585 6.801120586757736 0 0 0
186 1 1 0.5897 7.541421026818951 16.701508033748567 10.42672103919227 0 0 0
655 1 2 -1.1794 0.8759060202998924 13.932297838197735 5.778361431282316 0 0 0
376 1 2 -1.1794 7.434215061055981 15.103155981382121 9.597401686530057 0 0 0
378 1 1 0.5897 7.150975073660072 15.145768766793312 8.684088730353572 0 0 0
377 1 1 0.5897 6.866321839138624 14.442556251682772 9.994162755990594 0 0 0
552 1 1 0.5897 1.0249681258229166 12.155957933563347 6.315997599598848 0 0 0
456 1 1 0.5897 5.570178798139638 12.435492150509324 10.31435577133502 0 0 0
517 1 2 -1.1794 7.172557381410774 15.135605381930002 6.825570365424919 0 0 0
199 1 2 -1.1794 4.988204949867946 13.411286669654523 5.981600745187993 0 0 0
656 1 1 0.5897 1.5179262355894623 14.465515680202117 6.2471751942503655 0 0 0
657 1 1 0.5897 0.029800236206363184 14.312913615453628 6.014074849753964 1 0 0
238 1 2 -1.1794 3.564426423302414 17.450141501654997 5.607738127577753 0 0 0
307 1 2 -1.1794 7.6081143563688185 17.632706134153466 5.875475813996326 0 0 0
768 1 1 0.5897 0.38068945356802764 14.351765724274319 10.033238594811701 0 0 0
184 1 2 -1.1794 7.360125929859923 17.61823408315906 10.634290865773808 0 0 0
232 1 2 -1.1794 2.5464128496859697 14.84189356399605 13.863951556341727 0 0 0
234 1 1 0.5897 2.5103169067999938 14.941579102088513 14.815263510832624 0 0 0
606 1 1 0.5897 2.7857136570263514 16.874728899368343 13.233056692190413 0 0 0
428 1 1 0.5897 4.738287795521817 12.160457803764203 13.5659653143306 0 0 0
639 1 1 0.5897 1.0835739721244377 13.844773804838416 13.377594866561468 0 0 0
233 1 1 0.5897 3.321326563252476 14.301808497734697 13.708429369595581 0 0 0
427 1 2 -1.1794 4.628278782609721 13.095474893847483 13.392714570238303 0 0 0
637 1 2 -1.1794 0.28289627834076236 13.448542983434137 13.033683246299837 0 0 0
429 1 1 0.5897 5.4928113809181625 13.47300980858044 13.555359970737188 0 0 0
297 1 1 0.5897 8.119120657533012 14.249530657649416 13.367594726144683 0 0 0
295 1 2 -1.1794 7.2071634910931675 14.383211191425675 13.626106832592813 0 0 0
270 1 1 0.5897 7.151032872194623 16.331810644497573 13.363581538782093 0 0 0
296 1 1 0.5897 7.246245096665705 14.545348538291071 14.568632431318008 0 0 0
638 1 1 0.5897 0.33570148094294644 12.53065451092211 13.300245884898528 0 0 0
767 1 1 0.5897 0.9848917146194354 13.956582382323003 11.36391250459696 0 0 0
823 1 2 -1.1794 2.7998880235596646 14.910178698688052 16.546810700939183 0 0 0
49 1 2 -1.1794 7.092799233351552 14.819155250366842 16.33374022096956 0 0 0
269 1 1 0.5897 7.2036255386695895 17.488565857777807 12.388253777453553 0 0 0
268 1 2 -1.1794 7.154031034868346 17.28823884992758 13.32291049145361 0 0 0
455 1 1 0.5897 5.379741435315346 13.049513752204927 11.684945506454246 0 0 0
316 1 2 -1.1794 7.599303612101995 14.61142993725712 21.019274591843455 0 0 0
683 1 1 0.5897 6.127804193440449 14.060618008252995 20.51564368969386 0 0 0
665 1 1 0.5897 2.4160013479627143 14.881216767721332 21.03519549316387 0 0 0
664 1 2 -1.1794 3.2479489081557937 15.241943792800221 21.34189279180206 0 0 0
317 1 1 0.5897 7.54211416188246 14.709706621016577 21.969664304530653 0 0 -1
50 1 1 0.5897 7.231699023141924 15.693797601922922 16.697099271741806 0 0 0
157 1 2 -1.1794 7.397051842342947 17.327938467784392 20.163964277629823 0 0 0
666 1 1 0.5897 3.2096096006123664 16.16864440030686 21.105044083574832 0 0 0
52 1 2 -1.1794 0.5574864857456607 13.782858617154087 17.95308466551647 0 0 0
452 1 1 0.5897 0.7935212690001034 13.061483113449373 20.878082592032882 0 0 0
159 1 1 0.5897 7.587442223129645 17.050539432553755 19.267858325631096 0 0 0
584 1 1 0.5897 2.9101473379993075 16.50705700572535 17.448518319461286 0 0 0
453 1 1 0.5897 0.0075452129763213804 14.345917963988608 21.035111028255336 0 0 0
318 1 1 0.5897 7.625493927640833 15.50858227690663 20.686427018292015 0 0 0
126 1 1 0.5897 5.761130330517639 13.891386949569673 16.939044097657884 0 0 0
684 1 1 0.5897 4.637591018943683 14.294696524925804 20.644747651407123 0 0 0
583 1 2 -1.1794 2.997953172025651 17.402801007920537 17.774489904738452 0 0 0
124 1 2 -1.1794 5.018958416016775 13.455509681450282 17.357996351222305 0 0 0
125 1 1 0.5897 5.010256276454973 13.80125332562509 18.250506314482614 0 0 0
682 1 2 -1.1794 5.2796704688913865 13.700200299298423 20.25662084631515 0 0 0
451 1 2 -1.1794 0.8325518832578742 14.000127240735479 20.694329935742182 0 0 0
53 1 1 0.5897 0.482262837776557 13.881868437494486 18.902135994002798 0 0 0
825 1 1 0.5897 2.037187865469337 14.506182693066394 16.960808613884232 0 0 0
362 1 1 0.5897 4.915889842264735 12.099010591566769 20.675791479647636 0 0 0
824 1 1 0.5897 3.5334565306620735 14.346845510205101 16.793543878412756 0 0 0
610 1 2 -1.1794 7.3537140217095995 17.33259879003692 17.31437704267755 0 0 0
446 1 1 0.5897 0.7740711162695614 12.070837838333421 16.99783361805145 0 0 0
51 1 1 0.5897 7.691846099243592 14.257122718492662 16.82522177674123 0 0 0
696 1 1 0.5897 1.4170244370776932 21.755994618208348 2.444975917556532 0 0 0
321 1 1 0.5897 8.804269602100872 18.51785664157034 2.148182177815768 0 0 0
817 1 2 -1.1794 7.535110422187211 22.862840602157803 1.6137119140854612 0 0 0
694 1 2 -1.1794 0.5361310294808429 21.40068124337904 2.564252650937742 0 0 0
818 1 1 0.5897 8.097848565088551 22.40544469412923 2.238511460351294 0 0 0
266 1 1 0.5897 4.707355573884644 21.82863288862341 2.682040495414029 0 0 0
226 1 2 -1.1794 5.581134110319688 18.906472118843404 1.9536246524679959 0 0 0
187 1 2 -1.1794 3.0611933971209764 22.566090509364244 2.225201762960562 0 0 0
228 1 1 0.5897 5.634313552261076 19.825927416863088 2.214595561946201 0 0 0
343 1 2 -1.1794 0.5460791042563103 18.686090214504915 2.306291795334018 0 0 0
344 1 1 0.5897 1.3167808160231567 18.21216275234454 2.618938758110576 0 0 0
345 1 1 0.5897 0.5229670809702107 18.512357555548896 1.3652929953410118 0 0 0
189 1 1 0.5897 2.8627135599204316 22.54969888393117 1.2889777941136575 0 0 0
265 1 2 -1.1794 5.513871661345758 21.49605203418779 3.076038757196928 0 0 0
267 1 1 0.5897 6.213231410820801 21.977568174230996 2.634063822025009 0 0 0
249 1 1 0.5897 5.2761567557037194 21.61870993195427 4.890519882285362 0 0 0
227 1 1 0.5897 4.700522738564171 18.634208246075374 2.211921713294675 0 0 0
413 1 1 0.5897 0.4812621576820303 21.37898673410102 4.257001894090301 0 0 0
695 1 1 0.5897 0.6329219749370496 20.461348725537782 2.407248432356756 0 0 0
602 1 1 0.5897 5.399684372141069 18.99061309473297 0.07425364302398516 0 0 0
188 1 1 0.5897 2.7579171665279665 23.424923339248814 2.51978105133776 0 0 0
292 1 2 -1.1794 3.0738748932484476 17.838700026156786 2.9228617954946094 0 0 0
412 1 2 -1.1794 0.4728898554419213 21.382531112718908 5.2141246162704435 0 0 0
414 1 1 0.5897 0.5641929080608982 20.461442388247264 5.458321634314332 0 0 0
340 1 2 -1.1794 0.8683228125881278 18.711790785290866 6.17234967373606 0 0 0
248 1 1 0.5897 4.336770766310152 21.918620400904494 6.039252653611825 0 0 0
185 1 1 0.5897 8.084775151735057 18.101948045542706 10.237789339020486 0 0 0
342 1 1 0.5897 0.7326550184693891 18.76707118254813 7.11824269942729 0 0 0
39 1 1 0.5897 3.107314385152399 22.635987896516227 9.506048876687467 0 0 0
555 1 1 0.5897 4.952754783656986 21.020565090033024 10.178503636739334 0 0 0
309 1 1 0.5897 8.347431180396171 18.199740402456136 6.095048105203401 0 0 0
701 1 1 0.5897 2.666299115521929 22.924002959718976 7.409538727154276 0 0 0
37 1 2 -1.1794 2.3268355274032873 23.100336154244204 9.203457348885308 0 0 0
38 1 1 0.5897 1.6006892078645871 22.66701788453387 9.652085272435594 0 0 0
387 1 1 0.5897 5.447219661262692 19.80645824439739 6.519942741509131 0 0 0
382 1 2 -1.1794 2.8759274399847965 17.768619887311957 10.408784152083573 0 0 0
403 1 2 -1.1794 0.531060837356071 18.617565955580204 8.915771918147698 0 0 0
94 1 2 -1.1794 0.3582999505828259 21.06716908253174 10.316811807773233 0 0 0
700 1 2 -1.1794 2.765188803029453 22.62629969322817 6.505225778241799 0 0 0
101 1 1 0.5897 5.854028987436121 18.662244087470164 10.003635475033796 0 0 0
33 1 1 0.5897 6.581261608308114 22.861342294209507 6.241861282954135 0 0 0
341 1 1 0.5897 1.7879314846014902 18.464088693368964 6.075863261613817 0 0 0
404 1 1 0.5897 1.3283818274726338 18.315540926886825 9.350934647394874 0 0 0
31 1 2 -1.1794 7.218784574084166 23.498278208044574 6.564672306190025 0 0 0
240 1 1 0.5897 4.287366686675789 17.865692053334882 6.077839021415278 0 0 0
85 1 2 -1.1794 7.35837661539572 23.02829884486414 9.434605461639299 0 0 0
86 1 1 0.5897 7.369672115460569 23.20395285341825 8.493753003114676 0 0 0
102 1 1 0.5897 5.29142304780705 19.3445423531239 8.77489250701442 0 0 0
702 1 1 0.5897 1.9046658141687909 22.27796790039052 6.271783743015825 0 0 0
100 1 2 -1.1794 5.237358373128911 19.34154952701276 9.730524157723238 0 0 0
32 1 1 0.5897 8.067503283016508 23.144207958661717 6.298888991946653 0 0 0
385 1 2 -1.1794 5.71530367696984 19.053108810177427 7.046159146150312 0 0 0
554 1 1 0.5897 5.44580509790637 22.367508826048848 9.693739231496002 0 0 0
553 1 2 -1.1794 4.708147104651896 21.94498055005544 10.133890147913725 0 0 0
405 1 1 0.5897 0.4400828932442142 19.530701614365668 9.188241892091003 0 0 0
87 1 1 0.5897 8.154118793530525 22.520476082596517 9.593513700642433 0 0 0
383 1 1 0.5897 3.7005124739256456 18.247182710909662 10.322852329969534 0 0 0
386 1 1 0.5897 6.385616911971235 18.618350220159563 6.5189468271989375 0 0 0
247 1 2 -1.1794 5.182619068152276 21.51823594082596 5.837797029375295 0 0 0
379 1 2 -1.1794 0.8133615700649927 21.63257686885325 13.177685977310414 0 0 0
381 1 1 0.5897 1.6852784812480086 21.77077953628249 13.547794965061769 0 0 0
738 1 1 0.5897 4.089596353897291 22.28891594991969 13.83785896787062 0 0 0
380 1 1 0.5897 0.6754954943935327 20.687020506319556 13.234789477866764 0 0 0
474 1 1 0.5897 4.959899505913515 18.761061045643565 15.60130865205831 0 0 0
504 1 1 0.5897 0.4704264183520449 19.113508009324633 14.676142783338266 0 0 0
787 1 2 -1.1794 7.732278324427667 22.768706087040314 14.5160263914955 0 0 0
350 1 1 0.5897 2.8795827511111116 22.518193669711792 15.83099924820579 0 0 0
88 1 2 -1.1794 5.543628991647946 21.527347862965406 12.966374288327312 0 0 0
503 1 1 0.5897 1.2189034743856517 18.50137300531071 13.511224243352874 0 0 0
763 1 2 -1.1794 4.87830517712086 19.126312801637212 13.895501105779621 0 0 0
89 1 1 0.5897 5.3928196613451815 21.687710369098106 12.034861422805712 0 0 0
764 1 1 0.5897 4.078721938176505 18.651660554842614 13.668121669784547 0 0 0
736 1 2 -1.1794 3.2177317749987164 22.531666435156417 14.14971041779007 0 0 0
789 1 1 0.5897 7.0004540612930155 22.410185852642933 14.013797607660639 0 0 0
90 1 1 0.5897 5.330975252315541 20.60197088626977 13.088097492701705 0 0 0
788 1 1 0.5897 7.391212891201403 22.8589967474666 15.405805831411202 0 0 0
765 1 1 0.5897 5.582737987921578 18.495965560113817 13.744602433049614 0 0 0
502 1 2 -1.1794 0.40992332080316274 18.96265406527921 13.732856169178705 0 0 0
96 1 1 0.5897 0.416634606589448 21.05745215520068 11.272158643136608 0 0 0
512 1 1 0.5897 8.826945391040345 18.18603300700814 13.90536879242373 0 0 0
472 1 2 -1.1794 5.025237017293647 18.633097943004834 16.54764708594911 0 0 0
605 1 1 0.5897 2.812606111157273 17.74630649443332 11.995521669226699 0 0 0