LAMMPS data file via write_data, version 30 Jul 2021, timestep = 2500000

972 atoms
2 atom types
648 bonds
1 bond types
324 angles
1 angle types

0.019932485872567796 19.98006851412557 xlo xhi
0.08207542610648133 19.917925573886755 ylo yhi
0.003933401593277708 20.696064598409578 zlo zhi

Masses

1 1.008
2 15.999

Pair Coeffs # lj/cut/tip4p/long/omp

1 0 0
2 0.21084 3.1668

Bond Coeffs # harmonic/omp

1 450 0.9572

Angle Coeffs # harmonic/omp

1 55 104.52

Atoms # full

23 8 1 0.5897 2.686043706270034 1.1024253794873544 4.006341994647305 0 0 0
10 4 2 -1.1794 1.4023858303689793 4.271050609423654 3.823976496097709 0 0 0
11 4 1 0.5897 1.0593023746630446 3.5051375158319056 3.363764663509448 0 0 0
12 4 1 0.5897 2.352858585888826 4.196829846113352 3.738131111310416 0 0 0
31 11 2 -1.1794 0.7728802701567975 2.1913549737457605 2.0874176775073825 0 0 0
33 11 1 0.5897 1.525728702908188 2.466312355721219 1.5640718006650949 0 0 0
53 18 1 0.5897 9.59248768030029 4.566875268612257 3.651443538737053 0 0 0
46 16 2 -1.1794 7.948084390044846 4.316626150963632 3.2997661278202783 0 0 0
3 1 1 0.5897 3.6225950950787147 2.619891046580604 0.17314740467442197 0 0 0
37 13 2 -1.1794 9.523592087592702 2.421325214417864 0.45683883542028786 0 0 0
18 6 1 0.5897 4.359667222095301 3.1760557729905914 3.2405765153612673 0 0 0
34 12 2 -1.1794 5.346794402428712 2.593347016229207 0.38114377860963367 0 0 0
4 2 2 -1.1794 4.282919045529568 1.4153527120762437 3.123298916365932 0 0 0
16 6 2 -1.1794 4.111044264600611 4.067435213685718 3.485008516089791 0 0 0
22 8 2 -1.1794 1.9243152323622033 0.9907969225039774 4.575169711080964 0 0 0
6 2 1 0.5897 4.843236963424833 1.183718693318864 3.8639938345532716 0 0 0
69 23 1 0.5897 6.669778518987983 2.039047517497128 1.6676314468546014 0 0 0
48 16 1 0.5897 7.292326050398933 4.381949475116287 3.9940017759436133 0 0 0
5 2 1 0.5897 4.32365202605761 0.6542628660628184 2.5443099688129682 0 0 0
68 23 1 0.5897 8.170094524064286 1.8473306960614289 1.6013091628117695 0 0 0
67 23 2 -1.1794 7.417930577097091 1.7376934134127213 2.1831163723517046 0 0 0
47 16 1 0.5897 7.81043251088444 3.4486495149081753 2.920549008778318 0 0 0
9 3 1 0.5897 5.367989456521058 4.525335098472372 4.7778704267516305 0 0 0
17 6 1 0.5897 4.347431170923733 4.599376149526034 2.7252497167161898 0 0 0
2 1 1 0.5897 2.5256944806188573 3.6616225780317424 0.23203096622430242 0 0 0
1 1 2 -1.1794 2.6772232497808996 2.718142831624745 0.28683794982096705 0 0 0
41 14 1 0.5897 9.744934435081394 1.526372308315933 3.86935581928614 0 0 0
102 34 1 0.5897 0.023268054650077766 1.05983578737118 4.9384364579100355 1 0 0
236 79 1 0.5897 0.9638899689079297 0.2924130482375187 2.0970775777597406 0 1 0
24 8 1 0.5897 2.117767898916694 0.20320758446485182 5.083486703867645 0 0 0
325 109 2 -1.1794 2.4287244045430865 2.478343714726312 6.9323889387274935 0 0 0
326 109 1 0.5897 2.353366646325352 1.9379567677463179 6.145958009929686 0 0 0
327 109 1 0.5897 3.366532037462627 2.494569573379658 7.123488988731294 0 0 0
355 119 2 -1.1794 0.6990796975297716 1.9024047203301875 8.998257062808106 0 0 0
60 20 1 0.5897 8.80746850397106 0.32061855664928796 5.444027352683947 0 0 0
7 3 2 -1.1794 5.958770557620198 4.694435299038982 5.5117837646971015 0 0 0
8 3 1 0.5897 5.714332824592368 4.045100063736113 6.171163443970538 0 0 0
328 110 2 -1.1794 3.9466794955126963 1.4388429414346111 10.150127924222476 0 0 0
392 131 1 0.5897 7.99707276826611 2.5622966392976374 8.942662990667035 0 0 0
356 119 1 0.5897 1.3991374157416492 2.0927703693389197 8.37382459877382 0 0 0
330 110 1 0.5897 4.002799622323535 0.6895059897233177 9.557263579017283 0 0 0
360 120 1 0.5897 5.515050081126816 1.877216175364982 6.92858257694561 0 0 0
391 131 2 -1.1794 7.261774625906133 2.467688265595805 9.548181899991333 0 0 0
358 120 2 -1.1794 5.509428599073841 2.753068013705289 7.3145629946531185 0 0 0
359 120 1 0.5897 6.1032276792759825 2.6894951923783155 8.062645398448256 0 0 0
393 131 1 0.5897 7.180283624527155 1.5233410878383682 9.681055684518574 0 0 0
362 121 1 0.5897 9.004824020000997 3.361362382487298 7.171654289594178 0 0 0
361 121 2 -1.1794 9.254591041706306 2.5296867102529044 7.574237280487481 0 0 0
58 20 2 -1.1794 8.524576598575331 1.2202884813239854 5.280642052723076 0 0 0
27 9 1 0.5897 2.5942705917400932 4.336820444421059 6.529193441196698 0 0 0
59 20 1 0.5897 8.863458965270809 1.7173136431582128 6.02517670562985 0 0 0
561 187 1 0.5897 0.7436960607266295 0.09426832086728447 8.693657501467353 0 1 0
342 114 1 0.5897 4.336329001125521 4.573831103409803 9.818688995076661 0 0 0
28 10 2 -1.1794 5.768790057131941 0.5848097154271447 5.336708490953675 0 0 0
81 27 1 0.5897 0.37139319097420415 4.8033040010026955 5.1994906687400055 1 0 0
335 112 1 0.5897 0.9644862924228814 3.2410648269766478 10.289706101705336 0 0 0
29 10 1 0.5897 6.672112897066555 0.9012408960454897 5.349729520120728 0 0 0
350 117 1 0.5897 2.3409796613506715 4.041495044387082 13.47488967318999 0 0 0
649 217 2 -1.1794 2.7336717003734807 2.245320090900297 14.01075274421541 0 0 0
650 217 1 0.5897 2.547528980410836 1.7406472772569896 13.219019853959134 0 0 0
331 111 2 -1.1794 5.4970459228358814 4.94224903550816 12.664269942602676 0 0 0
685 229 2 -1.1794 9.154917990567373 2.383483616602511 13.784211778231775 0 0 0
384 128 1 0.5897 9.352508288726643 0.6717623836878572 11.301156083670627 0 0 0
348 116 1 0.5897 2.282322666906738 0.96222657429379 11.075085136809845 0 0 0
684 228 1 0.5897 5.550617766189801 3.480699585615853 14.402696684841164 0 0 0
382 128 2 -1.1794 8.66982671149904 0.4883930030613372 11.946589306767018 0 0 0
651 217 1 0.5897 2.0215909629578794 2.022465006023407 14.610362006521932 0 0 0
682 228 2 -1.1794 5.428500621889138 2.6383267572906473 14.840441886654354 0 0 0
683 228 1 0.5897 4.526648645768927 2.3904978407798394 14.63665526621238 0 0 0
336 112 1 0.5897 2.07765790509033 4.19695118601914 10.662505756102203 0 0 0
354 118 1 0.5897 6.002465248626654 1.2290351863960327 12.90212268558645 0 0 0
386 129 1 0.5897 9.041277621531286 4.646096079010156 13.19149471510464 0 0 0
372 124 1 0.5897 6.851225965453146 4.540391132598969 11.767028876302948 0 0 0
352 118 2 -1.1794 5.689578760760627 0.6490346052575581 12.207939449874115 0 0 0
347 116 1 0.5897 0.8761628566003877 0.778368221447723 11.605137822527086 0 0 0
353 118 1 0.5897 6.471441635143623 0.44583555329735763 11.694446701165285 0 0 0
334 112 2 -1.1794 1.1427730337173023 4.036587088348299 10.79121064365406 0 0 0
383 128 1 0.5897 8.839446038148761 1.106414468162909 12.657520471021822 0 0 0
686 229 1 0.5897 8.711179948983892 2.2937799647253128 14.627552715909557 0 0 0
329 110 1 0.5897 4.587437646141365 1.2508071018088789 10.835931794488179 0 0 0
346 116 2 -1.1794 1.796361854290732 0.6947334162985505 11.855171210592346 0 0 0
332 111 1 0.5897 4.826721561374731 4.699972351963761 12.02533817387483 0 0 0
340 114 2 -1.1794 3.943635030842226 4.127207989289041 10.56870363013435 0 0 0
370 124 2 -1.1794 7.621044258321719 4.553360623047582 11.198260228296048 0 0 0
349 117 2 -1.1794 2.5054686412560363 4.983391227444992 13.43200157712252 0 0 0
377 126 1 0.5897 9.498028207563376 4.339157469531887 11.00251562929529 0 0 0
371 124 1 0.5897 7.5185490404760875 3.784014787779868 10.638130242782784 0 0 0
341 114 1 0.5897 4.079481083312242 3.196433143119473 10.39175949422509 0 0 0
652 218 2 -1.1794 4.218095194350233 1.3891713818563742 17.270336271840478 0 0 0
658 220 2 -1.1794 1.500917695856753 4.444590709939131 17.540576792522145 0 0 0
664 222 2 -1.1794 4.245486901755253 4.01228030425966 17.670647458429194 0 0 0
666 222 1 0.5897 4.230116862784718 3.1264242004625786 17.308498763691645 0 0 0
671 224 1 0.5897 2.2661812352338644 1.6147343265057679 19.61259256528887 0 0 0
653 218 1 0.5897 3.5327020565168734 1.0905363804978798 17.8680470882546 0 0 0
665 222 1 0.5897 3.323027314295375 4.240281267760007 17.786330571154174 0 0 0
656 219 1 0.5897 5.41355531551834 4.5838931409027115 18.859586523264355 0 0 0
670 224 2 -1.1794 2.1735529006514436 0.9532437352725351 18.927013500112373 0 0 0
672 224 1 0.5897 1.2483461743074153 0.9875274237828287 18.68386639179962 0 0 0
38 13 1 0.5897 9.317088280713447 1.9435884522092648 20.345644190027635 0 0 -1
655 219 2 -1.1794 6.131893522325612 4.69789254975562 19.481887828976333 0 0 0
717 239 1 0.5897 7.054292757760797 2.4611664540282128 15.731068253206827 0 0 0
706 236 2 -1.1794 9.06208294679167 1.1062726496149164 18.72854534125166 0 0 0
654 218 1 0.5897 4.252706868882008 0.7169620389755971 16.589825700837054 0 0 0
716 239 1 0.5897 7.862894953399693 1.2749966428776838 16.211617078709743 0 0 0
657 219 1 0.5897 6.914518460982821 4.439499376905829 18.995047222645297 0 0 0
677 226 1 0.5897 5.645277828068737 1.1017412356291023 18.46220397962677 0 0 0
676 226 2 -1.1794 6.341685436072437 0.8402360099353209 19.06461786568861 0 0 0
708 236 1 0.5897 8.186461265157881 1.3934690508866852 18.469579414301947 0 0 0
681 227 1 0.5897 0.8851646143076933 2.891680009978757 16.231795538792596 0 0 0
694 232 2 -1.1794 8.487013836476377 4.5078618853114145 17.75039650437155 0 0 0
695 232 1 0.5897 8.126546700219514 3.6913534868042417 17.404714116521895 0 0 0
715 239 2 -1.1794 7.844555367408165 2.2319189270053443 16.22016302863856 0 0 0
659 220 1 0.5897 0.7592814766743893 4.444078137908516 18.14576061758006 0 0 0
36 12 1 0.5897 5.3940454801923705 3.373913877665123 20.52138341394832 0 0 -1
679 227 2 -1.1794 0.583856633396757 2.046080613713919 15.899646133839129 0 0 0
35 12 1 0.5897 5.665054429033331 1.8846075106104012 20.514199234349512 0 0 -1
707 236 1 0.5897 8.950813783994898 0.1875232209619409 18.972729050872708 0 0 0
884 295 1 0.5897 0.5701809787487655 0.2751382082386584 15.585530485789638 0 1 0
710 237 1 0.5897 9.552003888076987 4.264117719463097 20.472123310193467 0 0 0
674 225 1 0.5897 1.73874970914006 5.933789534113184 0.9715225608024664 0 0 1
57 19 1 0.5897 7.702008777365816 5.66490710625274 2.161052319268288 0 0 0
110 37 1 0.5897 2.291304218898957 9.170801481126622 0.7760844065491279 0 0 0
20 7 1 0.5897 0.968001003538138 5.608421734427827 2.942393154175315 0 0 0
56 19 1 0.5897 6.650391873413335 6.282509442110817 1.2640556361718305 0 0 0
141 47 1 0.5897 0.9711148175565149 8.010255137813076 2.281683861290612 0 0 0
112 38 2 -1.1794 4.229649867256998 7.948230290235561 3.457393257568965 0 0 0
114 38 1 0.5897 3.415482144510002 7.719409410541672 3.905788956013891 0 0 0
15 5 1 0.5897 4.510558138326218 6.765404865414826 2.1009128122962197 0 0 0
139 47 2 -1.1794 1.1312949408319048 8.927108020451856 2.0584641638670464 0 0 0
142 48 2 -1.1794 5.501170886825604 9.177595180664811 0.805146760732837 0 0 0
13 5 2 -1.1794 4.775525147818224 6.05056429071759 1.5221602920041173 0 0 0
711 237 1 0.5897 8.84289808071041 5.45670184768079 0.3854861786772623 0 0 1
55 19 2 -1.1794 7.59542300209313 6.2531722915630406 1.413540211456146 0 0 0
113 38 1 0.5897 4.916144643292926 7.768826227003179 4.099893626505885 0 0 0
14 5 1 0.5897 4.028876494265616 5.927029666152654 0.9360492628141974 0 0 0
177 59 1 0.5897 8.554364977886848 9.095827852173047 1.7411999246991516 0 0 0
166 56 2 -1.1794 9.07280151376459 7.530161963391551 4.908518438404046 0 0 0
175 59 2 -1.1794 7.813470505692868 8.76455262699157 2.2487278333059724 0 0 0
176 59 1 0.5897 7.76583332599206 7.835131119419064 2.0250735603646506 0 0 0
673 225 2 -1.1794 2.3133164412307243 5.570197809054481 0.2977922955331066 0 0 1
143 48 1 0.5897 6.219085858428081 9.207217399960161 1.4375939486891165 0 0 0
111 37 1 0.5897 3.679112245363509 9.624265703552199 0.37560267408191944 0 0 0
19 7 2 -1.1794 0.6224923848027615 6.31943562794152 2.4027133333539976 0 0 0
140 47 1 0.5897 1.1426855063014214 9.380785873672668 2.901219600373801 0 0 0
155 52 1 0.5897 8.093298914850182 9.951316684674284 3.646989164751328 0 0 0
138 46 1 0.5897 7.264650894839724 7.5455028436066485 5.140545438726143 0 0 0
126 42 1 0.5897 3.9740014211150645 9.718088298548471 3.386896238171678 0 0 0
145 49 2 -1.1794 9.765553261227717 9.268704671119622 0.36561962293510974 0 0 0
144 48 1 0.5897 5.779137142217468 8.530744350886714 0.15671443297566157 0 0 0
109 37 2 -1.1794 2.83435299089282 9.360275663207617 0.010943842107074886 0 0 0
62 21 1 0.5897 8.343770201335808 5.31794415623463 7.061834119104441 0 0 0
343 115 2 -1.1794 0.7176850194436302 5.782908932449066 8.767878685771588 0 0 0
168 56 1 0.5897 9.38123604336854 8.0761376257552 5.6316895691996365 0 0 0
339 113 1 0.5897 4.240048829065121 5.720091973128301 7.660549729044984 0 0 0
25 9 2 -1.1794 2.5905072048101245 5.261611717186646 6.775906767709437 0 0 0
167 56 1 0.5897 9.099724897665814 6.637670008828941 5.253275416394048 0 0 0
132 44 1 0.5897 1.2715295923302758 7.810250075591861 5.2529094424957865 0 0 0
433 145 2 -1.1794 2.85811065607178 9.081629134498385 7.63357058160737 0 0 0
345 115 1 0.5897 0.6452592036411217 6.688609375706602 9.06885005370534 0 0 0
464 155 1 0.5897 1.3091652077097278 8.659282367583305 8.59487543028184 0 0 0
435 145 1 0.5897 2.6571938998298488 8.68371501969495 6.786531316933808 0 0 0
468 156 1 0.5897 4.673342165359801 8.953234342340837 7.483891542060384 0 0 0
469 157 2 -1.1794 9.023051745068656 9.352714010231477 6.947936903441102 0 0 0
437 146 1 0.5897 4.478632243054095 7.304587602922967 9.66207974286658 0 0 0
379 127 2 -1.1794 7.3991329963541785 5.433312048445907 8.534048540814307 0 0 0
463 155 2 -1.1794 0.7495906265845057 8.406399627759326 9.329159206394959 0 0 0
338 113 1 0.5897 5.579959525333803 5.690887986137356 8.364657637385 0 0 0
344 115 1 0.5897 0.7810947316110376 5.267264210705435 9.571799266588366 0 0 0
63 21 1 0.5897 9.809771212396658 5.32274359353653 6.68383961991776 0 0 0
467 156 1 0.5897 5.739181887503472 8.360852695778526 6.5866701482270855 0 0 0
501 167 1 0.5897 6.7201063650425175 8.486327404679606 8.47354857770696 0 0 0
470 157 1 0.5897 8.464233591588355 8.994162766177135 7.637427138954682 0 0 0
380 127 1 0.5897 7.54183262873422 6.3797140598160755 8.52577787658954 0 0 0
466 156 2 -1.1794 5.594673927338605 9.044552214212134 7.240752620438089 0 0 0
499 167 2 -1.1794 7.516933841555404 8.12179701591785 8.858850700253026 0 0 0
500 167 1 0.5897 7.664006766571823 8.645491975459652 9.646449082257192 0 0 0
337 113 2 -1.1794 4.650002834257198 5.861751115543328 8.513843360494594 0 0 0
26 9 1 0.5897 1.9787317999143545 5.311565144555932 7.510416740467541 0 0 0
131 44 1 0.5897 2.361565412601149 6.989911804329414 5.909226624162897 0 0 0
137 46 1 0.5897 6.164123847352452 6.545475670284924 5.424451234548858 0 0 0
438 146 1 0.5897 4.460890720764913 8.717486542531665 10.205241478904929 0 0 0
130 44 2 -1.1794 2.2231448621311154 7.732648134505831 5.321574022089127 0 0 0
471 157 1 0.5897 9.913881272889167 9.139273399789813 7.2256912530995825 0 0 0
61 21 2 -1.1794 8.934457998089803 5.191426681810932 6.319337382681878 0 0 0
381 127 1 0.5897 7.5087831247569055 5.182099510327533 9.451159790984693 0 0 0
136 46 2 -1.1794 6.319929441165263 7.478650311932874 5.279572494581374 0 0 0
794 265 1 0.5897 9.286327347167598 8.900343732272672 13.491639045607503 0 0 0
757 253 2 -1.1794 2.807498965573748 9.172124036854939 14.07177909246929 0 0 0
351 117 1 0.5897 3.094606281832359 5.15778187196645 14.165965203399347 0 0 0
792 264 1 0.5897 4.623785617395833 8.969652634181188 14.447272475242043 0 0 0
454 152 2 -1.1794 2.464331778476766 7.308714118870451 12.026282203693334 0 0 0
668 223 1 0.5897 1.203624612891624 5.873585153269016 14.88127840181645 0 0 0
759 253 1 0.5897 2.469202474702421 8.669245291046119 13.330934848976575 0 0 0
455 152 1 0.5897 3.156898998610472 7.3802147402213665 11.369404829333426 0 0 0
456 152 1 0.5897 2.5438741678783003 6.416207319587906 12.362734073390484 0 0 0
790 264 2 -1.1794 5.5798225000621 9.016158390570322 14.459157350617465 0 0 0
661 221 2 -1.1794 4.399891800148069 5.636355535951165 15.522492531448913 0 0 0
533 178 1 0.5897 0.7487659303449054 7.606457027533954 11.919458974886417 1 0 0
385 129 2 -1.1794 9.290540527873306 5.421382998294222 13.69444286439885 0 0 0
461 154 1 0.5897 6.2140166200281906 8.086878342627209 12.970067564801443 0 0 0
333 111 1 0.5897 5.578182853980571 5.892075217264663 12.578477752972157 0 0 0
791 264 1 0.5897 5.826216891885918 8.671800481425754 15.317597376636297 0 0 0
462 154 1 0.5897 5.974825918499431 7.692886007104067 11.528050712622514 0 0 0
492 164 1 0.5897 8.337850383930336 7.4923775420388665 11.838865757584813 0 0 0
491 164 1 0.5897 9.734762986603704 7.651055134094276 11.27715944085245 0 0 0
705 235 1 0.5897 7.6238026054213925 5.878270003478299 14.856170221789654 0 0 0
460 154 2 -1.1794 6.505404795879865 7.474824235467417 12.294324634109286 0 0 0
490 164 2 -1.1794 9.251717298198345 7.601392539514256 12.102051412826505 0 0 0
793 265 2 -1.1794 9.567311327999137 9.355611549407927 14.285350150603762 0 0 0
387 129 1 0.5897 9.190296064704306 6.148416021840067 13.080001438743539 0 0 0
443 148 1 0.5897 1.0425109048737395 9.825000262865228 10.404850612134679 0 0 0
789 263 1 0.5897 1.6241632032573503 8.92490742424356 15.27734991969904 0 0 0
436 146 2 -1.1794 4.581492675726997 7.805915252118094 10.470963699499473 0 0 0
784 262 2 -1.1794 6.258307432703433 7.440992567874367 19.321740963358145 0 0 0
709 237 2 -1.1794 9.632135004915261 5.209874668815047 20.595488056128993 0 0 0
669 223 1 0.5897 0.7585118460169344 7.0440353328383685 15.73193880347449 0 0 0
825 275 1 0.5897 7.395567637759125 7.828281190723755 16.467623060712775 0 0 0
760 254 2 -1.1794 4.614765576193338 7.942732170984654 17.081845860614088 0 0 0
778 260 2 -1.1794 2.372755588440906 7.342866596523203 18.883168245123876 0 0 0
779 260 1 0.5897 2.5017622888789632 8.020529455641455 19.54668812839983 0 0 0
780 260 1 0.5897 3.0379321089945726 7.526714195500882 18.219835610162512 0 0 0
660 220 1 0.5897 1.2788098289683982 5.109986464575665 16.889366685127342 0 0 0
788 263 1 0.5897 0.9105010318870671 9.319989446654517 16.55267002841814 0 0 0
787 263 2 -1.1794 0.8511013375106236 8.725039937979192 15.805233356931268 0 0 0
858 286 1 0.5897 0.566036377162733 7.315911714822213 18.713236805610507 1 0 0
785 262 1 0.5897 6.1214136628591 6.519412006594475 19.54090550601954 0 0 0
762 254 1 0.5897 5.264991922224638 7.828872439536882 17.775032256414875 0 0 0
814 272 2 -1.1794 9.051146027823659 7.453824740930926 19.09305010714216 0 0 0
675 225 1 0.5897 2.180891921437865 6.137042115073631 20.230094765979707 0 0 0
816 272 1 0.5897 9.096115337007499 8.134962392207772 19.764014248591415 0 0 0
786 262 1 0.5897 7.207081325287645 7.527134996123301 19.22836504167988 0 0 0
761 254 1 0.5897 4.414098117585032 8.878539105671804 17.092406794665763 0 0 0
815 272 1 0.5897 9.265863658533187 6.644951815300541 19.55755466583043 0 0 0
662 221 1 0.5897 4.319223370362945 5.106349055923 16.31541289757314 0 0 0
823 275 2 -1.1794 7.8366088497373285 8.677146317384679 16.50016578892899 0 0 0
663 221 1 0.5897 4.25330534600099 6.5347042756145015 15.818404754151771 0 0 0
703 235 2 -1.1794 7.232414401081932 5.9938242252332445 15.722003096485372 0 0 0
696 232 1 0.5897 8.091324598892482 5.192260950783193 17.210754777319195 0 0 0
824 275 1 0.5897 8.443052285083906 8.661114724944499 15.75976008297847 0 0 0
667 223 2 -1.1794 0.647359161183665 6.0992081078308225 15.626840177690173 0 0 0
704 235 1 0.5897 6.318932894040445 5.730811528546 15.609500118926029 0 0 0
120 40 1 0.5897 1.1490819413078373 11.514109574349888 3.6359427273716545 0 0 0
129 43 1 0.5897 0.9630149389174214 13.330012869085595 2.1971026482313416 0 0 0
123 41 1 0.5897 4.156711503294223 12.299015529941661 0.8135296634422547 0 0 0
276 92 1 0.5897 9.211531943284276 14.32922018738039 4.222877748252263 0 0 0
124 42 2 -1.1794 3.8118700840528352 10.62781751609073 3.6363642136712286 0 0 0
283 95 2 -1.1794 8.30932514509492 14.920439088166757 1.7332981902351907 0 0 0
125 42 1 0.5897 4.519504660632694 10.839437954741932 4.245238292326088 0 0 0
122 41 1 0.5897 4.222062242248562 11.871331864068614 2.264284755669263 0 0 0
246 82 1 0.5897 5.004097425381169 13.847993341719402 4.440300428444734 0 0 0
783 261 1 0.5897 1.9383591581274238 12.172038970063149 0.6884186438960178 0 0 1
118 40 2 -1.1794 1.0970664769004843 10.776114089045329 4.2432405937448765 0 0 0
222 74 1 0.5897 4.1172592393162 13.982806825352764 2.618373185031403 0 0 0
127 43 2 -1.1794 0.7149371552257644 12.437828833864375 1.9551381892305737 0 0 0
121 41 2 -1.1794 4.538796495406126 12.540282118402848 1.6573543914239917 0 0 0
285 95 1 0.5897 7.877262350472914 14.121978164987244 2.0364764369956974 0 0 0
165 55 1 0.5897 7.343545818816748 11.88040742280367 2.9579191402196723 0 0 0
156 52 1 0.5897 9.031136711571838 11.024127203404767 4.158154830843578 0 0 0
154 52 2 -1.1794 8.103439773241856 10.79658529523324 4.0959232863479915 0 0 0
163 55 2 -1.1794 7.273340817381628 12.487603660527027 2.221359831754654 0 0 0
164 55 1 0.5897 6.343715805962331 12.48178219838149 1.9932759700673663 0 0 0
240 80 1 0.5897 2.3350373966981093 14.062233994937726 4.376493077908691 0 0 0
119 40 1 0.5897 2.007991362068614 10.52067311556894 4.389055568105539 0 0 0
146 49 1 0.5897 9.483521184102482 10.164096995287753 0.17897457442135242 0 0 0
819 273 1 0.5897 8.490176106546578 12.320167436166413 0.7730921852362909 0 0 1
275 92 1 0.5897 7.76598195498116 14.11944929400639 4.620932941599882 0 0 0
238 80 2 -1.1794 1.7642381605485244 13.840480263684439 5.112197692286503 0 0 0
220 74 2 -1.1794 3.847850453899905 14.447624558175283 3.4105599603077192 0 0 0
274 92 2 -1.1794 8.662895227032594 13.966779734410663 4.918486028826998 0 0 0
244 82 2 -1.1794 5.7669868625131455 13.756358960267574 5.011037744733496 0 0 0
817 273 2 -1.1794 9.02559043556627 12.030715285707998 0.034331489097432666 0 0 1
133 45 2 -1.1794 2.5796846464536336 11.725451672934538 6.838333438679066 0 0 0
134 45 1 0.5897 1.967746163425757 12.079633112201368 7.483577159564103 0 0 0
135 45 1 0.5897 3.4420167247879725 11.83781507356303 7.238385511331491 0 0 0
453 151 1 0.5897 1.0827782424080248 12.224829261320185 9.818403108083823 0 0 0
445 149 2 -1.1794 4.786854331170755 12.485493336911423 8.388024118489872 0 0 0
169 57 2 -1.1794 9.27914194922694 12.089274779416519 6.92562163949368 0 0 0
446 149 1 0.5897 4.6360140495464695 13.256660633657447 8.934556063837107 0 0 0
489 163 1 0.5897 7.5130982257421 13.034094704136974 9.057312876503277 0 0 0
451 151 2 -1.1794 0.7010108530479672 12.628359573859912 9.038912775833595 0 0 0
117 39 1 0.5897 5.5897531277745625 10.445162803808612 6.223960928615002 0 0 0
607 203 2 -1.1794 7.371484080963797 14.808191812533353 9.076261830879984 0 0 0
480 160 1 0.5897 7.594787622258824 10.86983837602396 10.106234647411917 0 0 0
115 39 2 -1.1794 5.730977732640088 11.198629790479755 5.650813274963818 0 0 0
487 163 2 -1.1794 7.446102896124533 12.112101402929074 8.809213567214309 0 0 0
171 57 1 0.5897 9.13952026679104 11.183151032761213 6.650723070437486 0 0 0
245 82 1 0.5897 5.700884214831048 12.86722081444016 5.359159260437371 0 0 0
447 149 1 0.5897 5.73798844489272 12.377870775420938 8.382081735373804 0 0 0
488 163 1 0.5897 7.889920613611201 12.058443620021494 7.962833346936527 0 0 0
450 150 1 0.5897 4.588709971541677 11.094448274204836 9.674601697333069 0 0 0
170 57 1 0.5897 9.156699407562437 12.603645325907154 6.127731883787515 0 0 0
573 191 1 0.5897 0.9007552313477126 14.544578838302748 9.068962740398439 0 0 0
239 80 1 0.5897 2.175625888632398 13.074652879205399 5.512730860762744 0 0 0
434 145 1 0.5897 2.758261988783137 10.02211632900344 7.486617390131091 0 0 0
317 106 1 0.5897 0.12222569231414018 14.153550201964908 5.42807382717614 1 0 0
609 203 1 0.5897 6.5177384027359055 14.923695477195182 8.659051928293955 0 0 0
544 182 2 -1.1794 4.370655495559808 14.42006310257521 10.210707965333414 0 0 0
116 39 1 0.5897 6.601648588936373 11.057458823639358 5.27893344053567 0 0 0
457 153 2 -1.1794 2.5581350830635725 11.8311540732463 13.537204994723767 0 0 0
458 153 1 0.5897 1.8125529185683493 11.867821828184791 14.136408142366673 0 0 0
459 153 1 0.5897 3.3260858275652008 11.88759916604847 14.105833958136111 0 0 0
562 188 2 -1.1794 2.0504199929800007 14.235034485451182 11.734534004764152 0 0 0
563 188 1 0.5897 2.153405277456742 13.330368735383427 12.029656772257058 0 0 0
564 188 1 0.5897 2.1099973783912884 14.75674430825243 12.534825009559594 0 0 0
600 200 1 0.5897 8.789042533006699 14.510514312481117 12.442783545142818 0 0 0
478 160 2 -1.1794 7.934882026968747 10.277246820109605 10.77658458413587 0 0 0
546 182 1 0.5897 5.034156780195294 14.14524520136067 10.843549323736568 0 0 0
479 160 1 0.5897 8.867174435417754 10.487145628602478 10.83189878403434 0 0 0
493 165 2 -1.1794 9.132669262916714 11.852672597420778 13.692713194784043 0 0 0
569 190 1 0.5897 5.958153122895233 12.79549528075325 12.762219120519747 0 0 0
444 148 1 0.5897 2.3204242110906956 10.608084206391698 10.618502148079871 0 0 0
442 148 2 -1.1794 1.389113636268594 10.604016262288093 10.839757427354705 0 0 0
449 150 1 0.5897 4.836420581289542 10.833740241315345 11.145141849695285 0 0 0
570 190 1 0.5897 6.90127360639557 13.780550665877211 12.104950240271805 0 0 0
599 200 1 0.5897 8.902790958015482 13.008262972010993 12.294837324652852 0 0 0
598 200 2 -1.1794 8.65842267608172 13.799710009034541 11.815201661159348 0 0 0
439 147 2 -1.1794 5.982058917158822 11.001857256575452 12.599688840848588 0 0 0
440 147 1 0.5897 6.758400922015074 10.772323591649009 12.08892475429255 0 0 0
642 214 1 0.5897 0.41661183346202296 14.165150547741563 11.913002803844488 1 0 0
494 165 1 0.5897 8.486788673154237 12.171992441113723 14.322890268275781 0 0 0
568 190 2 -1.1794 6.023427533188548 13.707621153700817 12.479595231243573 0 0 0
441 147 1 0.5897 5.918332333460996 10.313664258060625 13.261863005610799 0 0 0
495 165 1 0.5897 9.978052144056983 12.086176870908185 14.076224381285694 0 0 0
769 257 2 -1.1794 4.520961667795086 12.284505109313145 15.436492390221664 0 0 0
758 253 1 0.5897 2.738297505078267 10.085295724264679 13.79349239330097 0 0 0
545 182 1 0.5897 3.542201853283163 14.347311386269215 10.684652499983956 0 0 0
795 265 1 0.5897 9.469028002161176 10.284532306507838 14.076649516241117 0 0 0
448 150 2 -1.1794 4.230951031089699 10.631233135944951 10.43198897443862 0 0 0
900 300 1 0.5897 5.4134120327928 14.945512032968765 14.167357363001175 0 0 0
770 257 1 0.5897 5.473611819127645 12.199556013702619 15.397292921462318 0 0 0
581 194 1 0.5897 9.867221619367246 14.514178512034771 10.563236623174063 0 0 0
811 271 2 -1.1794 7.241176085113901 12.774345446745166 15.403292278407891 0 0 0
782 261 1 0.5897 2.4999042633632844 11.14027674331997 20.425610739161733 0 0 0
888 296 1 0.5897 2.017184427704067 13.355492062999684 19.48915478085899 0 0 0
768 256 1 0.5897 1.0989266338675516 11.237065743357553 17.073427267220737 0 0 0
813 271 1 0.5897 7.338067260690466 12.340502029144726 16.250985258676245 0 0 0
765 255 1 0.5897 5.587420050752204 10.659746422581108 20.33843302357942 0 0 0
870 290 1 0.5897 4.900127297620197 14.410372384356556 17.77664376291581 0 0 0
777 259 1 0.5897 1.0166444169326132 13.058668635213524 15.906372020664767 0 0 0
886 296 2 -1.1794 1.9986123413798607 14.197177488301783 19.033788129551773 0 0 0
804 268 1 0.5897 7.337614875011075 10.444012155389498 17.3991125734412 0 0 0
772 258 2 -1.1794 3.740959218876863 10.620349667476285 17.383857212484713 0 0 0
869 290 1 0.5897 3.3923859235643876 14.294448056853387 17.849692656773136 0 0 0
774 258 1 0.5897 3.9403388502205603 11.274760693746325 16.71439741952944 0 0 0
965 322 1 0.5897 0.28566482574160224 14.319013256211784 18.943317202092175 1 0 0
868 290 2 -1.1794 4.11564390948101 14.38224519845382 17.228857061271682 0 0 0
766 256 2 -1.1794 1.123102338760595 10.575165302247939 17.76438305062007 0 0 0
764 255 1 0.5897 4.769992861768764 11.124224263508426 19.151871927895762 0 0 0
773 258 1 0.5897 2.840091433364755 10.811144427422844 17.645255563605176 0 0 0
802 268 2 -1.1794 7.396413793170923 11.321250673770415 17.777429100809748 0 0 0
922 308 2 -1.1794 8.965645713851313 14.193316855032023 18.70123106084172 0 0 0
767 256 1 0.5897 0.6069498807483359 10.952696635793377 18.476627802807442 0 0 0
803 268 1 0.5897 6.7624950365577625 11.316297820026989 18.49463221384306 0 0 0
763 255 2 -1.1794 5.507379941362446 11.375532115632623 19.708044707931037 0 0 0
818 273 1 0.5897 8.94409637824807 12.733009690742387 20.08124246933661 0 0 0
894 298 1 0.5897 5.997059541850662 13.536516949599186 19.304991974542553 0 0 0
893 298 1 0.5897 7.003802192019922 14.44085976635067 18.62637465844621 0 0 0
892 298 2 -1.1794 6.152059246964304 14.449536383981465 19.063132087977863 0 0 0
924 308 1 0.5897 9.712642436324685 14.19170973405743 18.102727871193032 0 0 0
923 308 1 0.5897 9.23944163546191 14.756195624056485 19.425344750472014 0 0 0
887 296 1 0.5897 2.234812253802081 14.838034383366443 19.70437249049926 0 0 0
781 261 2 -1.1794 2.367444587390021 12.082483638225561 20.529602307733825 0 0 0
812 271 1 0.5897 7.330079192908402 13.706932247834217 15.599480375739626 0 0 0
775 259 2 -1.1794 0.7605936893680851 12.185625433402205 15.609125724858375 0 0 0
771 257 1 0.5897 4.372144260184545 13.09564150224476 15.922335576025372 0 0 0
810 270 1 0.5897 9.54044294270433 11.215808704469136 17.464043134356828 0 0 0
230 77 1 0.5897 3.456839221253331 19.054753536952408 0.8000107218425645 0 0 0
229 77 2 -1.1794 4.162669084172731 19.0843776598059 1.445904613659715 0 0 0
233 78 1 0.5897 4.201794509788513 17.769315412251384 2.770151460036495 0 0 0
263 88 1 0.5897 6.965011071350916 16.7858341900242 4.197243906941523 0 0 0
221 74 1 0.5897 4.0577661066760795 15.36458127484697 3.2338275236956 0 0 0
272 91 1 0.5897 7.265068586599074 18.36470635368969 2.5702954411408165 0 0 0
264 88 1 0.5897 8.394546862882292 17.073624840241248 3.7903760098148664 0 0 0
234 78 1 0.5897 3.199411766670815 17.43216203725678 3.8533967993219407 0 0 0
226 76 2 -1.1794 1.2960510240855634 17.357813502447602 3.793253938392627 0 0 0
227 76 1 0.5897 1.2003507961620938 18.0961350570134 3.191693071651351 0 0 0
249 83 1 0.5897 1.6355629135706196 15.57094806805256 1.2817016895069815 0 0 0
232 78 2 -1.1794 4.067902625629725 17.197793043462248 3.526190340939013 0 0 0
228 76 1 0.5897 0.6138219284144097 17.493917966099755 4.450710659012233 0 0 0