LAMMPS data file via write_data, version 30 Jul 2021, timestep = 12000000

864 atoms
2 atom types
576 bonds
1 bond types
288 angles
1 angle types

0.5141634628215233 17.69340893718325 xlo xhi
1.697147913805935 21.932029886197213 ylo yhi
0.6272782236966012 21.585917576300446 zlo zhi

Masses

1 1.00794
2 15.9994

Pair Coeffs # lj/cut/tip4p/long/omp

1 0 0
2 0.21084 3.1668

Bond Coeffs # harmonic/omp

1 450 0.9572

Angle Coeffs # harmonic/omp

1 55 104.52

Atoms # full

234 1 1 0.5897 1.7907190309737833 2.8663472177497447 0.7182166230576748 -2 4 -2
401 1 1 0.5897 4.0783041364394705 6.218085949855412 3.100345387259716 -4 -5 4
826 1 2 -1.1794 2.427241864982231 2.8636011489640385 3.2283489161671306 3 -1 4
828 1 1 0.5897 2.399304744298811 1.9946190283577903 3.6286357151191506 3 -1 4
827 1 1 0.5897 1.6254485588560827 3.2918202193358947 3.52819875454495 3 -1 4
426 1 1 0.5897 1.597221791877919 5.520591727670827 0.8918913419115341 3 -4 4
172 1 2 -1.1794 1.1024117175671937 6.4035361448054235 4.676807449261596 1 0 1
646 1 2 -1.1794 3.6151773565805057 4.116885585120029 5.56907743938564 -6 3 1
647 1 1 0.5897 3.110554196441133 3.532825403920725 5.0030596473789135 -6 3 1
629 1 1 0.5897 4.087351950723672 2.284614491675526 2.8105940222435897 4 -2 4
174 1 1 0.5897 1.98191564438806 6.400882810686646 4.299180389732495 1 0 1
648 1 1 0.5897 4.351295334873452 4.399854283851697 5.026651381110073 -6 3 1
424 1 2 -1.1794 1.7475101813940788 6.4581421002071515 1.012566974621349 3 -3 4
283 1 2 -1.1794 0.6995135841466242 2.243282549220325 6.218165122116418 7 -1 1
268 1 2 -1.1794 4.360725782209226 3.168616099761746 8.614408073234245 3 5 4
839 1 1 0.5897 3.408184147976967 5.423365159876044 10.420025152133638 -2 -6 -4
838 1 2 -1.1794 2.546131677721439 5.070613494834936 10.640551706854719 -2 -6 -4
262 1 2 -1.1794 2.767481520830378 6.391424737382251 6.939353039133974 1 -3 7
270 1 1 0.5897 3.4366234879127657 3.263901899673696 8.383952910521081 3 5 4
264 1 1 0.5897 2.897004280689743 5.49933725212426 6.617552592783052 1 -3 7
188 1 1 0.5897 1.268786785470698 4.7010720989530626 8.029615820559535 -3 3 4
187 1 2 -1.1794 1.5400247946140777 3.824035697972732 8.300527116253527 -3 3 4
840 1 1 0.5897 2.274115693631094 4.5939186008848925 9.856370264753785 -2 -6 -4
269 1 1 0.5897 4.364006533004646 2.5439577423671076 9.339634338301376 3 5 4
189 1 1 0.5897 1.3491192762701394 3.269442722837197 7.544134273270347 -3 3 4
633 1 1 0.5897 4.681261927269904 4.9420019775686015 14.026209810828956 5 9 5
64 1 2 -1.1794 3.5368809156658783 2.9531432745091166 12.110498921243273 2 1 -6
65 1 1 0.5897 4.481407459782079 3.1068503743791718 12.13004785240364 2 1 -6
108 1 1 0.5897 1.365021279453836 5.205896979638963 13.393373909550217 0 1 4
93 1 1 0.5897 0.9208682731888129 3.125209443482543 15.035424312618856 2 -7 1
66 1 1 0.5897 3.192706221405682 3.645511749399038 11.546303138397597 2 1 -6
91 1 2 -1.1794 1.0147005004864846 2.681075178910155 15.87810630867701 2 -7 1
632 1 1 0.5897 3.8307315708846357 3.7252048976919894 13.730112385344544 5 9 5
631 1 2 -1.1794 4.199583380515629 4.233252397290865 14.452594284024311 5 9 5
651 1 1 0.5897 1.343109601702618 3.343385384479606 12.315264272609998 4 -1 0
649 1 2 -1.1794 0.8497454538459452 3.511760709954575 13.118004766413684 4 -1 0
107 1 1 0.5897 0.7822846935199601 6.1317985384465885 14.439694686277054 0 1 4
106 1 2 -1.1794 1.4640081018654119 6.080333268875768 13.769812188997724 0 1 4
641 1 1 0.5897 3.4675461058041526 4.447281170768556 16.344727932427325 2 1 -1
640 1 2 -1.1794 3.6842882967720376 4.577709051134599 17.26786657584197 2 1 -1
493 1 2 -1.1794 0.917691227237122 5.924292309522683 18.261816894156873 -5 0 0
232 1 2 -1.1794 1.663107626215663 3.728925355124818 21.282123248854617 -2 4 -3
494 1 1 0.5897 1.5514836621384565 5.239134896777936 18.0496728207145 -5 0 0
855 1 1 0.5897 4.4536755824995025 2.5135545622993476 19.12346608141965 -1 3 1
853 1 2 -1.1794 4.551497077443788 2.1627495043507423 18.23830454183257 -1 3 1
642 1 1 0.5897 3.971536601795594 3.716444813840226 17.57093985234316 2 1 -1
580 1 2 -1.1794 1.3062849654797715 3.1753272960632932 18.608056395632396 -2 -4 -3
233 1 1 0.5897 1.3521356749607634 3.5437185308963244 20.39604029266114 -2 4 -3
576 1 1 0.5897 4.718140764544862 4.747580582822966 20.04184913702459 5 -4 0
574 1 2 -1.1794 4.3564861655255545 3.964585982723938 20.456970086122304 5 -4 0
582 1 1 0.5897 1.707677233824389 3.0928658869421106 17.74305417702974 -2 -4 -3
575 1 1 0.5897 3.41217591460309 4.119250931009519 20.47928656999104 5 -4 0
753 1 1 0.5897 1.0219516531890762 9.631427081461199 2.992302696272667 2 1 3
163 1 2 -1.1794 2.650571643883923 11.510974392201609 4.076086671599164 -2 1 6
208 1 2 -1.1794 1.5874313510831282 9.586554878155612 1.2256852196343522 1 -3 2
173 1 1 0.5897 0.7479630615611912 7.264150061480319 4.4534957488385825 1 0 1
751 1 2 -1.1794 0.6148165934717847 9.259491797298043 3.7746372069503704 2 1 3
425 1 1 0.5897 0.8793826434618485 6.819230004345755 1.1917502937608706 3 -3 4
209 1 1 0.5897 2.5099009051133248 9.506122363153011 0.9833016378785683 1 -3 2
164 1 1 0.5897 3.0346119478463773 10.648548042925182 3.9180203664537814 -2 1 6
752 1 1 0.5897 0.9760527201458569 9.770251296420241 4.499050717203794 2 1 3
210 1 1 0.5897 1.1555563777602484 8.864454360262126 0.7693564788842074 1 -3 2
23 1 1 0.5897 4.140506064797724 8.413862237513548 3.707486760978609 -4 1 3
22 1 2 -1.1794 4.472711554102826 9.205290302133996 4.131094882339954 -4 1 3
400 1 2 -1.1794 3.444607807521013 6.934196558484314 3.1422006665658597 -4 -5 4
402 1 1 0.5897 2.8555826388824297 6.776835324991877 2.404349764200073 -4 -5 4
362 1 1 0.5897 1.2654934490672396 10.493044454415816 10.228644658327223 -2 -3 -2
787 1 2 -1.1794 1.2094232687651336 10.195090296707312 6.705732733201903 6 -2 8
643 1 2 -1.1794 3.7424860761161782 9.326307777329902 6.792245138582738 1 -2 1
230 1 1 0.5897 4.4699513946953555 11.103956230728105 6.7199212131362955 2 4 5
645 1 1 0.5897 2.7974970440127778 9.366056987300539 6.64543144694736 1 -2 1
363 1 1 0.5897 2.253939358778378 11.595114028045481 9.912271530559648 -2 -3 -2
361 1 2 -1.1794 2.1845006594901024 10.73883330444957 10.334336404628619 -2 -3 -2
8 1 1 0.5897 4.1516214007958565 10.073491425141434 9.781451842179257 1 -1 1
7 1 2 -1.1794 4.534121334699605 9.262973696769144 9.445435911719933 1 -1 1
733 1 2 -1.1794 1.9754511205258563 7.82546585806921 9.270158598014557 -3 1 -3
9 1 1 0.5897 4.495941171295997 9.356152668033515 8.493587665921961 1 -1 1
735 1 1 0.5897 2.3944047725178246 8.588208161935588 8.871585835063689 -3 1 -3
788 1 1 0.5897 0.7876607615393185 11.03274148014604 6.51443882009236 6 -2 8
644 1 1 0.5897 4.119989068620612 9.278503400774326 5.913977026821434 1 -2 1
734 1 1 0.5897 2.1384719420090272 7.11227145857942 8.652973911127503 -3 1 -3
413 1 1 0.5897 0.6619425198350259 6.95531693593727 10.394470936770901 -3 -2 2
263 1 1 0.5897 2.226215835945913 6.811415192682679 6.2709228253052505 1 -3 7
180 1 1 0.5897 4.590901791223531 6.768547487578461 6.690169904112237 -5 4 -1
717 1 1 0.5897 3.7307854164308645 8.45215391256455 15.197960099034667 2 -7 -4
486 1 1 0.5897 2.3184226571314808 10.414765535912096 14.829816291902572 5 -2 -2
123 1 1 0.5897 2.8405020466434516 10.651502159359968 12.242187291121086 2 -1 0
322 1 2 -1.1794 2.8986849313082272 7.707965842270243 12.138011393863477 6 -2 1
121 1 2 -1.1794 2.9766757458535245 11.059197843751843 13.097393466078552 2 -1 0
716 1 1 0.5897 3.10155190030127 7.120555886934437 14.84784683321451 2 -7 -4
484 1 2 -1.1794 2.469630474338296 10.252751578019508 15.76096554222824 5 -2 -2
323 1 1 0.5897 2.585605284923269 7.695566106326058 11.233591643931803 6 -2 1
485 1 1 0.5897 1.5933833553770802 10.149056013926842 16.13191316983844 5 -2 -2
324 1 1 0.5897 2.380550115455567 7.035781537430999 12.580567124901574 6 -2 1
351 1 1 0.5897 1.2453064948355208 9.066487074382955 12.960850722153767 -9 1 0
715 1 2 -1.1794 3.733664362214008 7.526389769130464 15.441048321032019 2 -7 -4
53 1 1 0.5897 4.326758017922618 6.851649655522775 12.55627115695343 -3 0 2
500 1 1 0.5897 3.4242086418238205 7.8831659664275975 19.830344164460726 1 0 -6
636 1 1 0.5897 2.685106810051073 9.393307469682895 18.747569517035956 -5 0 1
3 1 1 0.5897 3.392600585316834 7.728356507588265 17.265186243106385 1 -7 3
781 1 2 -1.1794 3.680731463948907 11.293990232660697 21.169978992822898 -1 -1 -1
782 1 1 0.5897 3.3602135456361664 10.971536609498195 20.327699252599587 -1 -1 -1
2 1 1 0.5897 2.2236858334852525 7.260367204016125 18.10572210167342 1 -7 3
1 1 2 -1.1794 3.0835812721876614 7.675953682218384 18.169588079989694 1 -7 3
635 1 1 0.5897 1.452950567638776 10.260388625502348 18.894712895018593 -5 0 1
634 1 2 -1.1794 2.4055224647930187 10.306368302822978 18.813218485040984 -5 0 1
501 1 1 0.5897 2.965387208685702 7.3618843544338946 21.17549045459303 1 0 -6
499 1 2 -1.1794 3.614257705140037 7.934821644182458 20.76701537851313 1 0 -6
807 1 1 0.5897 4.222299766476892 10.53910011645545 16.427745108101956 -4 -2 -4
783 1 1 0.5897 2.9388145377701034 11.770232159560441 21.54268621528012 -1 -1 -1
488 1 1 0.5897 3.8866112126358163 15.44329888618606 1.6319193092556663 2 -8 5
207 1 1 0.5897 1.1646462776065918 12.865028751942933 2.282554717904863 -7 3 -3
205 1 2 -1.1794 1.8758944554488273 12.642282265591598 1.6820115020798467 -7 3 -3
478 1 2 -1.1794 2.7923079935028055 14.105553598808706 4.756086282806188 -5 5 -4
206 1 1 0.5897 2.542107775657146 13.31098845592621 1.840533713548257 -7 3 -3
480 1 1 0.5897 3.1690468541610803 14.652010755583689 4.066456807390468 -5 5 -4
487 1 2 -1.1794 3.9535930635181487 14.739338092449556 2.2769746988970336 2 -8 5
479 1 1 0.5897 2.785570064360496 13.222858880351142 4.386030514559158 -5 5 -4
569 1 1 0.5897 0.8739090770384583 15.988520461387496 3.463085968667906 7 -3 2
231 1 1 0.5897 4.441532710740788 12.064362871322864 5.550104499921755 2 4 5
165 1 1 0.5897 2.5121688898967443 11.875869335430668 3.202109981869011 -2 1 6
620 1 1 0.5897 1.6659799675260416 14.848015477992403 5.841874645394047 3 -4 0
229 1 2 -1.1794 4.552016729226923 12.031949525122439 6.500304685491594 2 4 5
307 1 2 -1.1794 2.7292541870122493 12.987483748463125 8.779837816105431 1 7 -3
621 1 1 0.5897 0.8744802466697925 16.095195525885465 6.173123943840174 3 -4 0
727 1 2 -1.1794 2.4836591556662375 15.75161048363682 8.633737114533522 0 0 -1
309 1 1 0.5897 3.001653172188175 12.642357170200095 7.9296283571026605 1 7 -3
25 1 2 -1.1794 4.789349470522278 12.696041931156818 10.380279076089696 -3 6 7
27 1 1 0.5897 4.057555221734114 12.773279965863242 9.768186511180419 -3 6 7
308 1 1 0.5897 2.64771219714421 13.930987370104663 8.640860086423803 1 7 -3
729 1 1 0.5897 2.0841186720392937 15.635338252192403 7.7717506772975895 0 0 -1
728 1 1 0.5897 1.7788841462761125 16.099634694068968 9.17994532030041 0 0 -1
619 1 2 -1.1794 0.9993222490892109 15.184671263253588 6.440511936020234 3 -4 0
293 1 1 0.5897 0.7244141897804022 13.210085587907027 9.16778528943569 2 3 2
468 1 1 0.5897 4.177026249980838 16.088315860242922 8.899089135064386 3 -3 4
247 1 2 -1.1794 3.3609180009841064 15.756182419515229 14.925100132045568 -6 4 -5
248 1 1 0.5897 2.6954333358339553 16.037593261554992 15.552868435403761 -6 4 -5
802 1 2 -1.1794 2.2536768620551397 16.05691098921727 12.582903805453487 4 1 -2
731 1 1 0.5897 4.122142231523203 14.241582089645858 15.495433732021548 1 5 -7
561 1 1 0.5897 0.6597703473875034 16.732938492277988 13.295935610282037 5 1 2
817 1 2 -1.1794 0.8587510342348437 12.993109169941194 13.096343786336433 2 -6 -2
122 1 1 0.5897 2.4079042465702427 11.828992859601728 13.089558583183948 2 -1 0
803 1 1 0.5897 2.5752052867052293 15.773474043666583 13.438729500227641 4 1 -2
804 1 1 0.5897 2.898684905852507 15.720540815209311 11.960819740785972 4 1 -2
730 1 2 -1.1794 4.571436550073907 13.489137673976868 15.880317975148822 1 5 -7
249 1 1 0.5897 4.016733348059158 16.453149626327903 14.94201540628246 -6 4 -5
819 1 1 0.5897 0.9722751855137173 13.874270283913821 12.740235851589578 2 -7 -2
253 1 2 -1.1794 4.753586210524053 15.268776639353922 11.5753587267796 7 6 -5
790 1 2 -1.1794 0.521922944845829 12.928198053967229 15.897687380508687 4 4 -3
818 1 1 0.5897 0.6370392023248168 13.13302827121049 14.016895829641534 2 -6 -2
276 1 1 0.5897 2.8166421494822944 14.132168805641799 18.977152781293448 -3 -3 -4
275 1 1 0.5897 3.73427705974354 14.820580435007587 19.964931885159565 -3 -3 -4
182 1 1 0.5897 1.5880656494572176 15.904496048472971 17.89318869022282 -4 3 -2
266 1 1 0.5897 3.110367236803693 12.018408428265776 18.08024837139076 -4 2 -1
267 1 1 0.5897 3.5043781355687824 13.157094982150605 17.16382349732904 -4 2 -1
504 1 1 0.5897 1.3586640234723828 15.578351648650305 20.53961780382683 -7 4 5
274 1 2 -1.1794 2.9402705604204886 14.956326739994408 19.447933069020735 -3 -3 -4
265 1 2 -1.1794 2.812118792574846 12.869229128625486 17.75885020513055 -4 2 -1
660 1 1 0.5897 1.098845497226886 12.914753670781908 21.041483035020427 1 -1 3
502 1 2 -1.1794 0.7783076171761856 16.132109165022147 21.061827131715354 -7 4 5
132 1 1 0.5897 4.311433894400003 16.03995788094293 18.1130640136234 -3 -1 0
181 1 2 -1.1794 1.546907445800046 16.231250923865346 16.994458344965366 -5 3 -2
791 1 1 0.5897 1.2748978259300991 12.89340354300624 16.48756507391481 4 4 -3
754 1 2 -1.1794 4.672092619172847 18.166641704082718 4.9833574564196885 -3 -2 -4
196 1 2 -1.1794 2.0666307003854123 20.70912831810073 4.588150553958924 -4 -1 -2
197 1 1 0.5897 1.3576945524351447 20.089944265907718 4.4144700222919555 -4 -1 -2
605 1 1 0.5897 0.5948822068922999 17.91191019372706 1.0102554823456011 -2 -1 -1
526 1 2 -1.1794 2.2635602595613884 17.123577545103394 3.3733643601414096 -6 -6 1
738 1 1 0.5897 1.4207287054771327 20.266411259462387 0.8821416530319168 -2 -1 -1
285 1 1 0.5897 1.1206748994056208 21.741212173180408 5.775820221527677 7 -2 1
198 1 1 0.5897 2.6725700336367955 20.22819612446389 5.151797170186655 -4 -1 -2
527 1 1 0.5897 2.848500186088193 17.443377971224677 4.060186278404329 -6 -6 1
528 1 1 0.5897 2.6786245714319596 17.40064071284643 2.5564894895429244 -6 -6 1
552 1 1 0.5897 0.7030804011546745 18.07602968681258 5.419159365455894 1 7 -5
368 1 1 0.5897 3.5279390406540925 20.66351144751773 0.6896045848686556 3 6 3
369 1 1 0.5897 4.733691886151816 21.397283455311616 1.236871909730465 3 6 2
592 1 2 -1.1794 3.7801229872347233 17.09272181958609 0.7547304012672402 4 -5 -7
476 1 1 0.5897 1.9150293769719815 20.241715909224762 9.316210080155301 0 -2 0
313 1 2 -1.1794 4.648951727368876 20.917339948120166 10.072855118633573 -2 0 -2
475 1 2 -1.1794 1.8870294178266664 20.311095605160084 10.270473986611723 0 -2 0
836 1 1 0.5897 1.9335173563528298 19.148972794597345 7.125559988107716 4 3 1
314 1 1 0.5897 3.7219043211586826 20.781348750323918 10.268506581507989 -2 0 -2
837 1 1 0.5897 3.234580955786453 19.411674422597955 7.853600406719801 4 3 1
835 1 2 -1.1794 2.365184151439345 19.781437514936883 7.699859111375024 4 3 1
477 1 1 0.5897 1.5509096281726362 19.46394473686846 10.562894783078457 0 -2 0
820 1 2 -1.1794 0.8490288600827205 17.575130203030433 10.14676446770627 2 -3 4
550 1 2 -1.1794 1.1453541101540963 17.808426281472176 6.224714371655205 1 7 -5
756 1 1 0.5897 4.695871798193851 18.32378709773412 5.927222392852188 -3 -2 -4
766 1 2 -1.1794 4.652795460252137 18.522449713798125 7.682235087845828 -1 -2 2
551 1 1 0.5897 0.5728424509278464 18.117377837565467 6.926804917622978 1 7 -5
821 1 1 0.5897 0.5347353004517909 16.914586568926104 10.764053356183744 2 -3 4
470 1 1 0.5897 0.7216908885334655 21.802287153471674 10.319133816336322 2 0 2
794 1 1 0.5897 3.273361704283988 17.62871627669497 12.552098771633284 -5 1 4
540 1 1 0.5897 1.7392631981428994 20.54460515760209 12.769142290545496 0 -4 3
795 1 1 0.5897 3.641115368903954 19.096875832657783 12.521266279190518 -5 1 4
538 1 2 -1.1794 2.5437249817353575 20.771110660410397 13.235727728860992 0 -4 3
793 1 2 -1.1794 3.9732679380248945 18.238758095983556 12.784805479405566 -5 1 4
405 1 1 0.5897 0.8697449241391633 18.25454382965877 14.846450594049738 5 0 -1
104 1 1 0.5897 4.440832253706028 18.40317978679758 14.727095892768117 -4 -3 5
103 1 2 -1.1794 4.338342586229464 18.22874346870392 15.662619924568968 -4 -3 5
403 1 2 -1.1794 1.245887678101922 18.7873614148253 15.547026383554522 5 0 -1
105 1 1 0.5897 3.9893093173965095 19.044326221248447 16.021976003605076 -4 -3 5
404 1 1 0.5897 2.0342567850447137 19.169167615482806 15.161227474987724 5 0 -1
539 1 1 0.5897 2.8880608231973173 21.530460375536396 12.76565065528964 0 -4 3
386 1 1 0.5897 2.716750269111715 21.24520864443566 15.81319316391461 -7 0 0
365 1 1 0.5897 4.781490746849308 21.119877502942774 14.702915376872513 -1 4 5
385 1 2 -1.1794 3.341369663819169 20.750345570425424 16.343406149740538 -7 0 0
737 1 1 0.5897 1.6634654609205997 21.055752441029842 20.572012238552176 -2 -1 -2
516 1 1 0.5897 1.2562476074353115 21.324000007389113 18.383340730126164 -6 -4 -1
514 1 2 -1.1794 1.2039466353217563 20.48085193964868 18.83334804831354 -6 -4 -1
490 1 2 -1.1794 2.8652502273431475 18.144272283437648 19.076229641815026 8 1 1
367 1 2 -1.1794 4.472272436686372 20.76313125545272 21.527925488216994 3 6 2
593 1 1 0.5897 3.1237098225527236 17.239167929324264 21.03232997634548 4 -5 -8
492 1 1 0.5897 3.1610252218795507 17.590657486916456 18.353596797504196 8 1 1
183 1 1 0.5897 1.3810157177283473 17.169320100124153 17.087553795478 -5 3 -2
491 1 1 0.5897 2.2548371076457885 18.760776918899325 18.671899242867035 8 1 1
387 1 1 0.5897 3.7105626187585665 21.396792730681263 16.945048080818005 -7 0 0
258 1 1 0.5897 4.486448009403841 18.928825833153848 19.29724707715834 0 -2 1
594 1 1 0.5897 4.59476526878943 16.943858276260723 21.233436312095947 4 -5 -8
131 1 1 0.5897 4.779154623923313 17.051652095792726 17.088668761554842 -3 -1 0
736 1 2 -1.1794 1.6321832633360775 21.144729121563195 21.52452459025635 -2 -1 -2
679 1 2 -1.1794 7.557716791687252 5.384979207462604 1.6377801451649752 -6 -3 -3
628 1 2 -1.1794 5.03780439351491 2.193569851023535 2.7434722021057043 4 -2 4
681 1 1 0.5897 7.099507453607786 6.2220528820534655 1.563688231866676 -6 -3 -3
432 1 1 0.5897 7.6400876251735825 1.9901919274712723 0.9377662464673193 -8 -1 -1
774 1 1 0.5897 6.002014034772268 5.178177099008392 2.7131125298556817 -1 -8 0
185 1 1 0.5897 7.217779596489918 5.101533935325509 4.681363439760756 -5 9 3
772 1 2 -1.1794 5.435610870268906 4.767311776065391 3.366214835801333 -1 -8 0
773 1 1 0.5897 5.345346856532192 3.861675952108216 3.069867116115127 -1 -8 0
708 1 1 0.5897 7.673381486513475 2.6474886209051136 5.426612422349815 -3 -5 -5
184 1 2 -1.1794 7.62763792909547 5.316453354617716 5.519232452318867 -5 9 3
706 1 2 -1.1794 8.327822964581078 2.4647310219271596 4.752484273494254 -3 -5 -5
680 1 1 0.5897 7.321081163016748 4.910508730182885 0.8408901871668548 -6 -3 -3
341 1 1 0.5897 8.444421489798895 5.55524229092214 9.514625106956638 4 7 -1
139 1 2 -1.1794 7.492995410983626 3.5861037261522988 9.354552480494526 -2 -2 1
36 1 1 0.5897 8.912886434007392 4.284022654919118 6.517620306299168 -4 5 0
340 1 2 -1.1794 8.973438361132596 6.344365352230015 9.63119768740189 4 7 -1
141 1 1 0.5897 8.355611724152741 3.203660082438196 9.19399513201563 -2 -2 1
140 1 1 0.5897 6.971511355020376 3.329743920845001 8.593969338393823 -2 -2 1
186 1 1 0.5897 6.931791773791575 5.734292004719298 6.026540426000383 -5 9 3
395 1 1 0.5897 5.570841861420133 2.9856072656643926 7.328847741953816 2 3 4
394 1 2 -1.1794 6.411390730473708 2.6873621693043988 6.981473098486461 2 3 4
396 1 1 0.5897 6.5761869186204835 1.858417578694341 7.430733382418783 2 3 3
508 1 2 -1.1794 4.900158074811256 6.09399459822041 9.788638958668097 6 -4 7
509 1 1 0.5897 5.034687000192984 5.405233715433424 9.137756433545286 6 -4 7
111 1 1 0.5897 6.544222605193887 3.5628287247485355 10.819408355792806 0 2 -11
178 1 2 -1.1794 5.534649995379637 6.609333159195425 6.678606719680694 -5 4 -1
459 1 1 0.5897 8.668737654140322 5.343351366052871 13.129421259595276 2 -2 -5
555 1 1 0.5897 5.875243103446819 4.074099780178681 15.285165386215908 -5 -1 1
458 1 1 0.5897 7.730028001502691 4.532141058336499 13.99692288285977 2 -2 -5
457 1 2 -1.1794 8.334954449420874 4.45567855111467 13.259101418509188 2 -2 -5
109 1 2 -1.1794 6.098559220018494 3.5502177283779535 11.6663868114031 0 2 -11
554 1 1 0.5897 6.578133070202549 5.310735461266972 15.80322175259528 -5 -1 1
553 1 2 -1.1794 6.70744484178911 4.374785492394182 15.650151140149068 -5 -1 1
110 1 1 0.5897 6.793228792221156 3.7088999834751815 12.305448571610162 0 2 -11
52 1 2 -1.1794 5.091845940104338 6.320921640397813 12.777875021269834 -3 0 2
155 1 1 0.5897 8.730301484696785 2.100166827517193 14.357382857585174 6 0 -3
54 1 1 0.5897 5.456751176158153 6.060965166886897 11.93202489354646 -3 0 2
763 1 2 -1.1794 9.098345230784798 1.8987454646610011 12.29376677033855 -8 0 -3
439 1 2 -1.1794 7.2954200786298555 2.6617801565743506 17.789702498894243 0 3 1
280 1 2 -1.1794 7.045584033402306 3.128993671223333 20.669722454824758 1 -1 4
440 1 1 0.5897 7.2272266659715525 3.2797600654984995 17.061965745643818 0 3 1
282 1 1 0.5897 6.106590075267515 3.241247431553225 20.817463448930617 1 -1 4
676 1 2 -1.1794 5.8807059578532614 5.692451108007386 18.712225945068937 3 0 -5
43 1 2 -1.1794 8.644412550776794 5.689153602109681 18.733588574186477 -2 6 0
854 1 1 0.5897 5.491186803725086 2.2120526768626214 18.063118286842084 -1 3 1
281 1 1 0.5897 7.115870788913757 2.885562852726604 19.74671633984304 1 -1 4
45 1 1 0.5897 7.70518474282535 5.523142649427699 18.653286859202865 -2 6 0
441 1 1 0.5897 7.432522032769211 1.8120850730083902 17.37094300696259 0 3 1
44 1 1 0.5897 8.720541458180415 6.279168443542942 19.48343091832959 -2 6 0
677 1 1 0.5897 5.217712206796999 5.480591450814287 18.05519004927183 3 0 -5
678 1 1 0.5897 5.764932841045016 6.6282163436844765 18.876910964133884 3 0 -5
214 1 2 -1.1794 8.147961702399083 9.676114882449756 0.8724490026160605 -4 1 3
399 1 1 0.5897 7.743886463442087 8.688638952850447 3.9001920187001504 9 1 -4
137 1 1 0.5897 6.655389088046783 11.331678464569762 1.0444270796139428 5 -11 0
590 1 1 0.5897 5.110499645638478 7.812150365087061 0.9928068345482206 4 4 3
86 1 1 0.5897 9.05794780865939 6.8548479550456385 4.50887341317385 -3 7 3
397 1 2 -1.1794 7.133169917605809 9.327028627124815 4.268468624139198 9 1 -4
589 1 2 -1.1794 6.009728275181504 7.602725643775264 1.2452037262676123 4 4 3
398 1 1 0.5897 7.080701221052779 9.100946430506948 5.197053548982752 9 1 -4
216 1 1 0.5897 8.997774166971526 9.747743737837832 1.3069992552641048 -4 1 3
24 1 1 0.5897 5.423918322858766 9.098611384264018 4.1267550781287206 -4 1 3
591 1 1 0.5897 6.379092005731472 8.437807356694897 1.5322237823622784 4 4 3
518 1 1 0.5897 7.837318394009773 11.130074278910143 4.088515655332223 -2 2 -1
138 1 1 0.5897 5.206530248122725 11.72132031738431 1.246162968864243 5 -11 0
179 1 1 0.5897 5.923070656179878 7.452044544350747 6.913374737108038 -5 4 -1
320 1 1 0.5897 7.8086851397725345 8.59876636687689 7.611930054235021 3 2 -1
481 1 2 -1.1794 7.87617684490578 11.635384089604674 6.862846524709747 0 3 -5
319 1 2 -1.1794 7.101966431440401 8.925448764672712 7.055165688040291 3 2 -1
321 1 1 0.5897 7.105125972747399 9.872453647588735 7.194222275348741 3 2 -1
418 1 2 -1.1794 7.225775583105761 8.500354417867925 10.347112367469494 -7 0 5
342 1 1 0.5897 8.482599628265062 6.871365358975352 10.26168411044195 4 7 -1
419 1 1 0.5897 6.364096911467074 8.841132153183256 10.107257484585569 -7 0 5
609 1 1 0.5897 9.053829162768393 9.09266530312835 10.248796934049254 5 6 4
510 1 1 0.5897 5.112850625755247 6.905126134886463 9.327157817162181 6 -4 7
427 1 2 -1.1794 8.940758507794898 7.064023535697084 12.578827730080492 -2 4 0
50 1 1 0.5897 5.480383312771412 11.151839010890082 14.732259089452626 11 0 0
153 1 1 0.5897 6.334521327242608 9.450026273203399 13.24151224236307 2 -4 -1
152 1 1 0.5897 6.141855173978278 7.990021412285348 12.89083798803463 2 -4 -2
55 1 2 -1.1794 6.701969906668723 7.174448321924852 16.208102244907856 -2 -3 1
151 1 2 -1.1794 6.804405753164353 8.680136284009212 12.92114748907767 2 -4 -1
49 1 2 -1.1794 5.649828335375822 11.111746267785 13.791068787296147 11 0 0
428 1 1 0.5897 8.247651234341632 7.608601083854018 12.951887854636862 -2 4 0
420 1 1 0.5897 7.225577687448693 8.49949805363055 11.304269378277294 -7 0 5
603 1 1 0.5897 7.74425760193189 11.245933331433198 13.864515270502928 1 2 0
56 1 1 0.5897 5.978808552744791 7.2599495155161975 15.586883949978242 -2 -3 1
57 1 1 0.5897 7.468775106192848 7.4873537164238915 15.728223336845074 -2 -3 1
602 1 1 0.5897 8.73764528950425 11.390466012341987 14.997633592618188 1 2 -1
601 1 2 -1.1794 8.662859981169767 11.098273202576086 14.089242560822086 1 2 0
51 1 1 0.5897 4.818431454035983 11.359696018045307 13.386778564304535 11 0 0
48 1 1 0.5897 7.389487802276771 10.911560075723688 11.53378265952448 3 -2 -4
46 1 2 -1.1794 7.304348635641064 11.803014390484169 11.195842653276623 3 -2 -4
596 1 1 0.5897 6.218014161812018 8.026951708031742 17.603076278486725 2 -5 3
806 1 1 0.5897 5.313566381188628 11.392158415643754 17.038600281798878 -4 -2 -4
595 1 2 -1.1794 6.094387696091958 8.53527388725552 18.404618164329555 1 -5 3
74 1 1 0.5897 8.859473220882156 8.15301517345275 21.059279544635707 -5 -1 0
721 1 2 -1.1794 8.739364964365839 9.143947991775395 18.04122278464198 0 -5 1
700 1 2 -1.1794 8.774509448513703 11.716336144860932 16.764240357081476 5 1 2
597 1 1 0.5897 5.554354527577744 9.278651740981307 18.136454841191956 1 -5 3
805 1 2 -1.1794 5.157012244411207 10.539052106379852 16.633779954919746 -4 -2 -4
722 1 1 0.5897 7.850616685677623 9.152422095113923 18.39646549973913 0 -5 1
702 1 1 0.5897 8.62245883726114 10.96313715989087 17.334965668103116 5 1 2
215 1 1 0.5897 8.240193381604925 10.20051869814183 21.035707362354195 -4 1 2
191 1 1 0.5897 9.030712577413318 8.61121217303393 16.38249021588478 5 6 -4
78 1 1 0.5897 8.179469378895924 14.034266870785691 1.8998871265000554 -5 -4 -7
245 1 1 0.5897 6.703798682702681 15.22288737276697 3.4659894484468188 -6 4 1
246 1 1 0.5897 7.538910399857345 15.845991983093276 2.3678104179880064 -6 4 1
94 1 2 -1.1794 6.573002831821171 16.011482215859157 5.197480994266917 -4 0 3
371 1 1 0.5897 8.518584684743276 14.026447007777136 4.800875508472059 4 11 -1
519 1 1 0.5897 7.48315628402378 12.348719334386153 3.2632035347129933 -2 2 -1
244 1 2 -1.1794 6.880444276128937 15.169749766283074 2.5267744483139847 -6 4 1
96 1 1 0.5897 5.922137583681123 16.703946081400417 5.083431959289409 -4 0 3
76 1 2 -1.1794 8.766461921952239 13.58894244704924 1.2889324533328579 -5 -4 -7
95 1 1 0.5897 7.204407068292033 16.375448216035004 5.817963791479588 -3 0 3
517 1 2 -1.1794 7.80727566430551 12.086074381275202 4.124659476606581 -2 2 -1
136 1 2 -1.1794 6.094039089755634 11.929569419920297 1.5379450325599602 5 -11 0
489 1 1 0.5897 4.882341371286587 14.507980533156253 2.2841472676905545 2 -8 5
166 1 2 -1.1794 6.179408112212439 14.222983468641491 7.174425287744664 -2 -1 0
344 1 1 0.5897 6.665959605938251 14.049778116720459 9.26726448924181 -1 0 0
345 1 1 0.5897 7.552145482454803 13.554542867628468 10.390243209524733 -1 0 0
343 1 2 -1.1794 7.411878495974126 14.303364532487354 9.81080979732513 -1 0 0
47 1 1 0.5897 6.366803291052777 11.910480598007254 11.035840175562324 3 -2 -4
167 1 1 0.5897 6.297536415494932 14.76678936567008 6.395658318826856 -2 -1 0
542 1 1 0.5897 8.651740867281784 16.055570996762498 10.5637895645081 -6 4 0
254 1 1 0.5897 5.310348988769973 15.645323288506535 10.893902925519251 7 6 -5
212 1 1 0.5897 8.703928200174259 14.123003649559445 8.573558593973996 6 0 4
467 1 1 0.5897 5.5431855611676495 15.724895165861042 8.35761107230844 3 -3 4
168 1 1 0.5897 5.577407656786936 13.532848491718537 6.896134674484912 -2 -1 0
482 1 1 0.5897 8.186195877890155 12.453200036778517 7.251698285845083 0 3 -5
466 1 2 -1.1794 5.109123632447599 16.276422652572574 9.008418128021551 3 -3 4
26 1 1 0.5897 4.93038345515057 13.58735191627904 10.699382342090804 -3 6 7
483 1 1 0.5897 7.624902163258271 11.874010155375611 5.97062514044179 0 3 -5
682 1 2 -1.1794 6.33250319596794 16.26241795375679 14.483646861587733 6 -1 -3
334 1 2 -1.1794 6.539036989089796 13.726149044686457 13.433389377432121 4 3 2
683 1 1 0.5897 6.56764906567699 15.336760758193357 14.42020789557917 6 -1 -3
255 1 1 0.5897 5.367670335013768 14.90821808039782 12.214920022891247 7 6 -5
335 1 1 0.5897 7.218441485150316 13.466809423664762 12.811047449115089 4 3 2
732 1 1 0.5897 5.333086875822871 13.864616414416846 16.321974066488103 1 5 -7
336 1 1 0.5897 6.1096266968748765 12.905713483238124 13.675585878032276 4 3 2
71 1 1 0.5897 9.072759402991919 12.223837344059685 11.271974220826165 4 1 -5
684 1 1 0.5897 6.934444952409725 16.618697668259813 15.137014336486011 6 -1 -3
162 1 1 0.5897 8.228242606667909 12.729774895635545 20.713198999427433 2 10 2
841 1 2 -1.1794 6.112074271990798 12.439171346841306 18.37728166772485 -5 1 -1
842 1 1 0.5897 6.4069392440942 13.22174642371169 17.911694463726505 -5 1 -1
38 1 1 0.5897 7.328423104170608 16.75525301117351 20.2993723389041 -3 1 -2
68 1 1 0.5897 7.835936496141045 15.043522742952259 16.981029476909157 4 2 -6
271 1 2 -1.1794 5.621738706564605 14.081472928331396 20.764471075941707 0 4 3
160 1 2 -1.1794 8.120866467084594 12.021930914849174 20.077913108823914 2 10 2
273 1 1 0.5897 6.302439380059502 14.735915268870158 20.6077400555169 0 4 3
130 1 2 -1.1794 5.045225398141604 16.615737418924464 17.89819225068323 -3 -1 0
69 1 1 0.5897 6.524188853705134 15.619245232769964 17.47044669600446 4 2 -6
67 1 2 -1.1794 6.933325399250984 14.801365783299364 17.1879082186207 4 2 -6
843 1 1 0.5897 5.872373157195764 12.754401732921139 19.24866799381543 -5 1 -1
748 1 2 -1.1794 8.843356524661711 15.880298375778464 19.888871514061115 -3 3 2
272 1 1 0.5897 5.99691827556275 13.498331003569053 21.424273433834998 0 4 3
161 1 1 0.5897 7.504545849060811 12.369445773849085 19.433288176858476 2 10 2
797 1 1 0.5897 8.720371719326092 18.42717162541051 2.2798467650313907 -3 -3 -3
433 1 2 -1.1794 7.926453800996155 19.755287194659584 4.9223664943759 1 6 1
431 1 1 0.5897 8.231561021120083 21.716340697471974 2.2350788212376154 -8 -2 -1