LAMMPS data file via write_data, version 30 Jul 2021, timestep = 16500000

864 atoms
2 atom types
576 bonds
1 bond types
288 angles
1 angle types

0.14009806231722344 18.06747433769081 xlo xhi
0.12273240371819938 23.50644539629193 ylo yhi
0.0635833390848699 22.14961246091861 zlo zhi

Masses

1 1.00794
2 15.9994

Atoms # full

707 1 1 0.5897 3.070281132869674 1.8505587367386402 4.086002252384235 0 0 0
706 1 2 -1.1794 3.0393577324985754 1.729077007899678 3.13688159520057 0 0 0
30 1 1 0.5897 4.950929414271001 3.9308277369275024 2.116252752731693 0 0 0
708 1 1 0.5897 2.4264745140016006 2.3968943617033163 2.8292344358096284 0 0 0
29 1 1 0.5897 4.224840255100244 2.614081418398232 2.291752786086509 0 0 0
28 1 2 -1.1794 4.864156737243487 3.057532175623037 1.7340942656200207 0 0 0
20 1 1 0.5897 0.8367263248410961 3.1094198420511088 0.7013376648166086 0 0 0
1 1 2 -1.1794 0.795787414167334 3.3275322613111533 2.605848071017214 0 0 0
495 1 1 0.5897 7.841655059792967 2.1254793695094705 2.6022395787836055 0 0 0
494 1 1 0.5897 6.3456421122853275 2.162942523016453 2.372899126808304 0 0 0
493 1 2 -1.1794 7.03543741975297 1.6430952432647683 2.7854951743179184 0 0 0
846 1 1 0.5897 7.285112857198865 1.613036036251251 4.696776382699697 0 0 0
3 1 1 0.5897 0.8562199121039411 4.238958672055745 2.8919296281316274 0 0 0
137 1 1 0.5897 5.507313208481118 5.542066455609714 3.5439894296304253 0 0 0
685 1 2 -1.1794 5.523410492213177 5.489933539011166 5.282572759982205 0 0 0
136 1 2 -1.1794 5.461621249297788 5.548038204344398 2.587738064867933 0 0 0
419 1 1 0.5897 8.869660173622652 2.593922868075723 6.076856217710934 0 0 0
34 1 2 -1.1794 0.7886986545756022 3.3087224558252983 9.492423814912387 0 0 0
82 1 2 -1.1794 5.331449451319373 3.1127007655243757 6.8156752058100984 0 0 0
488 1 1 0.5897 2.2845449415707386 2.3772307316721895 6.1085297299035775 0 0 0
674 1 1 0.5897 3.80408069688298 2.2270414726565773 10.31221743163851 0 0 0
356 1 1 0.5897 7.486362902494695 0.6972446446260294 10.314499569367332 0 0 0
845 1 1 0.5897 7.652077193489022 0.766095469281276 5.896924400167799 0 0 0
673 1 2 -1.1794 2.9561685756987526 1.8592454608772266 10.561347905621446 0 0 0
784 1 2 -1.1794 0.7530359162676207 3.2206560077673507 6.602309519054728 0 0 0
83 1 1 0.5897 4.520605702604419 2.779558689717489 6.431139909057112 0 0 0
84 1 1 0.5897 6.013861202663358 2.534059380163121 6.475441949456142 0 0 0
274 1 2 -1.1794 5.234187602789952 3.0620408519574673 9.553124059656392 0 0 0
678 1 1 0.5897 5.252601007802135 4.745483815910287 10.333607279314645 0 0 0
785 1 1 0.5897 0.637328583086116 3.178339091286896 7.5517133030500085 0 0 0
36 1 1 0.5897 1.5772484521869536 2.8365912038024574 9.75992549128056 0 0 0
355 1 2 -1.1794 7.443075523796216 1.6416967544937984 10.463858151581649 0 0 0
489 1 1 0.5897 2.979062867085805 1.0371590440808651 6.225346874121983 0 0 0
686 1 1 0.5897 5.458423256796821 4.726987617326399 5.857020463256817 0 0 0
276 1 1 0.5897 5.831669830085828 2.428078172991976 9.949842950517358 0 0 0
675 1 1 0.5897 2.9111625541119293 1.0237126545165103 10.096438674772806 0 0 0
275 1 1 0.5897 5.463278417494985 3.05877702397227 8.623579377684532 0 0 0
112 1 2 -1.1794 0.9408652694017879 5.894779930858136 10.625618567944853 0 0 0
35 1 1 0.5897 0.9098716101420334 4.193171260652043 9.837777977390138 0 0 0
676 1 2 -1.1794 5.464155864285754 5.548156432967751 10.810279568202628 0 0 0
183 1 1 0.5897 0.9167732601568099 4.973464370636022 6.021076548931885 0 0 0
181 1 2 -1.1794 1.0931134777174405 5.9138916115377285 5.99380209470547 0 0 0
677 1 1 0.5897 6.224884803328228 5.905723700161194 10.352277727666074 0 0 0
176 1 1 0.5897 8.88655217330916 2.5863966009493407 9.64030400743493 0 0 0
487 1 2 -1.1794 3.0881054606335194 1.9173732744642187 5.8654174689348295 0 0 0
844 1 2 -1.1794 7.495482355261658 1.6715377794358772 5.628896642727947 0 0 0
166 1 2 -1.1794 3.37352484647821 1.8251543415836688 13.269343769801125 0 0 0
167 1 1 0.5897 3.2734129944973134 1.7868858383627166 12.318004060081815 0 0 0
457 1 2 -1.1794 5.454103096829615 3.0200509336172834 14.567625230350696 0 0 0
458 1 1 0.5897 6.207407616484222 2.6274960504015956 14.12631705352245 0 0 0
459 1 1 0.5897 4.693898013928986 2.6074952393163278 14.15748042758507 0 0 0
762 1 1 0.5897 5.372841739094312 4.751776221698951 13.991624998936869 0 0 0
594 1 1 0.5897 8.461055889314938 2.387243896607524 13.320195561002441 0 0 0
168 1 1 0.5897 2.5562291013986798 2.213764106932204 13.581280921656942 0 0 0
468 1 1 0.5897 0.8475188407487042 2.953156208477038 14.922143183377692 0 0 0
365 1 1 0.5897 0.7649674169812903 4.787415919517521 13.514141690440006 0 0 0
593 1 1 0.5897 7.6717120067353255 1.1015756993363568 13.194434997253822 0 0 0
592 1 2 -1.1794 7.595253573280658 2.049964216145572 13.09014647534399 0 0 0
466 1 2 -1.1794 1.0581419341541736 2.8787344731354056 13.9912191685381 0 0 0
71 1 1 0.5897 5.089458371907867 2.8054697234394195 16.281660990910765 0 0 0
113 1 1 0.5897 1.0858596269700826 5.786422594817492 11.565703702867117 0 0 0
761 1 1 0.5897 5.3931837327942045 5.47520305996473 12.66170390708011 0 0 0
760 1 2 -1.1794 5.379200566473456 5.628121346011377 13.606665824208246 0 0 0
737 1 1 0.5897 2.790255390582525 0.28592562226484125 13.623199324962972 0 1 0
467 1 1 0.5897 0.3604135644632769 2.3317747256540127 13.630215843730578 0 0 0
357 1 1 0.5897 7.567848745357242 1.741373134101913 11.40782500276165 0 0 0
364 1 2 -1.1794 0.6854537868927117 5.732543434261411 13.385418127353432 0 0 0
754 1 2 -1.1794 7.44088098837245 1.8854069200016816 17.512435597993907 0 0 0
72 1 1 0.5897 4.278177516039575 2.3557724388683465 17.47832116950945 0 0 0
646 1 2 -1.1794 0.6927336662789366 5.663577743862636 20.78716785077618 0 0 0
755 1 1 0.5897 7.722249366854301 1.8622608381414998 18.42721976810528 0 0 0
290 1 1 0.5897 2.641354808734647 0.733694394355154 17.65320523890987 0 0 0
42 1 1 0.5897 7.631643156801408 0.9410950109449824 20.641864007420274 0 0 0
289 1 2 -1.1794 2.757721071855708 1.6162669550496458 18.004966145090997 0 0 0
41 1 1 0.5897 7.033422983258386 2.326754037225222 20.524202079707983 0 0 0
143 1 1 0.5897 5.474510262135355 4.942040486260174 20.371405838362968 0 0 0
569 1 1 0.5897 2.0770409268258065 2.194568711754536 21.118651565879112 0 0 0
142 1 2 -1.1794 5.561219654490645 5.872579592534383 20.16463069713459 0 0 0
570 1 1 0.5897 2.7324745950812286 1.840119880741177 19.80059809594112 0 0 0
40 1 2 -1.1794 7.761965037895153 1.7880927538849285 20.21542729328553 0 0 0
144 1 1 0.5897 5.542437284114534 5.908703309455045 19.208133011031414 0 0 0
667 1 2 -1.1794 5.35612123404275 3.309497606839799 20.87863297391025 0 0 0
19 1 2 -1.1794 0.7180649606471476 2.9944602276919228 21.84437333931291 0 0 0
568 1 2 -1.1794 2.8794303931709075 1.8284954672202112 20.74653618967033 0 0 0
21 1 1 0.5897 0.7244893985758222 3.884154859962602 21.491377081970406 0 0 0
669 1 1 0.5897 4.5376823160736475 2.9158995616810106 20.576061967386167 0 0 0
278 1 1 0.5897 5.194414900725871 4.681845512670754 17.349310125512808 0 0 0
291 1 1 0.5897 2.16548678964974 2.16111500249292 17.486540151455245 0 0 0
756 1 1 0.5897 6.581804676214193 2.307025231874219 17.53620853579111 0 0 0
277 1 2 -1.1794 5.3289094245105435 5.606207508934746 17.558208991432316 0 0 0
134 1 1 0.5897 0.8953771667472142 3.981553114492108 17.24516330483855 0 0 0
133 1 2 -1.1794 0.8377992504720828 3.174617554679979 16.733470991972048 0 0 0
323 1 1 0.5897 7.389424286337432 0.23891215134381052 17.031536582625115 0 1 0
70 1 2 -1.1794 5.006676303693212 2.924019831569867 17.228033839267702 0 0 0
648 1 1 0.5897 0.5985158671320466 5.789817811883457 19.84285740665291 0 0 0
571 1 2 -1.1794 0.7395473631724003 5.651888376873416 17.934984492921046 0 0 0
599 1 1 0.5897 8.956369876633325 2.8562760913899052 16.805188057949223 0 0 0
81 1 1 0.5897 3.2418217466295136 0.12542689904315552 21.47376041012774 0 1 0
668 1 1 0.5897 5.221652684130439 3.4526905025133203 21.815625034960753 0 0 -1
253 1 2 -1.1794 3.246435451229102 7.447114776192129 1.7450684948530482 0 0 0
123 1 1 0.5897 3.0371822019676276 9.02562423627513 2.862590561857362 0 0 0
121 1 2 -1.1794 2.868746974345513 9.8474294107649 3.3235830792595302 0 0 0
122 1 1 0.5897 2.889215381168498 9.611061229016125 4.251072500698257 0 0 0
44 1 1 0.5897 1.7102493137709027 10.942442801180832 2.477434581149211 0 0 0
218 1 1 0.5897 5.712056629022547 10.713528184481648 2.2528358634944188 0 0 0
255 1 1 0.5897 2.553872661506001 6.907228995722222 2.1260751796629402 0 0 0
219 1 1 0.5897 4.231127744420606 10.801129739790778 2.5549917821134693 0 0 0
416 1 1 0.5897 6.887600844480282 6.521304541444183 2.021165798628934 0 0 0
415 1 2 -1.1794 7.620536539464111 7.107882903602363 1.8341033123476551 0 0 0
162 1 1 0.5897 7.706762237131625 7.151156272680573 0.07702081033158693 0 0 1
254 1 1 0.5897 3.2142758347580416 7.252896904802663 0.8081716439853729 0 0 0
217 1 2 -1.1794 4.948721722222813 11.28000918021629 2.140204617518162 0 0 0
66 1 1 0.5897 7.40012442983272 9.690340906805318 3.538670820865945 0 0 0
65 1 1 0.5897 7.48545123387027 8.889126257675175 2.2568152225710603 0 0 0
64 1 2 -1.1794 7.473383811412095 9.786741215260115 2.5889957720344876 0 0 0
43 1 2 -1.1794 0.9171153396060722 11.306580128925644 2.084172265681807 0 0 0
417 1 1 0.5897 8.384314075372522 6.662032407501526 2.200407992198894 0 0 0
396 1 1 0.5897 0.9176362031484001 11.355274708133178 0.13495504946511422 0 0 0
363 1 1 0.5897 5.17041967299896 11.319845416779659 0.32928350772014564 0 0 1
138 1 1 0.5897 4.748958559246628 6.154149077270773 2.3852827929320264 0 0 0
597 1 1 0.5897 1.205313300713612 6.159107197103988 4.117668117513476 0 0 0
595 1 2 -1.1794 1.2037139463419348 6.0679877762540295 3.1646550138399943 0 0 0
596 1 1 0.5897 0.3732904270092087 6.455385427333729 2.887868730434665 1 0 0
713 1 1 0.5897 8.101604583262429 9.884759784283318 5.571140965514648 0 0 0
687 1 1 0.5897 4.824801312618038 6.073439401434214 5.578790923516907 0 0 0
712 1 2 -1.1794 7.23666919056388 9.519033432354476 5.385583036396837 0 0 0
794 1 1 0.5897 2.2885892467899 9.61170542198382 6.262270468298536 0 0 0
12 1 1 0.5897 3.5482439526038436 7.600632792821944 6.598209484892911 0 0 0
10 1 2 -1.1794 3.5812295857463603 6.651895404397908 6.7205996495230425 0 0 0
795 1 1 0.5897 3.7620788509191194 9.955936177110228 6.213373126918212 0 0 0
526 1 2 -1.1794 7.55679441827476 6.6195719242790565 9.393809238115352 0 0 0
577 1 2 -1.1794 5.486488177995378 10.937466096567311 6.78012635892394 0 0 0
145 1 2 -1.1794 7.498880364811847 7.0060778931710574 6.811207245160203 0 0 0
714 1 1 0.5897 7.207876437872548 8.704479366567982 5.887536851244339 0 0 0
182 1 1 0.5897 0.30778693308634214 6.316103394360961 6.365014948744442 1 0 0
580 1 2 -1.1794 5.30898758779244 10.899239598925439 9.5410121622879 0 0 0
650 1 1 0.5897 3.465241091936224 6.629517683280117 8.637005043274819 0 0 0
822 1 1 0.5897 8.213271070789526 9.815801921044317 9.91513213012269 0 0 0
527 1 1 0.5897 7.5717839591402685 7.5492068173400835 9.621243139667675 0 0 0
15 1 1 0.5897 1.715706661435837 10.52198036840429 9.588907558851577 0 0 0
582 1 1 0.5897 5.437447002101544 10.905838041920047 8.592336576638498 0 0 0
820 1 2 -1.1794 7.513991851352353 9.253652158764947 10.248740865251587 0 0 0
581 1 1 0.5897 6.032545094080432 10.370562696007225 9.877555579057326 0 0 0
147 1 1 0.5897 7.449587159164919 6.885195391948941 7.759622974363655 0 0 0
649 1 2 -1.1794 3.3592678713522885 6.930719162645045 9.539526812144029 0 0 0
552 1 1 0.5897 1.1014980162560088 11.418241707310333 6.4667387077626 0 0 0
256 1 2 -1.1794 3.003139596038439 9.488735622389182 10.491627060543651 0 0 0
258 1 1 0.5897 3.748982839610477 9.908913365613351 10.063268933912688 0 0 0
146 1 1 0.5897 6.848257501430506 6.399405109671768 6.457749349149611 0 0 0
257 1 1 0.5897 3.018722949466173 8.58715883123645 10.17048796505608 0 0 0
528 1 1 0.5897 8.40176358676097 6.2852708512678825 9.694759658726065 0 0 0
578 1 1 0.5897 6.112396049779821 10.436314124179464 6.257195259109721 0 0 0
13 1 2 -1.1794 0.886334373799604 10.934321228395945 9.34725454911504 0 0 0
551 1 1 0.5897 1.111614893719802 10.578365303542009 7.726449904113579 0 0 0
11 1 1 0.5897 2.7469099004985673 6.336026545952295 6.373504599264474 0 0 0
550 1 2 -1.1794 1.0559758421009002 10.512514668181216 6.772982118461366 0 0 0
651 1 1 0.5897 4.13911973415056 6.610157435334575 9.992751600485 0 0 0
114 1 1 0.5897 1.6874190860744578 6.413484255707871 10.32581509157494 0 0 0
165 1 1 0.5897 9.077785150706465 6.185374019483484 5.961337950133981 0 0 0
793 1 2 -1.1794 3.1250093039636 9.31035471837814 5.90739751611951 0 0 0
826 1 2 -1.1794 7.7242879685852275 6.998879778810655 13.832642854065337 0 0 0
827 1 1 0.5897 6.850717084706611 6.613684628145889 13.763260718913916 0 0 0
332 1 1 0.5897 2.9571804827291714 7.896138353068346 13.86570104191626 0 0 0
797 1 1 0.5897 3.254759195431995 9.295357756467984 12.299725075698051 0 0 0
796 1 2 -1.1794 3.2380523347055257 9.441091494704738 13.245775212528898 0 0 0
798 1 1 0.5897 2.4625450442256174 9.982955523546304 13.391462730740393 0 0 0
722 1 1 0.5897 4.5651113972000665 10.440348139429013 13.68246432162211 0 0 0
261 1 1 0.5897 0.8964642710103518 10.780563339222843 14.930785788941474 0 0 0
723 1 1 0.5897 5.580646735971674 10.744680258409522 14.763392663493457 0 0 0
828 1 1 0.5897 7.870591723206035 7.093894909224644 14.77397500178711 0 0 0
259 1 2 -1.1794 0.9963405737607743 10.823517659856025 13.979615665453261 0 0 0
331 1 2 -1.1794 2.9249951695690535 7.042030904511591 14.296644423521014 0 0 0
225 1 1 0.5897 2.9759292797921963 7.173761456969877 16.09617925724846 0 0 0
721 1 2 -1.1794 5.407505145510181 10.870237581820394 13.830237878078249 0 0 0
475 1 2 -1.1794 7.67060518049286 9.782792883180147 12.87966740467363 0 0 0
476 1 1 0.5897 6.830625207315029 10.117674455406343 13.193670180172239 0 0 0
477 1 1 0.5897 7.77393053216441 8.940649376180788 13.322808968137183 0 0 0
333 1 1 0.5897 3.705991350791599 6.585711877571325 13.983431024505562 0 0 0
260 1 1 0.5897 0.20548713075345873 10.4076982801702 13.636179629288808 0 0 0
366 1 1 0.5897 1.481137550408848 6.095490583743481 13.774609954929272 0 0 0
520 1 2 -1.1794 7.60556330064666 6.934487705642721 16.552105640659505 0 0 0
679 1 2 -1.1794 5.58038108668658 10.776289951206241 16.604014896650632 0 0 0
821 1 1 0.5897 7.603001362469174 9.299126904659309 11.2008695796724 0 0 0
681 1 1 0.5897 5.382818710316275 11.662768584294717 16.906238327132208 0 0 0
141 1 1 0.5897 7.4864940206760275 9.191503301363158 20.90997703222631 0 0 0
680 1 1 0.5897 4.823475430376725 10.256385770181808 16.874336301192976 0 0 0
522 1 1 0.5897 7.593268341012787 7.7986803176341795 16.963543072350895 0 0 0
4 1 2 -1.1794 3.1478562600030484 6.934379523848173 21.117775884529514 0 0 0
627 1 1 0.5897 2.501238923063027 10.040141392783795 17.47425015834373 0 0 0
5 1 1 0.5897 3.9182382972861847 6.587968504181193 20.66740000052723 0 0 0
9 1 1 0.5897 6.973383203103886 9.98964239777867 17.31737621018314 0 0 0
140 1 1 0.5897 6.915737652689784 10.591184918310782 20.82694387744879 0 0 0
445 1 2 -1.1794 0.9128694054769294 10.96380796252471 16.711376766687884 0 0 0
690 1 1 0.5897 2.3638775327087074 10.16744968029124 20.718868847408956 0 0 0
625 1 2 -1.1794 3.271299092663525 9.581107979775249 17.80979907197117 0 0 0
688 1 2 -1.1794 3.133488656541046 9.610869106303799 20.599849255844532 0 0 0
647 1 1 0.5897 1.52074039296658 6.091576213436252 21.005114736062033 0 0 0
224 1 1 0.5897 2.9623160111672484 7.879278872960609 17.435769318679306 0 0 0
689 1 1 0.5897 3.8576516650992847 10.122140325588449 20.96107982358128 0 0 0
521 1 1 0.5897 6.817354762263089 6.501452841857505 16.87997725182594 0 0 0
626 1 1 0.5897 3.1313691036650275 9.537348600745691 18.755886067981976 0 0 0
139 1 2 -1.1794 7.661197454385141 10.059871785272808 20.547169545897873 0 0 0
6 1 1 0.5897 3.14816245196923 7.868654674504637 20.90959229870171 0 0 0
279 1 1 0.5897 4.479831550674579 6.015756470429724 17.39204599081493 0 0 0
8 1 1 0.5897 7.73248745599617 9.698961615426803 18.594767325859692 0 0 0
7 1 2 -1.1794 7.6991735195465045 9.471576543147199 17.665404574341103 0 0 0
160 1 2 -1.1794 7.703171593911572 7.309647032434269 21.218904347801086 0 0 0
161 1 1 0.5897 7.010260396455667 6.741209525865289 20.88267512771708 0 0 0
394 1 2 -1.1794 1.0241209098791013 11.296489839553493 21.271370923673558 0 0 0
361 1 2 -1.1794 5.327903087507964 11.300423073485529 21.471187261238896 0 0 0
223 1 2 -1.1794 3.0084785540129837 7.009514182033467 17.03877970248665 0 0 0
447 1 1 0.5897 0.20362565231038993 10.478678155803221 17.13321054979872 1 0 0
711 1 1 0.5897 9.086453667958708 6.079850795451964 17.579321837440986 0 0 0
395 1 1 0.5897 0.33279396153863416 10.697697628189902 20.98890356044715 0 0 0
572 1 1 0.5897 1.5343680389651542 6.15947322417197 17.77097139449627 0 0 0
200 1 1 0.5897 5.203798594092187 13.643835418479906 4.920002635319643 0 0 0
173 1 1 0.5897 4.185165452958758 14.164218816159066 2.9034993178826585 0 0 0
172 1 2 -1.1794 4.964444213438306 13.68709090491023 3.188777131807223 0 0 0
373 1 2 -1.1794 0.7784974550569698 13.694459736730284 3.159942621143737 0 0 0
558 1 1 0.5897 2.817796159855213 14.932020698660452 1.013105778042322 0 0 0
556 1 2 -1.1794 2.805692626424964 15.058639252172691 1.9619886586680475 0 0 0
557 1 1 0.5897 2.112403518177183 14.476499431348362 2.2730184796628348 0 0 0
478 1 2 -1.1794 7.218542976622324 14.873873280365869 2.0615037762225725 0 0 0
174 1 1 0.5897 4.953153005209981 12.879867323462072 2.674456925623247 0 0 0
293 1 1 0.5897 2.8046057728436424 16.805770676370184 2.460579241752862 0 0 0
479 1 1 0.5897 7.948232096198721 14.480660982574538 2.5403246165673834 0 0 0
449 1 1 0.5897 7.352449774991125 16.825237836055297 2.6372584180386167 0 0 0
480 1 1 0.5897 6.437768566571336 14.467938916284671 2.438238954527427 0 0 0
374 1 1 0.5897 0.6797317695021176 13.412467420599912 4.06946149160321 0 0 0
45 1 1 0.5897 0.9122191528683634 12.223439526612713 2.3590241363382094 0 0 0
308 1 1 0.5897 7.253531085442232 17.38282720523868 4.705028144423289 0 0 0
294 1 1 0.5897 2.9503652552400292 17.413700660910386 3.8395896258324305 0 0 0
292 1 2 -1.1794 2.8314559773534937 17.645919898286735 2.9184742923007776 0 0 0
317 1 1 0.5897 7.364268441151075 14.642083717496233 0.26418742056833366 0 0 0
384 1 1 0.5897 2.669800920057275 16.597106392969557 10.258334152214037 0 0 0
201 1 1 0.5897 6.05994337040897 14.092673106624803 6.085309907231813 0 0 0
454 1 2 -1.1794 4.939359967689153 13.576226341690786 10.39576751849928 0 0 0
656 1 1 0.5897 1.8667680466986976 13.73009947924975 6.270559806398405 0 0 0
811 1 2 -1.1794 2.6366618924612717 14.944617303363586 9.476039823835588 0 0 0
456 1 1 0.5897 5.048565235630871 12.649831410595894 10.181188713706526 0 0 0
813 1 1 0.5897 1.8942930668244984 14.436114629528575 9.802533799854334 0 0 0
17 1 1 0.5897 3.1188937730228212 15.040512845277238 7.682866040525131 0 0 0
766 1 2 -1.1794 0.536292889773558 13.546758735834665 10.434571079611546 0 0 0
239 1 1 0.5897 2.867582496042543 16.641564913696236 5.973847641536587 0 0 0
377 1 1 0.5897 6.520155146843554 14.35181710618497 9.74918019693342 0 0 0
579 1 1 0.5897 5.627683360903725 11.846804261282456 6.516779285735143 0 0 0
519 1 1 0.5897 8.348421357938859 14.248014058227763 6.366062510790359 0 0 0
812 1 1 0.5897 3.401177334396368 14.549298053098012 9.895040430306395 0 0 0
18 1 1 0.5897 3.9126824909800892 14.688545183166452 6.442488557790465 0 0 0
376 1 2 -1.1794 7.280005231394498 14.872613906748722 9.489052951650326 0 0 0
16 1 2 -1.1794 3.0839836975946047 15.074265836650056 6.7267294543085425 0 0 0
517 1 2 -1.1794 7.620808263451547 14.697002765840736 6.796542935871586 0 0 0
186 1 1 0.5897 7.195965740254424 16.446590417565524 10.065140085248498 0 0 0
378 1 1 0.5897 7.378068116691947 14.702759925066593 8.552004725126535 0 0 0
518 1 1 0.5897 7.605351646682997 15.56661482130755 6.396846767791992 0 0 0
184 1 2 -1.1794 7.247243630453294 17.30250913966888 10.49060421792788 0 0 0
59 1 1 0.5897 8.768880043493425 13.848585283435572 9.904527962628396 0 0 0
655 1 2 -1.1794 1.1206519874547811 13.159111214790965 6.0874099519466265 0 0 0
199 1 2 -1.1794 5.3326820220784015 13.512696726069718 5.859536411486691 0 0 0
657 1 1 0.5897 0.3758896544399164 13.598095193397219 6.49842742504171 1 0 0
309 1 1 0.5897 8.125513036440237 17.62706628343055 5.9184689831481885 0 0 0
238 1 2 -1.1794 2.9794481941331785 17.541156844696104 5.666558940533063 0 0 0
382 1 2 -1.1794 2.59855391321894 17.44009633503699 10.706140525775432 0 0 0
14 1 1 0.5897 0.9802211189300214 11.84459999060999 9.62792520416211 0 0 0
307 1 2 -1.1794 7.311907322909549 17.20414594415734 5.643756740543831 0 0 0
296 1 1 0.5897 7.32989928767492 14.604268393103837 14.931562448685137 0 0 0
232 1 2 -1.1794 2.8752032192846815 14.914750822223033 13.994135929184344 0 0 0
234 1 1 0.5897 2.880587347784493 14.932833735615473 14.951326910837132 0 0 0
606 1 1 0.5897 2.974247026287106 16.733269653957883 13.619244179716947 0 0 0
427 1 2 -1.1794 4.991529539336821 13.543337897815533 13.132905484929648 0 0 0
233 1 1 0.5897 3.5683105152047903 14.296775331545316 13.761822569924867 0 0 0
639 1 1 0.5897 1.3327440582541117 14.019406880336517 13.590863945813147 0 0 0
429 1 1 0.5897 5.82941443209161 13.967896923165702 13.317241267161238 0 0 0
428 1 1 0.5897 5.104237745449297 12.645043482471763 13.443649321430524 0 0 0
637 1 2 -1.1794 0.4951405610714593 13.571406878442268 13.472610358830654 0 0 0
455 1 1 0.5897 5.077156359469246 13.621320311715234 11.342085201641279 0 0 0
295 1 2 -1.1794 7.2562044217948705 14.8584912238141 14.011526197912884 0 0 0
270 1 1 0.5897 7.5643952935576735 16.604245894739922 13.527031453444453 0 0 0
297 1 1 0.5897 8.047722832919204 14.509266668331895 13.601818141788524 0 0 0
638 1 1 0.5897 0.6717269914005132 12.66354394189989 13.719154511257386 0 0 0
268 1 2 -1.1794 7.728196724492956 17.50139748143309 13.236375634284938 0 0 0
604 1 2 -1.1794 3.0636514416569334 17.65247035799773 13.367732627348058 0 0 0
767 1 1 0.5897 0.4648461996266728 13.574859727397923 11.388846395441435 0 0 0
269 1 1 0.5897 7.5214171506069825 17.49247847100268 12.301660015083105 0 0 0
362 1 1 0.5897 5.207659049677717 12.207164006259694 21.189073016307347 0 0 0
610 1 2 -1.1794 7.253438586533489 17.152255164721282 17.530147894877288 0 0 0
824 1 1 0.5897 3.4193015167149197 14.4493723909699 17.106932772297363 0 0 0
53 1 1 0.5897 0.45113460262206195 13.666198874741205 18.6016295328129 0 0 0
452 1 1 0.5897 0.9363889388619488 13.023808819370725 20.763893090969276 0 0 0
451 1 2 -1.1794 0.7937277272678395 13.897594502988229 20.400069718662742 0 0 0
125 1 1 0.5897 5.003206409289424 13.500867040084465 18.37561469758117 0 0 0
124 1 2 -1.1794 4.9449305804143115 13.511546331841952 17.420090752181096 0 0 0
684 1 1 0.5897 4.4512100882082315 14.181729766082512 20.621939967598145 0 0 0
825 1 1 0.5897 1.9076347626594297 14.384555885214011 17.054788303093417 0 0 0
666 1 1 0.5897 3.021119832276301 16.135074785478224 21.055025247258634 0 0 0
584 1 1 0.5897 2.5016319230943935 16.52461118470348 17.486265597967773 0 0 0
664 1 2 -1.1794 3.0892190833761672 15.196564795699762 21.230348331666647 0 0 0
318 1 1 0.5897 7.477053303484542 15.520739070643174 21.12238635891763 0 0 0
665 1 1 0.5897 2.2701668519532188 14.83014221189027 20.89688391485874 0 0 0
823 1 2 -1.1794 2.6540442651980927 14.901461982089245 16.751543276128984 0 0 0
683 1 1 0.5897 5.96367052081716 14.116798911773229 20.638934441121883 0 0 0
126 1 1 0.5897 5.765570520438718 13.912830048041975 17.134032324809347 0 0 0
682 1 2 -1.1794 5.191534330947219 13.685316917622218 20.272971003735982 0 0 0
446 1 1 0.5897 0.7760329022468048 11.871896549158555 16.9812667513604 0 0 0
316 1 2 -1.1794 7.387454658602991 14.607225677983624 21.39377172753551 0 0 0
52 1 2 -1.1794 0.5154652442962144 13.57110040833145 17.65116649653578 0 0 0
583 1 2 -1.1794 2.671569692485553 17.407423337156956 17.814860435308688 0 0 0
117 1 1 0.5897 8.79794898190229 13.745228171701651 20.605365804387247 0 0 0
159 1 1 0.5897 7.501962595178976 17.24560689455077 19.455974117348447 0 0 0
157 1 2 -1.1794 7.497504928583775 17.113700020230077 20.4042098702773 0 0 0
585 1 1 0.5897 3.508981613538823 17.65283524137264 17.421362064647987 0 0 0
611 1 1 0.5897 6.458686973839522 17.607536305551687 17.25199059818557 0 0 0
49 1 2 -1.1794 7.385658710100521 14.464982647745982 16.750980922569326 0 0 0
51 1 1 0.5897 8.293024672189983 14.223695739365782 16.93746453583659 0 0 0
50 1 1 0.5897 7.325377766713392 15.38602494287501 17.004449513647522 0 0 0
267 1 1 0.5897 5.918016202261538 21.61638157536455 2.70509065500991 0 0 0
696 1 1 0.5897 1.1890100131450463 22.06743165692254 2.685051546419415 0 0 0
266 1 1 0.5897 4.428835982873712 21.60261217097064 2.9775848520640964 0 0 0
265 1 2 -1.1794 5.2478767973655245 21.174164834252682 3.226363920007143 0 0 0
344 1 1 0.5897 1.3422890262781444 18.617312134229913 2.7084763435413395 0 0 0
228 1 1 0.5897 5.20044355817707 19.627215916032853 2.187647817978181 0 0 0
227 1 1 0.5897 4.2871032306821615 18.420064896977024 2.208590252080266 0 0 0
817 1 2 -1.1794 7.36679934882895 22.513117497403638 2.0126376007184783 0 0 0
413 1 1 0.5897 0.5016711305390208 21.481874021027693 4.766375337953891 0 0 0
226 1 2 -1.1794 5.118514055877789 18.734165568953262 1.8530319972510942 0 0 0
187 1 2 -1.1794 3.0078261430770663 22.36828024132213 2.369262773408542 0 0 0
249 1 1 0.5897 5.507604319371546 21.189980573996138 5.003912562974048 0 0 0
321 1 1 0.5897 8.780487956399773 18.449806362712252 2.5817993240141432 0 0 0
818 1 1 0.5897 8.113416967496011 22.087099302741024 2.433818319386856 0 0 0
819 1 1 0.5897 7.318434987270053 23.375408342348784 2.425357439491716 0 -1 0
189 1 1 0.5897 3.046209301274265 22.450484125591665 1.4162109393729407 0 0 0
695 1 1 0.5897 0.36047293899752186 20.821240373815794 2.9140751534678637 0 0 0
694 1 2 -1.1794 0.3677160240397242 21.765121373239644 3.0728994267871874 0 0 0
343 1 2 -1.1794 0.5253935791906317 19.067008362651606 2.492237709107964 0 0 0
345 1 1 0.5897 0.3664947429670095 18.847722987902618 1.5739664236681343 0 0 0
448 1 2 -1.1794 7.299024384246055 17.67823779686368 3.0682717974701648 0 0 0
450 1 1 0.5897 6.58226685822861 18.128442055591194 2.621177457905715 0 0 0
188 1 1 0.5897 2.9049093311265217 23.266451647039894 2.6837316001814098 0 0 0
498 1 1 0.5897 7.567654829752924 22.77821843473799 0.13729480016609585 0 0 0
602 1 1 0.5897 5.4246837587786745 18.833088237232406 0.157792380651415 0 0 0
555 1 1 0.5897 4.90752609577912 20.430382682195088 9.985284472022066 0 0 0
342 1 1 0.5897 0.6417948102142292 18.722868876734132 7.516694011345855 0 0 0
87 1 1 0.5897 8.072039723190352 22.07647911089839 9.801178673884268 0 0 0
37 1 2 -1.1794 2.8398138577049274 22.813549621705366 9.276322480592311 0 0 0
86 1 1 0.5897 7.482490978971678 22.595502029547248 8.506766060620047 0 0 0
341 1 1 0.5897 1.4804556753763178 18.312366806498176 6.3248335156709174 0 0 0
32 1 1 0.5897 8.411446728153816 21.965170670653038 6.405181879132288 0 0 0
240 1 1 0.5897 3.762314416800053 17.85397052909692 6.120001796815365 0 0 0
39 1 1 0.5897 3.3750715373267957 22.226667434131937 9.810543957213747 0 0 0
248 1 1 0.5897 4.7343125067856375 21.596229974200625 6.240608789736966 0 0 0
701 1 1 0.5897 3.056936463179195 22.647742838423426 7.607836288429917 0 0 0
403 1 2 -1.1794 0.6453429515958219 18.794320996449805 9.374873795620767 0 0 0
387 1 1 0.5897 5.336861027311843 19.4598367297368 6.555824583224813 0 0 0
102 1 1 0.5897 4.925941989715463 18.489287115866958 8.758110541361482 0 0 0
700 1 2 -1.1794 3.1260379374371454 22.59429301747073 6.654472350359233 0 0 0
385 1 2 -1.1794 5.161884240361247 18.553783966460024 6.810060276782136 0 0 0
414 1 1 0.5897 0.6590163810412006 20.56688746002632 5.962367510233615 0 0 0
38 1 1 0.5897 1.940544426877962 22.52241444613211 9.427463308478218 0 0 0
101 1 1 0.5897 5.6346380207625595 18.352397674397757 10.089101355814666 0 0 0
340 1 2 -1.1794 0.6629703897272107 18.75137992516747 6.559986218292446 0 0 0
33 1 1 0.5897 6.926353007684759 22.259348944977486 6.401741543542065 0 0 0
553 1 2 -1.1794 4.894682739497679 21.30203424271097 10.38063089704635 0 0 0
85 1 2 -1.1794 7.279020489288633 22.46647774666816 9.433304435067969 0 0 0
554 1 1 0.5897 5.709065222337938 21.710614163782175 10.087140470494365 0 0 0
404 1 1 0.5897 1.2837581855712068 18.300231061934152 9.889295573904983 0 0 0
702 1 1 0.5897 2.2753246410278516 22.25967188916925 6.3705348429710025 0 0 0
31 1 2 -1.1794 7.761185331926937 22.582020503183266 6.741232420547018 0 0 0
100 1 2 -1.1794 4.842505789756938 18.708260151838054 9.686339173684097 0 0 0
386 1 1 0.5897 5.96114026667989 18.080867377896475 6.578047953948594 0 0 0
94 1 2 -1.1794 0.5134160483041226 21.525880626871526 9.937609908202226 0 0 0
405 1 1 0.5897 0.6584463283721139 19.672428930237853 9.755644232853847 0 0 0
247 1 2 -1.1794 5.574500313687855 21.235068668629786 5.957865664746516 0 0 0
412 1 2 -1.1794 0.4053687572357132 21.457072325254845 5.718563027970285 0 0 0
383 1 1 0.5897 3.375088761860096 17.92585274836083 10.42806438480999 0 0 0
185 1 1 0.5897 8.058143933748276 17.687494908264465 10.158149342444942 0 0 0
96 1 1 0.5897 0.560655126723134 21.537946007562848 10.89372583684406 0 0 0
502 1 2 -1.1794 0.6934775660634312 18.925993842099103 13.956130787509519 0 0 0
88 1 2 -1.1794 5.179397522094781 21.51635151276972 13.154012032941953 0 0 0
381 1 1 0.5897 1.303804863429518 21.926040300705022 13.090478528734705 0 0 0
90 1 1 0.5897 5.336831756767471 20.599066533379656 13.377607185450296 0 0 0
763 1 2 -1.1794 5.4742888277069 18.848413318115995 14.145879489083491 0 0 0
738 1 1 0.5897 3.541341831835162 22.36714157486313 13.79973426699556 0 0 0
89 1 1 0.5897 4.998249185493297 21.50662494318756 12.213997768827872 0 0 0
764 1 1 0.5897 4.717765895199498 18.320039322156344 13.891400019674721 0 0 0
474 1 1 0.5897 5.194716255653255 18.742798855798853 15.866507289276061 0 0 0
765 1 1 0.5897 6.230209340912812 18.293574738169017 13.953542621853314 0 0 0
380 1 1 0.5897 0.5352621942931606 20.633487851931537 13.264974085869223 0 0 0
736 1 2 -1.1794 2.670904328654619 22.756414723149845 13.8839106656067 0 0 0