LAMMPS data file via write_data, version 30 Jul 2021, timestep = 11500000

1920 atoms
2 atom types
1280 bonds
1 bond types
640 angles
1 angle types

-0.01503652399324018 24.74503752398774 xlo xhi
-0.13094698049523323 24.860947980495894 ylo yhi
-0.03563676088388412 22.845636760876758 zlo zhi

Masses

1 1.008
2 15.999

Pair Coeffs # lj/cut/tip4p/long/omp

1 0 0
2 0.21084 3.1668

Bond Coeffs # harmonic/omp

1 450 0.9572

Angle Coeffs # harmonic/omp

1 55 104.52

Atoms # full

1 1 2 -1.1794 4.382509302931199 1.6473533532637685 4.39497885910721 0 0 0
2 1 1 0.5897 4.79136787953402 2.354260275026626 4.8942444487010075 0 0 0
3 1 1 0.5897 5.012345673956353 1.4472949578528147 3.7025562839875676 0 0 0
4 2 2 -1.1794 2.976008723152572 1.4599246547664209 2.1436488971158822 0 0 0
99 33 1 0.5897 0.4244418101886905 3.6517221141339955 4.1081346854808745 1 0 0
6 2 1 0.5897 2.043418766768039 1.2548120822835542 2.0765139389028824 0 0 0
387 129 1 0.5897 3.8898215666996783 0.24319308618948576 1.1866943597555937 0 1 0
9 3 1 0.5897 5.107002666615042 4.3860145767620216 3.605247829602481 0 0 0
10 4 2 -1.1794 3.3616689263251422 4.615864974288657 3.2939991046978556 0 0 0
11 4 1 0.5897 2.9206502395771916 5.19388246402413 3.916524985563483 0 0 0
12 4 1 0.5897 2.697282730021581 4.424701003896191 2.6319961785172636 0 0 0
13 5 2 -1.1794 1.738548052111931 2.6031548854328705 4.807000920941935 0 0 0
23 8 1 0.5897 0.5855620518460225 4.430172347184047 1.7741694523701235 0 0 0
21 7 1 0.5897 5.017521256783614 2.935780989916649 1.557189627591556 0 0 0
16 6 2 -1.1794 0.35175268174593466 1.136438816376115 1.9825054433573155 0 0 0
19 7 2 -1.1794 4.491483760347485 3.278629393754122 0.8347743195969253 0 0 0
14 5 1 0.5897 2.4323440410550323 3.0989043515431245 4.372150896383032 0 0 0
20 7 1 0.5897 3.619502111352988 2.9101668920850576 0.9767682103448587 0 0 0
22 8 2 -1.1794 1.3562881155834876 4.318088247252917 1.2177168827599294 0 0 0
5 2 1 0.5897 3.1689313282817264 1.396602919721507 3.078980870705572 0 0 0
15 5 1 0.5897 2.1186068922229824 1.7370842797764368 4.954101567007186 0 0 0
27 9 1 0.5897 4.137042709897175 5.211416410607807 0.7761970385130604 0 0 0
24 8 1 0.5897 1.377794912208931 5.1068103591692475 0.6759007666674686 0 0 0
7 3 2 -1.1794 6.058603688520795 4.368951415275494 3.707585927762354 0 0 0
98 33 1 0.5897 0.3302165506657421 5.14780499861419 3.8971356072893664 1 0 0
18 6 1 0.5897 -0.0046535569196412396 1.8323795953842714 1.4304422873148734 0 0 0
47 16 1 0.5897 5.805306413593511 0.4964930556719067 2.0068592964287495 0 0 0
46 16 2 -1.1794 6.124740782932709 1.153220855618102 2.625564102399877 0 0 0
867 289 1 0.5897 4.517605179319167 0.3171872550411234 5.647924489574292 0 1 0
386 129 1 0.5897 4.809267774553196 0.12157972736541128 -0.009764661644048545 0 1 0
499 167 2 -1.1794 4.844260310930462 3.386023277410455 6.450908758855992 0 0 0
481 161 2 -1.1794 4.696568496664026 1.498956844747035 10.125914672454947 0 0 0
503 168 1 0.5897 2.051632486519731 4.500995581258327 7.291303427696929 0 0 0
488 163 1 0.5897 5.139039988819994 4.364777775641156 9.452196223718271 0 0 0
484 162 2 -1.1794 2.8078666683713487 1.3978814262892427 8.085242872758311 0 0 0
485 162 1 0.5897 3.2716270122060553 1.2544114404879856 8.91014494830677 0 0 0
486 162 1 0.5897 3.184081189341533 0.7554727614417657 7.483655384974537 0 0 0
865 289 2 -1.1794 4.865567129873548 -0.09431957446642128 6.438930246976521 0 1 0
508 170 2 -1.1794 1.2890549121512207 0.20928531606098982 10.68477181097071 0 0 0
490 164 2 -1.1794 3.214287163121977 4.668688835871636 8.948771342258244 0 0 0
491 164 1 0.5897 2.7779684827930096 5.3794490729568 9.418449656812411 0 0 0
492 164 1 0.5897 3.0199188372886727 3.885775769059416 9.463933046558877 0 0 0
493 165 2 -1.1794 1.5677594335872886 2.846457950950454 10.35123212754452 0 0 0
483 161 1 0.5897 4.779852161965814 2.2924446745173643 10.654643175998824 0 0 0
482 161 1 0.5897 5.463428822067826 1.5106688520485698 9.553197326368986 0 0 0
500 167 1 0.5897 4.268390987908743 3.1892622091283624 7.189703663765401 0 0 0
497 166 1 0.5897 1.1229624060191519 1.6977639143238548 7.8289608713715255 0 0 0
629 210 1 0.5897 0.7529433881683572 5.893199495255408 9.982549346977692 0 0 0
504 168 1 0.5897 1.3403063997988955 3.8106834340209077 6.1471314636983605 0 0 0
502 168 2 -1.1794 1.2888209074156458 4.577127253769613 6.718114377000418 0 0 0
496 166 2 -1.1794 0.17180747350855932 1.7821830159988628 7.761975650125071 0 0 0
494 165 1 0.5897 1.3744615905889035 1.929022491164945 10.543821880251562 0 0 0
501 167 1 0.5897 4.833086304550986 4.3408787463702 6.385607302111039 0 0 0
495 165 1 0.5897 1.3970403078802285 3.305429009933635 11.173599435004938 0 0 0
527 176 1 0.5897 5.981600226405597 0.9248561014050796 7.212180201815942 0 0 0
579 193 1 0.5897 0.36797369981121936 3.78723974044342 9.376904158412597 1 0 0
505 169 2 -1.1794 4.707587739682379 5.977357680942175 6.401256806573238 0 0 0
1347 449 1 0.5897 4.73514561284419 0.2758960695521606 11.367113673263098 0 1 0
487 163 2 -1.1794 6.096088866028785 4.349041321975778 9.463243432110025 0 0 0
983 328 1 0.5897 2.289599180576682 4.847250523467032 13.24752606383116 0 0 0
961 321 2 -1.1794 4.118408282144211 0.9898661288543744 15.753595651826764 0 0 0
962 321 1 0.5897 4.9582132088501565 0.9899642425145683 15.294271476433105 0 0 0
963 321 1 0.5897 4.219621246786965 0.3289604082636452 16.438473403099948 0 0 0
964 322 2 -1.1794 2.741225475702315 1.3950160303556527 13.480005325353192 0 0 0
965 322 1 0.5897 3.0631346547816998 1.2572223246976661 14.370776541953235 0 0 0
966 322 1 0.5897 1.79691308131666 1.2505262289244448 13.540994721905921 0 0 0
985 329 2 -1.1794 4.471933064595943 5.9165879721289985 11.928301569562539 0 0 0
970 324 2 -1.1794 3.1838349406859114 4.581002636867106 14.742820202890677 0 0 0
971 324 1 0.5897 4.130581541861252 4.527382279312628 14.873627557149643 0 0 0
972 324 1 0.5897 2.823066565714187 3.9101763704230095 15.32244982312061 0 0 0
981 327 1 0.5897 5.19136198458472 2.832282778698187 12.803344887903533 0 0 0
975 325 1 0.5897 0.7939122998729625 3.4271886108813443 15.764992432135625 0 0 0
967 323 2 -1.1794 5.799850305691421 4.619514647718994 14.98774270875196 0 0 0
1460 487 1 0.5897 4.322184855819154 2.300626581743509 16.832838579447078 0 0 0
987 329 1 0.5897 4.578638289420474 5.01255509842885 12.224070646906304 0 0 0
1109 370 1 0.5897 0.4597046929385984 5.86385347204588 16.010801693007146 0 0 0
982 328 2 -1.1794 1.6507364139045142 4.738541145601419 12.543096528046599 0 0 0
979 327 2 -1.1794 4.525453323779092 3.204788226640845 12.225417600683967 0 0 0
973 325 2 -1.1794 1.5025718025119406 2.9615749382275673 16.209089412717205 0 0 0
990 330 1 0.5897 1.5544780955580602 0.9569276024912945 15.923448553613724 0 0 0
984 328 1 0.5897 1.7406674612527282 5.53059935659333 12.013310099135401 0 0 0
980 327 1 0.5897 3.699333638382776 2.8435563921064086 12.54681498266438 0 0 0
1110 370 1 0.5897 1.8928884246050468 5.8172487488898685 15.525139748342186 0 0 0
1008 336 1 0.5897 5.912550188156518 0.6268469547944251 13.093161704185754 0 0 0
976 326 2 -1.1794 -0.01389860960365339 1.2725788668342313 13.437107942543712 0 0 0
988 330 2 -1.1794 1.3772608003995797 0.05002049010173776 16.172971360005434 0 0 0
1346 449 1 0.5897 3.8637360857042484 0.030882721215740844 12.580488175872159 0 1 0
974 325 1 0.5897 1.6976510328761736 3.497983268954332 16.97740189529202 0 0 0
989 330 1 0.5897 1.1965530197160423 0.0904521497203703 17.112008654922278 0 0 0
1465 489 2 -1.1794 4.482065057806333 5.8019447367858445 17.88835123621194 0 0 0
1463 488 1 0.5897 1.2479570229538193 4.5262752515251305 19.218821804797784 0 0 0
1441 481 2 -1.1794 4.901393744081978 1.3056335956523701 21.549722457313365 0 0 0
1442 481 1 0.5897 4.160154711249828 1.4396986552321975 20.95912640768661 0 0 0
1487 496 1 0.5897 5.760197376325045 1.4001982769218568 19.8379526497569 0 0 0
1444 482 2 -1.1794 3.1759174859781356 1.5346290533495963 19.41211763759234 0 0 0
1538 513 1 0.5897 0.543808985262658 3.779990679758934 20.90330663010768 1 0 0
1446 482 1 0.5897 3.5606043973159944 2.0784925883290577 18.724840480172062 0 0 0
1455 485 1 0.5897 1.1477419977437162 2.960910875283885 22.62072602435589 0 0 0
1450 484 2 -1.1794 3.275029683809809 4.534873305804792 20.88273507856706 0 0 0
1451 484 1 0.5897 4.219671347601378 4.592308954230349 21.026528555518595 0 0 0
1452 484 1 0.5897 3.188061128525009 4.158056666138373 20.00722579666877 0 0 0
1453 485 2 -1.1794 1.4714384047988038 2.5588468983339547 21.814698604234742 0 0 0
1469 490 1 0.5897 1.9060145905004282 0.7679252783940752 22.329948967311914 0 0 0
1459 487 2 -1.1794 4.561770180454896 3.01543984148561 17.422554625824233 0 0 0
1456 486 2 -1.1794 0.24409941547454173 1.0447994923816453 19.118765685597012 0 0 0
1537 513 2 -1.1794 0.1579663587221338 4.603864751765731 20.60578528041487 1 0 0
1462 488 2 -1.1794 1.8095389105885755 4.373322691952458 18.458966747929793 0 0 0
1445 482 1 0.5897 2.245071533687496 1.4933449695040792 19.19275322127234 0 0 0
1443 481 1 0.5897 4.926391480421642 2.0973882565306483 22.086947137885055 0 0 0
1461 487 1 0.5897 5.33326369056785 2.693525782316392 17.888819918821532 0 0 0
1464 488 1 0.5897 1.8117085841196587 5.207900662149566 17.990347094362008 0 0 0
1454 485 1 0.5897 2.1412636675088486 3.1641966157743364 21.496739187113157 0 0 0
1466 489 1 0.5897 4.519259997025829 4.881294052965008 17.629211030178077 0 0 0
1590 530 1 0.5897 2.2819989129332927 6.068154316021117 21.80366249852178 0 0 0
1447 483 2 -1.1794 6.165303983984326 4.181396796001858 20.818038601018692 0 0 0
1539 513 1 0.5897 0.5258515470334776 5.26617025417183 21.19071930781874 1 0 0
1488 496 1 0.5897 5.817165131105509 0.9047235056904608 18.408709134276776 0 0 0
1467 489 1 0.5897 5.184848021114165 5.898931478466958 18.530921282492805 0 0 0
125 42 1 0.5897 2.9968449688304966 7.020553322300792 1.4977555673641016 0 0 0
121 41 2 -1.1794 4.6044084777886845 7.61508336445168 4.021460595522847 0 0 0
122 41 1 0.5897 3.798974087843027 7.552590935422402 3.508035231243968 0 0 0
123 41 1 0.5897 5.299596992680453 7.696728195513937 3.3685838123854612 0 0 0
124 42 2 -1.1794 2.673798986448618 7.806409732193652 1.9384505046795446 0 0 0
139 47 2 -1.1794 4.712634282449579 9.634753577092848 0.7131354739131558 0 0 0
126 42 1 0.5897 3.3067986389993704 8.487048569832535 1.7098688540796196 0 0 0
149 50 1 0.5897 1.1454157891042596 7.433758406283392 4.8262580003314905 0 0 0
143 48 1 0.5897 0.8802763036832024 11.324567488540346 1.9052492766879927 0 0 0
130 44 2 -1.1794 3.291587853006898 11.07513701018898 3.411701898619475 0 0 0
135 45 1 0.5897 2.05997020131975 9.537616432211003 4.118365031595799 0 0 0
132 44 1 0.5897 2.96599909852406 11.151931707442305 2.5149386340423643 0 0 0
26 9 1 0.5897 5.028189796324584 6.364636140207324 1.1857636828474176 0 0 0
144 48 1 0.5897 1.5094680004190761 11.643832338038775 0.5659333126726183 0 0 0
131 44 1 0.5897 2.9187280329335223 11.829556404230852 3.867747875075971 0 0 0
137 46 1 0.5897 0.9380499516144984 7.859871820554553 2.0435020254261196 0 0 0
140 47 1 0.5897 4.867954502058344 10.571765294881748 0.5946799394577853 0 0 0
25 9 2 -1.1794 4.291590437918222 6.142386924254998 0.6163439349672728 0 0 0
142 48 2 -1.1794 1.6501919485999126 11.139838083559637 1.3673503184609637 0 0 0
129 43 1 0.5897 5.041847822139918 11.069396609282784 3.597312096516979 0 0 0
127 43 2 -1.1794 5.991888852759055 10.961889910333463 3.6439702594395245 0 0 0
133 45 2 -1.1794 1.3673307607030016 9.237504581944648 4.7069065252385 0 0 0
1574 525 1 0.5897 1.4285524999287889 9.490053178609134 0.1470076159110887 0 0 1
219 73 1 0.5897 0.29876817392224936 10.438539114121124 3.9247938595695473 1 0 0
621 207 1 0.5897 4.285427370647333 9.205735566207865 5.453381248798965 0 0 0
148 50 2 -1.1794 1.0780268135110074 6.487899293215878 4.696080542292302 0 0 0
134 45 1 0.5897 1.565123868410012 9.657397922523275 5.5439546348726205 0 0 0
507 169 1 0.5897 4.766524092849146 6.427975130405595 5.558911704416933 0 0 0
150 50 1 0.5897 1.1480570014255065 6.118900557230153 5.576423488527757 0 0 0
620 207 1 0.5897 5.0347820566789485 9.24821405453714 6.768016784929884 0 0 0
616 206 2 -1.1794 0.2788723400015608 7.80513675689016 7.492420746483946 0 0 0
601 201 2 -1.1794 4.509416913623089 7.921436382396088 9.93949699380553 0 0 0
648 216 1 0.5897 5.5240235180722275 7.276243890345784 7.319107423527126 0 0 0
603 201 1 0.5897 3.775114359383012 7.799459311744459 9.337728105274273 0 0 0
604 202 2 -1.1794 2.885531114925561 7.565943823841775 7.48591271061714 0 0 0
605 202 1 0.5897 3.3167719711231314 8.379369504717062 7.224100582408671 0 0 0
606 202 1 0.5897 1.9501106795693568 7.760292975186363 7.426584517486009 0 0 0
619 207 2 -1.1794 4.278419702146887 9.621486880119877 6.315457697892839 0 0 0
610 204 2 -1.1794 2.946119982866568 10.62742022026437 9.04709735466796 0 0 0
611 204 1 0.5897 3.8814308894361256 10.802558202874026 9.151154870690982 0 0 0
630 210 1 0.5897 1.1979659875059256 7.263671905370704 10.446716243696857 0 0 0
615 205 1 0.5897 1.963373152503048 9.540596736574253 10.086976053006007 0 0 0
624 208 1 0.5897 1.7239644401620084 11.562580010532404 6.546717660567694 0 0 0
628 210 2 -1.1794 1.4949528670024765 6.356939241080466 10.370619950462418 0 0 0
506 169 1 0.5897 3.8808879112957344 6.279318515856487 6.777613022838193 0 0 0
646 216 2 -1.1794 6.057270005476365 7.937297011709283 7.760503293100408 0 0 0
625 209 2 -1.1794 4.916687143056768 12.361503183345542 6.0137365177840865 0 0 0
622 208 2 -1.1794 1.3351809987827306 10.842527803064058 7.043221871605331 0 0 0
623 208 1 0.5897 1.9795138561896652 10.64427717716653 7.722711429991123 0 0 0
612 204 1 0.5897 2.5154059806358555 11.405860922555433 9.400194332573918 0 0 0
613 205 2 -1.1794 1.2249024072752683 9.18696681835823 10.582802801958294 0 0 0
602 201 1 0.5897 4.453489182685094 7.1782282302413485 10.540013241647795 0 0 0
626 209 1 0.5897 4.761774600114882 11.425856830684811 6.143015188423613 0 0 0
608 203 1 0.5897 6.067361420867745 11.758713297873209 9.336059318096183 0 0 0
607 203 2 -1.1794 5.602440788052377 10.929128152362326 9.22734980746005 0 0 0
647 216 1 0.5897 5.6287992011197945 8.065210212226217 8.606769742277981 0 0 0
609 203 1 0.5897 6.154948500523606 10.284705090921712 9.66965107492432 0 0 0
698 233 1 0.5897 -0.004668826043825902 10.278204694437159 9.691307083617447 1 0 0
1101 367 1 0.5897 4.311655268013674 9.211029674602687 11.347030241742798 0 0 0
1107 369 1 0.5897 4.685284149925424 11.381379656591136 12.397598085412627 0 0 0
1100 367 1 0.5897 5.344084190066061 9.180390415213587 12.45378467987857 0 0 0
1081 361 2 -1.1794 4.463572989338103 7.689158455301147 15.805934313831306 0 0 0
1082 361 1 0.5897 4.659848554971396 8.4526827427923 16.34873356921694 0 0 0
1093 365 2 -1.1794 1.5691450189320346 8.95774306061151 16.338009550959384 0 0 0
1084 362 2 -1.1794 2.8129280037822246 7.715683302615053 13.656052747926598 0 0 0
1085 362 1 0.5897 3.484759570081101 7.645334799985382 14.334191796066177 0 0 0
1086 362 1 0.5897 3.161798422759919 8.358381774827478 13.038511789328098 0 0 0
1108 370 2 -1.1794 1.3442515749128137 6.154254332216391 16.233362551129858 0 0 0
1089 363 1 0.5897 4.857103985674068 10.7084291966224 14.841173125311192 0 0 0
1090 364 2 -1.1794 3.1378332687344788 10.829238604925818 14.754892846697718 0 0 0
1103 368 1 0.5897 1.4624082080885412 11.610182100712933 12.245918894132735 0 0 0
1092 364 1 0.5897 2.8297856399978456 10.075395394144762 15.257846296357863 0 0 0
986 329 1 0.5897 3.6683720771511252 6.215176513952818 12.35418906940106 0 0 0
1099 367 2 -1.1794 4.509970326153959 9.580232661155726 12.207522165066802 0 0 0
1083 361 1 0.5897 4.747066797926879 6.941464461190644 16.331969400439924 0 0 0
1087 363 2 -1.1794 5.766319095773594 10.74255921345688 15.13857819257826 0 0 0
1097 366 1 0.5897 1.0266529890479583 7.5391593800230625 13.61315163325891 0 0 0
1091 364 1 0.5897 2.8551618374507695 11.588994716374021 15.263813921842884 0 0 0
1128 376 1 0.5897 5.553734722798272 7.042061753328709 12.996969985559295 0 0 0
1102 368 2 -1.1794 1.3198062917151627 10.821059361231194 12.768492656835459 0 0 0
1228 410 2 -1.1794 1.7206759023036604 12.3589460832831 16.385696476759144 0 0 0
1104 368 1 0.5897 2.07489049287413 10.782312315073897 13.35550035326052 0 0 0
1095 365 1 0.5897 0.6823284990327896 9.119581886639466 16.016073664144066 0 0 0
1105 369 2 -1.1794 4.7330406464261525 12.335852948334217 12.450896373286575 0 0 0
1094 365 1 0.5897 1.7801070442288398 8.077161223383133 16.027832863669076 0 0 0
1179 393 1 0.5897 0.06299581499756517 10.625258545306048 14.23714474106709 1 0 0
1126 376 2 -1.1794 6.0723713482015835 7.7018703596509415 13.457227187606247 0 0 0
1127 376 1 0.5897 5.778916880205634 7.646247495616497 14.366551192756432 0 0 0
1088 363 1 0.5897 5.748539308461904 11.324290267869687 15.898420554339696 0 0 0
1096 366 2 -1.1794 0.14691591795894987 7.655074510499894 13.254118691165042 0 0 0
1230 410 1 0.5897 1.8932451042480554 11.714342994567776 17.071852293210384 0 0 0
1178 393 1 0.5897 0.15572532498540426 11.267349335255755 15.604848566038958 1 0 0
614 205 1 0.5897 1.3889630071078936 9.460350735633137 11.485256362438177 0 0 0
1579 527 2 -1.1794 5.3596126044462045 9.296881794230982 18.24982051707945 0 0 0
1581 527 1 0.5897 6.027402847793646 8.704234266854089 18.59483534554682 0 0 0
1587 529 1 0.5897 5.1522327849059355 11.054235832389498 18.036129904216487 0 0 0
1561 521 2 -1.1794 4.955074830280983 7.8682570793424045 21.48870961976513 0 0 0
1562 521 1 0.5897 4.7740630689388315 7.116699890492225 22.05308343828313 0 0 0
1563 521 1 0.5897 4.173662002901723 7.951600318306763 20.94219332925418 0 0 0
1564 522 2 -1.1794 3.159484461820244 7.82173421380452 19.34866410299844 0 0 0
1565 522 1 0.5897 2.2057925548887503 7.7842977035490675 19.422047523649603 0 0 0
1566 522 1 0.5897 3.3881026855542418 7.0679980736786705 18.804840657044195 0 0 0
1580 527 1 0.5897 4.529479324164701 8.916164415274357 18.536525553137302 0 0 0
1570 524 2 -1.1794 3.49731474324375 10.657353340443244 20.91979128948445 0 0 0
1571 524 1 0.5897 3.209533657317963 10.564051829944846 20.011737232348672 0 0 0
1572 524 1 0.5897 4.443095075247373 10.792077931722856 20.859212066483984 0 0 0
1584 528 1 0.5897 1.8744546365566348 9.913933818512872 17.819954361147275 0 0 0
1573 525 2 -1.1794 1.4212168032433248 9.10610182093868 22.15158551114891 0 0 0
1578 526 1 0.5897 0.155537410397244 7.404123346755647 20.19273534629368 0 0 0
1589 530 1 0.5897 1.5660658482606682 7.341141257852495 22.202026345723468 0 0 0
141 47 1 0.5897 4.83010734628254 9.259807042079329 22.72166088051923 0 0 -1
1588 530 2 -1.1794 1.4810280342794953 6.387923230158154 22.218925655438667 0 0 0
1582 528 2 -1.1794 1.9634489060007614 10.608189703113492 18.472786396349612 0 0 0
1583 528 1 0.5897 1.086806268099962 10.700450284544452 18.845966146037078 0 0 0
1575 525 1 0.5897 2.19069163681021 9.477856283572075 21.72037966607408 0 0 0
1576 526 2 -1.1794 0.5268578715905853 7.695966747247125 19.360237916433533 0 0 0
1709 570 1 0.5897 0.8650292425851274 12.056793706401525 21.13197969821607 0 0 0
1710 570 1 0.5897 2.358892726554753 12.148112275277605 21.360266030870974 0 0 0
1658 553 1 0.5897 0.3341615418749395 10.103376826484483 20.946829897036935 1 0 0
1585 529 2 -1.1794 5.025419744570064 11.997643659627245 17.93593691329692 0 0 0
260 87 1 0.5897 4.533145935624817 16.855145004508962 0.6379355060705606 0 0 0
255 85 1 0.5897 2.4056875057796736 15.791029099396702 4.271145736492366 0 0 0
241 81 2 -1.1794 4.5114119177277505 14.55920787249634 4.159240159999719 0 0 0
270 90 1 0.5897 1.0970158168839512 12.656352538123757 4.16466158642609 0 0 0
243 81 1 0.5897 3.8294963946993117 14.429765902409832 3.5001257887351294 0 0 0
244 82 2 -1.1794 2.8079373641642977 14.194919477490457 1.8853463659405334 0 0 0
245 82 1 0.5897 1.8777172562037745 14.262036323089252 1.6697334063759082 0 0 0
246 82 1 0.5897 3.2261325831578134 14.87613417421744 1.3588446272272705 0 0 0
146 49 1 0.5897 3.8377244436870632 12.46525904407674 1.1145209526476187 0 0 0
250 84 2 -1.1794 3.316976163419617 17.1271389090767 3.093452818201948 0 0 0
251 84 1 0.5897 2.9192406653226195 17.070926907222358 2.2246877611305527 0 0 0
252 84 1 0.5897 4.236664544000738 17.331227185835964 2.9236824769903826 0 0 0
242 81 1 0.5897 4.569427016669863 13.71835913097062 4.612811632572328 0 0 0
253 85 2 -1.1794 1.624905668754567 15.601028690241439 4.791247437315977 0 0 0
269 90 1 0.5897 1.8848713467060094 13.79425976424804 4.778007810615035 0 0 0
264 88 1 0.5897 0.6372405075937565 17.932061651343957 0.5359382716904295 0 0 0
259 87 2 -1.1794 4.521952674119893 15.899210699192176 0.6849288488384084 0 0 0
288 96 1 0.5897 6.0091325536997875 15.056031921689657 1.6698967384392824 0 0 0
262 88 2 -1.1794 0.7504141749032748 17.129809016015024 1.0455462266293696 0 0 0
263 88 1 0.5897 0.9278556178164028 16.453374269409906 0.39204312212206405 0 0 0
248 83 1 0.5897 5.877071898945174 16.704894202060622 4.254152364120004 0 0 0
254 85 1 0.5897 0.9037435785000782 15.980632607255716 4.289190010609175 0 0 0
145 49 2 -1.1794 4.655567371692722 12.407901756179351 0.620463660212956 0 0 0
265 89 2 -1.1794 4.503149153068192 18.591723141787696 0.7416601695722218 0 0 0
247 83 2 -1.1794 5.926395677321144 17.58014577172318 3.869931579650027 0 0 0
147 49 1 0.5897 5.257982496894249 12.988776903563524 1.0850861919049577 0 0 0
268 90 2 -1.1794 1.8023547764987171 12.840696155051457 4.78491313762582 0 0 0
287 96 1 0.5897 5.827254103067668 14.412197313883269 3.0277982713216085 0 0 0
389 130 1 0.5897 2.1619372238242986 18.3384574287601 4.785591968239415 0 0 0
338 113 1 0.5897 0.018003079520518384 16.829613485345007 2.8627754894889708 1 0 0
726 242 1 0.5897 3.3326013332805973 14.7921845855803 7.102896474563572 0 0 0
721 241 2 -1.1794 4.429547019700595 13.730867711917455 10.100285413482709 0 0 0
722 241 1 0.5897 3.583207176345416 14.077601051472426 9.81787590032033 0 0 0
748 250 2 -1.1794 1.3860304523774103 12.516914789611782 10.560568652254885 0 0 0
724 242 2 -1.1794 2.8853588216583455 14.03057038514227 7.471791046200158 0 0 0
725 242 1 0.5897 3.4300652187041076 13.285827401385237 7.217153625479107 0 0 0
817 273 2 -1.1794 0.08838500061890504 17.039356509301633 9.611793499921264 1 0 0
735 245 1 0.5897 1.4458995224247542 15.571133610147356 10.180128707515845 0 0 0
728 243 1 0.5897 5.169307166759705 16.923492062656344 9.28134166713668 0 0 0
730 244 2 -1.1794 3.499558060232898 16.988344841948454 9.36524184422465 0 0 0
733 245 2 -1.1794 2.0001705254173117 15.058745662111827 10.768703541068424 0 0 0
732 244 1 0.5897 3.25019810062431 16.203593173566972 9.85322439196391 0 0 0
744 248 1 0.5897 1.6624485713699289 16.37268800281393 6.43192386312673 0 0 0
768 256 1 0.5897 5.745397267196256 14.699505405794666 7.61088704392994 0 0 0
750 250 1 0.5897 0.5564773826243715 12.592866300941527 10.089057636197403 0 0 0
737 246 1 0.5897 1.0467997280776924 13.917810238262561 7.7341171505961235 0 0 0
736 246 2 -1.1794 0.16335455935454973 13.657844615403537 7.472910372524212 0 0 0
739 247 2 -1.1794 4.662389670182964 15.941290364796801 6.641880331963537 0 0 0
742 248 2 -1.1794 1.6313262695578434 16.931795529974963 7.208142021147927 0 0 0
749 250 1 0.5897 1.7462139350353252 13.403727276017898 10.556970325298979 0 0 0
731 244 1 0.5897 3.051874935341715 16.90003164176118 8.52387581103037 0 0 0
723 241 1 0.5897 5.0038429847929295 13.854364737106497 9.344573846490016 0 0 0
743 248 1 0.5897 1.480602556258672 17.81210749128759 6.863956908204229 0 0 0
741 247 1 0.5897 4.506473421927989 16.88182486365826 6.556848616458482 0 0 0
818 273 1 0.5897 0.38306218801432707 17.13524537549811 8.706226432251775 1 0 0
870 290 1 0.5897 1.254980832822661 17.97038102409428 10.49458547991089 0 0 0
627 209 1 0.5897 5.628556492055239 12.572622440628077 6.617780271315188 0 0 0
869 290 1 0.5897 2.6488168526550293 18.5523017022375 10.597759347381857 0 0 0
766 256 2 -1.1794 6.0915245859522384 13.893975185226378 7.994906077532654 0 0 0
740 247 1 0.5897 4.628113803918353 15.610265267005621 5.744481322948419 0 0 0
727 243 2 -1.1794 6.099499213420339 16.742784052617708 9.416957578138978 0 0 0
745 249 2 -1.1794 4.352393492989355 18.454423620736726 6.342359741711805 0 0 0
1297 433 2 -1.1794 0.002361941650150641 17.00956726714373 15.231839062110181 1 0 0
1201 401 2 -1.1794 4.698813637772258 13.902240073367583 15.87925190079613 0 0 0
1220 407 1 0.5897 4.359154119211293 15.227145861296636 12.94657740947855 0 0 0
1203 401 1 0.5897 4.905564280672192 13.3360720570637 16.62277445607642 0 0 0
1204 402 2 -1.1794 2.954124597406074 14.056560911798707 13.645996347457586 0 0 0
1205 402 1 0.5897 3.133025870000141 13.838433992453814 14.560590567448358 0 0 0
1206 402 1 0.5897 3.5706054928070476 13.521059320190284 13.146617333870037 0 0 0
1216 406 2 -1.1794 0.25610111374029526 13.793771579035168 13.290132696834586 0 0 0
1210 404 2 -1.1794 3.398160371830491 16.699568454439877 15.058521863323977 0 0 0
1248 416 1 0.5897 6.140759734704334 13.281827947164306 13.451592008885616 0 0 0
1212 404 1 0.5897 4.3335724316348525 16.7758371001377 15.246927262345416 0 0 0
1211 404 1 0.5897 3.0150983280007613 17.500250636397546 15.41674801782313 0 0 0
1215 405 1 0.5897 0.9850003030189787 15.458661356042 16.111740880850896 0 0 0
1219 407 2 -1.1794 4.994601664991264 15.707926027237171 12.416243895537633 0 0 0
1229 410 1 0.5897 1.8197196008648497 13.205467989649195 16.821257056080817 0 0 0
1218 406 1 0.5897 1.174940209259775 13.809201833872704 13.558075950740232 0 0 0
1214 405 1 0.5897 2.487356909306202 15.612276182033066 16.00489606390279 0 0 0
1202 401 1 0.5897 5.463863887092628 13.83665367670718 15.307743315185032 0 0 0
1222 408 2 -1.1794 1.4786461708248277 16.87007007019976 12.840514049688787 0 0 0
1223 408 1 0.5897 1.8127002071144027 17.458192928097453 12.163284328965803 0 0 0
1224 408 1 0.5897 2.141652075706402 16.897412065916072 13.530334752363116 0 0 0
1213 405 2 -1.1794 1.8067948412148962 15.144359718742603 16.488731796793417 0 0 0
1227 409 1 0.5897 4.967991360018819 17.370797673110815 12.13867453777658 0 0 0
1221 407 1 0.5897 4.786942862465392 15.464869272067427 11.514095004942632 0 0 0
1225 409 2 -1.1794 4.773443621881381 18.306495258992967 12.086078101374824 0 0 0
1298 433 1 0.5897 0.19297696323118843 16.945595601302564 14.296078158640002 1 0 0
734 245 1 0.5897 1.9100014849093794 15.489397816675126 11.618701837665135 0 0 0
1350 450 1 0.5897 1.0532036296520375 18.345118248526653 16.05946822140399 0 0 0
1106 369 1 0.5897 4.784773230538933 12.624789057464064 11.539902840787924 0 0 0
1207 403 2 -1.1794 6.053413935145111 16.995276708335716 15.489001204040962 0 0 0
1217 406 1 0.5897 0.04674125672566026 14.70779560033539 13.098106492513127 0 0 0
1208 403 1 0.5897 6.148694750645238 17.197763312389725 14.558415199351431 0 0 0
261 87 1 0.5897 4.6170729088222435 15.61315362107307 22.65780333649947 0 0 -1
1705 569 2 -1.1794 4.717209769721489 18.47613116114058 18.19597477026266 0 0 0
1681 561 2 -1.1794 4.577524883922032 14.003255118625924 21.29660654310478 0 0 0
1707 569 1 0.5897 4.7263464820282515 17.521593547720087 18.125897993944797 0 0 0
1699 567 2 -1.1794 4.821402225441462 15.597555937238212 18.3372703160695 0 0 0
1684 562 2 -1.1794 3.064600744975016 13.46817598854712 19.133223892453877 0 0 0
1685 562 1 0.5897 3.5399129868167987 12.747517023982939 18.719832018058767 0 0 0
1686 562 1 0.5897 3.4110607467074887 13.503925412525128 20.02472933041311 0 0 0
1694 565 1 0.5897 0.8204337439683408 15.703967415828444 21.505418096028052 0 0 0
1689 563 1 0.5897 5.186277386128601 17.226269372342067 21.051089319535052 0 0 0
1690 564 2 -1.1794 3.484767922612106 17.015390211470717 20.771153131911483 0 0 0
1691 564 1 0.5897 2.8876760464132816 16.348431465792032 21.110041284643195 0 0 0
1692 564 1 0.5897 3.2272861998801656 17.125127837040473 19.855870657870497 0 0 0
1704 568 1 0.5897 1.8849021137448168 17.905947588807962 17.90927775194291 0 0 0
1701 567 1 0.5897 4.096122590307645 15.059667545202315 18.65489950747633 0 0 0
1697 566 1 0.5897 1.348797709890406 13.545571656690125 18.838650706405673 0 0 0
1682 561 1 0.5897 5.308352743162834 13.7250394653245 20.74460442927353 0 0 0
1693 565 2 -1.1794 1.562555254895672 15.394078117834662 22.024494359016032 0 0 0
1703 568 1 0.5897 1.7756817589106453 16.396317677439413 17.881707227043258 0 0 0
1695 565 1 0.5897 1.5197139495563423 14.440149916572953 21.958741567485696 0 0 0
1702 568 2 -1.1794 1.9079197813523652 17.13491264538876 18.475929428207884 0 0 0
1683 561 1 0.5897 4.517527846045119 13.328845104268169 21.973129940837374 0 0 0
1708 570 2 -1.1794 1.5269341205254159 12.538623936929191 21.627880064107543 0 0 0
1696 566 2 -1.1794 0.39475609258422034 13.49861061568554 18.90119132909144 0 0 0
1778 593 1 0.5897 0.6401304282453969 16.916745096974736 19.77777791724116 1 0 0
1779 593 1 0.5897 0.08476960671149017 17.621846620743185 20.996789890853073 1 0 0
1700 567 1 0.5897 4.886621814759043 15.386678987506519 17.405954782064796 0 0 0
1687 563 2 -1.1794 6.1370054980421855 17.326661093253286 21.099609347968162 0 0 0
1586 529 1 0.5897 5.653060197229848 12.389931778752167 18.542881254808584 0 0 0
1728 576 1 0.5897 6.110794408279669 14.320430518792989 19.014904501612342 0 0 0
1698 566 1 0.5897 0.08739911850670978 14.308664448268411 18.494384807882753 0 0 0
388 130 2 -1.1794 1.499337749531482 18.935851898010874 5.132429678754641 0 0 0
363 121 1 0.5897 4.377370213137028 19.71191935426762 4.960639155591104 0 0 0
361 121 2 -1.1794 4.509061083085868 20.37368480357287 4.281797698662745 0 0 0
362 121 1 0.5897 3.713522731468475 20.334448279392213 3.7509406178645484 0 0 0
384 128 1 0.5897 1.5097510623333177 22.792766599142432 0.8914328813678762 0 0 0
364 122 2 -1.1794 2.806165700706465 20.31838024997137 2.345715674610937 0 0 0
365 122 1 0.5897 3.07769342290795 20.731933417086466 1.5263626349945136 0 0 0
376 126 2 -1.1794 0.11569079664496615 20.085850076413088 2.2783214061274095 0 0 0
375 125 1 0.5897 1.0446539019965395 22.09441043988405 4.76644214785121 0 0 0
370 124 2 -1.1794 3.522775722886247 23.41823337027511 3.4915949629675738 0 0 0