LAMMPS (30 Jul 2021)
  using 1 OpenMP thread(s) per MPI task
package omp 0
using multi-threaded neighbor list subroutines
echo both

include		in.partitions
variable        pid world 0
include		in.temp
variable        temperature equal 289.66
variable	tempDamp equal 100.0
include		in.pressure
variable        pressure equal 12750.0
variable        pressureDamp equal 1000.0 # This is 1 ps
include		in.seed
variable        seed world 745823

units		real
atom_style	full
read_restart	restart.lmp.${pid}
read_restart	restart.lmp.0
Reading restart file ...
  restart file = 30 Jul 2021, LAMMPS = 30 Jul 2021
  restoring atom style full from restart
  orthogonal box = (-0.047454663 -0.11446678 -0.051717578) to (24.777456 24.844468 22.861718)
  4 by 4 by 4 MPI processor grid
  restoring pair style lj/cut/tip4p/long/omp from restart
  restoring bond style harmonic/omp from restart
  restoring angle style harmonic/omp from restart
  1920 atoms
  1280 bonds
  640 angles
Finding 1-2 1-3 1-4 neighbors ...
  special bond factors lj:    0        0        0       
  special bond factors coul:  0        0        0       
     2 = max # of 1-2 neighbors
     1 = max # of 1-3 neighbors
     1 = max # of 1-4 neighbors
     2 = max # of special neighbors
  special bonds CPU = 1.500 seconds
  read_restart CPU = 1.809 seconds
include 	in.setup
variable	out_freq equal 1000
variable	out_freq2 equal 10000
variable	out_freq3 equal 1000

timestep	2.0

neigh_modify    delay 7 every 1

include		in.tip4p
# This is TIP4P/Ice

# create groups ###
group ox type 2
640 atoms in group ox
group hy type 1
1280 atoms in group hy

# set charges - beside manually ###
set group ox charge -1.1794
Setting atom values ...
  640 settings made for charge
set group hy charge 0.5897
Setting atom values ...
  1280 settings made for charge

# ### TIP3P Potential Parameters ###
pair_style lj/cut/tip4p/long/omp 2 1 1 1 0.1577 8.5
pair_coeff 1 1*2 0.000 0.000
pair_coeff 2 2 0.21084 3.1668
bond_style  harmonic
bond_coeff  1 450 0.9572
angle_style harmonic
angle_coeff 1 55 104.52
kspace_style pppm/tip4p/omp 1.0e-5
pair_modify tail yes

thermo          ${out_freq}
thermo          1000
thermo_style    custom step temp pe etotal epair emol press lx ly lz vol pxx pyy pzz pxy pxz pyz enthalpy

restart 	${out_freq3} restart.lmp.${pid} restart2.lmp.${pid}
restart 	1000 restart.lmp.${pid} restart2.lmp.${pid}
restart 	1000 restart.lmp.0 restart2.lmp.${pid}
restart 	1000 restart.lmp.0 restart2.lmp.0


include         in.dump
dump            myDump all atom ${out_freq2} dump.water.${pid}
dump            myDump all atom 10000 dump.water.${pid}
dump            myDump all atom 10000 dump.water.0
dump            myDump2 all dcd ${out_freq2} dump.dcd
dump            myDump2 all dcd 10000 dump.dcd
dump_modify     myDump append yes
dump_modify     myDump2 append yes


variable natoms 	equal  "count(all)"                        # NUMBER ATOMS
variable H      	equal  "enthalpy/v_natoms"                 # ENTHALPY-per-atom
variable Vol      	equal  "vol/v_natoms"                 # volume-per-atom
fix AVG all 		ave/time ${out_freq} 1 ${out_freq} v_Vol v_H file vol_enthalpy.dat
fix AVG all 		ave/time 1000 1 ${out_freq} v_Vol v_H file vol_enthalpy.dat
fix AVG all 		ave/time 1000 1 1000 v_Vol v_H file vol_enthalpy.dat




fix 		1 all shake 1e-6 200 0 b 1 a 1
       0 = # of size 2 clusters
       0 = # of size 3 clusters
       0 = # of size 4 clusters
     640 = # of frozen angles
  find clusters CPU = 0.410 seconds
fix             2 all nph aniso ${pressure} ${pressure} ${pressureDamp}
fix             2 all nph aniso 12750 ${pressure} ${pressureDamp}
fix             2 all nph aniso 12750 12750 ${pressureDamp}
fix             2 all nph aniso 12750 12750 1000
fix             3 all temp/csvr ${temperature} ${temperature} ${tempDamp} ${seed}
fix             3 all temp/csvr 289.66 ${temperature} ${tempDamp} ${seed}
fix             3 all temp/csvr 289.66 289.66 ${tempDamp} ${seed}
fix             3 all temp/csvr 289.66 289.66 100 ${seed}
fix             3 all temp/csvr 289.66 289.66 100 745823


run             250000
PPPM initialization ...
  extracting TIP4P info from pair style
  using 12-bit tables for long-range coulomb (../kspace.cpp:340)
  G vector (1/distance) = 0.37461688
  grid = 30 30 30
  stencil order = 5
  estimated absolute RMS force accuracy = 0.0032529412
  estimated relative force accuracy = 9.7961357e-06
  using double precision FFTW3
  3d grid and FFT values/proc = 3600 512
Last active /omp style is kspace_style pppm/tip4p/omp
Neighbor list info ...
  update every 1 steps, delay 7 steps, check yes
  max neighbors/atom: 2000, page size: 100000
  master list distance cutoff = 10.8154
  ghost atom cutoff = 10.8154
  binsize = 5.4077, bins = 5 5 5
  1 neighbor lists, perpetual/occasional/extra = 1 0 0
  (1) pair lj/cut/tip4p/long/omp, perpetual
      attributes: half, newton on, omp
      pair build: half/bin/newton/omp
      stencil: half/bin/3d
      bin: standard
Per MPI rank memory allocation (min/avg/max) = 9.333 | 9.341 | 9.346 Mbytes
Step Temp PotEng TotEng E_pair E_mol Press Lx Ly Lz Volume Pxx Pyy Pzz Pxy Pxz Pyz Enthalpy 
11250000    286.12338   -8939.6057   -7848.7728   -8939.6057            0    13060.787     24.82491    24.958935    22.913435     14197.24    13613.217    11972.512    13596.633   -423.04245    475.17256   -398.68214   -5144.5083 
11251000     288.9064   -8982.9168   -7881.4739   -8982.9168            0    14266.982    24.886248    24.889181    22.794639    14118.961    13716.219    14276.795    14807.934    1089.1771    65.989188   -1824.9276   -4943.7514 
11252000    297.41286   -9016.1372   -7882.2637   -9016.1372            0     12832.76    24.900008    24.948398    22.829887    14182.275    12845.833    11928.963    13723.484    1041.1848   -482.12609    207.20266   -5228.0134 
11253000    284.53814   -8953.0712   -7868.2821   -8953.0712            0    13603.183    24.786054    24.814399    23.044675    14173.651    13955.691    14510.679    12343.178    891.94868    541.67951    448.91415   -5056.3932 
11254000    281.61764     -8991.41   -7917.7551     -8991.41            0    12390.287    24.870577    24.982441    22.827871    14183.589    10370.501    12948.789    13851.573   -508.86048   -941.83656   -865.02467   -5354.7858 
11255000    284.32482   -8952.9147   -7868.9388   -8952.9147            0    11412.428    24.815495    25.129592    22.867104    14260.001    13647.911     9731.073    10858.302   -495.15127    114.20529   -683.51604   -5495.5247 
11256000    295.60301   -8968.3165    -7841.343   -8968.3165            0    12250.344    24.850808    24.942426    22.984633    14246.782    13421.947    12213.338    11115.746   -594.13334    648.64137    9.6418777   -5296.0316 
11257000    286.54136   -9000.3207   -7907.8944   -9000.3207            0    11742.873    24.875742     25.00902    22.859346    14221.209    11328.689    11197.673    12702.258   -242.09602   -193.67058   -1209.3154   -5472.4019 
11258000    278.96837   -8969.1201   -7905.5655   -8969.1201            0    13067.932    24.790187    24.757567    23.083551    14167.407    12110.559    14653.196     12440.04   -746.11914    288.68257    -897.9034   -5205.5073 
11259000    294.98466   -8952.2051   -7827.5891   -8952.2051            0    12427.861    24.961061    24.971519    22.811025    14218.468    11269.974    12730.396    13283.213    505.52972    318.27647     1358.492   -5250.5258 
11260000    296.70372   -8978.5407   -7847.3708   -8978.5407            0    13841.087    24.845402    24.837593    22.923831    14146.296    14549.361    13665.769    13308.129   -178.34571   -161.99804    1461.9424    -4991.827 
11261000    288.93913   -8979.3878     -7877.82   -8979.3878            0    13791.363    24.978852    24.809396     22.79098    14123.803    12465.098     14854.75     14054.24    421.04556    364.68061    -852.0481   -5037.0589 
11262000    290.13792   -8948.1633   -7842.0252   -8948.1633            0    12430.945    24.952349    24.827504    22.987575    14240.907    13242.175    12610.708    11439.952   -374.38696   -1882.1484    775.79614   -5260.2543 
11263000    297.06816   -8998.1042   -7865.5449   -8998.1042            0    11433.146    24.968273    24.912154    22.939323    14268.568    11125.189    11326.304    11847.946   -415.55731   -313.84354   -690.64239   -5486.3937 
11264000    278.66829   -9004.0188   -7941.6082   -9004.0188            0    12179.572    24.914154    24.916433    22.862263    14192.249    13775.364    10373.881    12389.472    3.6147228   -571.03301   -110.60456   -5420.6877 
11265000    287.38854   -8989.0561      -7893.4   -8989.0561            0    12181.892    24.841854    24.935265    22.978817    14233.957    12933.907     12090.36    11521.409   -255.38165   -451.28348    282.39179   -5364.5895 
11266000    294.26961   -8993.2172   -7871.3272   -8993.2172            0    12312.505    24.873964    24.907408    22.922992    14201.847    11917.225    11833.996    13186.294    321.44843    791.37901   -784.75964   -5321.1688 
11267000     291.4342   -8967.2999   -7856.2198   -8967.2999            0    14176.836    24.920421    24.891658    22.758297    14117.213    14339.838    14111.901     14078.77     1180.631   -967.35969   -249.86588   -4937.4209 
11268000    290.10374   -9019.3117    -7913.304   -9019.3117            0     13217.59    24.983083    24.749355    22.886036    14150.783    12309.036    13955.434      13388.3   -756.11263    193.75199    64.415506   -5185.5283 
11269000    290.60772   -9001.1088   -7893.1796   -9001.1088            0    13026.669    24.961905    24.770573    22.874113    14143.537    12444.523    13632.774    13002.709    120.75405   -1023.5142   -1051.0642   -5206.1818 
11270000    286.93326   -9013.8374    -7919.917   -9013.8374            0    12228.625     24.96204    24.819096     22.90221    14188.726    11763.154    13025.746    11896.977   -326.85348    142.11794    59.150819   -5389.4717 
11271000    286.21126   -8990.0149   -7898.8471   -8990.0149            0    12585.774    24.961073     24.88022    22.851797    14191.811    12062.436    12302.026    13392.861    -119.4263    211.47549   -220.53131   -5293.9315 
11272000    302.21208    -9013.332   -7861.1617    -9013.332            0    11672.701    24.825198    24.941946    22.964587    14219.414     12449.66    11108.403    11460.041   -1230.6779    98.283572    921.52811   -5440.5287 
11273000    284.14805   -9018.0035   -7934.7015   -9018.0035            0    12833.765    24.844325    24.865671    22.888195    14139.659    13524.398    13015.379    11961.519    172.93537   -180.85617   -897.94518   -5288.2198 
11274000     298.4408    -8941.769   -7803.9765    -8941.769            0    13292.441    24.790133    24.949783    22.939045    14187.993    14509.986    12407.594    12959.743    -738.9054    -613.4108   -357.93326   -5053.5402 
11275000     290.7772   -8989.3297   -7880.7544   -8989.3297            0    12151.004    24.874837    24.974093    22.890051    14219.906    13022.784     10746.22    12684.007   -363.78822    915.00412    35.641119   -5360.8459 
11276000    287.93052   -8944.1556   -7846.4332   -8944.1556            0    11069.318    24.837859     25.05036    22.930624    14267.373    12004.575    9447.7449    11755.634   -1370.2222    -1342.703   -229.94552   -5543.1849 
11277000    277.52194    -8945.179   -7887.1388    -8945.179            0    11306.558    24.842835    25.102987    22.896451    14278.899    13069.909    9990.9798    10858.785   -457.66259    848.52949    -1045.947   -5532.6262 
11278000    290.66329   -9006.9761   -7898.8351   -9006.9761            0    13334.772    24.795546    24.892113    22.938535    14157.974    12611.552    13492.177    13900.586    364.40952    370.40426    1031.1184   -5145.4778 
11279000    282.82034   -8979.7139   -7901.4738   -8979.7139            0    12207.107      24.8185    25.009969     22.91116    14221.184    13230.211    10040.421    13350.688     486.5977    782.90541   -475.28909   -5369.7031 
11280000    288.73059   -8944.7137   -7843.9411   -8944.7137            0     12281.56    24.924603    24.920793    22.887051    14216.083    13282.437    11613.016    11949.226   -978.93734    474.18202    -494.9596   -5297.6423 
11281000    295.22907   -8939.5176   -7813.9698   -8939.5176            0     11873.78    24.767129    24.979198    23.068832    14271.833    11994.287    11986.709    11640.344    635.80352    453.31792    183.65212   -5342.5606 
11282000    299.99705   -8986.4519   -7842.7263   -8986.4519            0    12037.185    24.915946    24.947904    22.879613    14221.982    12318.314    11585.023    12208.218    136.30528   -1555.7215    953.17903   -5346.0574 
11283000     291.6743     -8975.14   -7863.1446     -8975.14            0     11771.08    24.890891    25.053262    22.831399    14237.615    11752.422    11308.441    12252.377    586.95097   -42.704491    1261.3114   -5418.9857 
11284000    276.97462   -8987.7799   -7931.8263   -8987.7799            0    11797.663    24.940443    24.850064    22.948176    14222.628    12438.865    12436.121    10518.002    694.43272   -432.00405   -479.96017   -5484.7264 
11285000    273.41224   -8995.6748   -7953.3026   -8995.6748            0     11340.71    24.933393    24.914375    22.903607    14227.718    11388.953    11305.947    11327.231    61.052877   -391.41905   -519.77888   -5600.1429 
11286000    274.60926   -8945.9248    -7898.989   -8945.9248            0    11030.666    25.007056    24.882602    22.963898     14289.07    10891.662     11103.31    11097.028    -517.3228   -540.15595    155.71198   -5600.2927 
11287000    289.16613   -8987.9934   -7885.5603   -8987.9934            0    12091.376    24.931383    24.886682    22.907862    14213.398    11608.451    12109.152    12556.525    632.99669   -474.90224   -367.00613   -5379.1651 
11288000    288.52946   -8962.1456   -7862.1397   -8962.1456            0    13067.346    24.884965    24.739378    23.079549     14208.66    12552.352    14433.868    12215.819   -208.43818    853.88863    1071.9089   -5154.3407 
11289000     288.9177   -9021.7647   -7920.2787   -9021.7647            0    11816.563    24.968692    24.894284    22.854964    14206.136    11397.448    12430.913    11621.327   -277.88963   -873.22048    532.20239   -5472.1004 
11290000    281.15231   -8966.6938   -7894.8129   -8966.6938            0    13899.579    24.817548    24.826357    22.984767    14161.589    13262.101    15438.081    12998.555    141.32226   -93.834663   -791.10983   -5024.1017 
11291000    287.75417   -9022.1828   -7925.1327   -9022.1828            0    13102.708    24.851993    24.998961    22.735137     14124.75    13154.152    12562.631    13591.342   -529.28505    253.77433    711.46207   -5226.0405 
11292000    292.52868   -8995.7577   -7880.5049   -8995.7577            0    13144.077    24.764618    24.991534    22.839117    14135.262    13655.687    12881.577    12894.966   -164.86698    374.56919   -788.04814   -5170.8759 
11293000    301.40137   -9011.6861   -7862.6066   -9011.6861            0    12153.665    24.823085    24.992098    22.884937     14197.38    12570.042    11726.171    12164.782    -661.8194    209.27015   -223.69945   -5346.1389 
11294000    290.22345   -8991.6431   -7885.1789   -8991.6431            0     12533.07    24.731335    25.076411    22.869297    14182.924     14112.06    11449.797    12037.352   -591.35829    -562.0143  -0.89463527   -5292.7963 
11295000    283.85734   -9026.8741   -7944.6805   -9026.8741            0    12547.271    24.873042     24.90657    22.912249    14194.188    13419.766    11991.107    12230.939   -825.32688    554.56986    418.70965   -5347.2992 
11296000    301.71804   -8969.6119   -7819.3252   -8969.6119            0    13455.795    24.939098    24.881842    22.862105    14186.638    13209.328    14560.152    12597.906   -1533.8217    448.13922   -986.85655   -5035.3539 
11297000     290.7421   -9001.6275    -7893.186   -9001.6275            0    13835.992    24.958004    24.795111    22.872795     14154.52    12313.541    14870.708    14323.726    210.37739     213.4618    1073.0946   -5037.0339 
11298000    288.16094   -9011.2538   -7912.6529   -9011.2538            0    11081.075    25.118775     24.85565    22.799414    14234.665    10041.363    10849.909    12351.954   -186.19191   -597.89755   -660.10475    -5612.244 
11299000    302.90289    -9007.864     -7853.06    -9007.864            0      12108.6    24.913825    24.843399    22.961797    14212.069    11417.537    11958.454    12949.808   -202.14619    1566.4911    -1009.117   -5343.3293 
11300000    301.80503   -8991.0253   -7840.4068   -8991.0253            0    13361.638    24.873493    25.037459    22.744725    14164.711     13218.14    11828.858    15037.915    195.34711   -1129.4337   -1728.2774   -5080.1893 
11301000    290.42896   -8970.1746   -7862.9269   -8970.1746            0    12614.543    24.968269    24.819153    22.873626    14174.587    11146.782     14414.14    12282.707    105.27448   -1018.3693    93.964732   -5255.2257 
11302000     287.2292   -8971.6738   -7876.6251   -8971.6738            0    13344.612    24.896217    24.798556    22.930236    14156.904    12130.846    14191.264    13711.724    337.37186    200.81577    831.74507   -5121.4443 
11303000    293.38522   -8980.7499   -7862.2317   -8980.7499            0    15213.404    24.891008    24.783465    22.792036    14060.075    14001.874     16756.71    14881.627    476.47572    719.67163   -431.86672   -4742.6962 
11304000     291.9002   -8959.5434   -7846.6868   -8959.5434            0     13995.84      24.9835    24.808784    22.832976    14152.113    13986.988    14344.764    13655.768   -1039.8929    82.543836    487.60444   -4958.0287 
11305000    294.89492   -8946.1559    -7821.882   -8946.1559            0     13956.42     24.93895    24.823741    22.851298    14146.737    12978.617     14948.83    13941.811   -260.89178   -1142.0722    -999.4538   -4942.4543 
11306000    301.31492   -8971.2515   -7822.5016   -8971.2515            0     13855.45    24.846228    24.880736    22.879981    14144.231    13763.582    14760.197    13042.571    108.39399    -409.4052    567.46945   -4964.4119 
11307000    284.99281   -8959.1673   -7872.6447   -8959.1673            0    13935.751    24.822678    24.920283    22.871696    14148.161    12955.998    14562.095     14289.16   -139.18774    515.75159    -860.5853   -4997.1919 
11308000    287.19376   -8969.2794   -7874.3658   -8969.2794            0    14428.816    24.870087    24.844776    22.849241    14118.357    14167.524    14900.785     14218.14    23.953033   -254.93303   -1032.4178   -4903.4473 
11309000    286.23254    -8949.359     -7858.11    -8949.359            0    13773.208    24.815735    24.897434    22.880733    14136.819    14578.252    13538.275    13203.097    37.199561   -346.47779    620.87364   -5018.4739 
11310000    293.89243   -9039.1103   -7918.6583   -9039.1103            0    12803.836    24.761943    25.074776    22.741977    14120.497    13498.704      11747.6    13165.205   -121.26559    168.11257    591.18981   -5281.9264 
11311000     289.5046   -8993.8087   -7890.0851   -8993.8087            0    11778.689    24.750797    24.993677    22.910285     14172.61    14285.188    10136.523    10914.357   -1247.5081   -702.29916     852.8872   -5455.5128 
11312000    283.90928   -8956.5309   -7874.1392   -8956.5309            0    12202.791    24.978444    24.804334     22.94275    14214.724    11536.228    13380.723    11691.421   -738.84763    423.37159    1214.2311   -5344.4133 
11313000    292.21834   -8926.6298   -7812.5602   -8926.6298            0    12904.536    25.039256    24.759228    22.911795    14204.228    13540.346    12730.229    12443.032    1534.6506    509.51234   -1188.1377   -5139.3328 
11314000    294.62195    -8977.862   -7854.6288    -8977.862            0    13463.336    24.922853    24.877591    22.834909    14158.113    12954.674    13777.614    13657.719   -81.722594   -311.12026   -949.07497   -5074.6983 
11315000    290.69654   -9027.9518    -7919.684   -9027.9518            0    12777.935    24.845915    24.864294    22.898788    14146.325    12790.818     13321.62    12221.366    37.373311   -402.30538   -713.21436   -5283.4729 
11316000     300.6606   -8940.8305   -7794.5751   -8940.8305            0    12760.772    24.836313    24.849474    23.037983    14218.337    13779.121    12864.631    11638.562   -1377.7816   -804.14744    331.26461   -5148.5034 
11317000    287.50986   -9011.6413   -7915.5226   -9011.6413            0    13360.692    24.827119    24.959009    22.829639    14146.621    13735.074    12444.367    13902.636    62.658325     147.2028   -871.32682   -5159.0253 
11318000    295.35543   -9040.2293   -7914.1997   -9040.2293            0    12517.295    24.880481    24.913889    22.865123    14173.393    13503.698    11956.222    12091.966   -390.64808   -613.92898     667.9705   -5326.8197 
11319000    285.66157   -8998.4124   -7909.3402   -8998.4124            0    13358.561    24.944085    24.797944    22.898574    14164.188    12604.544    14120.067    13351.071   -70.800851   -1088.5683     -1190.57   -5149.8602 
11320000    287.40911   -8990.9316    -7895.197   -8990.9316            0    13413.266    25.018199    24.691557    22.891305    14140.835     12479.68    14209.066    13551.051   -76.103571     1228.685    235.51526   -5128.9848 
11321000    292.18692   -8981.6399   -7867.6901   -8981.6399            0    12772.372    25.018262    24.928675    22.800219    14219.861    11827.564    12899.938    13589.613   -180.41968   -602.32561   -581.10962   -5218.9291 
11322000    296.58933   -8957.7225   -7826.9887   -8957.7225            0     13197.66    24.799082    24.859859    22.983718    14169.501    13616.038    12857.144    13119.797    -459.1227    121.56324    -638.5667   -5099.7236 
11323000    282.22624   -9034.0813   -7958.1061   -9034.0813            0    12867.737    24.883539    24.935885    22.812226    14154.828    13133.663    12913.685    12555.864    -714.2522   -520.10896    362.15822   -5301.7723 
11324000    301.47905   -8999.1333   -7849.7577   -8999.1333            0    13280.833    24.971243    24.871762     22.80966    14166.596    11884.244    13422.849    14535.406   -50.753448   -47.901168   -490.11117   -5105.8675 
11325000    290.16881   -8931.6934   -7825.4375   -8931.6934            0    13709.721    24.826416    24.816242    23.002002    14171.496     13848.71    14111.281    13169.174    957.58517   -1429.1351   -96.360364   -4991.9572 
11326000    287.47941   -8968.2749   -7872.2723   -8968.2749            0    14783.507    24.888232    24.835515    22.841872    14118.836    14885.511    14932.796    14532.214   -662.04571     134.6917   -484.38685    -4828.219 
11327000    283.30937   -9000.5831   -7920.4786   -9000.5831            0    15399.315    24.850408    24.946346    22.696452     14070.14    14118.552    15358.974    16720.419   -195.09938   -773.26478   -669.14287   -4760.5613 
11328000    286.40939   -8928.2128   -7836.2895   -8928.2128            0    14443.471    24.780252    24.902952    22.910107     14137.86    15285.693    13525.973    14518.748   -165.48225    798.77204   -155.40209   -4858.2454 
11329000    283.71963   -8968.6019   -7886.9333   -8968.6019            0    14538.647     24.79744    24.924367    22.795393    14088.931     14593.93    14415.486    14606.524   -867.07748    374.73466    880.55939   -4899.6396 
11330000    283.62631   -8975.3684   -7894.0555   -8975.3684            0    11514.104    24.857128    24.938761    22.961772    14234.139    11312.955    10929.413    12299.944   -119.15401   -234.41553   -456.30696    -5503.839 
11331000    292.86768   -8961.6546   -7845.1095   -8961.6546            0    11814.519     24.95519    24.995083     22.81915    14233.605    11977.452    11540.664    11925.442   -777.67055   -719.24451    702.24176   -5392.6216 
11332000    291.80471   -9002.7825   -7890.2899   -9002.7825            0    12259.615     24.88635    24.820649    22.967862    14187.142    11573.799    13325.946    11879.102     -29.8666    96.325049   -119.53262   -5353.7152 
11333000    285.72313   -9046.6269     -7957.32   -9046.6269            0    11704.078     24.90956     25.00113    22.794673    14195.773    12506.623    9607.8666    12997.745    -219.0824   -427.34044    610.49979   -5534.2155 
11334000    285.90361   -8936.0705   -7846.0756   -8936.0705            0    11696.635    24.779834    25.049811    22.947891    14244.448    12479.029    11231.759    11379.118    413.44368   -857.56235   -181.98594   -5416.2087 
11335000    284.48732   -9001.9064    -7917.311   -9001.9064            0    12054.381    24.858218    24.891312    22.964198    14209.182    12474.208    12334.323    11354.612   -214.80145   -914.39625   -642.47212   -5419.3258 
11336000    288.28863    -8979.048   -7879.9603    -8979.048            0    12460.711    24.947175    25.014924    22.766075    14207.208    11888.047    12622.743    12871.344   -217.97333     457.9451    1271.4665   -5298.1314 
11337000    285.19029   -8978.4963   -7891.2208   -8978.4963            0    12970.658    24.898129    24.836279    22.914404    14169.738    12230.475     14377.45    12304.051    360.13372    312.38421    -133.2273   -5210.8201 
11338000    298.14785   -8977.2929   -7840.6173   -8977.2929            0    13299.049    24.949358    24.883279    22.860476    14192.282    13027.011    13135.273    13734.864   -181.46216   -165.63031    1088.1046   -5087.9817 
11339000     285.2749   -9028.3611   -7940.7631   -9028.3611            0    13417.542    24.737533    24.945553     22.82381    14084.378    13875.261    12799.131    13578.233    544.19818   -353.12971    650.24272   -5184.7168 
11340000    287.46908   -8979.1866   -7883.2234   -8979.1866            0    12665.104     24.84572    24.971591    22.943458    14234.974    12269.582    11844.952    13880.778    453.51818   -163.48555   -244.26163   -5253.9163 
11341000     285.7778   -9027.1884   -7937.6731   -9027.1884            0    12881.795    24.940405    24.987874    22.725537    14162.729    13786.655    11536.427    13322.304    1003.8553   -884.66852    297.24199   -5276.9528 
11342000    290.02132   -8988.3733   -7882.6798   -8988.3733            0    11507.234    24.873561    24.847177    23.029736    14233.247     11212.15    12515.911     10793.64   -1267.9226    664.23415   -594.27927   -5494.0392 
11343000    293.59081   -8988.6491    -7869.347   -8988.6491            0    13343.704    24.984785    24.937125    22.741592    14169.119    12944.334    12354.746    14732.033   -162.07455    558.74646    -1063.062   -5111.9764 
11344000    280.79217   -8961.3044   -7890.7965   -8961.3044            0     13166.59    24.890233    24.835558    22.922086    14169.582    13039.392    14531.287    11929.093   -567.84655   -218.37416    75.078903   -5169.9362 
11345000    282.92805   -9039.2134   -7960.5627   -9039.2134            0    12579.548    24.997592    24.825696    22.797235    14147.568    11622.343    14101.271    12015.031   -60.231199   -591.73557    207.55958   -5365.0526 
11346000    288.56284   -8995.0628   -7894.9297   -8995.0628            0    12649.654    24.948966    24.868243    22.853527    14179.173    12148.861     13605.76    12194.342    -864.2214   -1367.8175   -771.65728   -5279.1242 
11347000    298.30477   -8994.4466   -7857.1728   -8994.4466            0    12667.573    24.910199    24.916733    22.913694    14222.089    12511.399    12343.216    13148.103   -383.47432   -1585.0414   -665.35023   -5229.7336 
11348000    287.69487    -9047.968   -7951.1439    -9047.968            0     12840.82    24.723274    24.808091    23.076313    14153.562    14164.946    12693.255     11664.26   -1084.5699   -976.72332   -1013.1398   -5300.6036 
11349000    290.12624   -8973.4086    -7867.315   -8973.4086            0    12817.409    24.931608    24.880242    22.851417    14174.836    12961.404    13126.783    12364.041    472.59288    1308.4521   -701.45747   -5217.6305 
11350000    286.17299   -9018.4743   -7927.4523   -9018.4743            0    13264.057     24.97719    24.913453    22.700768    14125.963    12788.432    12920.045    14083.693    676.78402    388.57549   -68.996895   -5194.8885 
11351000    288.78812   -9009.0234   -7908.0314   -9009.0234            0    12567.146     24.79049    24.941915    22.903441    14161.708    14048.251    11191.948     12461.24     519.0707    324.20636   -394.88321   -5312.4885 
11352000    296.40709   -8979.1292   -7849.0902   -8979.1292            0    12948.838     24.87447    24.939028    22.912975    14213.951    11972.749    13676.117    13197.648   -28.785058    302.07508   -1139.4187   -5164.8492 
11353000    287.81409   -8972.2909   -7875.0123   -8972.2909            0    12083.845    24.922008    25.015207    22.803706    14216.496    11867.399     12347.71    12036.425    359.58118    477.97637   -105.24679   -5369.6323 
11354000     282.9813   -8979.7167    -7900.863   -8979.7167            0    11822.502    24.916781    24.916189    22.913454    14225.388    10995.923    13105.029    11366.555   -587.10734    403.45879    1042.4146   -5448.1348 
11355000    289.65082   -8987.2682   -7882.9871   -8987.2682            0    11466.755    24.874938    24.821457    23.086068    14254.082    11430.803    11489.434    11480.029   -279.07082   -271.52931    854.45751   -5499.2647 
11356000    294.27367   -9033.9208   -7912.0154   -9033.9208            0    12759.001    24.878876    24.986256    22.772018    14155.769     12757.59     12337.98    13181.433   -580.56879    586.40269    10.992491   -5277.9533 
11357000    285.59501   -8977.9016   -7889.0831   -8977.9016            0    13577.717    24.790556    24.948293    22.921061    14176.265    14146.098    11731.676    14855.378   -193.89431    -1129.505    681.21521   -5081.9406 
11358000    297.51048    -9020.293   -7886.0474    -9020.293            0    13300.346    24.841767    24.843387    22.885092    14123.618    13227.158    13745.913    12927.968    567.60003    180.29473    -155.1416   -5146.4622 
11359000    301.31059   -9055.3875   -7906.6542   -9055.3875            0    12484.259    24.962245    24.895081    22.822419    14182.699    11765.565    12314.857    13372.354    783.12825    49.537176    255.71444   -5324.4087 
11360000    285.96714   -9006.4552    -7916.218   -9006.4552            0    12649.237    24.992767    24.881512     22.78484    14168.931    13217.319    11751.503    12978.888    251.28048    360.14913    926.71566   -5302.3882 
11361000     294.5341   -8999.9431   -7877.0448   -8999.9431            0    12375.417    24.899328    24.723748    23.060529    14196.171    13451.031    13974.898    9700.3238   -390.35925   -932.72971   -393.86409   -5314.8806 
11362000      286.343   -8963.0438   -7871.3737   -8963.0438            0    12741.822    25.107512      24.8558    22.750421    14197.794    12845.077    11323.696    14056.692   -643.02764    375.89016    139.16326   -5233.0488 
11363000    280.37339   -8944.3855   -7875.4743   -8944.3855            0     12733.55    24.921593     24.80148    22.995024    14213.049    11833.791    13368.472    12998.389   -405.95339   -1311.5886    662.12589   -5236.0291 
11364000    299.34046   -8952.1754    -7810.953   -8952.1754            0     12729.06    25.047583    24.813893    22.839906    14195.642    10613.834    14863.987    12709.359    172.64713   -21.080275   -348.89636   -5175.6699 
11365000    296.89957   -8952.3069   -7820.3904   -8952.3069            0     13589.61    24.962754    24.778726    22.909547    14170.591    12609.821     14525.11      13633.9    106.13174   -689.18198    194.41436   -5011.9135 
11366000    296.65143    -9032.293   -7901.3224    -9032.293            0    14851.784      25.0197      24.7267    22.768566    14085.879    12853.139    15691.081    16011.133   -833.34015   -876.87869   -1428.6615   -4850.3487 
11367000     287.3306   -9047.3232   -7951.8879   -9047.3232            0    12898.515    24.894291    24.801258    22.903259    14140.695    12683.671    13501.166    12510.707   -865.69531     984.4594   -1410.9679    -5291.859 
11368000    284.00855   -9035.9776   -7953.2075   -9035.9776            0    12769.964    25.024799    24.762058    22.827241    14145.254    11191.898    14101.642    13016.354    379.87913   -1796.8292    745.46913   -5318.8402 
11369000    290.68648   -8986.6149   -7878.3855   -8986.6149            0    13700.783    24.862736    24.920434    22.830832    14145.759     12526.14    14032.107    14544.102    283.62017   -687.89278   -538.82411    -5051.895 
11370000    286.43839   -8979.2746   -7887.2409   -8979.2746            0    13530.633    24.853813      24.8252    22.934592    14150.663    13563.947    13598.061     13429.89   -1013.7582   -150.47958    21.638196   -5094.8848 
11371000     288.1196   -8995.6556   -7897.2123   -8995.6556            0    13395.703    25.022794    24.741104    22.857856    14151.105    13153.645    13568.886    13464.577     130.5576    590.42633   -417.98198   -5132.6158 
11372000    295.41243   -8988.9794   -7862.7325   -8988.9794            0    11871.695    24.997198     24.81004     22.91687    14212.619    11556.964    12978.507    11079.613   -159.76594   -460.53602    76.046695   -5402.0096 
11373000    283.03645   -9004.2868   -7925.2227   -9004.2868            0    12605.686    24.840163    24.942656     22.90677    14192.568    12455.468    12465.897    12895.693     458.2422   -713.61276    29.651606   -5316.0468 
11374000    293.04592   -8966.7919   -7849.5672   -8966.7919            0    11875.343    24.879304    24.939947    22.917707    14220.174     11817.58    11346.424    12462.024   -464.18294    203.09811    288.89571   -5386.7796 
11375000    293.19164   -8952.6402     -7834.86   -8952.6402            0    13296.068    24.901893    24.975371     22.79991    14180.039    14619.429    11711.919    13556.854    166.12014    288.04421    408.00837   -5085.2155 
11376000    294.02695   -9002.0482   -7881.0834   -9002.0482            0    12954.527    24.843761    24.800588    22.965796    14150.143     14145.19    12963.643    11754.749    335.24579   -1245.4427     292.8404   -5207.7183 
11377000    299.28132   -9003.2906   -7862.2937   -9003.2906            0    14843.451    24.934297    24.912426    22.675514    14085.436     14267.27    13687.465    16575.618     378.9182   -1524.9451    234.22029   -4813.1278 
11378000    288.48336   -9002.9073   -7903.0772   -9002.9073            0    13931.605    24.768298    24.899674    22.932972    14143.281    15046.178    14237.392    12511.245    545.06249   -1858.2428   -852.25491   -5029.4713 
11379000    292.16516   -8971.2723   -7857.4055   -8971.2723            0    13112.474    24.782339    25.108979    22.743292    14152.223    15393.254     10980.79    12963.377   -408.92016   -144.11063   -480.77696   -5151.0478 
11380000    291.16476   -9034.5706   -7924.5178   -9034.5706            0    12254.795    24.837196    24.904757    22.902223    14166.498     13973.92    11248.886    11541.579    723.02369   -47.966025   -488.06744     -5392.63 
11381000    285.15155   -9008.3678     -7921.24   -9008.3678            0    13891.591    24.967425    24.742315    22.835603    14106.737    14049.279    14314.821    13310.675    220.11212    561.72884    103.14711   -5063.2911 
11382000    279.07261   -8978.2732   -7914.3211   -8978.2732            0    11168.513    25.056254     24.86798     22.89864    14268.106    9474.1144    11451.513    12579.913    449.18667    882.13626    244.02711   -5590.3132 
11383000    289.34324   -9003.6428   -7900.5344   -9003.6428            0    11433.537    25.010059    24.822869    22.945964    14245.346    11218.361    11772.069    11310.182    203.58764    348.49548    621.28598   -5525.1741 
11384000    283.89638   -9025.2695   -7942.9271   -9025.2695            0    11569.258    24.976504    24.931313    22.843878    14224.815    10418.232    11592.447    12697.094    241.11702   -249.18324   -974.04558   -5542.8344 
11385000    288.83399   -9053.4923   -7952.3254   -9053.4923            0    13308.783    24.971739    24.781416    22.805905    14113.093    12921.636    13667.239    13337.474    357.08547    487.42386    120.52618   -5213.0452 
11386000    287.20231   -8992.1848   -7897.2386   -8992.1848            0    11638.919    24.930419    24.858434    23.017957    14264.945    11241.157    11098.729     12576.87   -238.49756    348.92404   -216.75703   -5475.8828 
11387000    293.51288   -9046.5558   -7927.5509   -9046.5558            0     11846.82    24.883172    24.886061     22.92919    14198.766    12727.703    12063.137     10749.62    198.79167    382.46254    957.75747   -5474.3773 
11388000    282.51411   -8965.3392   -7888.2665   -8965.3392            0    12128.114    24.912934    24.951318    22.855959    14207.505    12424.697    11351.646    12607.997    -109.4793   -1493.1463    822.97608   -5375.2985 
11389000    286.49882   -9033.4338   -7941.1696   -9033.4338            0    12496.335    24.888316    24.932684    22.795776     14145.52    11939.702    11695.527    13853.776    542.51716   -951.54517     477.4062   -5363.2019 
11390000    288.15846   -8983.5149   -7884.9234   -8983.5149            0    12765.002    24.891699    24.815533    23.004619    14209.971    13485.686      12927.1     11882.22    755.61621    166.57503   -1210.7741   -5239.5318 
11391000    292.45526   -9044.1107   -7929.1378   -9044.1107            0    11596.775    25.054751    24.885822    22.760693    14191.475    11791.454    10909.643    12089.229    332.98649    379.37515   -1221.1223   -5528.9751 
11392000    283.44779   -9011.9859   -7931.3537   -9011.9859            0    13259.233    24.843184    24.704281    23.080446    14165.231    13233.785    15662.526    10881.387    444.18473    496.66708   -347.23194   -5192.1902 
11393000    295.00757   -9012.1796   -7887.4762   -9012.1796            0    12299.114    24.969122    24.906326    22.808987     14184.66    12983.081    12010.732    11903.529   -295.11671   -716.84907   -659.06342   -5343.1743 
11394000    289.19028   -9005.4275   -7902.9023   -9005.4275            0    11789.517    24.912313    24.920282    22.910538    14223.363    12614.021    12012.045    10742.486   -390.13274   -796.97307    191.98255   -5457.3655 
11395000     297.8135   -8957.1175   -7821.7166   -8957.1175            0    13310.654    24.849333    24.940482    22.892212    14187.548    12217.465     13593.11    14121.388    124.06009   -244.74506    1108.0534   -5067.5979 
11396000    279.13209   -8988.5015   -7924.3227   -8988.5015            0    10720.389    24.966408    24.921981    22.946092    14277.342    10283.115    12601.658    9276.3939    96.800239    503.76453    278.08159    -5692.119 
11397000    293.68021   -9021.0208   -7901.3779   -9021.0208            0    11791.758    24.928336    24.807421    22.943921    14188.698    11230.337    11406.997     12737.94   -162.04426    1053.7085   -64.941114   -5461.3377 
11398000    288.74425    -9032.484   -7931.6592    -9032.484            0    12442.715    24.995732    24.804864     22.81715    14146.992    12590.093    13081.031    11657.023    1314.9398    634.21398    83.893722   -5364.4861 
11399000     299.7105   -9022.3866   -7879.7535   -9022.3866            0    11922.483    24.948449    24.850502    22.909202    14203.281    12190.274     11656.97    11920.205   -595.38212     894.6404   -1146.6178    -5410.127 
11400000    287.36946   -9007.0418   -7911.4583   -9007.0418            0    12572.872    24.836643    24.880836    22.975601    14197.921    12549.595    12945.105    12223.917   -883.46542    71.011211   -145.14416   -5308.0929 
11401000    293.31436   -8981.5891    -7863.341   -8981.5891            0    13451.207    24.863788    24.981108    22.765269    14140.077    14340.717    12891.959    13120.946   -863.91704   -1563.8888    929.09852    -5089.453 
11402000     286.5168   -9017.8197    -7925.487   -9017.8197            0    11699.598    24.724906    24.918282    23.096734    14229.948    13574.654    10501.071     11023.07   -388.83228    849.05577    616.76347   -5497.4788 
11403000     291.5643    -8995.772   -7884.1959    -8995.772            0     11128.56    24.997246    25.004282    22.785043    14241.522    9784.0086    11911.262    11690.411    400.14163   -212.46441    645.75321   -5572.8163 
11404000    280.71297   -9006.0239    -7935.818   -9006.0239            0    12388.324    24.907054    24.881656    22.881754    14180.481    12782.749    11975.285    12406.937   -1640.7069    178.52192   -232.13868   -5373.8164 
11405000    289.19103   -8994.1505   -7891.6224   -8994.1505            0    12191.221    24.950545    24.803722    22.907825    14176.883    11238.577    12690.413    12644.673    614.57467   -52.232958   -1205.7532   -5371.0229 
11406000    285.01266   -9065.3399   -7978.7417   -9065.3399            0    13721.229    24.909625    24.966257    22.655246      14089.3     13233.35    13714.753    14215.584   -75.728872    540.11051   -561.72418   -5159.3312 
11407000    286.50668   -8997.0228   -7904.7287   -8997.0228            0     13434.39    24.825594    24.812855     22.91793    14117.304    14365.581    12827.705    13109.884   -745.90573    741.34996    106.07901   -5138.7704 
11408000    291.38536   -9023.7157   -7912.8218   -9023.7157            0    11181.856    24.978038    24.973824    22.876835    14270.504     10647.49    11354.257     11543.82    183.62248   -702.28555     830.4989   -5585.6466 
11409000    285.72439   -8959.3625   -7870.0508   -8959.3625            0    11840.208    24.930794    24.912595    22.949369    14253.641    12507.499    11512.342    11500.784    276.89952   -705.35218   -873.97064   -5408.7706 
11410000    286.74316   -8993.6333   -7900.4376   -8993.6333            0    12538.822    24.939694    24.866955     22.85077    14171.459    11939.665    13528.282    12148.518    -255.4097   -915.79711    799.28914   -5308.9617 
11411000    286.01345   -9039.6851   -7949.2714   -9039.6851            0    14205.982    24.795733    24.828849    22.887377    14090.603    14774.561    14245.445    13597.941    1100.1432    357.09498    841.64662   -5029.9849 
11412000    280.95689   -8973.4558     -7902.32   -8973.4558            0    12990.447    24.917047    24.886914    22.861609    14176.676    11974.464    14366.753    12630.124    968.97766   -304.11975    325.93668   -5216.5154 
11413000    283.56084   -8953.9837   -7872.9205   -8953.9837            0     13141.22     24.89733     24.74625    23.001934    14171.849    14709.594    12753.422    11960.645   -770.32032   -907.44895   -166.28306   -5156.8683 
11414000    283.50443    -9006.815   -7925.9668    -9006.815            0    12844.507    24.924401    24.911196    22.816954    14166.971    13047.612    13281.715    12204.193   -105.00706    721.69005   -777.05783   -5272.1538 
11415000    291.02852   -8993.8541   -7884.3207   -8993.8541            0    13184.356    24.977649    24.841136    22.856611    14181.914    11521.441    13205.629    14825.999   -356.87929   -635.73781   -270.06348   -5157.4179 
11416000    283.55664   -8945.9075   -7864.8603   -8945.9075            0    12707.263    24.889444    24.776327    23.058803    14219.649    11964.477    13085.941    13071.373   -269.59303    748.49821   -1061.4581   -5229.6407 
11417000    272.82278   -9011.1414   -7971.0166   -9011.1414            0     11263.48    24.998476    24.949892    22.844653    14248.422    10306.884    12182.519    11301.036   -196.08121    611.76138   -269.53606    -5630.481 
11418000     290.7522   -8948.9228   -7840.4428   -8948.9228            0    12533.393    24.941648     24.84965    22.945818    14221.617    12465.417    12736.372    12398.389   -291.07187   -241.80254    564.97296   -5240.9207 
11419000    284.58914   -8994.4738   -7909.4903   -8994.4738            0    11311.151    25.022134    24.913897    22.878959    14262.717    11362.787    10989.183    11581.483   -284.82886   -161.10885    24.410118   -5556.6906 
11420000    284.91825   -8975.4662   -7889.2279   -8975.4662            0    12910.184    24.909403    24.877387    22.884021     14180.79    13262.983    12718.965    12748.605    541.61455   -305.83009   -390.98752   -5219.2433 
11421000    291.98509   -9019.6839   -7906.5035   -9019.6839            0    12056.219    24.775975    24.941274    22.930059    14169.501    13509.947    11743.099     10915.61   -560.41874   -418.49616    -1590.076   -5415.1144 
11422000    291.81179    -9006.249   -7893.7294    -9006.249            0    12957.802    24.848456    24.969032    22.809336    14151.867    13639.396     12274.53    12959.481   -801.84838   -363.01221    274.75632   -5219.3625 
11423000    293.08207    -9014.489   -7897.1265    -9014.489            0    13666.763    24.853868    24.781784    22.978784    14153.166     13442.09    14167.842    13390.356    715.28426    137.28789   -92.200817   -5076.1781 
11424000    299.96117   -9055.4056   -7911.8168   -9055.4056            0    12438.791    24.966721    24.788601    22.868544    14153.115    11637.475    13195.523    12483.374   -151.95359    68.035849    603.56418   -5344.3427 
11425000    298.19192   -9043.7202   -7906.8767   -9043.7202            0    12153.993    24.869091    24.890357    22.877212    14161.007    12128.347    11579.288    12754.345   -251.55869   -737.65378   -197.62791   -5396.7882 
11426000    293.67422   -9034.4023   -7914.7823   -9034.4023            0    13720.436    24.856684    24.818438    22.863967    14104.874     12850.71    14497.285    13813.312   -1076.0357   -370.63184    78.553974   -5092.4184 
11427000    291.08578   -8986.8247    -7877.073   -8986.8247            0    13408.945    24.937962    24.721312    22.945563     14145.92    12948.215     15289.59    11989.031   -231.32407   -552.93715    356.28867   -5110.7575 
11428000    288.69102   -8997.6268   -7897.0049   -8997.6268            0    12231.687    24.912495    24.881722    22.924545    14210.141    12715.186     11578.82    12401.055   -67.716446    1342.5678   -97.792364   -5362.1061 
11429000     288.7334   -8993.4829   -7892.6995   -8993.4829            0    13022.013    24.939379    24.935322    22.757391    14152.171    11889.066    13276.596    13900.377     779.3303    291.47818    731.44123   -5205.0226 
11430000    284.28965   -9020.5708   -7936.7291   -9020.5708            0    11526.442    24.997184    24.867062    22.866193    14213.774    11031.013    11355.666    12192.647    145.21232   -892.48472    284.07806   -5547.3746 
11431000    293.35032   -9019.0025   -7900.6173   -9019.0025            0    12697.254    24.780916    24.895058    22.989648    14182.827     12894.72    13422.633    11774.408    654.18326   -1526.9105    349.65185   -5274.2922 
11432000    274.17371   -8894.7794   -7849.5041   -8894.7794            0    13565.019     24.85745    25.045227    22.773955    14178.164    14276.612    11970.577    14447.868   -433.75402    300.84716   -101.48069   -5044.6111 
11433000    283.52255   -8979.0996   -7898.1823   -8979.0996            0    12830.172    24.905451    24.832246    22.927856    14179.922    14412.005     11365.45    12713.061   -292.91861    506.25476    818.46537   -5244.9076 
11434000    283.53074   -8960.6471   -7879.6986   -8960.6471            0    13176.827    24.981495    24.785771    22.873551    14162.974    12246.358    14287.382     12996.74   -449.10125   -738.23861   -481.38254   -5157.9928 
11435000    297.69674    -8959.131   -7824.1753    -8959.131            0    13391.431    24.977479    24.823289    22.816038    14146.473    12295.576    15001.568    12877.149   -326.08949    175.58899   -612.02788    -5061.365 
11436000    286.62403   -8943.9033   -7851.1618   -8943.9033            0    12915.556    24.942122    24.765384     22.99872    14206.338    13380.684    13897.688    11468.296    88.942097   -89.668411   -512.51607   -5175.2541 
11437000    278.00323   -9024.8504   -7964.9753   -9024.8504            0    11371.704    24.880317    25.005118    22.821338    14197.959    10386.452    12052.552     11676.11    138.61577   -992.85735    1014.8529   -5610.3197 
11438000    290.42055   -8967.6464   -7860.4308   -8967.6464            0    12664.222    24.931023    24.871725    22.907807    14204.617     11831.13    13420.525    12741.011   -384.66334    865.68057    1573.0271   -5236.9136 
11439000    278.70161   -9016.8986   -7954.3609   -9016.8986            0    13146.791     24.88277    24.803468     22.88991    14127.172    11864.413    14232.939    13343.022    360.36758   -210.36662    124.38672   -5245.7235 
11440000    300.91017   -8988.0541   -7840.8473   -8988.0541            0    11648.035      25.0999    24.884408    22.781556    14229.272     11093.95    10788.489    13061.665    938.11313    152.98239   -458.55669   -5423.6549 
11441000    284.57482   -8980.9552   -7896.0262   -8980.9552            0    10637.489    24.925898    24.824332    23.092779    14289.091    10807.557    11181.609    9923.3002    447.10397    872.22146    659.31202   -5679.2615 
11442000    286.03153   -8948.3634   -7857.8807   -8948.3634            0    13099.875    24.982267    24.880599    22.852391    14204.447    12205.462     13276.81    13817.353    371.57166   -710.67284    -511.6614   -5144.1462 
11443000    295.73211   -9020.4349   -7892.9692   -9020.4349            0    12149.575    24.841148    24.962163    22.873483     14183.59    13427.036    10595.844    12425.844    894.78069   -320.20823    806.79979   -5379.7919 
11444000    282.73087   -8979.1549   -7901.2559   -8979.1549            0    12294.254    24.887357    24.929885    22.926844    14224.707    11264.325    13372.086    12246.351   -1694.6005   -898.71071    -567.3068   -5350.7789 
11445000    291.68605   -9005.8413   -7893.8011   -9005.8413            0    11156.178    25.057338    24.936992    22.785209    14237.444    8952.7001    13404.583    11111.252   -1160.8864   -602.19125    140.47786   -5577.3488 
11446000    289.61395   -8956.9754    -7852.835   -8956.9754            0    13602.918    24.881107    24.766571    22.981106     14161.41    14559.115    13567.023    12682.615    412.30187    48.258812   -152.88211   -5043.4292 
11447000    288.16168    -8987.103   -7888.4993    -8987.103            0    12103.228    24.878832    24.993701    22.811654    14184.608    12799.089    11632.015     11878.58    407.86758    636.81792   -873.39694   -5384.7293 
11448000    294.54034   -8982.6568   -7859.7347   -8982.6568            0    13133.047    24.818762    24.961256     22.84905    14155.157    12166.363    13935.445    13297.334   -95.536016    303.39768   -29.843676   -5148.5688 
11449000    292.15636   -8959.7521   -7845.9188   -8959.7521            0    13577.041     24.81156    24.926506    22.950509    14194.098    14199.866    12691.111    13840.147    708.73515   -508.80201    512.06497   -5035.3849 
11450000     287.2494   -8966.5681   -7871.4424   -8966.5681            0    13889.733    24.895639    24.941803    22.758662    14131.812    14034.178    13654.536    13980.486   -645.98043   -364.89439    -256.2455   -5008.7963 
11451000    292.67036   -8942.7462   -7826.9533   -8942.7462            0    15571.916    24.832222    24.798851    22.865213     14080.64     15710.69    15804.624    15200.435   -1206.2063    1978.9682    984.18617    -4629.234 
11452000    290.04712   -9000.4142   -7894.6223   -9000.4142            0    14112.657    24.895461    24.890432    22.789243    14121.554    15730.311     12704.95    13902.711    824.37605    -151.3321   -582.97051   -4988.1433 
11453000    289.50274    -9037.356   -7933.6395    -9037.356            0    14979.761    24.861584    24.778179    22.829602      14063.6    14738.264    15395.849     14805.17    136.71729    166.16979   -489.59236   -4861.2427 
11454000    291.49672   -8977.2112   -7865.8928   -8977.2112            0    14474.658    24.933007    24.772604    22.853078     14115.33    14403.201    13762.029    15258.744   -134.50113    230.85234     1014.285   -4886.1743 
11455000    281.48755   -9010.3295   -7937.1706   -9010.3295            0    11825.062    24.931966    24.902596    22.839085    14180.118     12130.77     11064.59    12279.826    298.16942    17.597572   -1036.5372   -5491.7184 
11456000     279.5444   -9057.5852   -7991.8344   -9057.5852            0    10753.591    24.780954    25.031466    22.969313    14247.948    12936.791    9559.1541    9764.8279    895.41788    921.42424   -198.20099   -5757.3274 
11457000    289.61917   -8989.7957   -7885.6354   -8989.7957            0    14140.604    24.858976    24.884206    22.877806    14152.117    14264.649    12665.781    15491.382    690.97685     286.1681    67.311553   -4967.0981 
11458000    283.05734   -8975.3432   -7896.1995   -8975.3432            0    13081.361    24.844813    24.940122    22.873296    14173.042    12861.838    13324.838    13057.408   -179.24736   -267.97125   -69.099768   -5192.2916 
11459000    284.12261   -8922.8726   -7839.6676   -8922.8726            0     12857.81     24.90186    25.050936     22.75228    14193.212    13588.151    12539.587    12445.693    701.35268    700.99974    3.7674935   -5178.1853 
11460000    285.00844    -8955.699   -7869.1168    -8955.699            0    13935.528    24.781527    24.871934    22.989606    14169.977    13188.766    15071.179    13546.638   -512.15995    626.14032   -69.635476   -4989.2762 
11461000    293.54511   -8981.5743   -7862.4465   -8981.5743            0    13222.262    24.924118    24.962337    22.772966    14168.525    13608.974    12803.104    13254.708    129.15758     51.31661    1036.2124   -5130.2855 
11462000     288.7586   -9013.1131   -7912.2336   -9013.1131            0    12263.917    24.849185    24.899156    22.927423    14185.741    12882.084    12024.354    11885.315    1028.0609     615.7441    294.14673   -5375.0194 
11463000    276.93558   -8973.1934   -7917.3886   -8973.1934            0    12792.517    24.969868    24.798406     22.96843    14222.349    11827.987    13903.354    12646.212   -367.63299    600.54415    123.78249   -5263.9856 
11464000    293.46326   -8997.0407   -7878.2249   -8997.0407            0     13313.07    24.937295    24.897676    22.796111    14153.665     12298.72    13592.632    14047.859    175.27698   -674.68868    76.400822   -5130.1849 
11465000     284.8661   -8983.7757   -7897.7362   -8983.7757            0    14933.318    24.855192    24.606261    22.968289    14047.252    14093.872    16720.531    13985.552   -503.61278   -737.65725    249.26395   -4838.4254 
11466000    290.76248   -9033.3505   -7924.8314   -9033.3505            0    13078.999    24.916929    24.851484    22.813665    14126.739    13519.427    12509.457    13208.113    946.67655    -553.2335    359.91278   -5230.2438 
11467000    292.88908   -8977.8839   -7861.2571   -8977.8839            0    13432.898    24.920353    24.859416    22.844884    14152.529    13262.358    13778.847    13257.488   -235.45575    271.16455     376.6443   -5088.7054 
11468000    284.33878   -8968.3465   -7884.3173   -8968.3465            0    13140.449    24.810743    24.881051    22.961309    14174.415    13558.684    12994.617    12868.047   -659.78023    566.34976    842.33086   -5167.9329 
11469000    283.59683   -9022.1609   -7940.9604   -9022.1609            0    12125.808    24.869677    25.002498    22.813643    14185.616    12083.537    12122.644    12171.243   -253.57579    -862.5308     -115.095    -5432.341 
11470000    290.92937   -9015.8773   -7906.7219   -9015.8773            0    11584.958    24.823037    25.039525    22.903891    14236.075     11704.75    10355.989    12694.137   -114.54782   -326.09868   -839.45969   -5501.4696 
11471000    281.08011   -8973.1839   -7901.5784   -8973.1839            0    13071.862    24.764321    24.933627    22.963177    14178.943    14758.663    12050.827    12406.094   -658.57667   -995.01591    863.05628    -5198.509 
11472000    290.77597   -9014.2106     -7905.64   -9014.2106            0     13469.96    24.837795    24.928695    22.808253    14122.273    13691.198    13178.348    13540.333   -327.90584   -1322.1938    522.22339   -5131.3824 
11473000    290.96474   -8997.7346   -7888.4443   -8997.7346            0    12572.723    24.745773    24.979055    22.923407    14169.555    13436.001    11721.867      12560.3   -1698.9902     121.3065   -901.69733   -5290.3111 
11474000    303.03218   -8962.0348   -7806.7379   -8962.0348            0    13616.315    24.917719    24.964481    22.751403     14152.69    14437.698    13342.486    13068.762    1116.1812    1031.1053    -655.7243   -4996.2968 
11475000    285.83277    -8996.653   -7906.9281    -8996.653            0    12979.902     24.73734    24.919254    23.009024    14183.592    13958.544    13917.626    11063.536    590.12341   -348.13143    518.32696   -5221.9945 
11476000    284.88691   -8973.8748    -7887.756   -8973.8748            0    13394.555    24.930249    24.882057    22.833456    14163.955    13600.575    12929.616    13653.474    127.84754    903.20593    426.17788   -5120.8862 
11477000     285.4314   -8964.8215   -7876.6269   -8964.8215            0    10922.896    24.995229    24.852852    23.010678    14294.296    11169.439    11420.133    10179.117   -819.13822    514.08075    656.49652   -5599.5564 
11478000    290.44486   -8973.0256   -7865.7173   -8973.0256            0    11540.201    24.969841    24.943651    22.895786    14260.388    11242.402    11328.095    12050.107   -143.19272   -989.81335    327.72721   -5465.6655 
11479000    281.51616   -8987.0061   -7913.7381   -8987.0061            0    13046.414     24.97827    24.837722    22.846776    14174.216    12679.026    13598.721    12861.494   -928.47614   -10.991728   -364.64684   -5216.8304 
11480000    294.14664   -8982.8197   -7861.3985   -8982.8197            0    13259.602    24.859047    24.856531    22.944202    14177.444    12285.678    14101.658     13391.47      166.842    757.41066   -148.38319    -5119.797 
11481000    302.63246   -8988.3326   -7834.5596   -8988.3326            0    12211.523    24.819358    24.886947    22.985709    14197.768    13276.921    11177.597     12180.05   -117.49241   -118.27698   -785.70015   -5306.0432 
11482000    291.87233     -8990.76   -7878.0095     -8990.76            0    12828.978     24.86589    25.057073    22.778776     14192.69    13851.811    11630.728    13004.395   -39.011353   -776.02809   -1420.2573   -5222.5928 
11483000    292.79083   -8971.4324   -7855.1803   -8971.4324            0    13899.488    24.750361    24.967096    22.891595    14145.739    13183.119    14124.953     14390.39    310.57808   -291.57167   -2.6333685   -4987.7009 
11484000    300.01249    -9006.393   -7862.6086    -9006.393            0    12695.605    24.871048    24.915199    22.899232    14189.901     12613.01    12299.975    13173.831   -86.778554   -193.68144   -681.96002   -5235.3146 
11485000    287.54901   -9029.3248   -7933.0568   -9029.3248            0    12197.309    24.887428    24.948935    22.847277    14186.213    11383.236    12598.689    12610.003    128.96864    111.92591     1803.151   -5409.5388 
11486000    291.36022   -8976.1493   -7865.3512   -8976.1493            0    13079.367    24.875861    24.878985    22.870552    14154.269    13103.903    13174.893    12959.304    190.83139   -509.73067   -1136.9207   -5165.4365 
11487000    288.30193   -9006.1389   -7907.0005   -9006.1389            0    12757.751    24.941977    24.798551    22.860161    14139.578    12295.337    13182.822    12795.094    770.25579    342.38428   -478.90466   -5276.2088 
11488000    294.64524   -8946.5321   -7823.2101   -8946.5321            0    12316.441    24.997441    24.837576    22.908253     14223.18    12927.623    11214.277    12807.422   -1150.2189   -679.97786    793.63886   -5268.4047 
11489000    285.68426   -8955.9375   -7866.7788   -8955.9375            0    13565.177    25.089531    24.608487    22.922816    14152.899      12454.4    15736.226    12504.903   -692.11229    -632.4905   -213.64879   -5066.8516 
11490000    299.08878   -8984.7949   -7844.5321   -8984.7949            0    13377.546    25.026624    24.833436    22.765787     14148.87    13139.322    14153.063    12840.254   -451.54819    398.45203     220.6234   -5084.1189 
11491000    289.93469   -8991.5102   -7886.1469   -8991.5102            0    12199.583    25.029853    24.759583    22.988163    14246.425    11102.834    13498.808    11997.107    411.98434    1706.1259     1167.321   -5351.4457 
11492000     302.0036   -8999.9655   -7848.5901   -8999.9655            0    12179.868    24.858868    24.908166    22.925895    14195.457     12599.66    11840.327    12099.618   -184.21236    310.62413   -274.26843   -5327.0384 
11493000    287.68127   -8990.3217   -7893.5495   -8990.3217            0    13938.743    24.790764    25.028749    22.745788    14113.347    14161.854    13658.065    13996.311    191.10849   -457.70101   -229.81337   -5024.5561 
11494000    288.17603   -9029.1323   -7930.4738   -9029.1323            0    11534.431    24.860922    24.863102    22.960371    14192.256    11700.952    11353.676    11548.664   -134.96415   -346.01285    153.66262   -5543.0832 
11495000     294.2785    -8990.421   -7868.4972    -8990.421            0    13090.176    24.866581    25.003999    22.788502    14169.069    11814.409    13021.277    14434.843   -185.21556    -870.6958   -749.32322   -5163.5255 
11496000    288.49415   -9001.2691   -7901.3978   -9001.2691            0    13274.803    24.903732    24.876487    22.849353    14155.572     13426.76    13217.912    13179.736    46.510397   -187.97074   -507.22478   -5160.8878 
11497000    300.71757   -8980.0695    -7833.597   -8980.0695            0    13401.713    24.922313    24.889079    22.836659    14165.429    13818.781    12841.708     13544.65   -1101.5613    1770.8378    309.10242   -5064.9606 
11498000    278.89168   -9002.4286   -7939.1663   -9002.4286            0    13345.702    24.951435    24.884409    22.827825    14173.835    12194.764    13929.109    13913.234    4.7497062     1947.563    -618.9124   -5180.4649 
11499000    277.96382   -9022.3094   -7962.5845   -9022.3094            0    12742.968    24.838652    24.990148    22.802451    14153.973    12739.221    12428.475    13061.207    30.498228   -257.89157   -55.647772   -5332.1661 
11500000    291.51262    -8958.587   -7847.2079    -8958.587            0    13620.554    24.760074    24.991895    22.881274    14158.959    15769.306    13033.581    12058.774   -390.91514    1585.1897   -480.51048   -5034.6468 
Loop time of 558.133 on 64 procs for 250000 steps with 1920 atoms

Performance: 77.401 ns/day, 0.310 hours/ns, 447.922 timesteps/s
99.2% CPU use with 64 MPI tasks x 1 OpenMP threads

MPI task timing breakdown:
Section |  min time  |  avg time  |  max time  |%varavg| %total
---------------------------------------------------------------
Pair    | 63.83      | 66.19      | 68.233     |  13.9 | 11.86
Bond    | 0.27568    | 0.28255    | 0.29149    |   0.7 |  0.05
Kspace  | 234.6      | 243.69     | 254.67     |  31.8 | 43.66
Neigh   | 7.3401     | 8.5202     | 10.324     |  27.6 |  1.53
Comm    | 98.186     | 112.7      | 124.14     |  60.1 | 20.19
Output  | 1.1662     | 1.1668     | 1.1725     |   0.1 |  0.21
Modify  | 111.4      | 118.22     | 122.65     |  31.9 | 21.18
Other   |            | 7.368      |            |       |  1.32

Nlocal:        30.0000 ave          34 max          26 min
Histogram: 1 4 5 12 0 20 11 8 1 2
Nghost:        2861.98 ave        2897 max        2829 min
Histogram: 5 7 5 6 9 8 9 9 4 2
Neighs:        10729.8 ave       12347 max        9333 min
Histogram: 2 5 4 8 22 11 5 3 2 2

Total # of neighbors = 686709
Ave neighs/atom = 357.66094
Ave special neighs/atom = 2.0000000
Neighbor list builds = 14407
Dangerous builds = 3

unfix		3
unfix		2
unfix		1

write_data	data.final.${pid}
write_data	data.final.0
System init for write_data ...
PPPM initialization ...
  extracting TIP4P info from pair style
  using 12-bit tables for long-range coulomb (../kspace.cpp:340)
  G vector (1/distance) = 0.37468101
  grid = 30 30 30
  stencil order = 5
  estimated absolute RMS force accuracy = 0.003246015
  estimated relative force accuracy = 9.7752777e-06
  using double precision FFTW3
  3d grid and FFT values/proc = 3600 512
Last active /omp style is kspace_style pppm/tip4p/omp
WARNING: Not all mixed pair coeffs generated from mixing. Use write_data with 'pair ij' option to store all pair coeffs. (../write_data.cpp:312)

write_restart   restart.lmp.${pid}
write_restart   restart.lmp.0
System init for write_restart ...
PPPM initialization ...
  extracting TIP4P info from pair style
  using 12-bit tables for long-range coulomb (../kspace.cpp:340)
  G vector (1/distance) = 0.37468101
  grid = 30 30 30
  stencil order = 5
  estimated absolute RMS force accuracy = 0.003246015
  estimated relative force accuracy = 9.7752777e-06
  using double precision FFTW3
  3d grid and FFT values/proc = 3600 512
Last active /omp style is kspace_style pppm/tip4p/omp
Total wall time: 0:09:20
