LAMMPS data file via write_data, version 30 Jul 2021, timestep = 37500000

1008 atoms
2 atom types
672 bonds
1 bond types
336 angles
1 angle types

-3.114799989199682 14.72479898875389 xlo xhi
0.028303403109065428 22.551695596880514 ylo yhi
-0.010136108636283225 19.240134108632738 zlo zhi
-0.15499550518148011 -6.612483393306551 0.1085000296171339 xy xz yz

Masses

1 1.008
2 15.999

Pair Coeffs # lj/cut/tip4p/long/omp

1 0 0
2 0.21084 3.1668

Bond Coeffs # harmonic/omp

1 450 0.9572

Angle Coeffs # harmonic/omp

1 55 104.52

Atoms # full

21 7 1 0.5897 1.213695335969354 2.544778704725497 1.0389560711552859 0 0 0
55 19 2 -1.1794 -0.5889416505382745 4.212558651212572 3.7264677992199546 0 0 0
56 19 1 0.5897 -1.1416098697364025 3.641371730906377 3.19300365270758 0 0 0
57 19 1 0.5897 0.20215592540743943 4.338453115861773 3.2024930171306867 0 0 0
121 41 2 -1.1794 -2.3685899211884345 2.511809811320792 2.3475773776420255 1 0 0
122 41 1 0.5897 -2.270973926313602 2.1011424380929995 1.4883681350236413 1 0 0
86 29 1 0.5897 -2.184077480656626 1.6794001657727209 3.912860583575972 1 0 0
31 11 2 -1.1794 1.2566144107885577 1.4614526941487131 2.428424942870809 0 0 0
32 11 1 0.5897 1.1795200788439608 1.7307575557219534 3.3438353670829017 0 0 0
123 41 1 0.5897 -3.274797795766701 2.8193688902852276 2.3649548132428873 1 0 0
46 16 2 -1.1794 1.7616827802316877 4.789148201822496 2.4851330800455793 0 0 0
33 11 1 0.5897 0.49355478740305747 0.9037242086211857 2.277239735653852 0 0 0
602 201 1 0.5897 -0.546187541192436 5.297757650665709 0.4679904246088953 1 0 1
71 24 1 0.5897 2.938295840617955 0.9873788528510536 2.039461244885522 0 0 0
158 53 1 0.5897 -4.252796334798495 4.516921449579079 4.373532819049749 1 0 0
6 2 1 0.5897 3.764951926392353 1.7581172297410659 4.4598381140731505 0 0 0
527 176 1 0.5897 4.047694470308081 2.07514756596131 0.27544783198172557 0 0 1
47 16 1 0.5897 1.884302565889005 5.218257232443159 1.6382810284058986 0 0 0
482 161 1 0.5897 -1.0091098904379248 0.12485133558923481 0.9451680011274388 1 1 0
48 16 1 0.5897 1.9630429835405998 5.4677024110523815 3.1295955563298805 0 0 0
70 24 2 -1.1794 3.692877553052446 0.7276338832382421 1.5109167058380522 0 0 0
16 6 2 -1.1794 5.332513015468599 4.827671444396111 0.12389489782245747 0 0 0
52 18 2 -1.1794 3.8232704502728456 3.224148338679668 3.574711577489703 0 0 0
54 18 1 0.5897 3.2555855204969637 3.772859001539606 3.0335981163385686 0 0 0
78 26 1 0.5897 0.18212363095703088 2.944037717072595 4.6169493396358705 0 0 0
53 18 1 0.5897 4.554153158557358 2.995581933080187 3.0004225919774576 0 0 0
72 24 1 0.5897 4.208008966758963 0.1646257201397861 2.0886952744681073 0 0 0
101 34 1 0.5897 -2.55047697057351 4.581513649097971 0.04011709832959132 1 0 0
85 29 2 -1.1794 -2.256326013716621 1.2763763628917153 4.778128169717101 1 0 0
19 7 2 -1.1794 1.1439395538079804 2.839238257438314 0.13077016917458004 0 0 0
134 45 1 0.5897 -2.154880757732648 2.698707748258784 6.0418394057246845 1 0 0
135 45 1 0.5897 -1.6675723112399323 3.855432946193169 6.888323008447624 1 0 0
60 20 1 0.5897 2.8398087048403635 3.742632397768859 6.818698683181607 0 0 0
34 12 2 -1.1794 0.04726859747938139 1.2639239301647873 7.276991019551829 0 0 0
35 12 1 0.5897 0.17578935531310114 1.89375999176761 7.986315253412043 0 0 0
36 12 1 0.5897 -0.8344430359383419 0.9194861891058008 7.418783930346942 0 0 0
159 53 1 0.5897 -3.1611287205724956 4.6447769431624355 5.414653153912035 1 0 0
669 223 1 0.5897 -5.1538282182951844 1.8801732305545473 8.971969836618294 1 0 0
124 42 2 -1.1794 -4.956949285322933 2.560804718006371 7.3712259974663885 1 0 0
58 20 2 -1.1794 2.202102745567063 4.175917599210308 6.251448892300513 0 0 0
59 20 1 0.5897 1.7994143709714745 3.463523925431667 5.754856128159464 0 0 0
4 2 2 -1.1794 3.916894447409497 0.9949470673030772 5.017184615010112 0 0 0
43 15 2 -1.1794 -0.29174313314474265 4.904095845141147 7.275203615439432 0 0 0
126 42 1 0.5897 -4.0987629284477185 2.884018382434586 7.096971031724457 1 0 0
45 15 1 0.5897 0.6162968451176454 4.6325830730639685 7.14154805542883 0 0 0
133 45 2 -1.1794 -2.46540095927012 3.4145324008571984 6.596298341153152 1 0 0
11 4 1 0.5897 2.2636314850605963 5.635685486899457 5.2442436822768235 0 0 0
401 134 1 0.5897 2.180953748108406 0.2317846469332952 9.137899852312724 0 1 0
90 30 1 0.5897 -5.062737962016277 1.6759473856366618 5.893487156869617 1 0 0
98 33 1 0.5897 -4.028746727304661 5.214878215841288 8.701891935441827 1 0 0
77 26 1 0.5897 0.45140793698195036 1.918254265703955 5.697264702682964 0 0 0
69 23 1 0.5897 -2.845298385492391 1.1803040871152122 8.799565909040522 0 0 0
67 23 2 -1.1794 -2.4167004578062214 0.5010892205277366 8.27879969913048 0 0 0
44 15 1 0.5897 -0.30655877693174194 5.264085726062047 8.16212069728001 0 0 0
22 8 2 -1.1794 0.18799291794383688 2.771285326966038 9.519184733369904 0 0 0
97 33 2 -1.1794 -4.172421888166163 4.809619129114794 9.557145274973495 1 0 0
522 174 1 0.5897 2.165916270616499 5.46829850497005 9.031175635040979 0 0 0
157 53 2 -1.1794 -3.8060939382897017 5.157277199049478 4.927323968623343 1 0 0
87 29 1 0.5897 -3.1770741253733954 1.0248663427094762 4.849581733418367 1 0 0
5 2 1 0.5897 3.153462984212232 0.436102165336589 4.872148070590686 0 0 0
606 202 1 0.5897 -6.14539371903164 4.657317799578667 9.576967950655114 1 0 0
76 26 2 -1.1794 0.837840777441091 2.3142750949215225 4.916143887411938 0 0 0
574 192 2 -1.1794 0.5383787164377867 0.7126063092965911 11.3287315895903 0 0 0
662 221 1 0.5897 -7.479607073113244 4.661249225372033 14.221069773021357 1 0 0
560 187 1 0.5897 -4.805783242047356 3.8705746232528755 12.50810202240599 0 0 0
576 192 1 0.5897 -0.1588555991330205 0.9715835168252428 11.931271390497763 0 0 0
23 8 1 0.5897 0.3914821290967043 2.0961971234307577 10.166517771657753 0 0 0
523 175 2 -1.1794 -2.522764901065469 2.7043706597113006 10.077485300180529 0 0 0
627 209 1 0.5897 -6.882657822035072 3.1381870573006623 12.102889839386327 1 0 0
99 33 1 0.5897 -4.1442089563718625 5.539068079738875 10.176342096210934 1 0 0
535 179 2 -1.1794 -1.9294512232760024 1.2406343375760502 12.343537124557097 0 0 0
536 179 1 0.5897 -2.1046529597949792 1.6754618383710256 13.178177882247981 0 0 0
537 179 1 0.5897 -2.244337393967637 1.855982222894307 11.681426344003183 0 0 0
551 184 1 0.5897 -1.3219885289181654 5.647661896710285 12.972756467649816 0 0 0
625 209 2 -1.1794 -6.005714276001172 2.8446736389151344 11.856003821655218 1 0 0
556 186 2 -1.1794 0.6107478169399405 3.430492909945352 13.108842071635907 0 0 0
561 187 1 0.5897 -3.630308407891449 3.762170452980002 13.455952511810105 0 0 0
668 223 1 0.5897 -5.572388793103291 1.9580212481175157 10.424930889545905 1 0 0
558 186 1 0.5897 -0.229951702001995 3.769412546610739 12.801469992488348 0 0 0
559 187 2 -1.1794 -4.0616706750426985 4.365526849204744 12.85092321797201 0 0 0
550 184 2 -1.1794 -1.5316719116915065 5.164315791875841 12.173503303153554 0 0 0
552 184 1 0.5897 -2.4690363772481456 4.983098301450798 12.241616169756707 0 0 0
626 209 1 0.5897 -5.843609295478831 2.0809937771520906 12.409766129106604 1 0 0
557 186 1 0.5897 0.3837251217041988 2.655040312796872 13.621974587952081 0 0 0
986 329 1 0.5897 -4.250777063013292 0.19567660376938734 10.65962259787754 1 1 0
524 175 1 0.5897 -3.0535575039550835 3.457336891999139 9.817922622144046 0 0 0
525 175 1 0.5897 -1.64689950674981 2.9025953989670525 9.746211213702813 0 0 0
667 223 2 -1.1794 -5.362635831225731 1.3341049316510842 9.729911853823754 1 0 0
575 192 1 0.5897 1.1787501851539748 0.264567058166204 11.881316170011415 0 0 0
520 174 2 -1.1794 2.2402217434698315 4.761725484371383 9.672601464752537 0 0 0
589 197 2 -1.1794 -5.553846737980653 1.1384113769417397 14.01493633227359 1 0 0
591 197 1 0.5897 -5.065339757067306 0.37277311729859625 14.316993734358814 1 0 0
593 198 1 0.5897 -7.413727080604627 0.9132862100771861 14.410700869757417 1 0 0
24 8 1 0.5897 0.8421534239560584 3.453499425852835 9.670269786580684 0 0 0
547 183 2 -1.1794 -3.4973716833736646 5.239526038110708 16.860858871816603 0 0 0
581 194 1 0.5897 -2.9027206961858374 2.038491424561354 15.156603529806054 0 0 0
165 55 1 0.5897 -9.20925991386068 0.6093819494384382 18.78383144819864 1 0 -1
630 210 1 0.5897 -8.145398844871847 2.0368164799691852 16.22455387781058 1 0 0
582 194 1 0.5897 -2.0652283173437036 3.2978504821663273 15.090988553440804 0 0 0
563 188 1 0.5897 -0.73222660245131 4.9613021649403 15.579516595828222 0 0 0
639 213 1 0.5897 -5.7028332181888794 4.095316980629621 15.448854920237496 1 0 0
20 7 1 0.5897 -5.5547553934251495 2.141078605284328 18.872991111225026 0 0 -1
538 180 2 -1.1794 -3.282360419392351 1.1190132978594762 16.641660303977687 0 0 0
539 180 1 0.5897 -3.0495658204868654 1.7327859575040954 17.338393321620487 0 0 0
526 176 2 -1.1794 -2.7930599778943277 2.735851022336016 18.777912366317366 0 0 0
540 180 1 0.5897 -4.196723028627669 0.8951090725977505 16.81477231364213 0 0 0
638 213 1 0.5897 -6.22275524322826 3.0549092498518537 16.417918401924872 1 0 0
549 183 1 0.5897 -4.124260921960466 4.5549663459842336 16.627239364863392 0 0 0
562 188 2 -1.1794 -1.0259795971880683 4.244755960547533 16.142069874304354 0 0 0
508 170 2 -1.1794 0.7325155057289283 1.150124318721633 14.634170043169597 0 0 0
564 188 1 0.5897 -1.7181375959917418 4.629773293791238 16.67957449420871 0 0 0
637 213 2 -1.1794 -5.43006318794588 3.3327315520958343 15.958942501222413 1 0 0
164 55 1 0.5897 -8.388753681436306 1.8409884430634376 18.46509954544012 1 0 -1
628 210 2 -1.1794 -8.013200243749216 2.624464265982773 16.968573002748435 1 0 0
590 197 1 0.5897 -5.348490973740072 1.8212800225697672 14.653537495308141 1 0 0
629 210 1 0.5897 -8.715610404741575 3.270098995139843 16.89213402600805 1 0 0
571 191 2 -1.1794 -5.664610871292867 0.5549631288054003 17.95483622880476 0 0 0
601 201 2 -1.1794 -7.3328855220123605 4.795707832326098 19.001867341480974 1 0 0
661 221 2 -1.1794 -6.808157071266828 5.2846990138618075 14.497954791367645 1 0 0
603 201 1 0.5897 -6.728599057036935 4.069149965719412 19.15356753968944 1 0 0
528 176 1 0.5897 -3.7144098815519335 2.9561098734384035 18.914749733984316 0 0 0
163 55 2 -1.1794 -8.664485005520284 1.282399414285699 19.191881305737276 1 0 -1
18 6 1 0.5897 -1.8046029932426064 4.154636470726341 19.200558924440593 0 0 -1
580 194 2 -1.1794 -2.539032926841112 2.674367948376322 14.5404734435333 0 0 0
289 97 2 -1.1794 -2.3214690331019865 10.047966627878344 2.3733049457837674 1 0 0
255 85 1 0.5897 -2.3909694521990312 8.887072153463341 3.8782401652753338 1 0 0
146 49 1 0.5897 -1.3882171291153105 6.566777585095441 1.9772501509177294 1 0 0
147 49 1 0.5897 -0.9283844848077294 7.522541498126697 0.8969803460166703 1 0 0
332 111 1 0.5897 -2.118469378334926 9.323597978200203 0.7051178935873309 1 0 0
145 49 2 -1.1794 -0.6106751702888547 6.84412065465588 1.492764713794163 1 0 0
112 38 2 -1.1794 -3.141035841946087 6.384133310124641 2.530065799895609 1 0 0
291 97 1 0.5897 -3.2118918054104015 10.385265036324988 2.470693428451076 1 0 0
290 97 1 0.5897 -1.7597711976170767 10.811714745091749 2.5050395141984656 1 0 0
188 63 1 0.5897 0.88344154093833 9.870414752318696 1.1881505540356192 0 0 0
200 67 1 0.5897 0.6122983841528451 7.868837664130943 2.3276853934508024 0 0 0
113 38 1 0.5897 -3.317764775656275 5.920179478570461 3.348490645849476 1 0 0
10 4 2 -1.1794 2.1198026929446243 6.388432643288429 4.670795262247138 0 0 0
187 63 2 -1.1794 1.0222762996180261 10.366408263651971 0.38129233426186465 0 0 0
224 75 1 0.5897 -0.2667420294652807 11.30150655931499 3.756713311961736 0 0 0
221 74 1 0.5897 4.497438873599627 10.594184127318393 2.7903050216735283 0 0 0
189 63 1 0.5897 1.9738435081563477 10.424998629394006 0.2963125307402672 0 0 0
240 80 1 0.5897 3.2034203374429904 7.311870710557463 1.0141572664751275 0 0 0
9 3 1 0.5897 -0.7048517362180808 5.77481351895224 4.48069026862621 0 0 0
114 38 1 0.5897 -3.339345141753519 5.746031545713836 1.8446193635721946 1 0 0
201 67 1 0.5897 2.085275415019508 8.208233595184025 2.410441655390016 0 0 0
238 80 2 -1.1794 3.7148580213571867 7.88918862179373 1.581096383227912 0 0 0
239 80 1 0.5897 3.712512520851961 8.732880507934903 1.129095516448261 0 0 0
199 67 2 -1.1794 1.2138024775885343 8.584315348531268 2.533769218892466 0 0 0
220 74 2 -1.1794 3.735771849984494 10.720472399883423 3.3561354833167063 0 0 0
245 82 1 0.5897 0.9824904505528718 9.580753473974427 4.039005077168598 0 0 0
174 58 1 0.5897 3.6937853575862887 9.197213766417855 4.436203529555044 0 0 0
254 85 1 0.5897 -1.7959278543111818 7.825307907157127 4.778385751309575 1 0 0
244 82 2 -1.1794 0.715436849944922 10.187209364563573 4.729813660263777 0 0 0
253 85 2 -1.1794 -2.438702237975831 8.534375092095702 4.766879206510106 1 0 0
82 28 2 -1.1794 2.251849166492927 6.179128424868784 0.0752252361942128 0 0 0
191 64 1 0.5897 0.552610836075857 9.90465539664865 8.689928747934529 0 0 0
8 3 1 0.5897 -0.5582490591303282 6.180171783153153 5.932101829315963 0 0 0
109 37 2 -1.1794 -4.180717520660744 6.46619715557914 7.272175964516038 1 0 0
111 37 1 0.5897 -5.096185897122963 6.7312517290726985 7.360388115145425 1 0 0
293 98 1 0.5897 -4.0440472574348005 10.275692062187494 7.066492920036511 1 0 0
190 64 2 -1.1794 0.3122917284103992 10.263995699786745 9.54405391841286 0 0 0
292 98 2 -1.1794 -4.967218985622431 10.038094647870842 7.152830982274766 1 0 0
172 58 2 -1.1794 3.7896439952693823 8.584969665821818 5.165727342307608 0 0 0
246 82 1 0.5897 0.5237184189302457 9.625983317619463 5.4811745641574925 0 0 0
294 98 1 0.5897 -5.048121070479125 9.711230174401425 8.048916658383424 1 0 0
837 279 1 0.5897 -6.0109234853041125 8.224256040177753 9.026969256300465 1 0 0
64 22 2 -1.1794 2.0153945182435216 7.051388207292793 8.058587441823153 0 0 0
110 37 1 0.5897 -4.115043556988914 6.1229393874662135 6.380942742341842 1 0 0
202 68 2 -1.1794 0.22566200382628798 8.91007694868437 7.163769923470523 0 0 0
203 68 1 0.5897 -0.5934422173003235 8.492957494579251 7.430686429199191 0 0 0
204 68 1 0.5897 0.90251924862911 8.267676348139274 7.376484762816603 0 0 0
588 196 1 0.5897 -1.2242390449450067 6.654198478234171 9.29960504771821 0 0 0
235 79 2 -1.1794 -2.0218653317998685 7.864003215210302 8.25975278609893 0 0 0
236 79 1 0.5897 -2.7967034169795295 7.4526575746165085 7.876812700075426 0 0 0
237 79 1 0.5897 -2.3712642955705325 8.537261952478948 8.84362465088942 0 0 0
302 101 1 0.5897 -2.1069661425441164 9.925541093312681 6.1042473466319525 1 0 0
301 101 2 -1.1794 -2.349666316168516 10.709112554745056 6.597541209891615 1 0 0
65 22 1 0.5897 2.3406227825977686 7.65652636249067 8.725200078553925 0 0 0
228 76 1 0.5897 1.7659567453008194 11.136959619683532 5.900670053775888 0 0 0
257 86 1 0.5897 -4.24430704333985 8.326872621532006 4.802470328758773 1 0 0
66 22 1 0.5897 2.7896568077484982 6.8212701770108355 7.544984018289125 0 0 0
303 101 1 0.5897 -1.5306659345870663 11.00672695979382 6.993595337115347 1 0 0
835 279 2 -1.1794 -5.500033827067177 8.79731448238196 9.598707554780585 1 0 0
7 3 2 -1.1794 -0.6007921943789718 6.5401413250201 5.046120646019675 0 0 0
12 4 1 0.5897 1.221390578122059 6.662265510334886 4.855182222263085 0 0 0
173 58 1 0.5897 3.2229624156803913 7.848354178969327 4.936740372603388 0 0 0
513 171 1 0.5897 -4.006512084386504 5.90781632365341 13.93733652597789 0 0 0
794 265 1 0.5897 -5.188401948042898 10.680131182915716 12.223267581153497 1 0 0
617 206 1 0.5897 -7.0275252963217305 7.1817892154388385 11.91508491041139 1 0 0
514 172 2 -1.1794 -1.0232649700140737 6.33946546090031 14.424842831545535 0 0 0
742 248 2 -1.1794 0.49334807672919423 8.039993719753321 11.327191713421108 0 0 0
724 242 2 -1.1794 0.7137361864748657 10.73365907796782 12.974883794786425 0 0 0
616 206 2 -1.1794 -6.435793325327866 6.464303495939039 12.141228598186556 1 0 0
693 231 1 0.5897 -2.324037076817053 9.610216655275506 10.785396617897835 0 0 0
649 217 2 -1.1794 -3.925846388826474 7.082278931649728 11.06354375083518 1 0 0
650 217 1 0.5897 -3.3851968541068893 7.567277620288846 11.68705860781523 1 0 0
651 217 1 0.5897 -4.722142856642208 6.870382300277396 11.55060438402572 1 0 0
795 265 1 0.5897 -5.651392987390015 9.704658719592942 11.162017133875052 1 0 0
744 248 1 0.5897 0.17545846760719064 7.409084603494087 10.681271303392704 0 0 0
793 265 2 -1.1794 -5.803403952070034 9.962598636997994 12.071301229375795 1 0 0
750 250 1 0.5897 -3.033219332169426 10.646798282989971 14.192114237133671 0 0 0
759 253 1 0.5897 -5.870595848350056 8.981049524651558 13.58815047802845 1 0 0
703 235 2 -1.1794 -1.957042048504528 8.699851605135281 12.251202372411838 0 0 0
704 235 1 0.5897 -1.0588428481160221 8.423627545871664 12.06935704633833 0 0 0
705 235 1 0.5897 -1.9025656970897629 9.155718758862402 13.091221103204688 0 0 0
743 248 1 0.5897 0.6074046716365156 8.851971059361379 10.83339850777296 0 0 0
678 226 1 0.5897 0.3776345127640326 9.252648398040463 14.065525381730625 0 0 0
836 279 1 0.5897 -4.853079339123177 8.218830654675166 10.002300408548962 1 0 0
586 196 2 -1.1794 -0.6041541106722383 6.079893889701378 9.748812245452429 0 0 0
691 231 2 -1.1794 -2.4133751207445306 9.995557326764352 9.913694198649374 0 0 0
587 196 1 0.5897 -1.0793490445218827 5.769731860757716 10.519724357975122 0 0 0
618 206 1 0.5897 -6.686808136113422 5.7518955310182776 11.553220588597615 1 0 0
663 221 1 0.5897 -6.630244936378977 5.808362475727979 13.716665554604125 1 0 0
726 242 1 0.5897 -0.03153805757864614 11.15985346340254 12.551746532840788 0 0 0
192 64 1 0.5897 0.8628759532011534 11.04090679298422 9.641098205073268 0 0 0
692 231 1 0.5897 -1.538169138530069 10.321863154056832 9.704685041639946 0 0 0
797 266 1 0.5897 -7.000237252606327 10.637212063193077 16.817915172940495 1 0 0
695 232 1 0.5897 -2.8215278317402497 9.945327884177269 18.283936138872107 0 0 0
741 247 1 0.5897 -5.9987226319127895 8.994285064086327 18.29697218166195 0 0 0
613 205 2 -1.1794 -7.571085127220336 6.531838910951659 16.9011388442689 1 0 0
740 247 1 0.5897 -6.360746471106868 7.734701902033219 17.53912367965262 0 0 0
568 190 2 -1.1794 -1.1724688138388304 7.144087159354579 17.792402737950752 0 0 0
333 111 1 0.5897 -8.29959884953226 9.52001160815889 18.50674618612848 1 0 -1
748 250 2 -1.1794 -2.2724211673738255 10.189721607883486 14.550414977480443 0 0 0
758 253 1 0.5897 -5.480778610041889 9.299970661229906 15.015990120654356 1 0 0
511 171 2 -1.1794 -3.7552166642642053 6.601030967382634 14.547741641394863 0 0 0
569 190 1 0.5897 -1.344404214583367 6.398700017714498 18.367749018980817 0 0 0
749 250 1 0.5897 -2.623177731263538 9.670629560883322 15.274142530236993 0 0 0
798 266 1 0.5897 -8.158624597051126 9.826218202124076 16.27727761207219 1 0 0
615 205 1 0.5897 -7.336411894603973 6.143607115028968 16.058174208311144 1 0 0
796 266 2 -1.1794 -7.9350845279151985 10.475303904770044 16.94440122447844 1 0 0
706 236 2 -1.1794 -3.092649499783457 8.805941963325681 16.76826911815364 0 0 0
707 236 1 0.5897 -3.942369420453443 8.501731067008683 17.087037109815583 0 0 0
708 236 1 0.5897 -2.476744945473248 8.125735419312345 17.04040782063298 0 0 0
739 247 2 -1.1794 -5.611028575384608 8.23765245414217 17.85720449423799 0 0 0
83 28 1 0.5897 -4.91440609965082 6.961387702668472 18.931178612013888 0 0 -1
696 232 1 0.5897 -2.2671326936446725 10.996928580365868 19.221410328754416 0 0 0
805 269 2 -1.1794 -5.4030755668126105 10.888726503502452 15.99085070147587 1 0 0
762 254 1 0.5897 -7.536263443431193 8.5607203794478 14.691022274697564 1 0 0
512 171 1 0.5897 -4.4667398453070515 7.238803986371651 14.492606458711037 0 0 0
807 269 1 0.5897 -4.725687771976232 11.344876000044884 16.49018741151812 1 0 0
570 190 1 0.5897 -0.4109908580548751 6.878697066642762 17.27670479877807 0 0 0
676 226 2 -1.1794 0.4759946903144785 8.609659561172034 14.767747082358532 0 0 0
694 232 2 -1.1794 -2.7895587755314137 10.1950369160328 19.20755554428517 0 0 0
548 183 1 0.5897 -3.582178770334113 5.89038357389298 16.164141722898997 0 0 0
614 205 1 0.5897 -7.406758458117711 5.837629703977384 17.53930767628757 1 0 0
84 28 1 0.5897 -3.961006819092403 5.839144455082684 18.580176869150506 0 0 -1
331 111 2 -1.1794 -8.528356629564378 8.891685988805909 19.191666365629317 1 0 -1
515 172 1 0.5897 -1.932715050582754 6.6139940398269355 14.541686181345906 0 0 0
757 253 2 -1.1794 -5.7406485444625 8.576310802957307 14.445838944953913 1 0 0
516 172 1 0.5897 -0.5202292299495346 7.152883614528778 14.463021803030955 0 0 0
280 94 2 -1.1794 -3.3235872257465946 13.853460022911458 2.5891821599958442 1 0 0
281 94 1 0.5897 -3.322177011867709 13.468179890087 3.4654809963537363 1 0 0
282 94 1 0.5897 -2.4473957862901985 14.225550344071772 2.4892311611048177 1 0 0
500 167 1 0.5897 -1.6764297576847214 15.818954960280857 0.33248489548693516 1 0 0
269 90 1 0.5897 -3.4585711398609997 12.930988178785045 1.122884654515099 1 0 0
423 141 1 0.5897 -2.3434687264196548 16.521177037538123 4.0252660154071505 1 0 0
313 105 2 -1.1794 -0.9547098491009356 14.73433945550269 1.6349002253007578 1 0 0
315 105 1 0.5897 -0.5866653174858123 14.068491372079093 1.0539957647110718 1 0 0
250 84 2 -1.1794 2.507661832714801 13.861169309342051 0.09491709078612409 0 0 0
368 123 1 0.5897 2.065788718049488 16.000661051663457 2.426109928201455 0 0 0
406 136 2 -1.1794 3.6926459434053953 15.41252033005047 1.9212244561575602 0 0 0
407 136 1 0.5897 4.47193606285519 14.901763914179822 2.1401404836078193 0 0 0
215 72 1 0.5897 2.0787152057518616 12.938289383128682 1.6430891711787554 0 0 0
252 84 1 0.5897 2.9665218398068482 14.403680470481929 0.7363537834208245 0 0 0
223 75 2 -1.1794 -0.582108677115321 11.988856722420666 3.169980958447438 0 0 0
225 75 1 0.5897 -0.7879405211465378 12.722696231984552 3.749088026564279 0 0 0
314 105 1 0.5897 -0.19674183291408465 15.234544861197852 1.9373496130705736 1 0 0
408 136 1 0.5897 4.013653619461127 16.10378084803473 1.3421580553042767 0 0 0
214 72 2 -1.1794 2.027174954540956 12.651902725671098 2.555068709338659 0 0 0
180 60 1 0.5897 2.0497501920348213 13.660611571222919 4.159371818936375 0 0 0
367 123 2 -1.1794 1.160750038077338 16.309654046417265 2.4653104894245947 0 0 0
216 72 1 0.5897 1.0962757930056561 12.484411383057077 2.701780744896603 0 0 0
184 62 2 -1.1794 5.34574480923181 12.365013825938917 0.21406903484131654 0 0 0
771 257 1 0.5897 -0.07326162122172208 11.834731020575074 0.036840480134406314 1 0 1
369 123 1 0.5897 1.0434316519985032 16.594444720476332 3.371699310113441 0 0 0
222 74 1 0.5897 3.184090866631311 11.341516136395773 2.880667260473094 0 0 0
306 102 1 0.5897 -4.421408237260787 11.41625167008925 3.9282509204885665 1 0 0
499 167 2 -1.1794 -2.3186902012046895 16.441364910734414 -0.00839162097474985 1 0 0
404 135 1 0.5897 -1.661362092857916 15.76444468597774 7.872106427966043 0 0 0
326 109 1 0.5897 -3.129250853308215 11.90725977181502 5.510395551439635 1 0 0
177 59 1 0.5897 0.1502295286188331 14.290473337485926 5.066742085804981 0 0 0
327 109 1 0.5897 -4.0860967863444335 13.046722337308863 5.789046756374759 1 0 0
405 135 1 0.5897 -2.6753143727139195 16.41235962125463 8.790825278090644 0 0 0
211 71 2 -1.1794 -0.3657598627905343 12.529013432649686 7.432019867433123 0 0 0
227 76 1 0.5897 1.4138279436225254 11.939981766404916 7.134934310085082 0 0 0
213 71 1 0.5897 -0.5989336186080894 13.12177546973837 6.717538836560761 0 0 0
212 71 1 0.5897 -0.5815149788306018 13.01544172097068 8.227761094278572 0 0 0
176 59 1 0.5897 -1.2849090022112906 14.771851200523619 5.08205787091611 0 0 0
232 78 2 -1.1794 1.9519212715294794 14.493991797256406 8.30514720883041 0 0 0
175 59 2 -1.1794 -0.751545797111075 13.979769972830931 5.146857548559485 0 0 0
234 78 1 0.5897 1.3285825434420886 15.026778243802886 7.811468569551416 0 0 0
370 124 2 -1.1794 -0.033141162644969135 16.1186571748679 7.2974347342213015 0 0 0
179 60 1 0.5897 2.058917503341619 13.283570697324087 5.625680211304731 0 0 0
277 93 2 -1.1794 -4.5234215936240085 13.710627950140458 7.359161353436076 1 0 0
278 93 1 0.5897 -3.8737285651065987 14.37854181673191 7.57819897766338 1 0 0
690 230 1 0.5897 1.9487307848747815 13.08363684462508 9.322882945394372 0 0 0
425 142 1 0.5897 -4.200685839214479 15.848280849650022 4.813184174817686 1 0 0
403 135 2 -1.1794 -2.497538183507875 15.604283410484095 8.309559520517645 0 0 0
325 109 2 -1.1794 -3.718515265606894 12.52404931261153 5.076286912063457 1 0 0
267 89 1 0.5897 -3.93525406699108 12.511268442817638 8.689524163301032 1 0 0
279 93 1 0.5897 -5.363576217693961 14.11021706173814 7.584096827915193 1 0 0
756 252 1 0.5897 -1.5220896990555248 14.471528780890347 9.466437147014087 0 0 0
226 76 2 -1.1794 2.1478630531226255 11.710738297168785 6.5649432653343425 0 0 0
340 114 2 -1.1794 3.4395531085121256 16.221166681132075 5.253154432061809 0 0 0
233 78 1 0.5897 2.7131964121673944 14.42039432931174 7.729562088712013 0 0 0
372 124 1 0.5897 0.08036144219387831 16.597004962800824 6.476088736029946 0 0 0
371 124 1 0.5897 0.08359736709969523 16.780607003922036 7.978995052502916 0 0 0
341 114 1 0.5897 2.9948993733898055 15.374171326897176 5.2850654200789595 0 0 0
1004 335 1 0.5897 -5.221769364750597 16.853054640150113 9.096926845487298 1 0 0
462 154 1 0.5897 -5.099127622099775 16.91305858359373 6.570538646772688 1 0 0
422 141 1 0.5897 -2.4111337941434003 16.852379572166086 5.501121671614506 1 0 0
265 89 2 -1.1794 -3.829575021626742 12.285067819558794 9.613676058327165 1 0 0
266 89 1 0.5897 -3.3077989295636145 11.482720246857514 9.606096719238742 1 0 0
421 141 2 -1.1794 -2.425193045413605 16.116607781245158 4.888958987215017 1 0 0
178 60 2 -1.1794 1.941031661233696 14.028580432366931 5.036415784998658 0 0 0
785 262 1 0.5897 -7.2730743979165915 14.650637820829212 12.032217570430557 1 0 0
728 243 1 0.5897 -3.0421464264020948 11.86190178622601 12.465856103037188 0 0 0
755 252 1 0.5897 -0.1832377495333013 14.37828820277792 10.166839768098374 0 0 0
718 240 2 -1.1794 -1.3350412503657765 12.20387240592369 11.981524408632197 0 0 0
912 304 1 0.5897 1.2204894555242864 15.229711115144681 11.593965784981826 0 0 0
720 240 1 0.5897 -1.1486108692691888 12.931464571487798 12.57494878463373 0 0 0
917 306 1 0.5897 -2.3454236171637515 16.856292648797876 13.805373349637293 0 0 0
871 291 2 -1.1794 -1.8216481220676934 16.321787859206395 12.130218862973937 0 0 0
831 277 1 0.5897 -7.3720462311828285 12.156557964863223 14.067349257529738 1 0 0
784 262 2 -1.1794 -6.457816620586028 14.154836526987324 12.107160844062795 1 0 0
729 243 1 0.5897 -3.936973498127683 12.60497855738495 13.43493789589657 0 0 0
911 304 1 0.5897 -0.14327636636050967 15.885894926665655 11.627130715492212 0 0 0
910 304 2 -1.1794 0.5932427691574378 15.69986132016099 11.044732166905863 0 0 0
1005 335 1 0.5897 -4.7443408170730486 15.884520264269362 10.157976890627001 1 0 0
727 243 2 -1.1794 -3.8801827459107945 11.797617634343089 12.923867764540372 0 0 0
719 240 1 0.5897 -1.2719118046285423 12.58578732037921 11.106027091551452 0 0 0
786 262 1 0.5897 -6.480614650864688 13.787734858030438 12.990941923818674 1 0 0
817 273 2 -1.1794 -3.8422784425427934 14.641865250066886 11.246179572879221 1 0 0
818 273 1 0.5897 -4.65884152895714 14.444953278123542 11.705161847950249 1 0 0
819 273 1 0.5897 -3.6136367736879587 13.825356953216327 10.802063175904904 1 0 0
873 291 1 0.5897 -2.471254088509884 15.648050648563013 11.929532304449129 0 0 0
1003 335 2 -1.1794 -5.490941087202987 16.43094100369563 9.912826217909004 1 0 0
688 230 2 -1.1794 2.1206863101516777 12.326260615727913 9.882315853373896 0 0 0
754 252 2 -1.1794 -0.8705569995103559 13.840965714410297 9.772998722275 0 0 0
846 282 1 0.5897 0.4303668915599399 16.850701164649607 14.024803884791229 0 0 0
682 228 2 -1.1794 -0.999461950882294 13.89401621302358 14.112739932843622 0 0 0
773 258 1 0.5897 -6.554322967952443 12.722229778805064 10.829901300489785 1 0 0
725 242 1 0.5897 1.036746816270358 11.381316803092506 13.601400555097564 0 0 0
962 321 1 0.5897 -6.080962657922175 16.88208426714899 12.809336937069357 1 0 0
772 258 2 -1.1794 -6.4974443736752026 12.288090123792553 9.978612345687353 1 0 0
684 228 1 0.5897 -0.4595215212981332 14.634209078064226 14.38982752450407 0 0 0
774 258 1 0.5897 -5.558599499129276 12.181373198312544 9.825904107282323 1 0 0
806 269 1 0.5897 -5.797145392867361 11.56851957456645 15.444284200862725 1 0 0
683 228 1 0.5897 -0.9918537446923805 13.297932524421432 14.861647464418835 0 0 0
717 239 1 0.5897 -2.6685039883206114 12.443537560880563 16.957082832867528 0 0 0
783 261 1 0.5897 -8.517451758985654 14.367338841886243 16.857287705648005 1 0 0
927 309 1 0.5897 -5.496565373528595 16.742046644428072 14.976533554860067 1 0 0
681 227 1 0.5897 -3.8806026084705723 13.68758988601209 15.376154005521428 0 0 0
830 277 1 0.5897 -7.131686160490433 13.134008298016454 15.198288807754883 1 0 0
679 227 2 -1.1794 -3.737973399747748 14.087505511440959 14.518210557824396 0 0 0
715 239 2 -1.1794 -3.6021865968794797 12.62408870421167 17.065546505690143 0 0 0
716 239 1 0.5897 -3.660782621842225 13.093372304831856 17.897860153974058 0 0 0
874 292 2 -1.1794 -3.351525958700524 16.122527251171505 16.95871154921595 0 0 0
907 303 2 -1.1794 -5.812321219885989 15.613305356522396 18.01432965973921 0 0 0
875 292 1 0.5897 -3.1550070643488306 16.412131425210845 16.06770864515031 0 0 0
876 292 1 0.5897 -2.7132616797174736 15.43078545759853 17.1324378752797 0 0 0
736 246 2 -1.1794 -1.167922110139278 14.607291075552304 17.791518198168568 0 0 0
909 303 1 0.5897 -5.048014339563619 15.865004472949677 17.495953174099355 0 0 0
781 261 2 -1.1794 -7.659311396854955 13.96667352016651 16.71882357478888 1 0 0
782 261 1 0.5897 -7.551107772731886 13.36954023303665 17.4590738296778 1 0 0
730 244 2 -1.1794 -1.0917071450911733 12.041395715036051 16.057007275791392 0 0 0
908 303 1 0.5897 -6.293359777901427 15.005364706693033 17.45281256678043 0 0 0
737 246 1 0.5897 -0.8814586529577912 15.347399710733773 18.3267352738308 0 0 0
844 282 2 -1.1794 0.5358402699017244 16.11292746870675 14.625418664750127 0 0 0
251 84 1 0.5897 -4.77481194976638 14.546460228424975 18.978417609427225 0 0 -1
185 62 1 0.5897 -1.4150269451444553 13.188892548913326 18.845934276129718 0 0 -1
738 246 1 0.5897 -0.37257140389775145 14.307086131492937 17.351645423794835 0 0 0