LAMMPS data file via write_data, version 30 Jul 2021, timestep = 2500000

1920 atoms
2 atom types
1280 bonds
1 bond types
640 angles
1 angle types

-0.09941407872550023 24.82941507872445 xlo xhi
-0.1172796432819716 24.847280643277134 ylo yhi
-0.11220654589025969 22.922206545893637 zlo zhi

Masses

1 1.008
2 15.999

Pair Coeffs # lj/cut/tip4p/long/omp

1 0 0
2 0.21084 3.1668

Bond Coeffs # harmonic/omp

1 450 0.9572

Angle Coeffs # harmonic/omp

1 55 104.52

Atoms # full

1 1 2 -1.1794 4.265468859481365 1.4065102805184386 3.8224947833628775 0 0 0
2 1 1 0.5897 4.276249637986575 2.0799791879561425 4.502543994882244 0 0 0
3 1 1 0.5897 5.1035343780275815 1.5076317403731516 3.3712407492733294 0 0 0
4 2 2 -1.1794 2.837375362783797 1.339629109265076 1.4311867659311253 0 0 0
5 2 1 0.5897 3.301265257601793 1.381343078842395 2.2674309687792755 0 0 0
6 2 1 0.5897 1.918937521424359 1.4841077760062884 1.6587910256986196 0 0 0
9 3 1 0.5897 4.900161154336057 4.397538277477317 3.2296425771191326 0 0 0
10 4 2 -1.1794 3.1080678505915924 4.425428722102581 3.3869765518380475 0 0 0
11 4 1 0.5897 2.704694994718415 5.154262551503442 3.858384613358418 0 0 0
12 4 1 0.5897 2.779211117012277 4.507241594448875 2.4917583759604574 0 0 0
13 5 2 -1.1794 1.3636836305917532 3.1129633546376705 4.898643179622632 0 0 0
14 5 1 0.5897 2.0477446652485645 3.4211609785437784 4.3042603489782865 0 0 0
15 5 1 0.5897 1.4467152355035604 2.1595507218396164 4.886227712888282 0 0 0
20 7 1 0.5897 3.6788856735640287 2.7485076460599607 0.6737011801646211 0 0 0
22 8 2 -1.1794 0.9691359505711343 4.4877691536186495 1.201232582088426 0 0 0
24 8 1 0.5897 0.6670353878530129 5.1210515117724285 0.550197489428463 0 0 0
21 7 1 0.5897 5.071345979839721 3.109546880664243 1.1454093607506066 0 0 0
23 8 1 0.5897 0.4208000553642254 4.652072854466657 1.9684093966815137 0 0 0
27 9 1 0.5897 4.433875455094428 5.227867027885914 0.22248438027813316 0 0 0
19 7 2 -1.1794 4.330164636229056 3.449285967193731 0.6439775108997072 0 0 0
7 3 2 -1.1794 5.853461741282465 4.468536221299712 3.278400124676773 0 0 0
387 129 1 0.5897 4.0789682524590525 0.021128017742970157 0.8924132049105991 0 1 0
28 10 2 -1.1794 1.3306417947623743 0.22140000367185753 5.002645459128172 0 0 0
867 289 1 0.5897 4.129851936179368 0.050988101829104154 5.310915352406934 0 1 0
29 10 1 0.5897 2.221135799958984 0.0629123374658054 4.6893783168770256 0 0 0
98 33 1 0.5897 -0.03646126671457413 5.3599175404133685 3.975129449405225 1 0 0
16 6 2 -1.1794 0.1366920488064837 1.2715856234917395 2.016719428149221 0 0 0
150 50 1 0.5897 1.7287079918393922 5.9668977676383905 5.462796089038244 0 0 0
47 16 1 0.5897 5.969326228490374 0.6612760292021888 1.4249693121367244 0 0 0
8 3 1 0.5897 6.00940423238057 5.19859408158967 3.8774173944502777 0 0 0
496 166 2 -1.1794 -0.07876337388959245 1.6307911708435785 7.779496919106825 0 0 0
1347 449 1 0.5897 4.618426608037818 0.41117667875284725 11.121110999559136 0 1 0
505 169 2 -1.1794 4.31628258245464 5.933786067184112 6.370518911369514 0 0 0
508 170 2 -1.1794 1.3998614276994163 0.05330208914190507 10.489579023957551 0 0 0
528 176 1 0.5897 5.774034962047173 2.260204470708898 6.968827655767397 0 0 0
579 193 1 0.5897 0.2242386343041453 5.2625622896779705 9.602718831677507 1 0 0
482 161 1 0.5897 5.521757013038958 1.53986885305746 9.307865592329296 0 0 0
487 163 2 -1.1794 5.736075758425794 4.566965868926227 8.996726702090108 0 0 0
483 161 1 0.5897 4.585171180066002 2.186145306272325 10.30633262684244 0 0 0
503 168 1 0.5897 0.9156736534209429 4.808672382711613 7.500645114189241 0 0 0
501 167 1 0.5897 4.2771266075780945 3.9532856913620353 6.0506753820584755 0 0 0
486 162 1 0.5897 3.022288720680196 0.8514300603849255 7.584315361122571 0 0 0
484 162 2 -1.1794 2.7597087568811425 1.7633318562858908 7.708976577516907 0 0 0
500 167 1 0.5897 3.8169733440559055 2.6286027982488838 6.620768604663833 0 0 0
491 164 1 0.5897 2.80964491944815 4.430221108723385 8.420452618842337 0 0 0
578 193 1 0.5897 0.059246495227608775 3.7655566193844865 9.45048086604502 1 0 0
629 210 1 0.5897 1.9565153111157425 5.963346056118803 10.754622530185198 0 0 0
494 165 1 0.5897 1.4179912421870302 1.738016882086023 10.774128001313727 0 0 0
485 162 1 0.5897 3.2571128914367593 2.053911167510765 8.473417511819946 0 0 0
489 163 1 0.5897 4.785406869155299 4.554684007601232 9.107569489181182 0 0 0
502 168 2 -1.1794 1.6590705372882588 4.848097332551787 6.8989585945659995 0 0 0
490 164 2 -1.1794 3.186891765003289 4.467336995801389 9.299399372254712 0 0 0
492 164 1 0.5897 2.6568975755377435 3.8586609278480677 9.81395369023508 0 0 0
498 166 1 0.5897 0.8737799421448845 1.6575679797281089 7.6892418951553525 0 0 0
504 168 1 0.5897 1.5136296187049807 4.124108460677165 6.2900139030422 0 0 0
499 167 2 -1.1794 4.365116031042928 3.0074493937627413 5.9335902695914315 0 0 0
481 161 2 -1.1794 4.642817629139525 1.4651390971881786 9.67946776617422 0 0 0
493 165 2 -1.1794 1.5398057019902414 2.687332941659695 10.775783893959936 0 0 0
527 176 1 0.5897 5.828897318086933 0.7490985935083726 7.0392769706205485 0 0 0
488 163 1 0.5897 6.050372025931053 3.844233390323502 9.539872153144085 0 0 0
961 321 2 -1.1794 4.407103298367396 1.4479788035762031 15.698674248633361 0 0 0
962 321 1 0.5897 5.151854803276371 1.5711219223370716 15.110114622151814 0 0 0
963 321 1 0.5897 4.740065884887719 0.876774097758351 16.390792207662724 0 0 0
964 322 2 -1.1794 2.879576880263143 1.446918814022577 13.513120094257856 0 0 0
965 322 1 0.5897 3.3402132651407426 1.345603343608762 14.346059440542705 0 0 0
966 322 1 0.5897 1.9559982465419647 1.5117999870120093 13.756010755716748 0 0 0
970 324 2 -1.1794 3.1445194151897193 4.70211065173702 15.085250619517835 0 0 0
971 324 1 0.5897 4.09672464304736 4.604866397400841 15.092437022026518 0 0 0
972 324 1 0.5897 2.82071807126358 3.9278559814729377 15.545461209777335 0 0 0
973 325 2 -1.1794 1.4770418914901196 2.660451262026826 16.060259640744707 0 0 0
975 325 1 0.5897 0.7911090000414686 3.3160658737947415 15.934581158553165 0 0 0
982 328 2 -1.1794 1.2448480425378474 4.426057294220765 12.964847658188852 0 0 0
983 328 1 0.5897 1.0877606338133885 5.236958112263022 12.481247027277213 0 0 0
984 328 1 0.5897 1.9838468649994745 4.628110519529067 13.538668870603448 0 0 0
990 330 1 0.5897 1.291120992870419 0.8724460145612565 16.48103852750812 0 0 0
981 327 1 0.5897 5.142610580171421 2.7571722209578082 12.49805081599249 0 0 0
979 327 2 -1.1794 4.416844931552688 3.1301797018882036 11.997732576868941 0 0 0
980 327 1 0.5897 3.6317066880271565 2.8463514987730387 12.465917357806049 0 0 0
986 329 1 0.5897 4.330165170402331 4.912225908861763 12.070146895454434 0 0 0
1008 336 1 0.5897 5.75976587311209 1.076518894595344 13.013109411862189 0 0 0
1058 353 1 0.5897 0.03234375696687805 4.652874953162371 14.335967960762636 1 0 0
1109 370 1 0.5897 0.7848082667126448 5.846557787627455 16.28048364204605 0 0 0
1110 370 1 0.5897 2.2905033966763213 5.972610627634407 16.374452333102724 0 0 0
985 329 2 -1.1794 4.5109843902889395 5.844569709309704 12.188868025449427 0 0 0
1346 449 1 0.5897 3.903050018881494 0.2529998068531779 12.445924969093626 0 1 0
974 325 1 0.5897 1.8137419259035301 2.8309492211607252 16.939923471590518 0 0 0
967 323 2 -1.1794 5.866017137379354 4.640240181439819 15.050949700125937 0 0 0
976 326 2 -1.1794 0.022507539718857106 1.4267063230993389 13.412139264725342 0 0 0
987 329 1 0.5897 3.9555922014141514 6.1050611194775115 12.92365005120037 0 0 0
1345 449 2 -1.1794 4.641280348521611 -0.0852541031051468 11.939177640302049 0 1 0
988 330 2 -1.1794 1.2969038888018034 -0.08405091803560799 16.44756202600659 0 0 0
495 165 1 0.5897 1.189438334369027 2.9727382359660393 11.61958984853568 0 0 0
1468 490 2 -1.1794 1.5229652143322263 -0.03749105071488265 22.092654696969657 0 0 0
1488 496 1 0.5897 6.1322489966505795 0.7506192740029014 19.047919625493858 0 0 0
1826 609 1 0.5897 4.040903017309211 -0.029502894210035976 18.255156562921503 0 1 0
1455 485 1 0.5897 1.4778916631605172 3.502437247209924 22.797513835725937 0 0 0
1538 513 1 0.5897 0.22271048537060112 3.6958542785001853 21.149840708595434 1 0 0
1456 486 2 -1.1794 0.17706960135427435 1.5210447563965488 19.42712545084831 0 0 0
1447 483 2 -1.1794 5.83540649956754 4.557937825781225 20.889478402231006 0 0 0
1590 530 1 0.5897 2.0813945136200602 5.94474716720726 21.90721124123569 0 0 0
1461 487 1 0.5897 5.3550321164596735 2.795291152016512 18.502711064092534 0 0 0
1452 484 1 0.5897 2.8626534797500085 4.841805702485933 19.729101195743922 0 0 0
1463 488 1 0.5897 1.2860215841661264 4.793769339732723 18.128317018350696 0 0 0
1466 489 1 0.5897 4.400926502464513 4.778431663249763 17.79536900511394 0 0 0
1460 487 1 0.5897 4.5309071382358965 2.637587357878744 17.2426043424593 0 0 0
1459 487 2 -1.1794 4.539933089989434 3.0815497290784384 18.090557294817838 0 0 0
1446 482 1 0.5897 3.141036892008632 2.0290844559827765 18.894299305371785 0 0 0
1453 485 2 -1.1794 1.6562911510537879 2.910353799057834 22.06690954968158 0 0 0
1450 484 2 -1.1794 3.134485628202494 4.958299198460965 20.63947432826087 0 0 0
1454 485 1 0.5897 2.2262462568569243 3.4125628309254106 21.48457806224687 0 0 0
1462 488 2 -1.1794 1.534428859002753 4.039306260953156 18.662360985625902 0 0 0
1444 482 2 -1.1794 2.8918186925227256 1.175993343893479 19.249569510388316 0 0 0
1451 484 1 0.5897 4.08898931839783 5.0174882013131175 20.599212398029252 0 0 0
1442 481 1 0.5897 3.978596107489082 1.6295521206796832 20.797753493052603 0 0 0
1469 490 1 0.5897 1.515666927203193 0.9158080953456644 22.007759540195416 0 0 0
1464 488 1 0.5897 0.8405347140645233 3.970527503572951 19.318106406804255 0 0 0
1443 481 1 0.5897 4.372311483806303 2.193819516758507 22.146250779200315 0 0 0
1441 481 2 -1.1794 4.632994238921399 1.5463024034340103 21.49133560670314 0 0 0
1445 482 1 0.5897 1.955751296149184 1.2564119509199727 19.432647215244497 0 0 0
1449 483 1 0.5897 6.066828567487688 3.7186852552628165 21.28719884321365 0 0 0
1539 513 1 0.5897 0.10567758508334454 5.200196030671307 21.028707720998085 1 0 0
1467 489 1 0.5897 5.12062952615524 6.037322906757776 18.229870057548133 0 0 0
1465 489 2 -1.1794 4.313483554723363 5.731303085117491 17.816269762256585 0 0 0
386 129 1 0.5897 4.888068225705158 -0.10320301061419733 22.653323686701132 0 1 -1
121 41 2 -1.1794 4.55928539055189 7.7361303868436195 4.137324356236637 0 0 0
122 41 1 0.5897 3.8829733628411565 7.707125059103823 3.4605730858295445 0 0 0
123 41 1 0.5897 5.371472324495554 7.531838663639094 3.673832128429217 0 0 0
124 42 2 -1.1794 2.9006956476631935 7.675415969969946 1.8803772668826622 0 0 0
125 42 1 0.5897 3.2372760521853183 6.884100759247916 1.4600780076245143 0 0 0
126 42 1 0.5897 3.4160941633335913 8.386716200534824 1.5002022667045736 0 0 0
129 43 1 0.5897 5.295564164826278 10.875601856005677 3.389729008249722 0 0 0
130 44 2 -1.1794 3.4126805818341595 11.02152746586808 3.7291088955768203 0 0 0
132 44 1 0.5897 2.8424897116952352 10.26514172767246 3.8665080073363933 0 0 0
133 45 2 -1.1794 1.5963144005464556 9.06585193097702 4.714870394363286 0 0 0
135 45 1 0.5897 0.8452636437458866 9.277633836568103 4.160540502324673 0 0 0
137 46 1 0.5897 0.9903088528568278 7.76447971349568 2.052080973308031 0 0 0
139 47 2 -1.1794 4.5976594370698685 9.60955156599484 0.49570441371388085 0 0 0
142 48 2 -1.1794 1.3001254478160484 10.662363571639977 1.3003081452911267 0 0 0
143 48 1 0.5897 2.1238832011975988 10.707539864219973 1.7856913198002358 0 0 0
144 48 1 0.5897 1.262656686398725 11.485863371226428 0.8139598274059623 0 0 0
149 50 1 0.5897 1.6492304673402218 7.275935430619304 4.706724801827992 0 0 0
131 44 1 0.5897 2.9789890107145145 11.736584557546966 4.194646632205483 0 0 0
621 207 1 0.5897 4.644107774431204 9.097654666918011 5.3305616141295475 0 0 0
140 47 1 0.5897 4.570093454428792 10.556827080229102 0.36171288960387304 0 0 0
148 50 2 -1.1794 1.578753357976389 6.328672767853686 4.589384024136447 0 0 0
134 45 1 0.5897 1.3193212283477398 9.310144200649374 5.597948366872748 0 0 0
168 56 1 0.5897 5.832555831676573 8.471761286791455 1.5366660121839888 0 0 0
507 169 1 0.5897 4.310435607682779 6.523955974413487 5.616965500951887 0 0 0
218 73 1 0.5897 -0.015081042119981292 11.112208025278008 2.6944574952454188 1 0 0
25 9 2 -1.1794 4.405513866827101 6.181658487595295 0.2967671323238902 0 0 0
26 9 1 0.5897 5.222096376823841 6.412234725856345 0.739744481699204 0 0 0
136 46 2 -1.1794 0.04887815716388377 7.652816584906987 2.1841406022566887 0 0 0
270 90 1 0.5897 0.9169337421964778 12.335578106690665 4.698547538929962 0 0 0
145 49 2 -1.1794 4.481978673559106 12.26046986670817 0.6434343949511719 0 0 0
1101 367 1 0.5897 4.378310515560283 8.661528352258284 11.185084487912848 0 0 0
628 210 2 -1.1794 1.0480015910777762 6.264599763922422 10.74872384970333 0 0 0
750 250 1 0.5897 1.359653237104201 12.094118817757217 11.25022174085029 0 0 0
616 206 2 -1.1794 0.00252841849573536 7.689834742503552 7.9467757923695554 0 0 0
648 216 1 0.5897 5.599038291359808 6.974335176356739 7.168628058867317 0 0 0
604 202 2 -1.1794 2.795506724786072 7.854547879129705 7.736697858884777 0 0 0
613 205 2 -1.1794 1.3974710180706795 8.967267013211751 10.549766283104603 0 0 0
625 209 2 -1.1794 4.442365349714936 12.321711365817263 6.521696094140974 0 0 0
620 207 1 0.5897 5.294741175711723 8.951837828462821 6.689729200778371 0 0 0
610 204 2 -1.1794 3.2748719267386903 10.54268473887631 9.065844951401525 0 0 0
647 216 1 0.5897 5.7487013524572665 7.736186628559357 8.468239579997958 0 0 0
607 203 2 -1.1794 6.066050462564311 10.711311178481896 9.388405255984967 0 0 0
615 205 1 0.5897 0.5681391133229925 9.2915510508175 10.198710162816283 0 0 0
614 205 1 0.5897 2.068004608259467 9.420393288987166 10.03865246751433 0 0 0
606 202 1 0.5897 1.8431693032381462 7.792259096751794 7.8099999858973925 0 0 0
699 233 1 0.5897 0.13867320507174094 10.708747762576959 8.450386213074328 1 0 0
603 201 1 0.5897 4.011358906287094 7.384678510367733 9.246965290862077 0 0 0
601 201 2 -1.1794 4.671464693754302 7.48616523002498 9.932667477296254 0 0 0
611 204 1 0.5897 4.231400411447787 10.563144013774851 9.094787536939977 0 0 0
630 210 1 0.5897 1.1119321668737725 7.219356784839122 10.72896443829839 0 0 0
623 208 1 0.5897 2.01547399583501 10.897887258041216 7.785348491275674 0 0 0
698 233 1 0.5897 -0.021007285213156868 11.38228911801224 9.79674707231424 1 0 0
622 208 2 -1.1794 1.3075855491600918 10.70600852190669 7.170281883428236 0 0 0
624 208 1 0.5897 1.4565579036767193 11.304729689134062 6.438498071718577 0 0 0
605 202 1 0.5897 2.954868777594865 8.74802901900208 7.4327948402667605 0 0 0
612 204 1 0.5897 3.0053735585566805 11.379447834033742 9.44436830131658 0 0 0
619 207 2 -1.1794 4.732011134743914 9.533214534206467 6.178361646145463 0 0 0
626 209 1 0.5897 4.606255157157507 11.402907629539742 6.309579444385063 0 0 0
602 201 1 0.5897 4.480770945559134 6.7845244490370336 10.55513801703617 0 0 0
506 169 1 0.5897 3.6575169700853865 6.295112962966668 6.963533374311128 0 0 0
646 216 2 -1.1794 6.11918156830788 7.659064872395767 7.589014243700716 0 0 0
1081 361 2 -1.1794 4.864413096241319 7.603678225357057 15.71118813062226 0 0 0
1082 361 1 0.5897 4.735803988428421 8.305012568215181 16.349719675511786 0 0 0
1083 361 1 0.5897 4.9018369286505825 6.804646204090378 16.236786139581334 0 0 0
1084 362 2 -1.1794 2.8562867279294695 7.526588541926335 13.712785415331718 0 0 0
1085 362 1 0.5897 3.4118779069995204 7.602961185873677 14.488489301730704 0 0 0
1086 362 1 0.5897 3.25823764277304 8.11208554433685 13.071075668858143 0 0 0
1089 363 1 0.5897 5.267399849123531 10.744317449898581 15.139667952691546 0 0 0
1090 364 2 -1.1794 3.361874970344388 10.895592235972396 15.04752223495803 0 0 0
1091 364 1 0.5897 3.0615276453830202 11.743058343229407 15.375653112852659 0 0 0
1092 364 1 0.5897 2.809235039581102 10.255313501380963 15.495599600690563 0 0 0
1095 365 1 0.5897 1.0637919541349345 9.509392137936207 16.087065179501533 0 0 0
1097 366 1 0.5897 1.01351845459376 7.753006317874053 13.704894142936586 0 0 0
1099 367 2 -1.1794 4.276270345932493 9.154233183703994 11.999347761740161 0 0 0
1100 367 1 0.5897 5.0355049401655725 8.906105783982364 12.526794243318875 0 0 0
1102 368 2 -1.1794 1.8725186990984306 10.88743366086786 12.625756206754087 0 0 0
1104 368 1 0.5897 2.710490352063635 10.85467155387283 13.087216232979404 0 0 0
1093 365 2 -1.1794 1.771843148942452 9.155945119356689 16.625524910404632 0 0 0
1103 368 1 0.5897 1.9011664735860534 10.144353639125283 12.023152104753768 0 0 0
1094 365 1 0.5897 1.5914814951138299 8.217187526037861 16.672973940200475 0 0 0
1107 369 1 0.5897 4.593802173071265 11.203009100121582 12.148409496337445 0 0 0
1108 370 2 -1.1794 1.478219261343642 6.291095185803802 16.768092635540196 0 0 0
1177 393 2 -1.1794 0.2100740789329919 10.581605491381648 14.724549704923774 1 0 0
1096 366 2 -1.1794 0.07033342358130362 7.662887650343271 13.568950721313566 0 0 0
1178 393 1 0.5897 0.5427023906162854 11.274069252893701 15.295498652819697 1 0 0
1105 369 2 -1.1794 4.647665045375498 12.110096981688658 12.449004134989522 0 0 0
1128 376 1 0.5897 5.91381855166093 7.039615167411388 12.990150214503025 0 0 0
1179 393 1 0.5897 0.6946917633200788 10.691576353434256 13.906449813166496 1 0 0
1587 529 1 0.5897 4.871459108141009 11.39301780840774 18.122690709783292 0 0 0
1588 530 2 -1.1794 1.2291073291539305 6.302533259437038 22.155757819725178 0 0 0
1577 526 1 0.5897 -0.04934650711465928 8.270983917792552 18.699760817685373 0 0 0
1572 524 1 0.5897 4.197529427239567 10.305724843048733 20.628606067532083 0 0 0
1658 553 1 0.5897 0.05532450951184359 9.979445658557374 21.038623326580954 1 0 0
1565 522 1 0.5897 1.8909097843939588 7.870264620239547 19.452945299514028 0 0 0
1574 525 1 0.5897 1.6362284250429893 9.542017240870724 22.888942323740405 0 0 0
1567 523 2 -1.1794 6.00515147680231 10.377012566666957 20.611650366083065 0 0 0
1584 528 1 0.5897 1.5643564660187137 10.414886715060675 17.936697230247862 0 0 0
1581 527 1 0.5897 4.929876874225098 9.003996744950786 18.27828704966558 0 0 0
1230 410 1 0.5897 1.594082509475047 12.30079133465259 17.207590615010943 0 0 0
1576 526 2 -1.1794 0.049843526568053936 7.5699747228682845 19.34387424197009 0 0 0
1589 530 1 0.5897 1.3844000944736905 7.241045720289286 22.26122825499042 0 0 0
1571 524 1 0.5897 2.8395715512499495 10.600799277665802 20.028024243564765 0 0 0
1573 525 2 -1.1794 1.7791785186368732 9.041177809074682 22.085875727782362 0 0 0
1562 521 1 0.5897 4.57101672674597 7.281317755835416 21.953516419447148 0 0 0
1564 522 2 -1.1794 2.837110988279096 7.966453364871068 19.344991384730925 0 0 0
1582 528 2 -1.1794 1.533561905260335 11.070806694375662 18.633096727052767 0 0 0
1579 527 2 -1.1794 4.333495424845559 9.538586071672169 17.75415483294932 0 0 0
1583 528 1 0.5897 0.7253739078791018 10.878384676510674 19.10850274072473 0 0 0
1561 521 2 -1.1794 4.592134157646487 7.974066987208754 21.29337310482835 0 0 0
1575 525 1 0.5897 2.272623089974134 9.63325196055353 21.518323476366856 0 0 0
1563 521 1 0.5897 3.7887386743300495 7.848892955153406 20.788301251845073 0 0 0
1570 524 2 -1.1794 3.3506569760232865 10.703323162031008 20.830845435622763 0 0 0
1580 527 1 0.5897 3.4592550796173995 9.268654526272867 18.035285297212848 0 0 0
1566 522 1 0.5897 3.0969978834473575 7.209282916821898 18.820321383329155 0 0 0
1585 529 2 -1.1794 4.734171980230178 12.338801892324765 18.17455037794221 0 0 0
1608 536 1 0.5897 5.7290361481441066 7.709568137942931 19.797555295771097 0 0 0
1709 570 1 0.5897 0.7523204954675488 11.897860364282673 21.688316740635575 0 0 0
1606 536 2 -1.1794 6.100341681168347 7.765257368127191 18.91705573070677 0 0 0
1710 570 1 0.5897 2.241145075452827 11.982624417661144 21.94914647808508 0 0 0
141 47 1 0.5897 4.460081324891481 9.239767914773827 22.658020359960357 0 0 -1
241 81 2 -1.1794 4.512989594288227 13.825650871365893 4.340354583663044 0 0 0
242 81 1 0.5897 4.3606005942873285 13.160183453098172 5.01123232707044 0 0 0
243 81 1 0.5897 3.830657430571639 13.669041207658886 3.687562987282105 0 0 0
244 82 2 -1.1794 2.9089001608491842 13.781819327363865 2.197676707872629 0 0 0
245 82 1 0.5897 1.9659269290653665 13.928728345494402 2.1240421969537864 0 0 0
246 82 1 0.5897 3.3044054237607043 14.560955412993946 1.8070069919242344 0 0 0
250 84 2 -1.1794 3.2263140950326683 17.34687488700209 3.6952948081095074 0 0 0
251 84 1 0.5897 2.906195872509952 17.260418305717447 2.797357705781537 0 0 0
252 84 1 0.5897 4.166417964362153 17.178298253375495 3.6321919971075998 0 0 0
253 85 2 -1.1794 1.6836270563095184 15.338093718445482 4.805414766493389 0 0 0
255 85 1 0.5897 2.396514621807712 15.863907695850706 4.442828966516354 0 0 0
259 87 2 -1.1794 4.389212403676342 15.733836531071876 0.772193089269409 0 0 0
262 88 2 -1.1794 1.602056219694649 16.921707052779965 1.4013280252586027 0 0 0
263 88 1 0.5897 1.7270716924414793 16.10017205126299 0.9264061807580024 0 0 0
264 88 1 0.5897 1.6235859044015497 17.59660911362033 0.722958522072353 0 0 0
269 90 1 0.5897 1.6354192691207925 13.629621337115662 5.015964548808103 0 0 0
254 85 1 0.5897 0.8928438286251884 15.69376007443615 4.400016243999362 0 0 0
260 87 1 0.5897 4.5795217301782785 16.667619988353486 0.6834343793227892 0 0 0
338 113 1 0.5897 0.17983145201852846 16.98461042452256 2.686239493916842 1 0 0
146 49 1 0.5897 5.348631248434561 12.649839528295917 0.7595678051756807 0 0 0
268 90 2 -1.1794 1.628074381972019 12.696330932829586 5.228007910898065 0 0 0
247 83 2 -1.1794 5.910888661036098 16.971931230818576 3.4920647175087187 0 0 0
288 96 1 0.5897 5.742223327693762 14.829196693179561 1.8154434062871376 0 0 0
256 86 2 -1.1794 0.16803131301861685 13.945310661895437 1.9540124781447314 0 0 0
147 49 1 0.5897 3.9253697421755227 12.72235770785635 1.2703544979220225 0 0 0
389 130 1 0.5897 2.023273066612354 18.51975862024967 4.489955091257814 0 0 0
287 96 1 0.5897 5.943401756005004 13.815523404927205 2.921646280511954 0 0 0
265 89 2 -1.1794 4.543252872023708 18.419488081839596 0.3582720376975295 0 0 0
339 113 1 0.5897 0.0733565226569379 17.702078739976475 4.01504215005533 1 0 0
261 87 1 0.5897 4.072391337785599 15.470334926974282 -0.09176353696593617 0 0 0
724 242 2 -1.1794 2.8721476901922074 13.971377251437609 7.903044569852767 0 0 0
749 250 1 0.5897 1.376701322675668 13.44238626486498 10.562182843649014 0 0 0
732 244 1 0.5897 2.5919958328040793 16.303328634394475 9.866831043002874 0 0 0
869 290 1 0.5897 0.8930496881655144 18.175058263724996 10.446271592139297 0 0 0
870 290 1 0.5897 2.374703531721123 18.345245299361963 10.186351890804856 0 0 0
818 273 1 0.5897 -0.07235124926589942 17.367754806640683 8.623078839840433 1 0 0
727 243 2 -1.1794 5.873599764798703 16.857013265616775 9.434278161374278 0 0 0
740 247 1 0.5897 4.5303525963328415 15.371828491881423 5.804560598947943 0 0 0
745 249 2 -1.1794 4.5629463547116575 18.19830426953187 6.420820016994376 0 0 0
736 246 2 -1.1794 0.025503924002967526 13.738958583405225 7.985677367973723 0 0 0
748 250 2 -1.1794 1.4681148397207597 12.504891246957529 10.392484691402199 0 0 0
742 248 2 -1.1794 1.1546993811664574 17.114755510018373 7.089434657936139 0 0 0
744 248 1 0.5897 1.2734712141003983 16.317859584989506 6.572755012005998 0 0 0
730 244 2 -1.1794 2.9999111591090344 16.9264109806409 9.265560985008383 0 0 0
741 247 1 0.5897 4.682323364595181 16.482253978260808 6.822159766946852 0 0 0
737 246 1 0.5897 0.9712764298148726 13.680900775761648 8.12111882215496 0 0 0
721 241 2 -1.1794 4.602662552454711 13.62344679201121 10.269186575993919 0 0 0
728 243 1 0.5897 4.921503147259948 16.866801071293697 9.33620058915661 0 0 0
743 248 1 0.5897 1.3040678050651984 17.827697570022043 6.468516571158448 0 0 0
739 247 2 -1.1794 4.89744927136613 15.56250627479667 6.667762304001465 0 0 0
726 242 1 0.5897 3.1546744521451653 13.245487560066774 7.34682090351913 0 0 0
722 241 1 0.5897 3.8736880687591726 13.830584751191283 9.684464371042178 0 0 0
735 245 1 0.5897 0.806968098777976 15.508703153573531 10.205008619643003 0 0 0
731 244 1 0.5897 2.416375411548134 16.945149567802236 8.507029165789264 0 0 0
733 245 2 -1.1794 1.4747181109504068 15.151585420773193 10.790475507791474 0 0 0
723 241 1 0.5897 5.372861421614093 13.620784842491771 9.700852988685241 0 0 0
725 242 1 0.5897 3.3269698479117573 14.735689779722394 7.549390609514263 0 0 0
768 256 1 0.5897 6.129587156747201 14.35295015051471 7.598346541868073 0 0 0
627 209 1 0.5897 5.223853013535025 12.600962091284838 6.9986656960513685 0 0 0
729 243 1 0.5897 6.080116023676507 17.691565150434702 9.854996750041042 0 0 0
1201 401 2 -1.1794 4.641855335094915 13.836676019701798 15.67872135878639 0 0 0
1202 401 1 0.5897 5.428019134648524 13.748076509802607 15.139914652763407 0 0 0
1203 401 1 0.5897 4.707547279888049 13.127017161310302 16.317635373641032 0 0 0
1204 402 2 -1.1794 2.698932786381172 14.133392434373793 13.50783434227943 0 0 0
1205 402 1 0.5897 3.2616521853463336 14.364503666974342 14.246864417149753 0 0 0
1206 402 1 0.5897 3.0742593276768946 13.322483540601787 13.164834648848883 0 0 0
1210 404 2 -1.1794 3.4364046738134513 16.74228531260933 14.961960027468484 0 0 0
1211 404 1 0.5897 3.131563782242058 17.579070387669788 15.31259936752901 0 0 0
1212 404 1 0.5897 4.39023124993525 16.78755705800355 15.028030045287442 0 0 0
1213 405 2 -1.1794 1.0241624084539716 15.436455704933529 16.372012906359828 0 0 0
1214 405 1 0.5897 0.40554321030235096 16.03815634323793 15.957991977124365 0 0 0
1215 405 1 0.5897 1.876495433202824 15.684669533044978 16.014074939694982 0 0 0
1218 406 1 0.5897 0.7060407859423281 14.227057856598574 13.666788773212781 0 0 0
1222 408 2 -1.1794 1.3564545145524303 17.13532887709576 13.082599664491726 0 0 0
1223 408 1 0.5897 1.5959978799491281 17.676296103904317 12.330168843371899 0 0 0
1224 408 1 0.5897 2.1780022566278054 17.005996123698704 13.556457410109406 0 0 0
1229 410 1 0.5897 1.2031277148548225 13.56854397015894 16.478542276252504 0 0 0
1220 407 1 0.5897 3.857591979119555 15.30350594245078 12.843279176424458 0 0 0
1227 409 1 0.5897 4.468958324968297 17.504751249481377 12.243182453114834 0 0 0
1219 407 2 -1.1794 4.612011235553116 15.643316885743694 12.36205954758719 0 0 0
1298 433 1 0.5897 0.0779960138095245 17.67883899380131 14.311616492400983 1 0 0
1225 409 2 -1.1794 4.6115801426716825 18.44221599457184 12.113277182738276 0 0 0
1700 567 1 0.5897 4.720708944424218 15.07699026111422 16.94402615170188 0 0 0
1248 416 1 0.5897 5.865100702919909 13.132596876416063 13.101804735485107 0 0 0
1247 416 1 0.5897 5.872613347354663 14.646311444496185 13.106321061385104 0 0 0
1228 410 2 -1.1794 1.5874463455519066 12.703141365535286 16.33909741768152 0 0 0
1350 450 1 0.5897 0.9916481021248895 18.54007742765099 15.858365421074 0 0 0
734 245 1 0.5897 1.2024875202158147 15.431804422965719 11.66431593103912 0 0 0
1221 407 1 0.5897 4.62370818319365 15.140341593747253 11.547762180390599 0 0 0
1106 369 1 0.5897 4.752985395367479 12.622593588347259 11.647477004445651 0 0 0
1705 569 2 -1.1794 4.578050589245679 18.461606880726713 17.678597177400874 0 0 0
1728 576 1 0.5897 6.0486152698722115 14.846727079059296 18.82729143092807 0 0 0
1695 565 1 0.5897 1.4666460625217004 14.25545760735692 22.172501167646125 0 0 0
1708 570 2 -1.1794 1.405595636625333 12.378700508581964 22.19644973780022 0 0 0
1697 566 1 0.5897 0.9221082626019828 13.798306216018293 19.360133320559953 0 0 0
1779 593 1 0.5897 0.010307300251585758 17.785168046391266 21.456071940017313 1 0 0
1681 561 2 -1.1794 4.1160813666950435 14.068773293261442 21.478723923617068 0 0 0
1702 568 2 -1.1794 1.174011265115759 17.147975269971468 18.607262226969546 0 0 0
1701 567 1 0.5897 4.1034080299791444 15.14351390106714 18.32476164849633 0 0 0
1686 562 1 0.5897 3.1210549171421005 13.888428340138343 19.797941301634175 0 0 0
1694 565 1 0.5897 0.6853285300530839 15.43404888793436 21.632070373391162 0 0 0
1707 569 1 0.5897 4.369803361859462 17.535898038531055 17.553113238165725 0 0 0
1683 561 1 0.5897 4.321220212541454 13.480004278336931 22.204977071052852 0 0 0
1692 564 1 0.5897 2.499002195948644 17.037676100524525 19.94920305737144 0 0 0
1684 562 2 -1.1794 2.7064907387245576 13.923358582987083 18.935876340015092 0 0 0
1693 565 2 -1.1794 1.449876873662112 15.212368329392614 22.163612010990903 0 0 0
1699 567 2 -1.1794 4.757336579538268 15.56461118205555 17.766874677167312 0 0 0
1689 563 1 0.5897 4.945663682316038 17.054020596869663 20.428134839324237 0 0 0
1696 566 2 -1.1794 -0.033802944982681105 13.834283030863762 19.393880576272434 0 0 0
1703 568 1 0.5897 0.9434545012746314 16.40208721139384 18.053533796516184 0 0 0
1682 561 1 0.5897 4.916650186706396 14.091262932037992 20.95451236312498 0 0 0
1691 564 1 0.5897 2.8234152426193084 16.289703669419602 21.2247840588025 0 0 0
1778 593 1 0.5897 0.1670948679784443 17.114422503693895 20.107979154691588 1 0 0
1704 568 1 0.5897 1.372342524371336 17.852436007690375 17.990390774004624 0 0 0
1685 562 1 0.5897 3.1622942919121133 13.25590156673373 18.423146157371843 0 0 0
1690 564 2 -1.1794 3.1221767080113945 17.01429336392775 20.675380830536717 0 0 0
1687 563 2 -1.1794 5.862610392029334 17.191530700523977 20.665841401304853 0 0 0
1830 610 1 0.5897 2.1924970267083665 18.38905639584295 21.679860915981852 0 0 0
1586 529 1 0.5897 5.3306828836375155 12.630413885864048 18.864005460250183 0 0 0
361 121 2 -1.1794 4.643262566041372 20.265903219507447 4.032058701121881 0 0 0
362 121 1 0.5897 3.8526750564669365 20.25954237071882 3.4924784660079125 0 0 0
364 122 2 -1.1794 2.870733868553518 20.246994554635588 1.9435062001403702 0 0 0
365 122 1 0.5897 3.016482697816988 20.885740473472648 1.245712743820331 0 0 0
370 124 2 -1.1794 3.11878654301389 23.559399011929823 3.3353857482048905 0 0 0
371 124 1 0.5897 4.075419012224205 23.534063880706206 3.315031051227803 0 0 0
372 124 1 0.5897 2.8716051746674607 22.83320409196047 3.907813057295864 0 0 0
373 125 2 -1.1794 1.5894557446099098 21.832662548949415 4.866194929717848 0 0 0
381 127 1 0.5897 5.095440794857867 21.495868400098775 0.8550868980876295 0 0 0
382 128 2 -1.1794 1.381038270801972 23.07380469975834 1.1829994831928135 0 0 0