LAMMPS data file via write_data, version 30 Jul 2021, timestep = 16250000

972 atoms
2 atom types
648 bonds
1 bond types
324 angles
1 angle types

0.09660616878392503 19.903394831209162 xlo xhi
0.11941072293238797 19.880590277041662 ylo yhi
0.05109212101805127 20.648905878985317 zlo zhi

Masses

1 1.008
2 15.999

Pair Coeffs # lj/cut/tip4p/long/omp

1 0 0
2 0.21084 3.1668

Bond Coeffs # harmonic/omp

1 450 0.9572

Angle Coeffs # harmonic/omp

1 55 104.52

Atoms # full

10 4 2 -1.1794 1.5302653792201373 4.112295654031298 3.8162971654159215 0 0 0
11 4 1 0.5897 1.459899904067619 3.30031613138296 3.3143465506166288 0 0 0
31 11 2 -1.1794 1.0069359145775496 2.167697804847233 1.8743313564903274 0 0 0
33 11 1 0.5897 1.6920404996050704 2.4265890982416254 1.2580595088027764 0 0 0
23 8 1 0.5897 3.1469605358585158 1.1718524285321652 4.131094623867031 0 0 0
12 4 1 0.5897 2.468974838293462 4.297340024501885 3.843000174384207 0 0 0
16 6 2 -1.1794 4.274441178025041 4.12233847837114 3.4469802546366815 0 0 0
18 6 1 0.5897 4.495091712845121 3.2918960853320383 3.0252596391513964 0 0 0
4 2 2 -1.1794 4.618486327667669 1.3432244877476336 3.142950111068718 0 0 0
13 5 2 -1.1794 4.851885255984201 6.135415963873381 1.703218847611814 0 0 0
140 47 1 0.5897 1.2688523423724134 9.181317775912115 2.949890645795395 0 0 0
17 6 1 0.5897 4.465622204872008 4.786186840860592 2.7844476717835236 0 0 0
111 37 1 0.5897 3.392570582356344 9.434648364850153 0.5493631948802088 0 0 0
236 79 1 0.5897 0.8289976337891136 0.36403271386909236 1.952349312016537 0 1 0
32 11 1 0.5897 0.2070741670192602 2.5574593818733744 1.5215338650947299 0 0 0
674 225 1 0.5897 2.2373935823063484 5.7535499153283824 0.6266236473226958 0 0 1
19 7 2 -1.1794 1.1929793509554458 5.9967513073142245 1.9088960766030167 0 0 0
15 5 1 0.5897 4.59582617885583 6.93175762641321 2.1684956230046946 0 0 0
112 38 2 -1.1794 4.254197944005067 8.303533426533402 3.3767181730957616 0 0 0
81 27 1 0.5897 0.28139408121708787 4.69451355635322 5.006120443551784 1 0 0
141 47 1 0.5897 1.08010140942545 7.785090086416533 2.3960341829336183 0 0 0
110 37 1 0.5897 1.9169148811275134 9.228997830784222 0.8173415736088704 0 0 0
14 5 1 0.5897 4.253055828697986 6.089855550749062 0.9578870913856798 0 0 0
20 7 1 0.5897 1.1809596857003333 5.361833316869245 2.625104064782598 0 0 0
114 38 1 0.5897 3.4618418418389005 8.065684702545862 3.858106977856503 0 0 0
139 47 2 -1.1794 0.9228563829707707 8.707337631214331 2.1936910247258017 0 0 0
5 2 1 0.5897 4.550257877560043 0.6487609801951261 2.4877550626000695 0 0 0
22 8 2 -1.1794 2.3811062298845806 1.1279804546297871 4.703550297435198 0 0 0
3 1 1 0.5897 3.9497988177606373 2.6868054537473034 0.31557017219402467 0 0 0
132 44 1 0.5897 0.9587632260715293 7.724593810983004 4.834546158863808 0 0 0
130 44 2 -1.1794 1.8967751817365774 7.575471071877988 4.7160915287634415 0 0 0
102 34 1 0.5897 0.5482904228139651 1.1570202663916056 4.5322274789015085 1 0 0
109 37 2 -1.1794 2.538315798703042 9.430124581883096 0.11764839740724292 0 0 0
113 38 1 0.5897 4.972637137957823 8.019833834891898 3.9419970729055396 0 0 0
21 7 1 0.5897 0.28503961085741736 6.037000616243198 1.6086073080461605 0 0 0
131 44 1 0.5897 2.07076302119185 6.7584236337558625 5.183385910581773 0 0 0
1 1 2 -1.1794 3.0035192861320814 2.7183320661964387 0.17519114109350792 0 0 0
325 109 2 -1.1794 2.7084353728658077 2.585884357593954 6.980413305738387 0 0 0
326 109 1 0.5897 2.564760628355894 2.0929187758116017 6.172602710688006 0 0 0
327 109 1 0.5897 3.6495060765896628 2.515511942255621 7.140325255469542 0 0 0
355 119 2 -1.1794 0.9412076304111271 2.005636144224436 9.061210179516516 0 0 0
356 119 1 0.5897 1.7381331749059439 2.204688127358558 8.569826873789603 0 0 0
27 9 1 0.5897 2.404080201001426 4.575185921678623 6.221037138939035 0 0 0
339 113 1 0.5897 3.98401581617021 5.8703078766241905 7.602353810528248 0 0 0
335 112 1 0.5897 1.0130199465186003 3.3742072416121447 10.176455862592832 0 0 0
342 114 1 0.5897 4.0972680006372135 4.962464406894434 9.67564706778937 0 0 0
561 187 1 0.5897 0.9362763100377767 0.23693394607905247 8.899088800119218 0 1 0
25 9 2 -1.1794 2.4776057218364875 5.492605798979919 6.48399473491407 0 0 0
463 155 2 -1.1794 0.7041027937207983 8.769728228146597 9.005323892379021 0 0 0
468 156 1 0.5897 4.496203704445223 9.42873522287141 7.457261977410213 0 0 0
330 110 1 0.5897 4.052521610794054 1.0258999265245619 9.357912020492147 0 0 0
435 145 1 0.5897 2.632458941999765 8.340663257535475 6.279344905407895 0 0 0
344 115 1 0.5897 1.00083419036994 5.370016537883522 9.48315458576891 0 0 0
345 115 1 0.5897 0.8379382269971016 6.841792069294246 9.168247182433275 0 0 0
443 148 1 0.5897 0.8909827275918161 9.926144241480655 10.251741151984966 0 0 0
433 145 2 -1.1794 2.629236017074222 8.945826596614737 7.0209557652269625 0 0 0
437 146 1 0.5897 4.45991729411872 7.707611818877071 9.15303293904108 0 0 0
343 115 2 -1.1794 0.8794597763918568 5.979383233067753 8.755044204200718 0 0 0
464 155 1 0.5897 1.1947045900115698 8.587927889464407 8.203826139361691 0 0 0
26 9 1 0.5897 1.9243164662689936 5.5644155106550794 7.261755739412559 0 0 0
337 113 2 -1.1794 4.735824027215664 6.247517639921624 8.059152485242839 0 0 0
328 110 2 -1.1794 3.93578569645737 1.7157903496305953 10.011080485673608 0 0 0
357 119 1 0.5897 0.2283683784572495 2.2226741563229515 8.460435461533892 0 0 0
341 114 1 0.5897 4.094674353895602 3.5269284598825146 10.156276654521387 0 0 0
434 145 1 0.5897 2.5414437189904358 9.812102367446116 6.623426943038623 0 0 0
438 146 1 0.5897 3.97084583232764 8.963800021783765 9.841965258738684 0 0 0
436 146 2 -1.1794 4.218026303231703 8.054784986223227 10.011624955793682 0 0 0
24 8 1 0.5897 2.5551223695096765 0.3844276112781152 5.2806650440874625 0 0 0
649 217 2 -1.1794 2.615130201481557 2.5336850959951156 13.873713161477559 0 0 0
650 217 1 0.5897 2.3023737258206944 1.832958491787938 13.301585555828607 0 0 0
348 116 1 0.5897 2.497853767854808 1.0519655980701699 11.069818352954842 0 0 0
347 116 1 0.5897 1.2066317411645822 0.6534882214961164 11.75219302427544 0 0 0
651 217 1 0.5897 2.228218745467397 2.3375508120141593 14.726966583709315 0 0 0
334 112 2 -1.1794 1.1924523606288122 4.14724719762887 10.711604529457281 0 0 0
533 178 1 0.5897 0.4721205041194852 7.405118771383954 11.632106484149226 1 0 0
336 112 1 0.5897 2.142305387355078 4.142321082348981 10.829477672300065 0 0 0
661 221 2 -1.1794 4.562296391979211 5.975186374985332 15.206874719326233 0 0 0
456 152 1 0.5897 2.366862295447945 6.555956329951379 11.998427239804078 0 0 0
350 117 1 0.5897 2.67296837274557 4.4958341403393804 13.438719528859318 0 0 0
757 253 2 -1.1794 2.757826578140712 8.980506311766094 13.728712364590486 0 0 0
454 152 2 -1.1794 2.1074244906324826 7.296603888997473 11.45038877910806 0 0 0
455 152 1 0.5897 2.9157262256533536 7.568175795932259 11.015572323643438 0 0 0
349 117 2 -1.1794 2.4724255413215563 5.427555371704974 13.52734594749676 0 0 0
346 116 2 -1.1794 2.1577778424548475 0.5799855079427709 11.829933761435646 0 0 0
759 253 1 0.5897 2.5402113899913417 8.503693118407703 12.927778655000683 0 0 0
351 117 1 0.5897 3.1885063836803313 5.7778383674728255 14.057165854619159 0 0 0
668 223 1 0.5897 1.3419744492266883 5.737270667169987 14.778623647000709 0 0 0
683 228 1 0.5897 4.305332546359246 2.810030362900673 14.160766824274624 0 0 0
792 264 1 0.5897 4.588532767755361 9.062284529397424 14.173682121218341 0 0 0
329 110 1 0.5897 4.519595365163829 1.4686080207323775 10.728184554268944 0 0 0
758 253 1 0.5897 2.7178544110124485 9.903162175307816 13.477095259168383 0 0 0
789 263 1 0.5897 1.705785902451793 8.73209731882425 15.270672128414478 0 0 0
340 114 2 -1.1794 4.008497449142469 4.428763981074057 10.465249210497186 0 0 0
658 220 2 -1.1794 1.5201313873767301 4.378514100640573 17.891936879099195 0 0 0
664 222 2 -1.1794 4.125275878836947 4.49570900483866 17.501617531485113 0 0 0
671 224 1 0.5897 2.7152109442680885 1.573871215758001 19.474004153177685 0 0 0
653 218 1 0.5897 3.601994390037436 1.5751708542617544 17.679384017379522 0 0 0
670 224 2 -1.1794 2.3887998579803638 1.088864619638855 18.7160911870344 0 0 0
652 218 2 -1.1794 4.431890002628566 1.7719844931084796 17.244998703926562 0 0 0
672 224 1 0.5897 1.4359956196355907 1.144118259158791 18.78801716998765 0 0 0
665 222 1 0.5897 3.1918490986226087 4.425202979438043 17.7013072621656 0 0 0
666 222 1 0.5897 4.395776743009915 3.600061264016911 17.29955071669746 0 0 0
681 227 1 0.5897 1.0459475330447965 2.776049466355276 16.76509365397258 0 0 0
680 227 1 0.5897 0.2853657848614428 2.4332512321592423 15.501832045145512 0 0 0
660 220 1 0.5897 1.3039837008736623 4.873063181631755 17.10142458349414 0 0 0
669 223 1 0.5897 1.0223274827196158 6.693178103942461 15.908174022855944 0 0 0
884 295 1 0.5897 0.6869324246136139 0.3033993857089149 15.780060243384554 0 1 0
654 218 1 0.5897 4.512414817104098 1.1017677581717968 16.566367770376836 0 0 0
858 286 1 0.5897 0.6070280361105955 7.751280645840375 18.366876957893812 1 0 0
787 263 2 -1.1794 1.0906251488759398 8.4393245192502 15.943019618379918 0 0 0
780 260 1 0.5897 3.1465896091989536 7.685271674213475 18.0923125132188 0 0 0
675 225 1 0.5897 2.6578110104016286 6.079352236924219 19.807061867569814 0 0 0
779 260 1 0.5897 2.6120758716560353 8.308219946341104 19.364323029677646 0 0 0
761 254 1 0.5897 4.367780335274312 8.865965982191943 17.007361588436453 0 0 0
760 254 2 -1.1794 4.474692853295398 7.915327828405943 17.03978804928802 0 0 0
778 260 2 -1.1794 2.4557930929430736 7.5924586041398054 18.74832013865117 0 0 0
659 220 1 0.5897 0.7768560530393332 4.5244578647836455 18.477095331913127 0 0 0
788 263 1 0.5897 1.2587439825339957 9.014877851412095 16.6891383083852 0 0 0
662 221 1 0.5897 4.346101772508219 5.297514917590741 15.84733899961366 0 0 0
663 221 1 0.5897 4.488731803047475 6.79665904864604 15.692619386212865 0 0 0
679 227 2 -1.1794 0.9592791120448321 2.099248604967232 16.093819599456893 0 0 0
673 225 2 -1.1794 2.8241386377205955 5.46769024969889 20.524288147289568 0 0 0
2 1 1 0.5897 2.823159054440299 3.6334637157327294 20.558035976628457 0 0 -1
667 223 2 -1.1794 0.8592375362267947 5.800827222021176 15.602708710452916 0 0 0
240 80 1 0.5897 2.615840863530403 14.138543335828604 4.511866110915052 0 0 0
129 43 1 0.5897 0.7714052844713842 13.458709906560568 2.3653628563921187 0 0 0
120 40 1 0.5897 1.0451370612568942 11.313140219617908 3.3597391115703363 0 0 0
118 40 2 -1.1794 1.2155406150164076 10.773979699584688 4.132066074150384 0 0 0
127 43 2 -1.1794 0.6632443605220049 12.518755196454507 2.2205856440271408 0 0 0
119 40 1 0.5897 2.153020860149566 10.877605993322664 4.294978339705209 0 0 0
122 41 1 0.5897 4.017756235413401 12.053136285244653 2.3905648087428797 0 0 0
229 77 2 -1.1794 4.4160755584218485 19.13225646591401 1.3441013193409743 0 0 0
783 261 1 0.5897 1.7521863616823843 12.474170109168286 0.7237620581038459 0 0 1
121 41 2 -1.1794 4.42280641682542 12.640868939662218 1.7528245644726983 0 0 0
220 74 2 -1.1794 4.157811194863452 14.908963578863805 3.5888488512234757 0 0 0
235 79 2 -1.1794 0.6723003532994459 19.187469533179637 1.8414861712273396 0 0 0
124 42 2 -1.1794 4.032191686798649 10.958499384316912 3.8296974686453846 0 0 0
221 74 1 0.5897 4.128843228233931 15.818393609774072 3.2916776039620053 0 0 0
248 83 1 0.5897 1.0139580472029688 16.00455694052272 3.0605066471450035 0 0 0
228 76 1 0.5897 0.9848288881875792 17.70148561565231 4.704506892138134 0 0 0
125 42 1 0.5897 4.624844090364422 11.308667267441036 4.494783062014076 0 0 0
247 83 2 -1.1794 0.8982711447359849 15.321465677854805 2.4000431822261072 0 0 0
234 78 1 0.5897 3.2351975513054465 17.729584391378154 3.8883192589024826 0 0 0
249 83 1 0.5897 1.5759105687820314 15.500647888072443 1.7482164064149848 0 0 0
123 41 1 0.5897 3.822930212297736 12.635846311750946 1.0069582910895865 0 0 0
232 78 2 -1.1794 4.183919652969671 17.632734359532023 3.80655086931969 0 0 0
227 76 1 0.5897 1.103029015275059 18.134383541739084 3.2586510001828786 0 0 0
222 74 1 0.5897 4.540077361100985 14.428592101460891 2.8544688603867985 0 0 0
233 78 1 0.5897 4.422039415546977 18.207696357819664 3.079271967891788 0 0 0
226 76 2 -1.1794 1.4748785103580728 17.529433222804947 3.9004985153068508 0 0 0
230 77 1 0.5897 3.780505575677086 18.832508187603942 0.6941871360917223 0 0 0
217 73 2 -1.1794 2.7721489642827284 16.023547240331762 0.3824965289749017 0 0 0
126 42 1 0.5897 4.334019531394184 10.061318972407598 3.687706259213289 0 0 0
890 297 1 0.5897 1.6845932487602473 18.833350475051255 0.4806004632338259 0 0 1
218 73 1 0.5897 2.523840037223007 16.936514808916336 0.23747023512017248 0 0 0
219 73 1 0.5897 3.717679719411988 16.05230567225494 0.5284091454108245 0 0 0
238 80 2 -1.1794 1.9186190455789187 14.050418916150985 5.161702858489571 0 0 0
133 45 2 -1.1794 2.3928670627865407 11.787372383227012 6.787797888826169 0 0 0
134 45 1 0.5897 1.7592028830922788 12.02281873983942 7.465449252272049 0 0 0
135 45 1 0.5897 3.245307911861867 11.885477767917493 7.211877829889489 0 0 0
453 151 1 0.5897 0.6342820388655966 11.833600548140804 9.442122603554429 0 0 0
451 151 2 -1.1794 0.5697095994685385 12.488111161456057 8.746667442990574 0 0 0
558 186 1 0.5897 4.584567145465872 17.854449091638195 9.856198123591213 0 0 0
243 81 1 0.5897 1.8095434174738803 18.820886501486832 7.150978437605985 0 0 0
239 80 1 0.5897 2.1505211592871056 13.265192110342122 5.657529902241827 0 0 0
571 191 2 -1.1794 0.7460213125883296 15.277060621418698 8.968883319307267 0 0 0
573 191 1 0.5897 0.8203862175284211 14.33305097326066 9.108617124058098 0 0 0
555 185 1 0.5897 3.921422966139151 19.06629355010297 7.477012879300274 0 0 0
576 192 1 0.5897 4.440570484475982 15.75685379396334 7.536028998862726 0 0 0
572 191 1 0.5897 0.9327092033793176 15.661857923370391 9.82521369762472 0 0 0
551 184 1 0.5897 1.2054817141358525 17.945317052891575 10.319458315440588 0 0 0
543 181 1 0.5897 2.4249789788920717 15.427297012936375 6.2848254229354295 0 0 0
557 186 1 0.5897 4.324994296809868 16.41676329358826 10.253087869194399 0 0 0
542 181 1 0.5897 2.3183274254288015 15.40827593366659 7.794830305914686 0 0 0
241 81 2 -1.1794 2.398302065867922 18.587958252922448 6.433135171207819 0 0 0
242 81 1 0.5897 2.6116817138161705 17.667604590957986 6.586807172907146 0 0 0
446 149 1 0.5897 4.35405199329458 13.181631801557701 9.039446390311586 0 0 0
559 187 2 -1.1794 0.9407257441485304 19.07509064485111 8.64567739940196 0 0 0
541 181 2 -1.1794 2.805670848438161 15.809702324883053 7.0754183744566665 0 0 0
450 150 1 0.5897 4.090232884720025 11.258707481763855 9.686447528815085 0 0 0
553 185 2 -1.1794 4.313349562037386 19.22628965923211 8.335496669487892 0 0 0
445 149 2 -1.1794 4.455185612534145 12.379872939675346 8.526446679445435 0 0 0
544 182 2 -1.1794 4.191441516045877 14.529498022647365 10.129695675036562 0 0 0
457 153 2 -1.1794 2.7950529694700124 11.704821925028144 13.444410912489007 0 0 0
458 153 1 0.5897 2.0678239852222022 11.826562833245541 14.054731967161949 0 0 0
459 153 1 0.5897 3.5426840952947263 12.117570138871644 13.876641376734613 0 0 0
562 188 2 -1.1794 2.1255238903340774 13.756406827484678 11.862243162551364 0 0 0
563 188 1 0.5897 2.296548304792994 12.925631626403113 12.30581668974833 0 0 0
545 182 1 0.5897 3.483199710967899 14.141810634122836 10.643767052074445 0 0 0
442 148 2 -1.1794 1.2220658750939095 10.703122786051958 10.702182086599457 0 0 0
769 257 2 -1.1794 4.691122271877062 12.640416970787182 15.19316086334685 0 0 0
564 188 1 0.5897 2.405357626877513 14.424570897940281 12.487913005626062 0 0 0
885 295 1 0.5897 1.1491353712437062 18.983529212732712 14.826367431677586 0 0 0
567 189 1 0.5897 2.833356589925346 18.641342708029356 13.02522379987893 0 0 0
552 184 1 0.5897 2.2198882591148137 17.142605008035282 11.105851436577412 0 0 0
546 182 1 0.5897 4.975589775519246 14.395043021898562 10.66186587996161 0 0 0
550 184 2 -1.1794 1.2786966950789629 17.290130537935795 11.01342446497248 0 0 0
865 289 2 -1.1794 2.766210357469867 15.42069447435377 14.085378572008286 0 0 0
867 289 1 0.5897 2.324243144437599 15.251998811577211 14.917492038661605 0 0 0
566 189 1 0.5897 2.8023690053895987 17.351710689437013 13.8174979513747 0 0 0
444 148 1 0.5897 2.169913494908313 10.669549005790177 10.573324220828807 0 0 0
879 293 1 0.5897 4.079127655581738 19.28428996589482 14.82600535744442 0 0 0
866 289 1 0.5897 3.6891110370218954 15.239206096775796 14.262757968140994 0 0 0
565 189 2 -1.1794 2.6913719105063603 18.298175628984353 13.907426072763124 0 0 0
448 150 2 -1.1794 3.8531567645112528 10.64529759975759 10.3819347204376 0 0 0
775 259 2 -1.1794 0.8577385803961254 12.306503572240084 15.32852533879801 0 0 0
449 150 1 0.5897 4.381647559992281 10.917186002388222 11.132230936244586 0 0 0
642 214 1 0.5897 0.30004431202649817 13.923544494805055 12.012351478930837 1 0 0
556 186 2 -1.1794 4.220121745586216 17.317417007070624 10.559746795732046 0 0 0
888 296 1 0.5897 2.3419937064295375 13.653148120233471 19.391255402354943 0 0 0
768 256 1 0.5897 1.2525790339222953 11.260705767384048 16.78529771980769 0 0 0
773 258 1 0.5897 3.123929287102946 10.666446568563059 17.32747221935805 0 0 0
766 256 2 -1.1794 1.422326274163489 10.71833481402893 17.5555126139829 0 0 0
886 296 2 -1.1794 2.25718993816223 14.423135824639177 18.828986722285407 0 0 0
891 297 1 0.5897 2.2694912559888643 19.283885869263145 19.75676179997023 0 0 0
875 292 1 0.5897 0.5877151795386273 17.52529655284627 18.212432845522567 0 0 0
772 258 2 -1.1794 4.064751025754496 10.668794178733515 17.151417180176217 0 0 0
869 290 1 0.5897 3.4901088267952267 14.610956576005604 17.612669535434772 0 0 0
868 290 2 -1.1794 4.282460044179769 14.786331306173242 17.10513152644825 0 0 0
887 296 1 0.5897 2.4649072507046585 15.162004082117553 19.40094855828233 0 0 0
878 293 1 0.5897 4.284919144673282 18.912006781369534 16.27889956945831 0 0 0
781 261 2 -1.1794 2.321625556821881 12.374376051863752 20.558701142903594 0 0 0
965 322 1 0.5897 0.4987198149305956 14.42054197718052 18.92335139608484 1 0 0
771 257 1 0.5897 4.53808764225054 13.393942074623366 15.763243022616203 0 0 0
774 258 1 0.5897 4.1717746403608436 11.285019950231852 16.42682629993948 0 0 0
767 256 1 0.5897 0.8148052471115206 11.046196920216216 18.21854392208027 0 0 0
897 299 1 0.5897 1.170525746335564 15.757004288625872 16.680904439560713 0 0 0
889 297 2 -1.1794 2.3336761980683374 18.593802689410616 20.416978460556372 0 0 0
882 294 1 0.5897 4.2974546943399465 16.63600365758797 17.27537197816171 0 0 0
880 294 2 -1.1794 4.122333393046397 17.566260392555762 17.417304891072998 0 0 0
876 292 1 0.5897 1.199908600242746 17.914974058252163 16.883820853998355 0 0 0
881 294 1 0.5897 3.1755323840706473 17.6148852353327 17.548903718736415 0 0 0
874 292 2 -1.1794 1.3210810162297615 17.32772530213937 17.629927779450068 0 0 0
870 290 1 0.5897 4.996257060750104 14.464945140110672 17.655928280396886 0 0 0
782 261 1 0.5897 2.3986308446133595 11.427841986932645 20.43889289347815 0 0 0
764 255 1 0.5897 4.8349170589956785 10.98842766215272 18.962252333660977 0 0 0
883 295 2 -1.1794 0.6785548951519208 19.116413675333142 15.649228484266954 0 0 0
777 259 1 0.5897 0.7591106632671949 13.241996749096593 15.505536388964241 0 0 0
895 299 2 -1.1794 0.8775540602535198 15.052921758777964 16.102416596433095 0 0 0
877 293 2 -1.1794 4.610742732470835 19.495327568177586 15.593499450115699 0 0 0
896 299 1 0.5897 0.216104019447174 15.460966574178135 15.543696161764512 0 0 0
166 56 2 -1.1794 8.532253863204486 7.332715176214932 5.0968422201385515 0 0 0
142 48 2 -1.1794 5.165128259132772 9.105556228278704 0.7141784178276765 0 0 0
69 23 1 0.5897 6.936458742874605 2.1331702373313557 1.7384067645238497 0 0 0
48 16 1 0.5897 7.38625085838955 4.190175827513119 4.468717559186154 0 0 0
711 237 1 0.5897 8.356094915966292 5.60014432154909 0.6716467010789579 0 0 1
67 23 2 -1.1794 7.794386566514023 1.979035487505817 2.133817535479914 0 0 0
46 16 2 -1.1794 8.147313810722798 4.14718673681034 3.8898382664854583 0 0 0
47 16 1 0.5897 7.945616345699965 3.4370749073527436 3.2805261867841655 0 0 0
68 23 1 0.5897 8.419484399289598 2.2958823052198247 1.481863838912244 0 0 0
55 19 2 -1.1794 7.428303223906238 6.182799116952872 2.085456129025676 0 0 0
145 49 2 -1.1794 9.367157997800538 9.45000752444958 0.1197199949091372 0 0 0
177 59 1 0.5897 7.971554246023933 9.111427990083536 1.646519557854306 0 0 0
57 19 1 0.5897 7.592122921587314 5.554745026125757 2.7889561635666613 0 0 0
34 12 2 -1.1794 5.638240901399055 2.7351550969949185 0.7962961431613276 0 0 0
176 59 1 0.5897 7.506484469258088 7.986295512533606 2.5462717771525836 0 0 0
143 48 1 0.5897 5.8737003677371895 9.101633434672681 1.3576703260342224 0 0 0
175 59 2 -1.1794 7.376314454374361 8.918191999002245 2.3707555087553414 0 0 0
56 19 1 0.5897 6.488222320334355 6.116104234461353 1.9183167475883414 0 0 0
58 20 2 -1.1794 9.255336063406478 0.5251424760624288 5.051095439032294 0 0 0
53 18 1 0.5897 9.999167501539667 4.381442861341521 3.649708954117777 0 0 0
6 2 1 0.5897 5.344369407408043 1.0723957838282687 3.705014334792423 0 0 0
37 13 2 -1.1794 9.455407787443827 2.7577376390369697 0.19109707301226336 0 0 0
36 12 1 0.5897 5.852843227431997 3.474556815669107 0.22758354982592832 0 0 0
28 10 2 -1.1794 6.45759661610306 0.6693221946097743 5.104703284052303 0 0 0
29 10 1 0.5897 7.411077986674457 0.6667511880445264 5.020997002590622 0 0 0
9 3 1 0.5897 5.346152585039686 4.640584862838864 4.798261325317337 0 0 0
149 50 1 0.5897 9.971383281311523 7.604843330843665 3.9426349257941804 0 0 0
273 91 1 0.5897 7.244338911099789 0.17080773200881794 2.0986857630955984 0 1 0
35 12 1 0.5897 5.797770096745916 1.9619277151587324 0.25511150156332363 0 0 0
144 48 1 0.5897 5.413538174494581 8.433449074412392 0.07953737511351022 0 0 0
338 113 1 0.5897 5.48963137337662 5.765180999774234 7.719597077263622 0 0 0
7 3 2 -1.1794 6.026745243160648 4.616771418209316 5.470821071190648 0 0 0
359 120 1 0.5897 5.966873771807219 2.5935906298615454 7.781975704138925 0 0 0
358 120 2 -1.1794 5.4014393725680945 2.4834928521550705 7.017560607468342 0 0 0
466 156 2 -1.1794 5.452419185201313 9.39702469519824 7.429175094178611 0 0 0
362 121 1 0.5897 9.480870715254994 3.303853004619891 6.5107622683832505 0 0 0
470 157 1 0.5897 8.612015047135257 8.862655103670294 7.846995761804443 0 0 0
393 131 1 0.5897 7.5424826468193205 1.0527102247235849 8.775018376708879 0 0 0
391 131 2 -1.1794 7.5745251363933415 2.0043874275942963 8.872451848597194 0 0 0
392 131 1 0.5897 8.341385168553396 2.271796548571851 8.365910495952258 0 0 0
8 3 1 0.5897 5.785924329526395 3.8781532980007025 6.029969704183594 0 0 0
361 121 2 -1.1794 9.517247791666998 2.4413011875231136 6.924108352282527 0 0 0
360 120 1 0.5897 5.874265089211996 1.869539131691351 6.455695306666365 0 0 0
137 46 1 0.5897 5.768235046770149 6.626564133328911 5.771251765270085 0 0 0
381 127 1 0.5897 7.64842406922305 4.898753248462156 9.106662759223239 0 0 0
62 21 1 0.5897 8.524379614888842 4.960679949151935 6.993263386674432 0 0 0
467 156 1 0.5897 5.651331438806879 8.641252382435887 6.87650873518617 0 0 0
501 167 1 0.5897 6.780105050914292 8.697923236167831 8.70305160392507 0 0 0
167 56 1 0.5897 8.80358805150109 6.4760729449529135 5.426593335654786 0 0 0
499 167 2 -1.1794 7.431383795858864 8.215857677079903 9.212580366805815 0 0 0
61 21 2 -1.1794 9.25838321580602 5.057711167605238 6.386653657276665 0 0 0
500 167 1 0.5897 7.625172897161775 8.78686111025244 9.955956430590637 0 0 0
379 127 2 -1.1794 7.392461615403477 5.476415536031568 8.387654937160763 0 0 0
380 127 1 0.5897 7.664825089377751 6.348817685915155 8.67213581470723 0 0 0
469 157 2 -1.1794 9.153697345152068 9.107247910529264 7.096714879455546 0 0 0
168 56 1 0.5897 8.74844762962471 7.941287154581537 5.803313170071958 0 0 0
59 20 1 0.5897 9.277340546090416 1.2260782252827618 5.702572335596683 0 0 0
136 46 2 -1.1794 5.971498021015436 7.511355783258124 5.467885792121753 0 0 0
138 46 1 0.5897 6.916760611083904 7.502330595964033 5.317740070617517 0 0 0
63 21 1 0.5897 9.965571195499548 5.418323129119273 6.921447678492876 0 0 0
371 124 1 0.5897 7.883960917899272 3.317476483497958 10.277892860817236 0 0 0
686 229 1 0.5897 8.821649881547904 2.262718818102709 14.50926618433461 0 0 0
491 164 1 0.5897 9.252274356727115 7.517014617701293 11.202021308391334 0 0 0
353 118 1 0.5897 6.462314050535052 1.1156974971677063 12.015604658276894 0 0 0
793 265 2 -1.1794 9.384757639508226 9.09368827643749 13.957550289230543 0 0 0
492 164 1 0.5897 7.8557031197682 7.365339292920715 11.766193287796234 0 0 0
386 129 1 0.5897 9.015497976240976 4.153586959680605 13.496571876699724 0 0 0
383 128 1 0.5897 8.55759691256072 1.452174717978868 12.452031834824572 0 0 0
490 164 2 -1.1794 8.76769662654526 7.123953324087383 11.927890558024659 0 0 0
372 124 1 0.5897 7.425515909951701 4.180816312023017 11.433879263661249 0 0 0
382 128 2 -1.1794 8.220386509931087 0.8132732711540831 11.824099885670604 0 0 0
791 264 1 0.5897 5.944559667376805 9.091321293805109 14.846041760422997 0 0 0
384 128 1 0.5897 8.729287672744173 0.9673563817725166 11.028196331048314 0 0 0
685 229 2 -1.1794 9.376317980180744 2.399469575358545 13.741285455488823 0 0 0
352 118 2 -1.1794 5.517261272247832 1.0663462617795183 12.159060911126742 0 0 0
385 129 2 -1.1794 8.789660208726316 5.047687440083957 13.753068403431131 0 0 0
331 111 2 -1.1794 5.865382747191114 5.046469518961212 12.469202323134285 0 0 0
462 154 1 0.5897 5.584877642016231 7.983105006380048 11.225879309754962 0 0 0
705 235 1 0.5897 7.685026318896521 5.637508603609588 15.104744070979743 0 0 0
682 228 2 -1.1794 5.240754674596009 2.9972925454014914 14.238638740195281 0 0 0
333 111 1 0.5897 6.008862244269559 5.992575883318773 12.491470521251191 0 0 0
460 154 2 -1.1794 6.246735305610826 7.785480449377391 11.888489922257905 0 0 0
387 129 1 0.5897 8.729327501899752 5.526500699259231 12.926437905434328 0 0 0
790 264 2 -1.1794 5.464794442999603 9.439149479776992 14.094346353376865 0 0 0
370 124 2 -1.1794 8.072229388599254 4.1402179210658225 10.729399057573122 0 0 0
461 154 1 0.5897 6.0178036625482205 8.344887129822435 12.630693062927627 0 0 0
794 265 1 0.5897 9.35240884789567 8.515978906786303 13.19504341860386 0 0 0
684 228 1 0.5897 5.361745114221752 3.818059769185383 13.761235494477509 0 0 0
354 118 1 0.5897 5.354374717501127 1.660509274478831 12.891627138802175 0 0 0
795 265 1 0.5897 9.220241905923082 9.967676642944877 13.603623742971076 0 0 0
377 126 1 0.5897 9.839532070997127 4.067400446827799 10.576274397838795 0 0 0
717 239 1 0.5897 6.6736947064061 2.4159495619841787 15.4359699526455 0 0 0
332 111 1 0.5897 5.27234652337398 4.911010973517524 11.730182335227761 0 0 0
824 275 1 0.5897 8.148491127659145 8.90510575236994 15.330726543275683 0 0 0
678 226 1 0.5897 6.0160891490950545 0.12232088055402812 19.559479418130323 0 0 0
762 254 1 0.5897 5.072597270591373 7.765926606282841 17.772161245226542 0 0 0
715 239 2 -1.1794 7.514611583890979 2.110744181715722 15.776365675155777 0 0 0
815 272 1 0.5897 8.73929256989008 6.667148270822682 19.344018206879056 0 0 0
676 226 2 -1.1794 6.159934345990256 1.0547427478256575 19.39789115053781 0 0 0
785 262 1 0.5897 5.961444609342088 6.67387063731264 19.47603799744921 0 0 0
716 239 1 0.5897 7.380243491260676 1.178591036599356 15.947378693409147 0 0 0
657 219 1 0.5897 6.576328289137885 4.557223820648818 18.909959255459412 0 0 0
38 13 1 0.5897 9.383917235269058 2.13486847386338 20.065627672528862 0 0 -1
694 232 2 -1.1794 7.747635574337865 4.000039039082772 17.774970917842495 0 0 0
708 236 1 0.5897 7.854930422515148 1.1629007275910295 18.88512204712826 0 0 0
706 236 2 -1.1794 8.75809476809191 0.985005215162538 18.622829579578685 0 0 0
695 232 1 0.5897 7.73394379067161 3.308034015667235 17.113800535542577 0 0 0
655 219 2 -1.1794 5.907724527552699 4.839655938972629 19.53396288928487 0 0 0
696 232 1 0.5897 7.682274611726139 4.81259699516071 17.273293054224734 0 0 0
784 262 2 -1.1794 5.947846823626564 7.595254117436918 19.21705422585071 0 0 0
786 262 1 0.5897 6.869431555230102 7.824699359697529 19.09798583988928 0 0 0
677 226 1 0.5897 5.688965365281808 1.232685495357558 18.583810358072892 0 0 0
703 235 2 -1.1794 7.32611679647063 5.906557241792068 15.950314864150814 0 0 0
823 275 2 -1.1794 7.506784121272813 8.733743875867333 16.019948710825048 0 0 0
816 272 1 0.5897 9.119832346602179 8.130995228736785 19.408360365268486 0 0 0
814 272 2 -1.1794 8.713140844362266 7.479017982903328 18.837658335054986 0 0 0
825 275 1 0.5897 7.5637202639514545 7.790380574457374 16.17170122782481 0 0 0
702 234 1 0.5897 9.60446937586655 4.311688413107527 17.792747633669396 0 0 0
797 266 1 0.5897 9.980424312206386 7.63979282549811 17.54102949879045 0 0 0
704 235 1 0.5897 6.385866202948206 5.995073507957368 15.794677830667322 0 0 0
707 236 1 0.5897 9.020243395215081 0.2358649569520993 19.157881670706512 0 0 0
656 219 1 0.5897 5.078125255194236 4.691997083784774 19.07995406845399 0 0 0
710 237 1 0.5897 9.025248747241449 4.472139216869655 20.51338153358391 0 0 0
709 237 2 -1.1794 8.931396095884919 5.424646644702105 20.524863763493624 0 0 0
689 230 1 0.5897 9.993817264806028 1.306935098380186 17.336545607998808 0 0 0
284 95 1 0.5897 7.8916625734907635 15.566446325818958 2.850584277905042 0 0 0
263 88 1 0.5897 7.136793613583131 17.39669218767588 4.5694579131884 0 0 0
276 92 1 0.5897 9.415073925760417 14.33809355489228 4.309319457510577 0 0 0
165 55 1 0.5897 7.455294891529384 11.867886834925931 2.805520159216545 0 0 0
164 55 1 0.5897 6.297875067023016 12.314790868693178 1.9381095431431676 0 0 0
163 55 2 -1.1794 7.221229909482499 12.491401336883456 2.1180180145567964 0 0 0
156 52 1 0.5897 9.051177250245173 10.988395112181081 3.988293571580397 0 0 0
154 52 2 -1.1794 8.120499243108965 10.875161126976845 4.181028708550529 0 0 0
274 92 2 -1.1794 8.97691837850755 14.005863241488113 5.09279996709284 0 0 0
285 95 1 0.5897 7.564571778818127 14.20961884706158 2.2641853231187956 0 0 0
254 85 1 0.5897 8.992336962120158 15.591535875719694 0.8393157630786131 0 0 0
264 88 1 0.5897 8.647837695626745 17.40868490484744 4.478561679608272 0 0 0