LAMMPS data file via MDAnalysis

        2016  atoms
        1344  bonds
         672  angles
           0  dihedrals
           0  impropers

           2  atom types
           1  bond types
           1  angle types
           0  dihedral types
           0  improper types

0.000000 18.021999 xlo xhi
0.000000 47.303249 ylo yhi
0.000000 19.362051 zlo zhi
-0.243552 -6.452220 0.084328 xy xz yz


Masses

1 1.008000
2 15.999000

Atoms

1 0 2 -1.179400 0.470271 8.536387 12.710548
2 0 1 0.589700 0.906662 7.686778 12.759464
3 0 1 0.589700 0.812504 9.027047 13.453967
4 0 2 -1.179400 6.182842 0.885908 2.460505
5 0 1 0.589700 6.424751 0.089906 1.989681
6 0 1 0.589700 6.753697 1.562951 2.102331
7 0 2 -1.179400 5.957199 7.093964 14.256538
8 0 1 0.589700 5.367202 6.611918 14.831165
9 0 1 0.589700 5.506050 7.919154 14.083738
10 0 2 -1.179400 6.365557 -0.635664 5.171734
11 0 1 0.589700 6.542999 -0.138561 4.376795
12 0 1 0.589700 5.419464 -0.754715 5.173411
13 0 2 -1.179400 -3.066605 19.787264 0.776582
14 0 1 0.589700 -2.885417 18.999317 1.286479
15 0 1 0.589700 14.424457 19.494364 0.093113
16 0 2 -1.179400 7.520216 4.869373 18.921690
17 0 1 0.589700 -9.622658 4.980729 18.979298
18 0 1 0.589700 7.224816 5.608995 18.393673
19 0 2 -1.179400 -7.035476 6.027814 13.942191
20 0 1 0.589700 -7.543507 5.862566 14.731778
21 0 1 0.589700 -6.127264 5.992604 14.230309
22 0 2 -1.179400 -4.869472 5.620453 11.179524
23 0 1 0.589700 -5.762993 5.495402 10.871007
24 0 1 0.589700 -4.730822 4.909380 11.802300
25 0 2 -1.179400 -1.081321 15.635719 9.770956
26 0 1 0.589700 -0.669064 14.786218 9.619131
27 0 1 0.589700 -1.036888 16.079813 8.927811
28 0 2 -1.179400 5.529579 13.307451 17.459097
29 0 1 0.589700 5.842431 13.760143 18.238466
30 0 1 0.589700 6.323073 13.045835 16.999283
31 0 2 -1.179400 -3.480356 -0.641039 17.601948
32 0 1 0.589700 -4.418709 -0.480994 17.545115
33 0 1 0.589700 -3.158947 0.035136 18.195108
34 0 2 -1.179400 -4.616625 6.072680 15.086143
35 0 1 0.589700 -4.602169 5.161268 15.376927
36 0 1 0.589700 -3.715873 6.257869 14.833711
37 0 2 -1.179400 2.060801 9.653313 2.341159
38 0 1 0.589700 2.806255 9.142682 2.648775
39 0 1 0.589700 1.299951 9.198780 2.694913
40 0 2 -1.179400 0.251870 15.975751 18.672144
41 0 1 0.589700 7.421799 15.418266 -0.012009
42 0 1 0.589700 -0.686690 15.845590 18.779119
43 0 2 -1.179400 -4.083943 3.555167 5.042530
44 0 1 0.589700 -4.644169 4.321992 4.934061
45 0 1 0.589700 -4.670140 2.808382 4.932560
46 0 2 -1.179400 1.406520 18.213669 17.698105
47 0 1 0.589700 0.976016 18.852266 18.262791
48 0 1 0.589700 0.932309 17.397230 17.849041
49 0 2 -1.179400 1.974613 9.217646 10.315840
50 0 1 0.589700 1.348345 9.109417 11.026407
51 0 1 0.589700 2.395225 10.058092 10.492650
52 0 2 -1.179400 0.275593 8.433567 4.125404
53 0 1 0.589700 -0.092201 7.553346 4.054646
54 0 1 0.589700 -0.438585 8.967620 4.465956
55 0 2 -1.179400 -4.641778 3.465371 12.963698
56 0 1 0.589700 -5.505616 3.109563 13.156781
57 0 1 0.589700 -4.215252 3.532535 13.813507
58 0 2 -1.179400 7.165642 12.951711 3.165070
59 0 1 0.589700 7.196941 13.728829 3.720606
60 0 1 0.589700 7.698656 12.304623 3.622629
61 0 2 -1.179400 -3.016247 12.933988 8.572573
62 0 1 0.589700 -3.534159 12.329594 9.100015
63 0 1 0.589700 -3.282670 13.803897 8.867769
64 0 2 -1.179400 4.817370 22.419270 2.277311
65 0 1 0.589700 5.718001 22.725330 2.348519
66 0 1 0.589700 4.600074 22.107883 3.152004
67 0 2 -1.179400 6.595697 18.422419 18.216242
68 0 1 0.589700 6.870780 17.716543 18.798267
69 0 1 0.589700 5.657167 18.502453 18.364380
70 0 2 -1.179400 3.154865 -0.852010 1.982516
71 0 1 0.589700 3.462400 -0.026207 1.611403
72 0 1 0.589700 3.647357 46.035336 2.328267
73 0 2 -1.179400 -1.469949 4.187550 17.036142
74 0 1 0.589700 -1.225942 3.263136 16.996136
75 0 1 0.589700 -1.937113 4.275704 17.862362
76 0 2 -1.179400 3.954612 4.089815 0.172461
77 0 1 0.589700 4.306653 4.843237 0.643343
78 0 1 0.589700 -3.677004 4.325562 19.176500
79 0 2 -1.179400 8.710037 1.645028 9.136344
80 0 1 0.589700 8.000996 1.261656 9.646593
81 0 1 0.589700 8.420509 2.538314 8.953480
82 0 2 -1.179400 -1.747104 12.028798 2.291571
83 0 1 0.589700 -0.975983 11.827259 2.815018
84 0 1 0.589700 -2.481373 11.885926 2.882724
85 0 2 -1.179400 12.532156 -0.228083 5.341443
86 0 1 0.589700 12.453541 0.378153 4.608082
87 0 1 0.589700 11.907757 -0.924830 5.147786
88 0 2 -1.179400 -7.586029 7.533312 17.688663
89 0 1 0.589700 -8.227731 7.980623 17.142242
90 0 1 0.589700 -6.757436 7.956320 17.476555
91 0 2 -1.179400 2.449106 17.336861 10.073674
92 0 1 0.589700 2.350704 17.892454 9.303832
93 0 1 0.589700 1.777484 17.645678 10.676287
94 0 2 -1.179400 -5.401124 4.040300 18.321579
95 0 1 0.589700 -6.245696 4.271515 18.699318
96 0 1 0.589700 -5.612149 3.688839 17.460516
97 0 2 -1.179400 3.545316 -0.410769 5.461415
98 0 1 0.589700 3.086919 -0.007025 6.194100
99 0 1 0.589700 2.661283 46.206982 5.156083
100 0 2 -1.179400 0.469448 18.721123 11.358511
101 0 1 0.589700 -0.438783 18.465651 11.498127
102 0 1 0.589700 0.518942 19.620541 11.680765
103 0 2 -1.179400 1.887786 5.231389 5.919692
104 0 1 0.589700 2.644478 4.822089 5.507150
105 0 1 0.589700 1.800442 4.780083 6.755655
106 0 2 -1.179400 3.737556 6.361890 15.643996
107 0 1 0.589700 4.015399 5.662468 16.232401
108 0 1 0.589700 3.861148 7.165874 16.146214
109 0 2 -1.179400 -1.569971 4.153292 2.607573
110 0 1 0.589700 -1.173641 4.713378 3.271213
111 0 1 0.589700 -1.788107 3.345699 3.070360
112 0 2 -1.179400 5.261059 5.290244 7.806324
113 0 1 0.589700 4.551350 5.921309 7.907629
114 0 1 0.589700 5.082353 4.858376 6.974720
115 0 2 -1.179400 4.448288 3.160922 13.986076
116 0 1 0.589700 3.899682 2.609476 13.432755
117 0 1 0.589700 5.264822 3.248962 13.501779
118 0 2 -1.179400 9.576154 4.017138 6.350621
119 0 1 0.589700 9.087627 4.068895 7.167502
120 0 1 0.589700 10.263996 3.377290 6.523028
121 0 2 -1.179400 -6.961472 3.018802 16.293146
122 0 1 0.589700 -7.535710 2.348629 16.658653
123 0 1 0.589700 -6.714197 2.677494 15.437685
124 0 2 -1.179400 -1.906489 2.444298 6.631789
125 0 1 0.589700 -1.277513 2.450090 5.915486
126 0 1 0.589700 -2.646623 2.950328 6.304438
127 0 2 -1.179400 0.778728 5.663972 16.902231
128 0 1 0.589700 1.513375 5.121110 16.624849
129 0 1 0.589700 0.014160 5.103917 16.786840
130 0 2 -1.179400 -0.331124 1.606801 16.961512
131 0 1 0.589700 -0.067025 0.968114 17.620485
132 0 1 0.589700 0.142170 1.346154 16.175875
133 0 2 -1.179400 7.251757 19.502750 15.926058
134 0 1 0.589700 6.991220 18.954660 16.662754
135 0 1 0.589700 8.184999 19.335726 15.823464
136 0 2 -1.179400 -5.155551 10.146936 6.547053
137 0 1 0.589700 -4.575799 9.501354 6.147905
138 0 1 0.589700 12.312878 10.371529 5.858093
139 0 2 -1.179400 -0.434444 5.668602 4.531067
140 0 1 0.589700 0.449806 5.540389 4.864017
141 0 1 0.589700 -0.981331 5.702265 5.311097
142 0 2 -1.179400 -5.490404 0.106335 9.759091
143 0 1 0.589700 -6.113507 0.734714 10.118186
144 0 1 0.589700 -5.974102 -0.347085 9.072954
145 0 2 -1.179400 -3.326324 4.751338 8.761596
146 0 1 0.589700 -3.589272 5.319646 9.482072
147 0 1 0.589700 -2.611021 4.227839 9.115768
148 0 2 -1.179400 -1.001857 15.556702 4.241014
149 0 1 0.589700 -1.640644 15.238597 3.608274
150 0 1 0.589700 -1.185463 15.059080 5.034231
151 0 2 -1.179400 8.697927 -0.336078 7.358801
152 0 1 0.589700 8.959505 0.461051 7.817057
153 0 1 0.589700 8.836603 -0.135743 6.437173
154 0 2 -1.179400 12.287346 46.141747 2.085745
155 0 1 0.589700 12.642179 -0.468280 1.431883
156 0 1 0.589700 11.956488 45.384216 1.606122
157 0 2 -1.179400 5.248273 -0.791263 17.402872
158 0 1 0.589700 5.643857 -0.143770 16.822906
159 0 1 0.589700 5.668885 45.918243 17.624380
160 0 2 -1.179400 1.208279 1.970158 0.679501
161 0 1 0.589700 1.127014 1.161786 0.175638
162 0 1 0.589700 1.200946 2.666251 0.025354
163 0 2 -1.179400 -1.231560 8.768138 10.606051
164 0 1 0.589700 -0.746406 8.712543 11.424685
165 0 1 0.589700 -1.543694 9.671973 10.573527
166 0 2 -1.179400 -3.478797 14.964403 3.045475
167 0 1 0.589700 -3.729557 14.470129 2.268725
168 0 1 0.589700 -3.704678 14.390211 3.773842
169 0 2 -1.179400 13.928384 5.409657 2.277163
170 0 1 0.589700 14.102022 5.308874 1.345384
171 0 1 0.589700 -3.569216 4.788394 2.698178
172 0 2 -1.179400 -1.369965 2.838737 9.356636
173 0 1 0.589700 -1.558816 2.484478 8.491571
174 0 1 0.589700 -2.052350 2.476231 9.915959
175 0 2 -1.179400 5.184298 14.044482 8.566127
176 0 1 0.589700 4.752157 13.200216 8.443402
177 0 1 0.589700 5.973586 13.837125 9.059393
178 0 2 -1.179400 -0.506225 16.436563 14.775605
179 0 1 0.589700 -0.089676 16.198393 13.951715
180 0 1 0.589700 -0.328106 17.371668 14.873984
181 0 2 -1.179400 0.621718 1.326080 10.641935
182 0 1 0.589700 1.482879 1.729173 10.562481
183 0 1 0.589700 0.020245 1.982222 10.295443
184 0 2 -1.179400 -2.486583 -0.109029 5.424932
185 0 1 0.589700 -3.302260 -0.408045 5.818600
186 0 1 0.589700 -2.257175 0.679043 5.914853
187 0 2 -1.179400 12.304933 7.907906 1.128047
188 0 1 0.589700 12.034620 7.106097 0.683136
189 0 1 0.589700 13.176622 8.089315 0.786632
190 0 2 -1.179400 0.201060 -0.075671 19.031973
191 0 1 0.589700 1.081393 -0.443302 19.039200
192 0 1 0.589700 -0.371976 -0.835409 18.942543
193 0 2 -1.179400 2.527154 12.703811 15.191428
194 0 1 0.589700 2.014603 13.467191 15.452381
195 0 1 0.589700 3.386632 13.058199 14.977448
196 0 2 -1.179400 0.527412 22.004257 16.677773
197 0 1 0.589700 -0.354220 22.089931 16.324930
198 0 1 0.589700 0.426903 21.434509 17.437014
199 0 2 -1.179400 12.534585 6.133394 5.124731
200 0 1 0.589700 12.416713 6.033705 6.065300
201 0 1 0.589700 -4.911806 6.835772 5.036759
202 0 2 -1.179400 11.035436 19.052088 6.340148
203 0 1 0.589700 11.926698 19.220263 6.045745
204 0 1 0.589700 11.092893 18.227348 6.820426
205 0 2 -1.179400 8.548815 15.050745 4.455424
206 0 1 0.589700 8.515342 16.002937 4.546437
207 0 1 0.589700 9.227541 14.896367 3.803896
208 0 2 -1.179400 -5.204883 20.780977 18.263226
209 0 1 0.589700 -5.772085 20.021139 18.142860
210 0 1 0.589700 -5.185030 20.917664 19.206352
211 0 2 -1.179400 0.029975 2.264208 4.713686
212 0 1 0.589700 0.434634 2.871964 4.098424
213 0 1 0.589700 -0.082832 1.455051 4.217202
214 0 2 -1.179400 4.891898 15.501846 3.104035
215 0 1 0.589700 4.201589 16.107855 3.365063
216 0 1 0.589700 5.624241 16.066551 2.866698
217 0 2 -1.179400 11.121180 8.457910 3.586812
218 0 1 0.589700 11.065638 7.578962 3.960087
219 0 1 0.589700 11.547153 8.330926 2.743532
220 0 2 -1.179400 -2.187381 9.952450 8.057627
221 0 1 0.589700 -2.439646 10.871015 7.967083
222 0 1 0.589700 -1.274971 9.982247 8.332802
223 0 2 -1.179400 6.489767 9.128244 1.658999
224 0 1 0.589700 5.907655 8.939116 0.927994
225 0 1 0.589700 6.141832 9.932579 2.041058
226 0 2 -1.179400 -3.892610 15.441735 8.192698
227 0 1 0.589700 -3.580161 15.887912 7.409453
228 0 1 0.589700 -4.030188 16.144138 8.825387
229 0 2 -1.179400 -8.267075 18.712505 15.145988
230 0 1 0.589700 -8.370889 17.792685 14.903666
231 0 1 0.589700 -7.739278 19.088205 14.445908
232 0 2 -1.179400 3.289546 11.942656 8.234452
233 0 1 0.589700 3.866372 11.250078 7.917677
234 0 1 0.589700 3.128214 11.718054 9.146802
235 0 2 -1.179400 8.714090 0.919250 12.820320
236 0 1 0.589700 9.010468 0.472215 12.031339
237 0 1 0.589700 9.001209 0.354291 13.534155
238 0 2 -1.179400 -3.626262 8.029860 5.707052
239 0 1 0.589700 -3.380992 7.945786 4.789832
240 0 1 0.589700 -3.026117 7.448152 6.168580
241 0 2 -1.179400 -1.797650 10.058031 4.839044
242 0 1 0.589700 -2.218356 9.666617 5.600392
243 0 1 0.589700 -2.503555 10.504677 4.377835
244 0 2 -1.179400 5.706215 11.585775 11.984715
245 0 1 0.589700 6.440235 10.989264 12.116069
246 0 1 0.589700 5.487158 11.893643 12.860206
247 0 2 -1.179400 3.925833 1.769672 3.575904
248 0 1 0.589700 4.643071 1.239299 3.236074
249 0 1 0.589700 3.464858 1.187091 4.175548
250 0 2 -1.179400 9.236948 17.814259 4.523937
251 0 1 0.589700 8.552986 18.479984 4.563270
252 0 1 0.589700 9.899750 18.118814 5.138341
253 0 2 -1.179400 9.454062 17.247780 1.639290
254 0 1 0.589700 10.035496 17.563768 2.326034
255 0 1 0.589700 9.829653 17.591755 0.832980
256 0 2 -1.179400 6.192579 1.727072 6.596737
257 0 1 0.589700 6.731996 2.216949 5.980513
258 0 1 0.589700 6.209345 0.827399 6.271838
259 0 2 -1.179400 2.754203 17.566463 13.559138
260 0 1 0.589700 3.088675 16.850605 13.022009
261 0 1 0.589700 1.832614 17.631777 13.323445
262 0 2 -1.179400 10.592158 12.050497 8.013907
263 0 1 0.589700 11.337531 12.385342 7.521853
264 0 1 0.589700 10.044920 12.819077 8.167096
265 0 2 -1.179400 2.177458 3.695911 15.297655
266 0 1 0.589700 3.012644 3.516663 14.873874
267 0 1 0.589700 2.194169 3.165116 16.090605
268 0 2 -1.179400 8.493323 13.100440 13.456638
269 0 1 0.589700 9.437569 12.967579 13.463124
270 0 1 0.589700 8.373705 13.951990 13.038182
271 0 2 -1.179400 10.468606 16.349442 7.432141
272 0 1 0.589700 10.010202 15.510667 7.402927
273 0 1 0.589700 10.330072 16.668392 8.320040
274 0 2 -1.179400 7.783381 8.721557 19.057671
275 0 1 0.589700 -2.618855 8.948257 -0.033233
276 0 1 0.589700 7.818976 8.169860 18.279631
277 0 2 -1.179400 -4.540436 11.455552 10.442901
278 0 1 0.589700 -4.619814 11.025732 11.290799
279 0 1 0.589700 -5.246464 12.098760 10.431547
280 0 2 -1.179400 10.880431 5.060909 9.995808
281 0 1 0.589700 11.165037 4.175109 9.773397
282 0 1 0.589700 10.294383 4.942451 10.738324
283 0 2 -1.179400 -7.214607 18.934929 18.007647
284 0 1 0.589700 -7.803845 18.931742 17.258326
285 0 1 0.589700 -7.771369 18.715757 18.749973
286 0 2 -1.179400 8.596242 14.011898 7.137772
287 0 1 0.589700 8.162299 14.618014 7.734419
288 0 1 0.589700 8.528807 14.431902 6.283984
289 0 2 -1.179400 0.422846 11.507050 3.787331
290 0 1 0.589700 1.015932 10.915809 3.328708
291 0 1 0.589700 -0.107222 10.931668 4.334513
292 0 2 -1.179400 -4.818571 22.005198 7.066697
293 0 1 0.589700 -4.836707 21.400879 6.327803
294 0 1 0.589700 -5.714601 22.010592 7.392534
295 0 2 -1.179400 8.428288 20.494625 2.241524
296 0 1 0.589700 7.977095 20.067251 2.965332
297 0 1 0.589700 9.353540 20.339659 2.412427
298 0 2 -1.179400 4.241336 8.322803 11.277376
299 0 1 0.589700 3.415419 8.578335 10.874772
300 0 1 0.589700 4.152813 7.382657 11.432873
301 0 2 -1.179400 12.582531 15.731755 5.470498
302 0 1 0.589700 11.940981 15.954874 6.139677
303 0 1 0.589700 -4.747941 16.274817 5.676401
304 0 2 -1.179400 9.848053 8.557329 10.225582
305 0 1 0.589700 10.675706 8.744894 9.790749
306 0 1 0.589700 9.241044 9.204266 9.871647
307 0 2 -1.179400 2.054624 6.327439 2.103771
308 0 1 0.589700 2.586756 6.713669 2.794833
309 0 1 0.589700 1.884213 5.434046 2.400399
310 0 2 -1.179400 -0.032607 19.050413 15.479670
311 0 1 0.589700 0.510166 18.865484 16.241343
312 0 1 0.589700 0.519520 19.588757 14.917125
313 0 2 -1.179400 -4.598702 19.758215 5.228928
314 0 1 0.589700 -3.715395 19.650620 5.571483
315 0 1 0.589700 -4.474761 20.139126 4.363365
316 0 2 -1.179400 10.988051 5.687893 0.045249
317 0 1 0.589700 11.408524 5.301357 0.809193
318 0 1 0.589700 4.340640 4.989238 18.656351
319 0 2 -1.179400 -3.100935 14.813074 11.471838
320 0 1 0.589700 -2.923623 15.186789 12.331205
321 0 1 0.589700 -2.433053 15.191889 10.905781
322 0 2 -1.179400 -2.480484 -0.246952 13.035633
323 0 1 0.589700 -2.560019 0.184033 13.882927
324 0 1 0.589700 -1.556655 -0.473900 12.967942
325 0 2 -1.179400 7.598993 16.259851 8.445172
326 0 1 0.589700 8.378428 16.724421 8.740791
327 0 1 0.589700 7.518323 16.492819 7.524252
328 0 2 -1.179400 4.068512 16.227247 7.058658
329 0 1 0.589700 4.771533 16.849869 6.884882
330 0 1 0.589700 4.447719 15.598800 7.669495
331 0 2 -1.179400 -3.518054 12.772592 4.947727
332 0 1 0.589700 -2.813354 12.849408 5.585194
333 0 1 0.589700 -4.316521 12.838348 5.464541
334 0 2 -1.179400 11.349455 21.471119 0.192622
335 0 1 0.589700 11.387456 20.872210 0.935121
336 0 1 0.589700 10.468905 21.836983 0.223528
337 0 2 -1.179400 -0.533168 18.152203 4.474004
338 0 1 0.589700 0.310131 18.309587 4.890275
339 0 1 0.589700 -0.585180 17.200289 4.389013
340 0 2 -1.179400 8.054260 21.539886 13.797848
341 0 1 0.589700 7.107491 21.579136 13.903910
342 0 1 0.589700 8.217349 20.675539 13.422280
343 0 2 -1.179400 -5.885115 14.830899 13.436996
344 0 1 0.589700 -5.597947 15.716216 13.215975
345 0 1 0.589700 -5.084528 14.370137 13.676771
346 0 2 -1.179400 0.810353 14.619234 16.330959
347 0 1 0.589700 0.478279 14.799129 17.206249
348 0 1 0.589700 0.297832 15.187880 15.760590
349 0 2 -1.179400 4.337879 1.251332 -0.017387
350 0 1 0.589700 5.208962 1.192404 0.365764
351 0 1 0.589700 4.156002 2.190138 -0.055493
352 0 2 -1.179400 -5.989498 17.612663 12.053880
353 0 1 0.589700 -6.034933 18.450935 12.511684
354 0 1 0.589700 -5.302640 17.734135 11.403959
355 0 2 -1.179400 -8.546035 5.364385 16.207062
356 0 1 0.589700 -8.012323 4.582489 16.339739
357 0 1 0.589700 -8.247665 5.977727 16.875237
358 0 2 -1.179400 6.776002 6.997991 17.029707
359 0 1 0.589700 7.065486 6.973616 16.121912
360 0 1 0.589700 6.055898 7.625360 17.034451
361 0 2 -1.179400 1.351312 21.981770 5.051481
362 0 1 0.589700 1.120220 22.021620 5.975317
363 0 1 0.589700 0.596527 22.351814 4.600471
364 0 2 -1.179400 -2.904907 16.398468 13.689140
365 0 1 0.589700 -2.063544 16.323471 14.131319
366 0 1 0.589700 -3.490811 16.760712 14.348909
367 0 2 -1.179400 8.104726 7.897962 3.513209
368 0 1 0.589700 8.564243 8.711437 3.716381
369 0 1 0.589700 7.507597 8.133131 2.808012
370 0 2 -1.179400 -1.047189 9.953790 0.727089
371 0 1 0.589700 -1.323404 10.609170 1.364500
372 0 1 0.589700 -0.356145 10.384554 0.229825
373 0 2 -1.179400 -2.556176 16.579683 18.718279
374 0 1 0.589700 -2.750138 16.106079 17.913036
375 0 1 0.589700 -3.389758 16.617918 19.179443
376 0 2 -1.179400 -0.868833 16.930355 7.345532
377 0 1 0.589700 -0.033116 16.839117 6.895745
378 0 1 0.589700 -0.797132 17.758230 7.818491
379 0 2 -1.179400 8.672000 15.881674 12.259764
380 0 1 0.589700 9.151458 15.384732 11.601088
381 0 1 0.589700 9.239095 15.871109 13.025901
382 0 2 -1.179400 -5.523984 14.000607 10.298982
383 0 1 0.589700 -5.399501 14.572381 9.544818
384 0 1 0.589700 -4.834189 14.255267 10.906176
385 0 2 -1.179400 -4.236420 20.413900 9.189588
386 0 1 0.589700 -3.361354 20.653902 9.483162
387 0 1 0.589700 -4.389064 20.962563 8.423661
388 0 2 -1.179400 7.006334 4.304246 15.470983
389 0 1 0.589700 7.253155 3.851704 14.668193
390 0 1 0.589700 7.821004 4.680865 15.794444
391 0 2 -1.179400 -1.652642 22.407244 14.837865
392 0 1 0.589700 -1.051935 23.047743 14.462254
393 0 1 0.589700 -2.355468 22.933964 15.211712
394 0 2 -1.179400 0.479829 10.514022 8.567854
395 0 1 0.589700 0.955275 10.072266 9.267173
396 0 1 0.589700 1.129351 10.643628 7.882127
397 0 2 -1.179400 -8.404274 0.853189 17.360054
398 0 1 0.589700 -8.349650 0.683245 18.296423
399 0 1 0.589700 -9.240919 1.297684 17.245579
400 0 2 -1.179400 4.163572 21.750462 7.199775
401 0 1 0.589700 3.276296 22.017601 7.425700
402 0 1 0.589700 4.718819 22.435366 7.567528
403 0 2 -1.179400 4.015253 18.168755 18.800976
404 0 1 0.589700 3.138379 18.151957 18.427002
405 0 1 0.589700 4.301784 17.256096 18.779345
406 0 2 -1.179400 6.322821 8.585295 9.381741
407 0 1 0.589700 5.806017 8.444809 10.170392
408 0 1 0.589700 6.934666 7.851402 9.363937
409 0 2 -1.179400 4.040377 15.207968 12.248807
410 0 1 0.589700 4.814268 15.553451 11.811034
411 0 1 0.589700 3.438182 14.997027 11.540323
412 0 2 -1.179400 -1.756057 20.145374 5.756849
413 0 1 0.589700 -1.678028 21.004850 5.344691
414 0 1 0.589700 -1.480115 19.527212 5.083476
415 0 2 -1.179400 9.611250 17.604908 9.912421
416 0 1 0.589700 9.978354 16.976046 10.530191
417 0 1 0.589700 10.196205 18.359400 9.957974
418 0 2 -1.179400 6.350462 17.249063 6.189330
419 0 1 0.589700 6.323134 17.646843 5.322857
420 0 1 0.589700 6.300307 17.989750 6.790923
421 0 2 -1.179400 11.025868 2.267740 10.536081
422 0 1 0.589700 -7.090938 2.139971 11.480221
423 0 1 0.589700 10.121762 2.159956 10.252964
424 0 2 -1.179400 3.091731 19.260551 2.253326
425 0 1 0.589700 3.762122 19.467999 1.607811
426 0 1 0.589700 2.389951 19.883717 2.076502
427 0 2 -1.179400 8.065119 22.413128 4.731566
428 0 1 0.589700 7.284310 22.949945 4.847844
429 0 1 0.589700 8.042803 21.793863 5.457974
430 0 2 -1.179400 -1.335064 12.769690 18.368120
431 0 1 0.589700 -1.849165 13.489051 18.005877
432 0 1 0.589700 -1.930342 12.326069 18.967461
433 0 2 -1.179400 2.919591 21.265448 9.933798
434 0 1 0.589700 3.869215 21.350584 9.947142
435 0 1 0.589700 2.610862 22.094826 9.571690
436 0 2 -1.179400 -1.990221 6.391057 14.032415
437 0 1 0.589700 -2.514772 6.944849 13.458493
438 0 1 0.589700 -1.655196 6.989900 14.696254
439 0 2 -1.179400 -3.618875 10.283077 19.137228
440 0 1 0.589700 -2.991075 9.599782 18.909950
441 0 1 0.589700 2.958431 10.181643 0.754986
442 0 2 -1.179400 -1.864558 21.631350 9.797804
443 0 1 0.589700 -2.050070 22.316875 9.159018
444 0 1 0.589700 -1.308787 22.056986 10.445992
445 0 2 -1.179400 7.644902 12.933456 10.205869
446 0 1 0.589700 7.841115 12.098471 9.783212
447 0 1 0.589700 6.944479 12.729282 10.819778
448 0 2 -1.179400 7.710439 20.650318 6.958010
449 0 1 0.589700 6.853869 20.331036 7.230448
450 0 1 0.589700 8.255374 20.565664 7.735565
451 0 2 -1.179400 -6.170035 19.716949 13.752089
452 0 1 0.589700 -6.613565 20.343050 13.183614
453 0 1 0.589700 -5.577234 20.252039 14.274950
454 0 2 -1.179400 4.520508 5.742811 12.178199
455 0 1 0.589700 5.058636 6.242030 12.788080
456 0 1 0.589700 3.645067 5.769444 12.554949
457 0 2 -1.179400 -2.790036 1.394110 2.865521
458 0 1 0.589700 -2.471771 0.885304 2.123560
459 0 1 0.589700 -2.636809 0.831134 3.620960
460 0 2 -1.179400 6.782793 12.212048 6.474859
461 0 1 0.589700 6.118782 12.665825 5.961352
462 0 1 0.589700 7.325241 12.912936 6.831662
463 0 2 -1.179400 -2.292636 18.290972 11.674419
464 0 1 0.589700 -2.397703 19.197218 11.962610
465 0 1 0.589700 -2.597107 17.765762 12.410811
466 0 2 -1.179400 -0.753718 7.156869 1.482685
467 0 1 0.589700 -0.604065 8.085557 1.306997
468 0 1 0.589700 0.054198 6.856218 1.890851
469 0 2 -1.179400 1.554722 15.942783 6.203693
470 0 1 0.589700 2.382537 16.071035 6.659091
471 0 1 0.589700 1.556207 15.017651 5.959211
472 0 2 -1.179400 1.437693 12.600599 12.563305
473 0 1 0.589700 0.501835 12.540624 12.735738
474 0 1 0.589700 1.846410 12.473347 13.415032
475 0 2 -1.179400 -6.113894 16.211792 16.933083
476 0 1 0.589700 -5.915797 15.421363 17.432783
477 0 1 0.589700 -6.526047 16.799576 17.562458
478 0 2 -1.179400 4.183188 20.419716 16.155714
479 0 1 0.589700 4.046700 20.685961 17.060986
480 0 1 0.589700 4.259367 19.466375 16.193623
481 0 2 -1.179400 -1.431113 22.100965 1.226817
482 0 1 0.589700 -1.908889 21.292425 1.047597
483 0 1 0.589700 -1.783796 22.734070 0.604969
484 0 2 -1.179400 10.746663 22.090197 8.085571
485 0 1 0.589700 10.975081 22.722942 8.763287
486 0 1 0.589700 10.603502 21.270548 8.556513
487 0 2 -1.179400 -1.224719 13.617379 6.433856
488 0 1 0.589700 -0.316208 13.375849 6.594644
489 0 1 0.589700 -1.658685 13.486486 7.272454
490 0 2 -1.179400 0.336548 20.259918 18.967562
491 0 1 0.589700 -0.564618 19.974627 19.095133
492 0 1 0.589700 7.422924 20.514019 0.542268
493 0 2 -1.179400 -3.995834 7.862195 8.883518
494 0 1 0.589700 -3.290658 8.440611 8.601013
495 0 1 0.589700 -4.727535 8.450207 9.058526
496 0 2 -1.179400 6.814453 19.279026 4.025348
497 0 1 0.589700 6.487118 18.741386 3.307892
498 0 1 0.589700 6.091599 19.866291 4.235962
499 0 2 -1.179400 3.646316 15.380253 16.973785
500 0 1 0.589700 4.174172 14.672373 17.338680
501 0 1 0.589700 2.809548 14.969766 16.769501
502 0 2 -1.179400 10.755417 21.734314 4.848848
503 0 1 0.589700 9.899814 22.153791 4.799053
504 0 1 0.589700 10.624969 20.988401 5.431707
505 0 2 -1.179400 3.257019 -0.640031 15.288351
506 0 1 0.589700 3.363950 -0.143954 14.480285
507 0 1 0.589700 3.700567 46.056274 15.297910
508 0 2 -1.179400 0.597269 -0.653052 15.075150
509 0 1 0.589700 1.546377 -0.634920 15.164697
510 0 1 0.589700 0.433310 -0.312355 14.199670
511 0 2 -1.179400 -5.263939 13.124180 6.995183
512 0 1 0.589700 -4.465411 12.981909 7.496396
513 0 1 0.589700 -5.255676 14.059024 6.790739
514 0 2 -1.179400 -3.310830 17.157013 6.027944
515 0 1 0.589700 -2.417918 17.195354 6.360084
516 0 1 0.589700 -3.219694 17.263924 5.085194
517 0 2 -1.179400 -3.790349 3.536560 15.788282
518 0 1 0.589700 -3.521596 2.622925 15.695724
519 0 1 0.589700 -3.014461 3.984372 16.117010
520 0 2 -1.179400 11.867037 17.449207 3.039127
521 0 1 0.589700 11.705257 16.776934 3.698011
522 0 1 0.589700 12.038077 16.958424 2.238905
523 0 2 -1.179400 -4.429819 10.818395 15.371658
524 0 1 0.589700 -4.693499 10.026301 15.837308
525 0 1 0.589700 -4.679117 10.655164 14.466180
526 0 2 -1.179400 6.913837 7.001254 6.088798
527 0 1 0.589700 6.607265 6.819461 6.972954
528 0 1 0.589700 7.863339 6.935833 6.146821
529 0 2 -1.179400 9.477841 5.640170 3.952164
530 0 1 0.589700 9.659386 5.907140 4.849274
531 0 1 0.589700 8.927993 6.339222 3.603194
532 0 2 -1.179400 12.603592 1.658607 3.512383
533 0 1 0.589700 13.446093 1.755439 3.076619
534 0 1 0.589700 12.141608 2.473842 3.322208
535 0 2 -1.179400 -4.568043 6.989578 18.631353
536 0 1 0.589700 -4.858647 6.144406 18.291128
537 0 1 0.589700 1.895779 7.054287 0.230454
538 0 2 -1.179400 11.790054 6.514368 7.919907
539 0 1 0.589700 11.548781 5.966475 8.663277
540 0 1 0.589700 -5.463261 6.903532 8.168671
541 0 2 -1.179400 6.387269 10.143294 15.871134
542 0 1 0.589700 5.730961 10.312853 16.541595
543 0 1 0.589700 5.883717 9.885453 15.103581
544 0 2 -1.179400 5.027764 10.023646 7.212378
545 0 1 0.589700 5.262067 9.386919 7.884361
546 0 1 0.589700 5.700287 10.699339 7.273981
547 0 2 -1.179400 -6.782111 1.918403 13.615662
548 0 1 0.589700 -7.706273 1.710489 13.726016
549 0 1 0.589700 -6.323477 1.157521 13.968071
550 0 2 -1.179400 8.652827 9.342693 0.234992
551 0 1 0.589700 7.986609 9.307014 0.915924
552 0 1 0.589700 9.445910 9.614024 0.689918
553 0 2 -1.179400 -1.970267 6.130315 6.818172
554 0 1 0.589700 -1.242736 6.429565 7.357382
555 0 1 0.589700 -2.452485 5.525960 7.378451
556 0 2 -1.179400 4.849271 18.425655 10.311601
557 0 1 0.589700 3.932151 18.193239 10.431740
558 0 1 0.589700 5.329043 17.639139 10.566640
559 0 2 -1.179400 4.547886 9.645058 13.769179
560 0 1 0.589700 4.271106 9.344266 12.907694
561 0 1 0.589700 3.735065 9.765325 14.252846
562 0 2 -1.179400 -1.294325 8.182981 16.014317
563 0 1 0.589700 -0.433724 8.237079 16.421112
564 0 1 0.589700 -1.613365 9.084962 16.009895
565 0 2 -1.179400 1.208325 8.483087 16.955185
566 0 1 0.589700 1.466808 8.617310 17.862810
567 0 1 0.589700 1.225352 7.533259 16.838684
568 0 2 -1.179400 -3.997625 17.633865 9.634655
569 0 1 0.589700 -4.116268 18.451679 9.153846
570 0 1 0.589700 -3.214519 17.778391 10.159010
571 0 2 -1.179400 -6.078034 -0.288294 18.481220
572 0 1 0.589700 -6.739538 -0.597989 17.867964
573 0 1 0.589700 -5.790066 -1.077427 18.937380
574 0 2 -1.179400 0.290508 -0.885578 12.323898
575 0 1 0.589700 0.693849 45.764637 12.331476
576 0 1 0.589700 0.703543 -0.094357 11.981537
577 0 2 -1.179400 -3.557758 7.856412 12.158218
578 0 1 0.589700 -4.152222 7.163078 11.877743
579 0 1 0.589700 -2.939153 7.946850 11.438537
580 0 2 -1.179400 -9.434258 15.440538 17.338589
581 0 1 0.589700 8.030414 14.976974 16.784571
582 0 1 0.589700 -8.870865 14.752265 17.687220
583 0 2 -1.179400 2.958952 0.909030 13.064534
584 0 1 0.589700 2.148314 1.402079 13.168340
585 0 1 0.589700 3.045541 0.786489 12.123244
586 0 2 -1.179400 -3.090781 1.927621 11.439944
587 0 1 0.589700 -3.626952 2.421030 12.056202
588 0 1 0.589700 -2.901295 1.104721 11.888380
589 0 2 -1.179400 -5.597804 -0.243394 14.829866
590 0 1 0.589700 -5.070171 -1.040629 14.824486
591 0 1 0.589700 -6.474418 -0.541470 15.058969
592 0 2 -1.179400 -8.555502 -0.610600 15.021767
593 0 1 0.589700 8.797109 45.862988 15.194363
594 0 1 0.589700 -8.471027 -0.199608 15.878382
595 0 2 -1.179400 -5.941672 9.624148 9.151661
596 0 1 0.589700 -5.490630 10.208897 9.756726
597 0 1 0.589700 -5.544891 9.807130 8.304369
598 0 2 -1.179400 7.401621 2.218118 17.689295
599 0 1 0.589700 7.010635 1.811450 18.458506
600 0 1 0.589700 7.218015 3.151959 17.789494
601 0 2 -1.179400 4.399981 8.280507 17.364716
602 0 1 0.589700 4.149816 9.179006 17.577793
603 0 1 0.589700 4.130481 7.767851 18.123163
604 0 2 -1.179400 1.792184 3.673438 2.999882
605 0 1 0.589700 2.672321 3.414177 3.260184
606 0 1 0.589700 1.587482 3.108291 2.258364
607 0 2 -1.179400 3.983942 7.941123 3.080597
608 0 1 0.589700 4.712386 8.396545 3.496000
609 0 1 0.589700 4.396343 7.332607 2.471244
610 0 2 -1.179400 3.470665 7.238863 7.067815
611 0 1 0.589700 3.096616 8.119141 7.051189
612 0 1 0.589700 2.876217 6.713285 6.537310
613 0 2 -1.179400 4.805368 4.089037 17.041142
614 0 1 0.589700 4.511006 3.178690 17.030968
615 0 1 0.589700 5.526584 4.113374 16.418165
616 0 2 -1.179400 13.365911 11.378866 0.572134
617 0 1 0.589700 12.491018 11.179674 0.895028
618 0 1 0.589700 13.635697 10.585617 0.111961
619 0 2 -1.179400 11.722099 11.052444 4.146546
620 0 1 0.589700 12.635122 11.122519 3.880807
621 0 1 0.589700 11.504611 10.129820 4.015745
622 0 2 -1.179400 3.190581 1.735092 16.895590
623 0 1 0.589700 3.282693 0.901515 16.436291
624 0 1 0.589700 2.928402 1.490543 17.779009
625 0 2 -1.179400 -0.182033 -0.263187 8.267626
626 0 1 0.589700 0.090449 0.148931 9.083605
627 0 1 0.589700 -1.132864 -0.303980 8.326184
628 0 2 -1.179400 6.433930 -0.943183 8.547296
629 0 1 0.589700 7.213986 -0.658227 8.078350
630 0 1 0.589700 6.174497 -0.180413 9.061357
631 0 2 -1.179400 1.927578 9.510278 6.105524
632 0 1 0.589700 1.496695 8.947097 5.466455
633 0 1 0.589700 2.427643 10.132442 5.581376
634 0 2 -1.179400 7.793751 2.980680 4.522608
635 0 1 0.589700 8.107670 2.077564 4.487688
636 0 1 0.589700 8.463256 3.450347 5.014356
637 0 2 -1.179400 -4.946032 10.170276 12.774026
638 0 1 0.589700 -5.848025 9.885206 12.896127
639 0 1 0.589700 -4.457842 9.359851 12.636045
640 0 2 -1.179400 -1.838650 11.421903 11.006194
641 0 1 0.589700 -1.338650 12.174107 10.693806
642 0 1 0.589700 -2.749572 11.670286 10.871498
643 0 2 -1.179400 -2.906861 -0.543020 8.848947
644 0 1 0.589700 -3.537532 0.062090 9.233573
645 0 1 0.589700 -3.734217 46.102406 8.408710
646 0 2 -1.179400 8.264278 10.481503 12.490232