LAMMPS data file via write_data, version 30 Jul 2021, timestep = 22500000

1296 atoms
2 atom types
864 bonds
1 bond types
432 angles
1 angle types

-10.671451396458023 12.651451396458024 xlo xhi
-9.109907424791643 12.099905424791643 ylo yhi
0.24113631716451778 21.61886268283892 zlo zhi
-9.37240292760626 1.7460094020343857 2.7525956136706866 xy xz yz

Masses

1 1.008
2 15.999

Pair Coeffs # lj/cut/tip4p/long/omp

1 0 0
2 0.21084 3.1668

Bond Coeffs # harmonic/omp

1 450 0.9572

Angle Coeffs # harmonic/omp

1 55 104.52

Atoms # full

261 87 1 0.5897 -6.729018698417404 -5.080532233516339 1.3137699417034638 1 1 0
298 100 2 -1.1794 -6.08482527999331 -7.267487745399816 4.087198594967647 1 1 0
280 94 2 -1.1794 -9.570854899322537 -4.649284134238948 1.6717661015498402 1 1 0
299 100 1 0.5897 -6.732224661940821 -7.972517547820521 4.092384456824268 1 1 0
270 90 1 0.5897 -8.477068123981205 -7.407075431780354 2.223266391574626 1 1 0
163 55 2 -1.1794 -7.226328786436553 -8.010527596161173 0.9957227211112515 1 1 0
164 55 1 0.5897 -6.372634538864059 -8.262623263362881 1.347560580630269 1 1 0
269 90 1 0.5897 -9.308443814938824 -6.157089295641629 2.4182174224665456 1 1 0
268 90 2 -1.1794 -9.120190832469136 -7.009692403054634 2.8103555332025856 1 1 0
323 108 1 0.5897 -6.325392946357484 -5.676369807688408 3.5522521692170628 1 1 0
324 108 1 0.5897 -7.237892593404489 -4.532825760320477 3.941270049957435 1 1 0
73 25 2 -1.1794 -8.52583835548383 -3.729115134769793 5.019094629828925 1 0 0
314 105 1 0.5897 -8.983122339555209 -6.682316669776428 4.566413306463954 1 1 0
322 108 2 -1.1794 -6.571525998929884 -4.785783994684933 3.3023805047003707 1 1 0
300 100 1 0.5897 -5.250125803263326 -7.706937074718963 4.249398542003251 1 1 0
282 94 1 0.5897 -10.400665366454579 -4.178012728267122 1.7458285192762406 1 1 0
259 87 2 -1.1794 -6.83266840665244 -5.270973876359816 0.3815118792216229 1 1 0
313 105 2 -1.1794 -9.083550814660185 -6.368424825747825 5.465034411376487 1 1 0
315 105 1 0.5897 -8.930791199272083 -5.425228862556758 5.408197469218748 1 1 0
260 87 1 0.5897 -6.957446174335258 -6.219179406909939 0.34274666956633876 1 1 0
275 92 1 0.5897 -10.527795281417884 -7.82190880300706 3.4981843329162228 1 1 0
281 94 1 0.5897 -8.918485029180731 -3.964753974870436 1.5231951424782468 1 1 0
257 86 1 0.5897 -12.650395738992792 -3.737964249042143 2.3382094796942186 1 1 0
75 25 1 0.5897 -9.174541862406503 -3.272458839067948 4.483586840686991 1 0 0
165 55 1 0.5897 -7.418345993915752 -8.674207613447466 0.3333320148092868 1 1 0
1226 409 1 0.5897 -9.460606457487723 -5.985569765958321 0.3620703384689773 0 0 1
1141 381 2 -1.1794 -10.180490335199611 -9.066634889631617 0.27402841755736107 0 0 1
429 143 1 0.5897 -6.579942752643965 -6.957753826223646 8.649254023222062 1 0 0
428 143 1 0.5897 -6.891025604534113 -7.160804107904668 10.116829876478626 1 0 0
427 143 2 -1.1794 -6.20006574120831 -6.867043244085755 9.523074222850923 1 0 0
419 140 1 0.5897 -9.085745285131308 -5.456826654946623 8.727782419744406 1 0 0
418 140 2 -1.1794 -9.822514269265552 -5.955093769015991 9.081581331654315 1 0 0
413 138 1 0.5897 -7.827642300147455 -3.62368391591888 7.804542980132033 1 0 0
616 206 2 -1.1794 -7.582578171857268 -7.718834756500906 7.199473299066504 1 1 0
420 140 1 0.5897 -9.42082196034649 -6.586155737155308 9.67869207188406 1 0 0
618 206 1 0.5897 -7.998261872825303 -7.147494499988873 6.553783930924145 1 1 0
350 117 1 0.5897 -7.599001669234457 -4.3573317313438995 9.942021759785826 0 0 0
414 138 1 0.5897 -6.9127467169900125 -4.818759554773797 7.641937630077509 1 0 0
412 138 2 -1.1794 -7.733393831375242 -4.543820728130678 8.050788317475384 1 0 0
627 209 1 0.5897 -10.594283363392362 -6.839522854656568 6.438366047352089 1 1 0
349 117 2 -1.1794 -7.566253443962007 -3.9849714411729913 10.823150296432347 0 0 0
351 117 1 0.5897 -7.439554143541972 -3.04668871585832 10.682573843029695 0 0 0
633 211 1 0.5897 -5.75478444540456 -6.18962714145054 5.666119785242348 1 1 0
74 25 1 0.5897 -8.424170645560395 -3.1778580417440265 5.794900911001404 1 0 0
684 228 1 0.5897 -8.86545073536395 -6.39287260953423 14.213821847891424 0 0 0
740 247 1 0.5897 -11.290430846609821 -3.5295158910883195 12.063540060595663 1 0 0
652 218 2 -1.1794 -5.95536587024144 -5.130991379138528 12.638782365259742 0 0 0
682 228 2 -1.1794 -8.125646998312472 -6.722950961370135 13.703975670485555 0 0 0
780 260 1 0.5897 -7.777404831126612 -3.9376695916327424 15.198943872799466 0 0 0
779 260 1 0.5897 -7.528615719760904 -2.9059197481926358 14.119371742265484 0 0 0
778 260 2 -1.1794 -8.22014783478267 -3.4379062398486893 14.513127912461602 0 0 0
768 256 1 0.5897 -9.923747591368247 -2.6309853789243514 14.918412056370716 0 0 0
654 218 1 0.5897 -6.464117522617416 -4.659766499455391 11.979053064427282 0 0 0
653 218 1 0.5897 -6.594758355971442 -5.6891813676515035 13.081363608087536 0 0 0
661 221 2 -1.1794 -9.721849448720317 -4.39257110746026 12.394942881305024 0 0 0
766 256 2 -1.1794 -10.741111807965067 -2.1330149256493165 14.908451061777562 0 0 0
662 221 1 0.5897 -9.361660888849077 -4.22916795588964 13.266527127945517 0 0 0
663 221 1 0.5897 -8.979966914055149 -4.272015907059669 11.802203983714273 0 0 0
729 243 1 0.5897 -8.279661380803969 -7.004217440898108 11.951221692762624 1 0 0
727 243 2 -1.1794 -8.41196941841471 -7.303711570757409 11.051829971169095 1 0 0
788 263 1 0.5897 -5.332143628949699 -4.767188412610378 15.602013414884293 0 0 0
789 263 1 0.5897 -4.886181135868082 -4.705918456850878 14.156617158855054 0 0 0
758 253 1 0.5897 -9.858044737627067 -5.496629788205265 16.151052054064547 0 0 0
1248 416 1 0.5897 -6.0696688465944435 -1.5190144927985996 20.46034994835559 0 0 0
1130 377 1 0.5897 -7.702871535042766 -1.9758867204232908 18.435926027995922 0 0 0
1121 374 1 0.5897 -4.886990804418642 -3.748544698725177 18.28715265126043 0 0 0
1143 381 1 0.5897 -8.378596305083608 -5.36553192689904 21.536032365328484 0 0 0
1152 384 1 0.5897 -6.784995011795731 -4.29620543053791 19.611135010689065 0 0 0
1225 409 2 -1.1794 -8.005713495071134 -3.723950263421006 20.971495192277963 0 0 0
1227 409 1 0.5897 -8.802986825273276 -3.2762492551870217 20.688562307103627 0 0 0
1109 370 1 0.5897 -9.123724111236234 -3.792953158795914 17.601650267578894 0 0 0
1108 370 2 -1.1794 -9.77781936419803 -4.490640344789716 17.561580509542523 0 0 0
1089 363 1 0.5897 -6.666365884672599 -4.761981850555266 17.273139088824678 0 0 0
1219 407 2 -1.1794 -10.290312637660545 -2.3268563069968096 20.1831069808329 0 0 0
1097 366 1 0.5897 -8.965529232851964 -5.975881731935155 18.456766895759337 0 0 0
1087 363 2 -1.1794 -6.8918696517459335 -4.959969907234242 16.36426538229245 0 0 0
1151 384 1 0.5897 -6.068683601037424 -5.609507430930177 19.37918585220685 0 0 0
1150 384 2 -1.1794 -6.173208403720395 -4.729959238489064 19.016356321449994 0 0 0
1129 377 2 -1.1794 -8.122406711229786 -2.2157217290167486 17.60975273100405 0 0 0
1131 377 1 0.5897 -7.444562894857148 -2.0790560240626768 16.947851322419115 0 0 0
1088 363 1 0.5897 -6.828348692289603 -5.9130815226229085 16.303435940132058 0 0 0
1221 407 1 0.5897 -10.713874194920153 -2.5021098005428595 19.342887519052827 0 0 0
256 86 2 -1.1794 -11.933659322891849 -3.2668336145653436 1.913239403032713 1 1 0
69 23 1 0.5897 -10.969709073696077 -2.584032998479116 3.4107902324463737 1 0 0
272 91 1 0.5897 -9.375152958958637 -1.3177607071636608 1.2558444372552662 1 1 0
271 91 2 -1.1794 -10.199937119404686 -0.8923893299050771 1.0214962402534087 1 1 0
82 28 2 -1.1794 -8.984150668233042 -0.1227639870536521 4.2336924672826886 1 0 0
44 15 1 0.5897 -10.021506564939441 0.968441169927404 0.6743888795440502 1 0 0
258 86 1 0.5897 -12.363912360055966 -2.7095037167789817 1.2648563779723334 1 1 0
83 28 1 0.5897 -9.465315943748553 -0.9480493685831135 4.293645591232741 1 0 0
67 23 2 -1.1794 -10.655586002412232 -2.4079283320154685 4.29758710747757 1 0 0
59 20 1 0.5897 -13.700156641298662 -0.6737981952657783 3.3158248949490794 1 0 0
68 23 1 0.5897 -11.449688313680166 -2.3724730934763487 4.830869296894404 1 0 0
52 18 2 -1.1794 -12.132105737291132 -0.06102233736746854 2.754377288650929 1 0 0
98 33 1 0.5897 -11.929790971490267 0.18942396404997197 4.541301417999908 1 0 0
53 18 1 0.5897 -12.249282894526633 0.8529007621081419 2.4951737960516183 1 0 0
54 18 1 0.5897 -11.380332377011529 -0.3608471553664945 2.243344784990607 1 0 0
301 101 2 -1.1794 -7.957538669375629 -2.4139687168249147 1.3920921562794217 1 1 0
97 33 2 -1.1794 -11.873865013174747 0.5890790035618405 5.409206758925226 1 0 0
107 36 1 0.5897 -9.336989455978907 1.462287981428279 3.4321461479322783 1 0 0
99 33 1 0.5897 -11.662438568975691 1.5067203435510699 5.237640057174704 1 0 0
273 91 1 0.5897 -10.559107178103433 -1.4354074174008353 0.31990865507977956 1 1 0
527 176 1 0.5897 -12.05191281204129 1.5733307316358989 9.042102637619083 1 0 0
526 176 2 -1.1794 -12.741550363373163 1.060031930614734 9.463043421072832 1 0 0
426 142 1 0.5897 -8.894005057324728 -1.5042728350822383 7.207880620737051 1 0 0
411 137 1 0.5897 -13.450942274542015 0.45901886452516116 6.48214420204683 1 0 0
424 142 2 -1.1794 -8.047373798332233 -1.932499822995978 7.081355354259864 1 0 0
402 134 1 0.5897 -11.089430061680957 -0.29723098560626227 6.677554304193218 1 0 0
401 134 1 0.5897 -11.33113947714624 -1.237250522626911 7.83936439175423 1 0 0
400 134 2 -1.1794 -10.632029146669833 -0.817497254086101 7.338035201698199 1 0 0
537 179 1 0.5897 -9.773746636790696 0.08011305999387197 8.88999204328299 1 0 0
536 179 1 0.5897 -9.840910133579259 -0.036807582562239816 10.397812916231594 1 0 0
535 179 2 -1.1794 -9.227466864307397 0.09905680953545648 9.675679481492175 1 0 0
528 176 1 0.5897 -12.294213494272023 0.5865868711334308 10.16437691670239 1 0 0
435 145 1 0.5897 -7.780498738259906 -1.0325940005673093 9.794528270157068 0 0 0
520 174 2 -1.1794 -10.780819257386984 2.471049109281916 8.131920162373927 1 0 0
522 174 1 0.5897 -10.148108597144798 2.162975881016129 7.4830962660295315 1 0 0
410 137 1 0.5897 -13.71741929400039 0.4387048305828838 7.97221840341551 1 0 0
415 139 2 -1.1794 -8.736452827140496 1.573116011243366 6.422034621460869 1 0 0
425 142 1 0.5897 -7.440753604803007 -1.215300678837914 6.897351282859196 1 0 0
433 145 2 -1.1794 -6.963143103851941 -1.416099799028867 10.112314276564302 0 0 0
430 144 2 -1.1794 -12.544777653609668 -2.190115807902779 8.430638097635324 1 0 0
458 153 1 0.5897 -10.431841729314893 2.5484765729167194 10.075379719282049 0 0 0
417 139 1 0.5897 -9.12999019007572 1.0537242144827577 5.720993072704222 1 0 0
790 264 2 -1.1794 -11.076405234325364 0.38394710733949644 13.893492635934445 0 0 0
888 296 1 0.5897 -10.603846088050247 2.7812870141277877 15.043804393073193 0 0 0
762 254 1 0.5897 -9.351890132907732 2.2273577102203372 12.123506515699148 0 0 0
761 254 1 0.5897 -9.57827146404368 1.277744732120638 13.280597284527996 0 0 0
760 254 2 -1.1794 -8.88708357611224 1.727287416420408 12.794336518527373 0 0 0
896 299 1 0.5897 -8.095863768416333 2.737801664286657 15.469328775248279 0 0 0
792 264 1 0.5897 -11.71337301972438 0.7175636326824968 14.52529192048714 0 0 0
769 257 2 -1.1794 -12.773620052708772 3.0393875674757336 12.36862975253315 0 0 0
837 279 1 0.5897 -11.368649470109528 -0.1774851126173509 12.201971514305814 1 0 0
791 264 1 0.5897 -10.830839602295729 -0.4769610874470587 14.232161740890502 0 0 0
770 257 1 0.5897 -12.25239177402441 3.1130443014293654 13.167998644777706 0 0 0
865 289 2 -1.1794 -13.035135366284191 1.2319170009418592 15.596632577636312 0 0 0
836 279 1 0.5897 -11.527641273898622 -1.3527824512565205 11.261230979616407 1 0 0
835 279 2 -1.1794 -11.340447275728575 -0.41419385187973035 11.274984416611915 1 0 0
1195 399 2 -1.1794 -9.575525791073487 1.9853339627357158 16.222861151474298 0 0 0
1009 337 2 -1.1794 -11.358309134869128 3.5770415168783902 20.80482678806456 0 -1 0
1260 420 1 0.5897 -10.117065292249178 3.0094193542452388 19.5462537714525 0 0 0
1205 402 1 0.5897 -12.18510747438876 1.2848619385670723 18.229548853113368 0 0 0
1259 420 1 0.5897 -9.258296447458397 1.7781810939478646 19.35068874993275 0 0 0
1258 420 2 -1.1794 -9.383500507231904 2.6720734704496873 19.03216579103528 0 0 0
1247 416 1 0.5897 -5.879929719326385 -0.8507384802133195 19.115268588262644 0 0 0
1196 399 1 0.5897 -9.881465259484298 1.0807932442200734 16.289184933905776 0 0 0
1250 417 1 0.5897 -11.847556922614475 0.6923056879648541 20.43744902182246 0 0 0
1236 412 1 0.5897 -7.990289352423814 -0.18639180550463585 20.1295266633828 0 0 0
1216 406 2 -1.1794 -12.565980502269193 2.991159966327311 17.771133591206464 0 0 0
1235 412 1 0.5897 -9.46741415420377 -0.4997850775410573 20.021359238025003 0 0 0
1234 412 2 -1.1794 -8.854468186574682 0.2248222830131077 20.14560031080974 0 0 0
1099 367 2 -1.1794 -10.223536049442322 -0.5486567353982856 16.958427402063716 0 0 0
1100 367 1 0.5897 -9.420127077545395 -1.0080316356311734 17.202643967884285 0 0 0
1206 402 1 0.5897 -11.586887283508204 -0.09770065691921914 18.08022083017688 0 0 0
1204 402 2 -1.1794 -12.241975130825828 0.3941374001743476 18.57532979078354 0 0 0
1197 399 1 0.5897 -9.617189769772327 2.31901267280592 17.118989125536416 0 0 0
1229 410 1 0.5897 -8.205295892914386 3.488100035703356 18.147851633449942 0 0 0
1246 416 2 -1.1794 -6.54698425273536 -1.2450529624962927 19.67726067020701 0 0 0
1249 417 2 -1.1794 -11.633885163011971 0.9243387519627042 21.34111236708589 0 0 0
1251 417 1 0.5897 -11.541865390444569 1.876996103404796 21.328883964376566 0 0 0
1011 337 1 0.5897 -12.235518228461077 3.9322055034341723 20.66162426033495 0 -1 0
1218 406 1 0.5897 -13.480700111030437 3.2669576985917246 17.829506237255035 0 0 0
1101 367 1 0.5897 -10.663009899452636 -1.1413845331941355 16.348805106657252 0 0 0
1010 337 1 0.5897 -10.97958687241006 4.138475608174874 21.481179410327854 0 -1 0
866 289 1 0.5897 -12.790518274990415 1.8378146393599835 16.296014314604545 0 0 0
40 14 2 -1.1794 -15.036161420281996 3.529590077160515 2.098257218117351 1 0 0
177 59 1 0.5897 -14.159105199868424 4.1780867813696325 3.4573681949724433 1 0 0
42 14 1 0.5897 -15.499481029339254 4.026012625772285 1.4237076398470565 1 0 0
162 54 1 0.5897 -14.607241301565601 6.764134523117857 2.2418211637387513 1 0 0
175 59 2 -1.1794 -13.608955987546317 4.494577118170714 4.173786994619245 1 0 0
55 19 2 -1.1794 -13.361178693065849 5.99166787009735 1.1151717640003465 1 0 0
56 19 1 0.5897 -12.495276246483881 5.610840290116267 1.2612443425252875 1 0 0
66 22 1 0.5897 -13.471512238967204 2.7224035426358615 1.742736539404292 1 0 0
65 22 1 0.5897 -12.052823633146318 3.250298694833317 1.7199452338596453 1 0 0
64 22 2 -1.1794 -12.557796906218622 2.4373294065090416 1.7370272335221435 1 0 0
43 15 2 -1.1794 -9.69410214553211 1.8573024218033822 0.5367679347004342 1 0 0
190 64 2 -1.1794 -12.129066403337566 6.9825367164408405 4.399309029028735 1 0 0
191 64 1 0.5897 -12.80843872266843 6.312241296721069 4.326095401373211 1 0 0
108 36 1 0.5897 -10.019466325270018 2.754246802571201 3.8280461401231585 1 0 0
183 61 1 0.5897 -12.147003589882473 3.6020284438296173 4.509252491576006 1 0 0
181 61 2 -1.1794 -11.326974311436592 3.2841361478336992 4.886902195574501 1 0 0
176 59 1 0.5897 -14.214663507238004 4.619320551919293 4.904382211703584 1 0 0
167 56 1 0.5897 -16.797882848515314 6.24959156461656 3.3724603274959404 1 0 0
85 29 2 -1.1794 -10.84672852379269 4.629659077963311 1.499677717241468 1 0 0
192 64 1 0.5897 -11.312389494704329 6.517332858666496 4.218196421921563 1 0 0
57 19 1 0.5897 -13.741476305270563 5.461478676091518 0.4149053955426069 1 0 0
508 170 2 -1.1794 -13.694911783472879 6.343826979832963 7.185388642956013 1 0 0
645 215 1 0.5897 -12.6598660905071 6.868836290268126 8.642504109173567 1 0 0
644 215 1 0.5897 -12.918774962683784 6.939050844885294 10.132392006481226 1 0 0
643 215 2 -1.1794 -12.248546880163971 7.113090525652325 9.4715056020508 1 0 0
509 170 1 0.5897 -14.4017382934028 5.9494644942866515 7.696418471569938 1 0 0
533 178 1 0.5897 -10.679920142822535 5.878327644088856 7.094429759032145 1 0 0
532 178 2 -1.1794 -11.17667821206412 5.061205291220661 7.1362357904759595 1 0 0
543 181 1 0.5897 -10.741922234617707 5.965426315320311 9.75522660210601 0 0 0
510 170 1 0.5897 -14.13655611567479 6.957868521910534 6.598850769224819 1 0 0
534 178 1 0.5897 -12.087851781485961 5.327757878188361 7.014280431910925 1 0 0
521 174 1 0.5897 -10.98665634675275 3.3655279462400465 7.860434892839293 1 0 0
519 173 1 0.5897 -16.61153747274457 7.461607796102012 6.4405287048589095 1 0 0
636 212 1 0.5897 -15.672585280623856 7.7449731766543835 10.047544782399195 1 0 0
459 153 1 0.5897 -10.329159838804483 3.914783050024912 10.719038199998359 0 0 0
457 153 2 -1.1794 -10.548522866849964 3.0027961733203767 10.909707853002631 0 0 0
518 173 1 0.5897 -16.71016341642605 7.5036222579735785 7.9505657934538085 1 0 0
182 61 1 0.5897 -11.156645315462994 3.873667033320542 5.6214307111721356 1 0 0
887 296 1 0.5897 -10.351228034921341 3.808505886050689 13.96080422952894 0 0 0
874 292 2 -1.1794 -13.700841816088271 4.756048859837222 15.017740639152183 0 0 0
876 292 1 0.5897 -12.822390413783555 4.37602917383569 15.026330959652675 0 0 0
848 283 1 0.5897 -14.273204900784659 3.863064537619321 12.029158155175674 1 0 0
945 315 1 0.5897 -14.414864503450774 7.058557687867275 12.040124329786655 1 0 0
943 315 2 -1.1794 -14.430126937268483 6.7617670810104915 11.130286627263573 1 0 0
900 300 1 0.5897 -14.953464851620843 7.748654239434462 14.27945219288293 0 0 0
899 300 1 0.5897 -14.063261068395182 6.524233678318787 14.281880063093913 0 0 0
898 300 2 -1.1794 -14.20090550988334 7.359084197300696 13.834382689079606 0 0 0
944 315 1 0.5897 -14.676256164024787 5.838292146666891 11.183252378189207 1 0 0
875 292 1 0.5897 -14.288068161291605 4.005115338080801 15.104278965900798 0 0 0
886 296 2 -1.1794 -11.052099667051497 3.4057163888351774 14.473460773156148 0 0 0
649 217 2 -1.1794 -16.18150005913457 8.247285865881846 15.494970507028762 0 -1 0
869 290 1 0.5897 -12.705219825773675 8.097445883718496 13.031785540334273 0 0 0
771 257 1 0.5897 -12.131420404011406 3.0718448245250425 11.659562325847471 0 0 0
980 327 1 0.5897 -13.098692270480104 8.222054494035916 16.178268990755065 0 -1 0
1018 340 2 -1.1794 -12.058752684184642 7.167043133184816 20.281186235486253 0 -1 0
1019 340 1 0.5897 -12.669660563185905 6.437042119280392 20.381740726981242 0 -1 0
1020 340 1 0.5897 -11.199596469243705 6.752180813651574 20.20431208570137 0 -1 0
1043 348 1 0.5897 -12.570321431530845 8.589365012033085 19.392770538535036 0 -1 0
1237 413 2 -1.1794 -11.065707466234842 5.285406647585743 17.81432925269726 0 0 0
1003 335 2 -1.1794 -13.795500631375784 4.973532127623237 20.27858701044321 0 -1 0
1030 344 2 -1.1794 -9.530576264945672 5.995532280929455 20.017043589160327 0 -1 0
1032 344 1 0.5897 -9.05759207696631 5.421903392455034 20.619839795014908 0 -1 0
1033 345 2 -1.1794 -14.776391695248826 7.786940008046372 21.484519850263208 0 -1 0
1207 403 2 -1.1794 -13.423312580140436 6.604166786570353 17.028405647130988 0 0 0
1208 403 1 0.5897 -12.595395495455573 6.378183297974873 17.452202410750747 0 0 0
1239 413 1 0.5897 -10.44217789479839 5.313115686839396 17.088600845381 0 0 0
1238 413 1 0.5897 -10.519809827758957 5.299736564238389 18.600386838585013 0 0 0
990 330 1 0.5897 -14.750802996863403 7.13031553816122 18.129009674917498 0 -1 0
1035 345 1 0.5897 -14.703511761885462 8.739867362037494 21.537278951749542 0 -1 0
1034 345 1 0.5897 -14.841973073024121 7.60283633969696 20.547541201537374 0 -1 0
1217 406 1 0.5897 -12.074103218218088 3.80775804821514 17.684884839173588 0 0 0
989 330 1 0.5897 -15.636657167492835 8.324583929743774 18.413027253374842 0 -1 0
1209 403 1 0.5897 -13.53409115324456 5.939621522092347 16.348547064124066 0 0 0
988 330 2 -1.1794 -15.420556207645713 7.449114330556242 18.733992766106468 0 -1 0
650 217 1 0.5897 -15.897385335610569 8.722197355921566 16.275879359326314 0 -1 0
291 97 1 0.5897 -15.549384520537028 10.831458838251741 4.508371458170478 1 0 0
174 58 1 0.5897 -16.312706939650926 10.077967702167637 1.5743493241437758 1 0 0
173 58 1 0.5897 -14.856965598291044 10.492650399098554 1.5480005872735876 1 0 0
172 58 2 -1.1794 -15.43518088863896 9.748460791111949 1.3805702458651639 1 0 0
283 95 2 -1.1794 -17.17244204178874 11.898254498825718 4.190264451879722 1 0 0
161 54 1 0.5897 -15.1916920423458 8.160431508952467 2.2628910482317655 1 0 0
193 65 2 -1.1794 -14.14281238913668 12.105961800641499 1.7785180085954129 1 0 0
207 69 1 0.5897 -15.055734093238517 8.900961486603915 5.35080980365763 1 0 0
285 95 1 0.5897 -17.401419828545613 11.496004550912602 3.3524941607484884 1 0 0
148 50 2 -1.1794 -18.016582660858543 10.603918686821824 1.9425576431601668 1 0 0
289 97 2 -1.1794 -14.689787825049285 10.531171134531906 4.80341921549271 1 0 0
150 50 1 0.5897 -18.518261502328773 11.15969508343915 1.3462679827920234 1 0 0
284 95 1 0.5897 -17.938578810204866 11.75054762841889 4.744776659234598 1 0 0
160 54 2 -1.1794 -15.237592377174241 7.31387679823256 2.707236409503002 1 0 0
216 72 1 0.5897 -13.37054379853944 9.70414916595178 3.6723884884470417 1 0 0
215 72 1 0.5897 -12.390935091324485 8.551091464771847 3.6223992970106345 1 0 0
206 69 1 0.5897 -15.208710271091526 7.700427024909782 4.441465806217583 1 0 0
153 51 1 0.5897 -12.816825517762581 9.15729288855438 1.3272492460898193 1 0 0
205 69 2 -1.1794 -15.090524449495579 7.9444666988818575 5.359391721232236 1 0 0
152 51 1 0.5897 -12.977895765336108 7.885017227690959 0.5229101886628278 1 0 0
151 51 2 -1.1794 -12.887345073705347 8.833297141809961 0.4293885299476783 1 0 0
149 50 1 0.5897 -18.67908822133677 10.102193511256953 2.4175701377877457 1 0 0
640 214 2 -1.1794 -14.53365476693458 11.909634074823732 7.081391101436036 1 0 0
630 210 1 0.5897 -13.223947579690865 9.275827601084714 7.752220826949003 1 0 0
629 210 1 0.5897 -14.179676990916864 10.431186963030353 7.96057081064428 1 0 0
628 210 2 -1.1794 -13.97988579398831 9.548510854006672 8.272236217443556 1 0 0
566 189 1 0.5897 -13.622608179985182 9.913030574852744 10.141825486545814 0 0 0
635 212 1 0.5897 -15.367214474406968 8.729978113640481 8.939208533914469 1 0 0
634 212 2 -1.1794 -16.088758375559014 8.372747515038242 9.456926720968053 1 0 0
641 214 1 0.5897 -13.907625000272763 12.633710115031928 7.085503072027373 1 0 0
567 189 1 0.5897 -13.49016846076385 11.199879887058337 10.928007415623822 0 0 0
642 214 1 0.5897 -15.391544886617357 12.334103100366374 7.077803817081656 1 0 0
617 206 1 0.5897 -17.684663182275557 13.051507898173842 7.636173761063574 1 0 0
525 175 1 0.5897 -12.10362540403373 8.228832872785556 5.948367508363577 1 0 0
290 97 1 0.5897 -14.532608148516001 11.013682558257994 5.6149470475481325 1 0 0
327 109 1 0.5897 -14.10308968658612 13.304716568898876 9.832144128846894 0 -1 0
325 109 2 -1.1794 -13.360970813040346 12.93604895268383 10.311169101183923 0 -1 0
523 175 2 -1.1794 -11.842309097195159 8.741085205314125 6.713485525837737 1 0 0
646 216 2 -1.1794 -18.81969346332128 12.00690803251122 8.540840685262213 1 0 0
658 220 2 -1.1794 -16.95471295781899 11.96299349018177 14.82332924070716 0 -1 0
870 290 1 0.5897 -12.662525198929176 9.30912293435269 12.125233226790005 0 0 0
683 228 1 0.5897 -17.27069830573827 13.65602172552196 14.121328851951105 0 -1 0
671 224 1 0.5897 -13.834235195546942 11.31227024996603 14.176040874063666 0 -1 0
670 224 2 -1.1794 -14.504524547768657 10.816960033202161 14.64684411798837 0 -1 0
672 224 1 0.5897 -14.011400433428882 10.203299927257376 15.19125470497898 0 -1 0
956 319 1 0.5897 -17.44291947361141 10.611910553700461 11.926711567712253 1 0 0
660 220 1 0.5897 -16.12000274169374 11.49458292447865 14.826306255822558 0 -1 0
879 293 1 0.5897 -15.265636210769966 9.886037297335825 11.915501868924308 0 0 0
878 293 1 0.5897 -15.589003276306936 9.94593538911965 13.393205457623424 0 0 0
877 293 2 -1.1794 -15.988193075339016 9.79435476637638 12.536604172270087 0 0 0
868 290 2 -1.1794 -12.098304679873966 8.684575991316898 12.581000577690194 0 0 0
728 243 1 0.5897 -17.829542735161926 12.95248057451565 11.120670900522338 1 -1 0
680 227 1 0.5897 -11.373836301066262 9.600240251084212 15.386714300647109 0 -1 0
659 220 1 0.5897 -17.61697658229163 11.273589149937045 14.871707950005542 0 -1 0
979 327 2 -1.1794 -12.89176990506406 9.153396855018809 16.255421721919237 0 -1 0
565 189 2 -1.1794 -13.609986861343558 10.256304624016728 11.035201387388662 0 0 0
1140 380 1 0.5897 -12.16960588135985 12.315573450023845 20.43411721902177 0 -1 0
1138 380 2 -1.1794 -12.55999995838259 12.921802379161651 19.80465537025928 0 -1 0
1128 376 1 0.5897 -14.078004741866273 13.735231117874296 20.26498648480103 0 -1 0
1127 376 1 0.5897 -15.552941581170654 13.402228591631108 20.33948823832089 0 -1 0
1022 341 1 0.5897 -13.55191807147225 12.276026270483062 18.450379123512317 0 -1 0
1119 373 1 0.5897 -15.250648000818309 11.032261857545546 20.55523649767462 0 -1 0
1117 373 2 -1.1794 -14.487446868261305 10.566480401376904 20.89685495255491 0 -1 0
1044 348 1 0.5897 -13.442262029848965 9.81985045517872 19.524301788976018 0 -1 0
1042 348 2 -1.1794 -12.729825291302674 9.449144289815646 19.00352294978073 0 -1 0
1002 334 1 0.5897 -16.683927603851625 10.27901664208365 17.89499991518326 0 -1 0
981 327 1 0.5897 -12.88970385258381 9.321445497734857 17.197698904726604 0 -1 0
1126 376 2 -1.1794 -14.94292612552692 14.139814278226314 20.33129986624681 0 -1 0
991 331 2 -1.1794 -16.33500218098375 13.493716820297493 17.093363405763622 0 -1 0
992 331 1 0.5897 -15.5087557436315 13.045180985187663 17.272987304347218 0 -1 0
1096 366 2 -1.1794 -18.237024816441057 14.37433520554783 18.86554006164226 0 -1 0
1023 341 1 0.5897 -13.269386069285451 12.164913421938284 16.967286606106253 0 -1 0
1021 341 2 -1.1794 -13.960197749787575 12.038931650846646 17.617802023992507 0 -1 0
1001 334 1 0.5897 -15.244803455353175 10.558022823034793 17.516838630884248 0 -1 0
1000 334 2 -1.1794 -15.859205721770744 9.842704270132248 17.68136181772259 0 -1 0
1111 371 2 -1.1794 -16.68354600181204 11.980468843053963 20.334881173825224 0 -1 0
1098 366 1 0.5897 -17.668358790504893 13.889503794555154 18.267436279224032 0 -1 0
1013 338 1 0.5897 -11.363181380979865 10.451134162357572 18.308590770742736 0 -1 0
1142 381 1 0.5897 -17.82994904426583 14.546325457812578 20.760984302882143 0 -1 0
1113 371 1 0.5897 -17.107779475496322 11.887368852515351 19.481977094726375 0 -1 0
1118 373 1 0.5897 -14.097479352295277 11.173585405674864 21.525704789791067 0 -1 0
993 331 1 0.5897 -16.766303641539306 12.947985274386848 16.43589989320663 0 -1 0
305 102 1 0.5897 -1.8999156628830658 -6.056970679911769 2.2345842972951004 1 1 0
311 104 1 0.5897 -2.999000692103847 -7.681000709377949 3.7452966920334876 1 1 0
318 106 1 0.5897 -2.8365586729667873 -3.976934350074214 1.6529479177791948 1 1 0
241 81 2 -1.1794 -1.1259720915946883 -6.503341545328879 5.495277484937716 0 1 0
317 106 1 0.5897 -1.3502087703883614 -3.748873252140993 1.4780319219412428 1 1 0
304 102 2 -1.1794 -1.7265381464712721 -6.886305342073703 2.67990305661438 1 1 0
316 106 2 -1.1794 -2.0244952631398476 -4.425534100411753 1.4174220966480882 1 1 0
242 81 1 0.5897 -1.236334057977853 -6.702387451852463 4.565590311204061 0 1 0
306 102 1 0.5897 -1.098462608350511 -7.335592801168712 2.1143553218641733 1 1 0
243 81 1 0.5897 -0.9359992031951183 -5.56550978797391 5.51895231229117 0 1 0
293 98 1 0.5897 -5.051695223520576 -3.6257127315811033 2.645259367361671 1 1 0
310 104 2 -1.1794 -3.590195785436176 -8.225626841127589 4.2650447249615455 1 1 0
3 1 1 0.5897 -1.5977629177262411 -3.3778338052717176 4.509111815319001 0 0 0
199 67 2 -1.1794 0.4313436834075297 -7.883921653476451 1.0263294809370698 1 1 0
1 1 2 -1.1794 -0.8116836683609474 -3.743637199347905 4.914567192753356 0 0 0
195 65 1 0.5897 -4.093789790257974 -8.85497247223419 1.1488275464241386 1 1 0
201 67 1 0.5897 0.18638860994228956 -8.447530914140591 0.29254592992446316 1 1 0
356 119 1 0.5897 1.1051510190226477 -6.897051231401632 10.1014660836419 0 0 0
555 185 1 0.5897 -2.739647474712923 -6.951064270439125 6.511745896905702 0 1 0
554 185 1 0.5897 -3.1859342426320776 -6.769305059981207 7.946863751731932 0 1 0
553 185 2 -1.1794 -3.4712534066290432 -7.123122557402826 7.1045458877392615 0 1 0
546 182 1 0.5897 -0.24785975218175693 -7.507613076742666 6.961768428731602 0 1 0
359 120 1 0.5897 -4.771348710680884 -2.983422734507152 8.553395949077409 0 0 0
632 211 1 0.5897 -4.733107915680009 -5.895859645358758 6.743820763991282 1 1 0
348 116 1 0.5897 -1.4793121028781488 -6.383705855567601 9.813519808685301 0 0 0
347 116 1 0.5897 -1.4157496780442642 -5.270535786360165 8.789482735977233 0 0 0
346 116 2 -1.1794 -2.0328809368789837 -5.807285707032742 9.28680245057474 0 0 0
336 112 1 0.5897 -3.695428628522208 -5.077119119248761 9.40396289762448 0 0 0
334 112 2 -1.1794 -4.531172449928747 -4.611080574786565 9.381713839646983 0 0 0
544 182 2 -1.1794 0.30825402004242797 -8.085170892554961 7.48454364200396 0 1 0
404 135 1 0.5897 -5.09141643035302 -3.739594680042268 5.888834894327913 1 0 0
335 112 1 0.5897 -5.1894185084618805 -5.2919076279104225 9.521083103347554 0 0 0
631 211 2 -1.1794 -5.500815039163141 -5.526325212209026 6.307708089286119 1 1 0
669 223 1 0.5897 -4.25536314285143 -3.514428182579225 10.828096057515394 0 0 0
657 219 1 0.5897 -0.3573857042589843 -6.913875496214308 11.87524702020434 0 0 0
793 265 2 -1.1794 -2.126389268987408 -6.035589278988325 15.299650241874343 0 0 0
795 265 1 0.5897 -3.025881672144817 -5.807751968233835 15.064807228796468 0 0 0
803 268 1 0.5897 -3.551810671668612 -3.152655169409692 15.166183320787697 0 0 0
774 258 1 0.5897 -5.32177436336053 -2.553938179740361 12.936192855084679 0 0 0
802 268 2 -1.1794 -2.994901331810458 -2.39737069927088 14.977421449643781 0 0 0
718 240 2 -1.1794 -0.11359114545743232 -6.586616656645081 13.636107118921203 0 0 0
699 233 1 0.5897 -0.8135687401662235 -4.143511648303224 11.501222400540643 0 0 0
697 233 2 -1.1794 -1.5972334151952285 -4.314167410909883 12.023731970817307 0 0 0
677 226 1 0.5897 -2.9312248492118895 -5.7621789175764615 12.221617881848315 0 0 0
676 226 2 -1.1794 -3.56244595324776 -6.467269475840682 12.36530642408701 0 0 0