LAMMPS data file via write_data, version 30 Jul 2021, timestep = 8000000

864 atoms
2 atom types
576 bonds
1 bond types
288 angles
1 angle types

0.6566691909800308 17.550903209011693 xlo xhi
1.8650008380756073 21.76417696192652 ylo yhi
0.8011348791916699 21.412060920811207 zlo zhi

Masses

1 1.00794
2 15.9994

Pair Coeffs # lj/cut/tip4p/long/omp

1 0 0
2 0.21084 3.1668

Bond Coeffs # harmonic/omp

1 450 0.9572

Angle Coeffs # harmonic/omp

1 55 104.52

Atoms # full

330 1 1 0.5897 1.7017926986125942 2.999500189362697 4.168972894602705 4 5 -2
329 1 1 0.5897 1.861790540586957 2.219308876065867 2.8815047616580407 4 5 -2
551 1 1 0.5897 4.606417755838134 3.2031466704383997 4.455319749354299 -2 12 -5
333 1 1 0.5897 2.9008631085454177 5.663187357586079 4.635733192417813 1 -3 -5
853 1 2 -1.1794 2.836457375087077 3.850599490334371 0.8954045145940837 -5 3 1
804 1 1 0.5897 3.5924321907598746 4.312759060606913 2.3217481868631857 7 -1 -6
550 1 2 -1.1794 4.564136423278416 2.492064529002604 5.0946891481272 -2 12 -5
776 1 1 0.5897 0.9593990624910931 4.26994951525608 2.741738725685927 7 -5 2
332 1 1 0.5897 1.577524504742577 5.923992799354252 3.9482622210260763 1 -3 -5
328 1 2 -1.1794 1.2113866769421413 2.680043694941591 3.4115408587561697 4 5 -2
802 1 2 -1.1794 4.062985517750656 4.499655460050015 3.1340882839081234 7 -1 -6
331 1 2 -1.1794 2.097774752289613 6.178655023701789 4.710302344906992 1 -3 -5
803 1 1 0.5897 4.5669658459167195 5.2906583326338765 2.9429376599647954 7 -1 -6
360 1 1 0.5897 4.647212799847166 6.1446857386934735 5.835353827189603 5 0 -3
777 1 1 0.5897 0.7303352076321161 5.296301838080422 1.6527064511594818 7 -5 2
250 1 2 -1.1794 1.2908061704953788 5.4625248299493 7.805519537436111 5 -4 -2
858 1 1 0.5897 4.20771909878524 5.454765289636027 9.54352430108849 3 3 -2
856 1 2 -1.1794 3.837447407959389 4.777270327977112 8.977714673847732 3 3 -2
336 1 1 0.5897 0.7519562562402922 2.153993253919669 10.38735097071869 9 2 4
345 1 1 0.5897 2.6662309642121547 4.810316231382743 10.52240885473277 0 4 -1
716 1 1 0.5897 2.9940781235547806 3.6403078934034445 6.217917531912161 8 -9 -5
252 1 1 0.5897 1.7994740361508932 5.165206588009798 8.559893583638045 5 -4 -2
715 1 2 -1.1794 2.26542405488299 3.209796504875393 6.665077427478914 8 -9 -5
343 1 2 -1.1794 1.7752012495367993 4.851165186272848 10.869709390566099 0 4 -1
251 1 1 0.5897 1.8025358481016425 6.18438792062549 7.440460894089996 5 -4 -2
717 1 1 0.5897 1.893402293167166 3.8895402071368004 7.227021351363404 8 -9 -5
306 1 1 0.5897 2.7666316254566445 2.26652430638672 8.738384659621804 4 0 -5
521 1 1 0.5897 4.685000718879049 2.7027900098578397 8.062559906211483 -4 0 -1
358 1 2 -1.1794 4.649522764858173 5.249095168052396 6.173205482929144 5 0 -3
857 1 1 0.5897 4.363142216060309 4.818074437515781 8.178827645895698 3 3 -2
344 1 1 0.5897 1.5598362586130041 5.783835074851623 10.868861105951623 0 4 -1
403 1 2 -1.1794 2.2691690416394366 6.257557914470611 15.938561759043731 6 -1 2
665 1 1 0.5897 1.726021851250623 2.923186199238306 15.791673953323643 0 2 1
404 1 1 0.5897 1.9902889199294223 6.160781825695383 15.028021018762502 6 -1 2
626 1 1 0.5897 4.588641920237361 2.6744458503023316 12.735918191518861 1 0 1
664 1 2 -1.1794 1.182880380345725 2.1785106934142964 15.53338176167412 0 2 1
594 1 1 0.5897 1.0076183588146757 4.466853920792598 12.768902279435196 -3 -2 -2
625 1 2 -1.1794 4.21658680932156 2.7847084718350876 11.860892538007253 1 0 1
392 1 1 0.5897 3.9622909309186003 4.516003811352009 14.072229777763201 5 -3 0
393 1 1 0.5897 2.533851392178513 4.042860460733676 14.238531021864409 5 -3 0
391 1 2 -1.1794 3.4345178201947726 3.8324133785731362 14.485043797007767 5 -3 0
627 1 1 0.5897 3.30183190703692 3.0194776621099013 12.016936797872884 1 0 1
64 1 2 -1.1794 4.484652464137843 6.538395077282597 13.367764921855246 4 1 -1
65 1 1 0.5897 4.362172784039231 6.526200194172907 12.41851736822128 4 1 -1
592 1 2 -1.1794 0.910759316913569 4.433907758041766 13.72061958795984 -3 -2 -2
405 1 1 0.5897 3.152046272956967 6.622962814100653 15.88161157527108 6 -1 2
197 1 1 0.5897 4.076404469287938 2.4982734730090073 16.20076151326807 -1 -5 0
315 1 1 0.5897 3.1786840753093895 4.793784837565386 18.76239693204996 -3 0 -2
651 1 1 0.5897 0.7035886910462921 5.413353024386825 19.69652817143883 3 -1 0
854 1 1 0.5897 3.6027831828722845 3.6092838948031467 20.986010606442022 -5 3 0
460 1 2 -1.1794 2.475356022949039 3.7824511157283647 17.310292922559 6 1 -1
462 1 1 0.5897 1.5414848640639311 3.7598057612333435 17.519135377972702 6 1 -1
461 1 1 0.5897 2.5778293770512963 4.553372976620872 16.752256147739956 6 1 -1
313 1 2 -1.1794 3.2539694686499625 5.512244504404978 19.39039229048987 -3 0 -2
314 1 1 0.5897 2.7985617318399862 5.197237898482735 20.171164143268662 -3 0 -2
140 1 1 0.5897 4.634966831105686 4.3784616120054825 17.53385138753977 -2 0 3
277 1 2 -1.1794 0.8413661934927933 2.7186867474720393 20.10594308920144 1 3 -1
196 1 2 -1.1794 4.879624098470348 2.1239542814812573 16.56262179914918 -1 -5 0
855 1 1 0.5897 2.1165528822650295 3.3532962447456875 21.11815143120971 -5 3 0
279 1 1 0.5897 1.2912298206795092 2.005517241402679 19.652901518064795 1 3 -1
486 1 1 0.5897 1.3682781574062641 9.316119641223834 5.282780503608449 2 -1 -1
38 1 1 0.5897 4.837554087475066 9.781170682727964 1.9059315098566445 -3 3 -2
737 1 1 0.5897 2.7612942442990698 10.54726920762276 2.9452657940247646 4 -2 -1
722 1 1 0.5897 3.629280338752262 7.813256387226317 2.4023115894746128 2 -2 1
721 1 2 -1.1794 3.196880402924345 8.638032968530187 2.180965876430899 2 -2 1
736 1 2 -1.1794 2.928539578509523 11.421056510418813 3.2984537810279293 4 -2 -1
485 1 1 0.5897 2.027707188746702 7.983486193388678 4.997938391008557 2 -1 -1
484 1 2 -1.1794 2.219576279148872 8.878506101386325 5.277848122252883 2 -1 -1
162 1 1 0.5897 3.8621663906706996 8.208345308450678 4.965654527388137 1 9 3
78 1 1 0.5897 1.3544221758266404 8.062459030961532 2.352369448174599 -1 -2 -2
738 1 1 0.5897 2.0681216858117413 11.73724802992366 3.5740197904615427 4 -2 -1
723 1 1 0.5897 3.2807807050624342 8.705277040694936 1.2298303433926905 2 -2 1
160 1 2 -1.1794 4.6691019047845295 7.693438155454976 4.960656798781166 1 9 3
12 1 1 0.5897 2.909752948309379 10.14780243079121 10.569157935432719 -4 2 5
303 1 1 0.5897 1.4011531677597266 10.149041801372979 8.944492700326123 0 5 6
364 1 2 -1.1794 4.4190943888312155 6.886239582488003 10.751501634324141 2 4 5
354 1 1 0.5897 2.302739765254767 8.327421408708275 7.103235779017394 0 0 -1
352 1 2 -1.1794 2.5890762446480484 7.754252149828824 7.814368661714134 0 0 -1
365 1 1 0.5897 3.645401162615563 7.4419899232535345 10.657916606440494 2 4 5
707 1 1 0.5897 3.8822242642641647 10.288919939291576 8.527191190597534 -3 -1 -10
353 1 1 0.5897 3.5450779902643634 7.781501438609372 7.774396968290795 0 0 -1
706 1 2 -1.1794 3.1437989667888564 10.855361425459506 8.750995575837585 -3 -1 -10
827 1 1 0.5897 0.7440152505076546 7.965433703557448 9.919851014797093 -4 -1 2
708 1 1 0.5897 2.7907105101384033 11.134392718708988 7.9061914244615545 -3 -1 -10
11 1 1 0.5897 2.1849328643467363 9.963986509215307 11.885483646526941 -4 2 5
397 1 2 -1.1794 0.8008559438722687 9.07595108721647 15.312688680934077 5 2 -6
810 1 1 0.5897 2.8035746148019585 7.5185594480565365 13.338400046860723 4 2 0
809 1 1 0.5897 1.5316410882271256 8.13198172859887 13.884105211756127 4 2 0
808 1 2 -1.1794 1.8557048167638863 7.538521367779913 13.206596663603934 4 2 0
725 1 1 0.5897 3.3336104349750735 10.638717183241813 14.102908745737421 5 -6 5
726 1 1 0.5897 1.9614579472629523 10.987010142991307 14.639395133966511 5 -6 5
724 1 2 -1.1794 2.8318522487165496 11.35619478692053 14.489824765977646 5 -6 5
293 1 1 0.5897 4.1265283083157325 11.261259748895473 11.712756714581971 0 -1 3
398 1 1 0.5897 1.5551589258965346 9.342522018773295 15.83824037306554 5 2 -6
828 1 1 0.5897 1.1307892495811758 7.782101868007444 11.371970519981973 -4 -1 2
10 1 2 -1.1794 3.0380439859765893 9.844917038482999 11.468058374316414 -4 2 5
863 1 1 0.5897 4.811330742834667 8.824465661428073 14.14224300888663 7 1 1
355 1 2 -1.1794 4.832166356660624 7.5110248431618425 16.19822185699192 5 -4 4
862 1 2 -1.1794 4.7763480227656965 9.710136689611815 13.780871767034045 7 1 1
184 1 2 -1.1794 1.6590629494231073 7.644517340979643 18.675404977742637 -1 8 4
744 1 1 0.5897 3.917212063053139 9.711687104063124 19.418170813535305 -3 1 -3
185 1 1 0.5897 0.9858240413299448 7.171307667538868 18.186475493793992 -1 8 4
662 1 1 0.5897 3.7419133419094397 9.488946104629568 16.75044854739717 1 -3 -2
204 1 1 0.5897 0.7910999314494668 11.041030407047094 19.71518011474229 -9 -2 3
742 1 2 -1.1794 3.3633539959020586 9.779766342954634 20.195877944798433 -3 1 -3
743 1 1 0.5897 3.411283139293839 10.702846495604794 20.444569783885655 -3 1 -3
663 1 1 0.5897 2.623853682127471 8.656574646969503 17.341216292844194 1 -3 -2
83 1 1 0.5897 2.836217112393964 11.398601379222239 17.194256456065993 -5 -2 -5
661 1 2 -1.1794 2.845523771770249 9.5505118061512 17.080497413346393 1 -3 -2
203 1 1 0.5897 1.5018379329663845 9.935640983060331 18.963632380152042 -9 -2 3
186 1 1 0.5897 2.2775871804947787 6.967181478994057 18.94906475114982 -1 8 4
685 1 2 -1.1794 2.8874873255687743 16.604085319073054 5.87554699389618 12 -5 -1
547 1 2 -1.1794 3.6079216928821216 14.814547696293236 3.752945220850684 6 -5 8
850 1 2 -1.1794 0.8227911072032195 12.863989827291814 5.598978811712832 -1 4 -1
686 1 1 0.5897 3.153323458326527 16.13864809194844 5.082492051370584 12 -5 -1
549 1 1 0.5897 3.860209690652005 13.976433665006544 4.140419807777916 6 -5 8
276 1 1 0.5897 4.007958462857358 12.020547331819403 5.60367184691537 -2 6 0
548 1 1 0.5897 2.7608612728361734 14.643364524727314 3.341354786509398 6 -5 8
464 1 1 0.5897 3.3645855582001243 14.617618530566348 1.1905026564738457 6 7 0
636 1 1 0.5897 0.9764513636837113 13.829143137535597 4.085141841485473 -10 2 6
509 1 1 0.5897 0.9508618397011996 15.88210578282057 3.5667260817579653 1 1 4
634 1 2 -1.1794 1.1132426238053623 14.13807661912935 3.189553049401929 -10 2 6
524 1 1 0.5897 4.76382798344272 14.797549231757486 10.369425282709864 4 0 3
132 1 1 0.5897 2.1082542747989494 15.919018535656841 7.407190836443745 1 1 -1
383 1 1 0.5897 4.0408124865221575 14.39288308819406 8.287091769092347 -5 -4 0
130 1 2 -1.1794 1.7143732980213913 15.878387301575941 8.27866073574527 1 1 -1
575 1 1 0.5897 2.5340765090409905 13.40355418924633 10.424433140045421 0 -2 -3
576 1 1 0.5897 2.8448313520756106 12.816652201289793 9.063967361774406 0 -2 -3
574 1 2 -1.1794 2.904453179212327 13.626682509573923 9.570445417375478 0 -2 -3
131 1 1 0.5897 1.8607283552223024 14.977269940365941 8.566408209058423 1 1 -1
274 1 2 -1.1794 3.546353704806917 12.658618795969558 6.147776242866215 -2 6 0
382 1 2 -1.1794 4.785186127868188 14.531089609840846 7.70140289642209 -5 -4 0
275 1 1 0.5897 4.1858242034006015 13.355434792094382 6.2952817077910135 -2 6 0
852 1 1 0.5897 1.6879692742361962 12.784718745865732 6.000726531839007 -1 4 -1
672 1 1 0.5897 2.9789703345696372 16.32335032830987 13.24022533247841 5 1 -2
671 1 1 0.5897 3.125526577554811 14.874877035839406 13.655352598214275 5 1 -2
644 1 1 0.5897 1.4738461826921965 12.789999979300722 12.524867797546833 3 -1 -4
670 1 2 -1.1794 2.490013938669069 15.503701421383749 13.31340965207116 5 1 -2
831 1 1 0.5897 0.93829153207345 15.282478966678648 14.381849112080737 3 4 3
645 1 1 0.5897 1.7515407022942922 14.258348982413704 12.282602304825089 3 -1 -4
643 1 2 -1.1794 1.234944056229599 13.521726299712801 11.955905237308258 3 -1 -4
727 1 2 -1.1794 4.21276451765711 13.818183733058344 14.565762936086502 -2 -1 0
728 1 1 0.5897 3.824351972031296 12.950790194765862 14.451828874843873 -2 -1 0
292 1 2 -1.1794 4.712105071928692 12.018424519041536 11.707785453278705 0 -1 3
285 1 1 0.5897 4.239724027653358 15.423525858652413 15.604540811627436 6 -1 -1
525 1 1 0.5897 4.63108952778561 13.824549357832032 11.521630178619734 4 0 3
283 1 2 -1.1794 4.191007890304057 16.219902551230454 16.13338860252292 6 -1 -1
84 1 1 0.5897 3.7223645930045546 12.583898833385298 16.87532866223178 -5 -2 -5
87 1 1 0.5897 1.904545471554313 13.947322568152822 17.812112354527656 -5 3 2
581 1 1 0.5897 0.9588749388742175 15.428647020306073 20.729415053027722 -1 -3 -1
82 1 2 -1.1794 2.975562640939865 12.320035861219317 17.41282419976156 -5 -2 -5
85 1 2 -1.1794 1.1765371269916862 14.564761657548647 17.882759942195918 -5 3 2
86 1 1 0.5897 0.8947129362467476 14.707895804986746 16.979238619631758 -5 3 2
819 1 1 0.5897 1.468246835849269 13.118950304816423 20.95854187726357 5 0 0
465 1 1 0.5897 3.3664459413370658 15.13618674498307 20.379107121068834 6 7 -1
816 1 1 0.5897 4.380944216120346 13.144381206587362 20.739627583991506 -4 10 -3
619 1 2 -1.1794 4.404435984400747 14.961175461933747 18.55902468505092 0 1 1
284 1 1 0.5897 4.0705702165933335 15.905868313605412 17.029569495149723 6 -1 -1
815 1 1 0.5897 3.9752916427586817 12.717134882310706 19.34507692830806 -4 10 -3
756 1 1 0.5897 1.867868103505075 16.171932028241542 17.985318897491986 -1 0 -8
814 1 2 -1.1794 4.11807531203901 12.378643563527623 20.228972044588893 -4 10 -3
463 1 2 -1.1794 2.78031650801367 14.85062887486816 21.079932969163856 6 7 -1
817 1 2 -1.1794 0.9427443217197624 12.319102717512568 20.97622730754493 5 1 0
187 1 2 -1.1794 3.0700227215292073 18.425664752112773 3.00189642235984 -5 4 -2
188 1 1 0.5897 2.9414541202371867 18.909268405908023 3.81793568483507 -5 4 -2
271 1 2 -1.1794 2.6636745497834 20.067341130962163 5.328426873856124 1 0 2
503 1 1 0.5897 4.550881619843274 17.329118212986046 2.689729635706396 -7 1 -1
272 1 1 0.5897 3.134879873860292 20.900520241195473 5.332300924821886 1 0 2
189 1 1 0.5897 2.434118049945121 17.711428430624736 3.0434679549431833 -5 4 -2
368 1 1 0.5897 3.49784101684533 20.960562892471366 2.065625910791896 4 0 -3
369 1 1 0.5897 2.3411868736350936 19.989225444096625 1.9630844215969343 4 0 -4
367 1 2 -1.1794 2.616589758861244 20.86842883785851 1.7035084517986627 4 0 -3
63 1 1 0.5897 1.2477286313223905 17.754280155221807 5.879413214053633 -6 0 6
273 1 1 0.5897 1.8217245688868817 20.26590585737827 5.738234778062584 1 0 2
508 1 2 -1.1794 0.9547319817514578 16.837151357337277 3.502472421616636 1 1 4
305 1 1 0.5897 2.524085983604773 20.674086965038256 8.64780996999405 4 -1 -5
28 1 2 -1.1794 2.871657706117073 17.514200193650513 10.171352801054677 -8 0 4
440 1 1 0.5897 3.843711741615657 20.349834199338368 10.298945310188397 0 -2 -4
192 1 1 0.5897 1.9401629421881106 18.69654233896707 9.164699548282579 1 4 -4
472 1 2 -1.1794 4.561074785422518 18.946512107928854 6.954210494769146 3 1 -3
304 1 2 -1.1794 3.203912760518288 21.320197836354403 8.839163935637464 4 -1 -5
190 1 2 -1.1794 1.2034711243048717 19.1681082000985 8.775909864578137 1 4 -4
474 1 1 0.5897 3.777276727016147 19.392829959275694 6.633755356139759 3 1 -3
439 1 2 -1.1794 4.428027433346118 20.126295745376154 11.023392378363647 0 -2 -4
62 1 1 0.5897 0.7144997673389655 18.347165973540463 7.16627518655035 -6 0 6
30 1 1 0.5897 3.7641288931489245 17.304401004657265 9.896220090410798 -8 0 4
29 1 1 0.5897 2.3227933435772785 16.881038910206676 9.70867488397023 -8 0 4
687 1 1 0.5897 3.701626925692388 16.96539181745714 6.226055595786281 12 -5 -1
495 1 1 0.5897 1.149312945647052 21.74005693113608 6.863881070172645 -2 0 -1
479 1 1 0.5897 3.7752749539951687 18.183838734392957 11.841733441476654 -5 3 -3
324 1 1 0.5897 4.706041120398566 20.788084441992027 14.046658420384665 9 0 -4
526 1 2 -1.1794 3.0895942479115273 20.203154458611202 14.079580210495113 -2 -4 0
527 1 1 0.5897 2.580536395486832 20.638760124590775 13.395946457257537 -2 -4 0
478 1 2 -1.1794 4.036321323776846 18.04149340471519 12.751611168317828 -5 3 -3
666 1 1 0.5897 1.7567210303500622 21.539929873958904 14.987723218888352 0 1 1
528 1 1 0.5897 2.5445292851217403 19.46452352078571 14.350792969750593 -2 -4 0
421 1 2 -1.1794 1.2811439466924206 21.118484092440646 12.30928513580822 -4 -2 3
119 1 1 0.5897 3.0715603149818924 17.728449590933117 15.535404607884077 -1 -2 0
118 1 2 -1.1794 2.2492239173660327 18.20886368528263 15.63123284316776 -1 -2 0
480 1 1 0.5897 3.7137562156027815 18.81303671280918 13.217326482132274 -5 3 -3
423 1 1 0.5897 0.888424523311817 20.27824894393933 12.07263033667717 -4 -2 3
120 1 1 0.5897 2.4901465079290572 19.00488714897414 16.105077554319102 -1 -2 0
441 1 1 0.5897 4.381353470561841 20.880566412718558 11.610860332684677 0 -2 -4
445 1 2 -1.1794 3.5816047795458563 19.74956548041895 17.51765044516693 4 -5 -2
614 1 1 0.5897 4.2100380558174155 18.453541151076905 20.082782316696814 -5 -2 1
412 1 2 -1.1794 4.377114795279301 19.987114061538712 20.491092736515135 -1 -4 6
755 1 1 0.5897 2.029944881353961 17.504347623830753 17.28510870141286 -1 0 -8
613 1 2 -1.1794 4.010148720176888 17.539650909271252 19.88010309947215 -5 -2 2
446 1 1 0.5897 3.7999741326821805 20.591574223549372 17.118191553395008 4 -5 -2
447 1 1 0.5897 2.8732598786896526 19.95060991283406 18.129243958647947 5 -5 -2
413 1 1 0.5897 3.6399348053108302 20.051430621076875 21.09825554650589 -1 -4 6
615 1 1 0.5897 3.5251350440967126 17.577199500477896 19.055736657535626 -5 -2 2
70 1 2 -1.1794 1.4536072440684786 18.267947572429193 20.997384124077648 1 1 -4
793 1 2 -1.1794 1.378495457066374 20.298031780203097 18.991366412446972 -4 -3 3
795 1 1 0.5897 1.1577998812021364 19.715090276201266 19.717791451605088 -4 -3 3
754 1 2 -1.1794 1.799464892823024 17.1158232006401 18.12899528550311 -1 0 -8
71 1 1 0.5897 0.979910056701117 17.80714191425765 20.304934019645138 1 1 -4
72 1 1 0.5897 2.3546584208631005 17.953951720239935 20.921676190424748 1 1 -4
414 1 1 0.5897 4.687064534249859 20.887482818047026 20.393703832218748 -1 -4 6
746 1 1 0.5897 7.944095977710734 2.4125004662572658 5.679107962930073 3 -1 -9
675 1 1 0.5897 8.328580171451168 5.681249410419307 2.7840079508657194 -3 -3 1
702 1 1 0.5897 6.115233776748392 6.643136365805233 2.4323958892166737 1 -1 2
532 1 2 -1.1794 7.130100383854462 3.0112056128147593 1.6530189745694455 -10 -3 -4
674 1 1 0.5897 7.581165676362716 5.522104396520469 4.090880393470578 -3 -3 1
673 1 2 -1.1794 7.501512720982587 5.36739350970397 3.149638037683535 -3 -3 1
747 1 1 0.5897 8.330813232677539 2.365514449968635 4.216195687900809 3 -1 -9
632 1 1 0.5897 5.714454378933375 1.9416911206413663 2.1652243839760246 3 8 3
533 1 1 0.5897 7.078851182224464 3.7018744227852167 2.3137635740285756 -10 -3 -4
700 1 2 -1.1794 5.290808309718258 6.827544565428737 1.982346523109224 1 -1 2
745 1 2 -1.1794 7.574640190967494 2.4506736076398266 4.796898948723232 3 -1 -9
41 1 1 0.5897 7.921706415651583 4.156941417692475 5.734847217181886 -1 1 2
40 1 2 -1.1794 7.521281206454897 5.004166902427533 5.930174062586837 -1 1 2
552 1 1 0.5897 5.243701869596449 2.704017303295309 5.734654497422356 -2 12 -5
534 1 1 0.5897 7.9898999538960505 3.128825234390833 1.2491170902596846 -10 -3 -4
701 1 1 0.5897 5.507046511088324 6.768785806429053 1.0517509699302492 1 -1 2
359 1 1 0.5897 5.514108590759153 4.908319667236423 5.943878180361814 5 0 -3
579 1 1 0.5897 8.652353373459999 5.893651718141437 8.73788605944685 5 2 -3
337 1 2 -1.1794 8.423286756221929 2.460882618700054 10.163435289665061 -4 2 2
42 1 1 0.5897 7.9898347077833325 5.318489085208647 6.7034617966501004 -1 1 2
712 1 2 -1.1794 8.570828922954547 2.0821650020989098 7.349750875152755 -4 -1 2
170 1 1 0.5897 6.382422559626283 3.9360954569099147 9.45627330220388 -7 4 -1
231 1 1 0.5897 7.0946477049387555 6.037485479412163 10.731791058033927 4 4 2
522 1 1 0.5897 5.949839962078828 1.936583440293875 7.738515328384496 -4 0 -1
467 1 1 0.5897 5.964738649599723 6.45709842879166 7.453932219575862 7 -2 6
229 1 2 -1.1794 7.666563847992445 6.660369785571171 10.283230508573519 4 4 2
520 1 2 -1.1794 5.614045933763869 2.8237725997585517 7.866410705348719 -4 0 -1
338 1 1 0.5897 7.7227418872561 3.0555301026764496 10.431504299862382 -4 2 2
713 1 1 0.5897 8.47120978661895 2.2755018982975486 8.281908040067162 -4 -1 2
169 1 2 -1.1794 6.309015362221137 4.1170709811748125 10.393338688144377 -7 4 -1
171 1 1 0.5897 5.630258121697141 3.516497607902455 10.70128045668462 -7 4 -1
66 1 1 0.5897 5.430293142775888 6.452790072019638 13.488846350926977 4 1 -1
102 1 1 0.5897 7.014330823672288 5.4385958703730415 13.917592676174941 4 -2 -2
443 1 1 0.5897 6.3737033644921866 4.010435271909056 15.407383796291896 3 5 0
459 1 1 0.5897 8.633164395580962 5.569795471920642 12.499958383335693 4 1 -2
444 1 1 0.5897 6.017076359237818 3.06732020968401 14.278132671576474 3 5 0
100 1 2 -1.1794 7.299983986388205 6.225538602994036 13.453541354155334 4 -2 -2
198 1 1 0.5897 5.415237372734884 1.9187904738667356 15.79630014882824 -1 -5 0
442 1 2 -1.1794 6.34594412480898 3.9491636573277753 14.452550232402523 3 5 0
861 1 1 0.5897 7.9800053010413095 3.3891007327208635 14.020947308997387 -1 0 2
101 1 1 0.5897 7.569411097855973 6.828316957130844 14.146567987403492 4 -2 -2
451 1 2 -1.1794 8.869547722092673 4.7833185841537045 16.209376099785402 -1 2 3
859 1 2 -1.1794 8.794844420933865 3.0575656009730983 13.643666872906715 -1 0 2
452 1 1 0.5897 8.576267208219571 4.1940425200572875 16.904338432162 -1 2 3
597 1 1 0.5897 8.086612310338442 3.225741844441941 18.861021213263797 1 -4 1
595 1 2 -1.1794 7.6307266465596175 3.3233662909930093 18.02504225148226 1 -4 1
139 1 2 -1.1794 5.355422182190696 4.981719636936632 17.35138175541642 -2 0 3
596 1 1 0.5897 7.830190580006644 2.5181643921426438 17.547447386961828 2 -4 1
435 1 1 0.5897 5.925020509098556 3.13888603538632 19.231846200419326 -1 3 -2
694 1 2 -1.1794 6.015345348500939 6.787854081828543 19.95977566943054 0 -5 -1
144 1 1 0.5897 7.823017066968588 6.414476641851879 20.004024805295458 -6 4 2
142 1 2 -1.1794 8.768442737793773 6.545070894491209 19.930871432588255 -6 4 2
434 1 1 0.5897 6.210091388612781 2.663811853044828 20.64072335918606 -1 3 -2
433 1 2 -1.1794 5.49258096981008 2.8448411178853386 20.033565986658076 -1 3 -2
141 1 1 0.5897 6.143040898516547 4.441680499091872 17.41690788883026 -2 0 3
695 1 1 0.5897 5.43840174489131 6.238891208329088 19.428745754228437 0 -5 -1
453 1 1 0.5897 9.073125378043716 5.6030178465536284 16.65978960440677 -1 2 3
357 1 1 0.5897 5.132592957183832 6.793219858060028 16.75566742634355 5 -4 4
806 1 1 0.5897 8.394360282768162 10.167193825484498 3.7339194295975 3 -3 -3
720 1 1 0.5897 8.101362130560801 9.395853517343957 5.893397940852648 0 2 0
37 1 2 -1.1794 5.71276131889918 10.12241390824572 2.0897512641290206 -3 3 -2
228 1 1 0.5897 8.945965134352022 7.420081127881845 5.31782999981576 4 -2 1
212 1 1 0.5897 6.545243206682966 11.781925230711764 2.470829113104962 6 -1 7
39 1 1 0.5897 6.289613941629811 9.363683354660239 2.001442138598267 -3 3 -2
805 1 2 -1.1794 8.09377763388351 10.472236116882847 4.589985519939644 3 -3 -3
259 1 2 -1.1794 8.107093661799858 8.534094953976041 2.4319005358175376 2 0 6
260 1 1 0.5897 8.676969669478815 8.870029472806053 1.7400731762278743 2 0 6
108 1 1 0.5897 6.265775582393237 10.52027619606376 4.783375093440144 -2 -2 -1
161 1 1 0.5897 5.187791027127605 8.06717540977937 4.248251278073299 1 9 3
106 1 2 -1.1794 5.346611804591306 10.700022872200009 4.981003012211569 -2 -2 -1
261 1 1 0.5897 8.702131192751215 8.10033801916765 3.0434575891597855 2 0 6
807 1 1 0.5897 8.406486392427071 11.375185613414997 4.646396131566764 3 -3 -3
107 1 1 0.5897 4.897482495630027 10.60478348383737 4.141098925485901 -2 -2 -1
718 1 2 -1.1794 8.09952084217343 8.733720056012961 6.584651463705513 0 2 0
468 1 1 0.5897 7.0602352176618615 7.500789101108365 7.503453680661648 7 -2 6
426 1 1 0.5897 7.5310276523725665 10.76102125306706 9.324352235238761 5 -4 2
425 1 1 0.5897 6.233165568674989 10.8371447562904 8.548698062599483 5 -3 2
424 1 2 -1.1794 6.684723227928074 11.207911785729731 9.306886430009893 5 -3 2
719 1 1 0.5897 8.620914853832964 9.119955832906802 7.288369692462341 0 2 0
116 1 1 0.5897 5.277992012552356 9.936104948798794 6.694007702125155 0 -1 7
115 1 2 -1.1794 5.2095131188344865 9.756888546039157 7.6317773341455775 0 -1 7
466 1 2 -1.1794 6.3182874423282 7.157968521153143 8.001661004181372 7 -2 6
117 1 1 0.5897 5.7029629792029395 8.946440481107825 7.7578831068101 0 -1 7
89 1 1 0.5897 6.012626507562018 9.968346238695998 10.496075417742109 7 -4 4
230 1 1 0.5897 7.108967806210023 7.060662693517685 9.616073297519685 4 4 2
366 1 1 0.5897 5.107530934359979 7.481317188906017 11.048432348300597 2 4 5
294 1 1 0.5897 5.394184336886367 11.790160706502046 11.076213155495255 0 -1 3
864 1 1 0.5897 4.986887130121871 9.599497783335035 12.853693222291682 7 1 1
164 1 1 0.5897 8.05563828135004 11.275463967275071 14.826676015622288 1 4 -2
47 1 1 0.5897 8.195545142962699 7.782317468996272 15.964687254285307 0 1 -1
710 1 1 0.5897 5.294181733803351 10.47123941551688 15.364539732620763 -3 -4 -2
692 1 1 0.5897 8.991305360075922 9.376252759407656 12.585444369122934 3 -4 2
48 1 1 0.5897 7.807735486036175 9.103638344339732 15.335741942254925 0 1 -1
356 1 1 0.5897 5.636271146648836 7.903968824353809 15.858737948813609 5 -4 4
163 1 2 -1.1794 8.64931043415536 10.70669173489384 15.316868805834192 1 4 -2
46 1 2 -1.1794 7.6828663118084535 8.158572956460901 15.249275177841431 0 1 -1
691 1 2 -1.1794 8.84634629033555 9.364195075974601 11.63935890986149 3 -4 2
90 1 1 0.5897 6.899661690044657 9.029372488160305 11.285619489849369 7 -4 4
88 1 2 -1.1794 5.982106894816802 9.257493295027459 11.13637980742092 7 -4 4
149 1 1 0.5897 9.053948244216302 11.118255080756853 11.167773734627474 -2 -2 2
296 1 1 0.5897 5.979237450491834 9.665783534023134 17.76099756666988 4 5 -4
295 1 2 -1.1794 5.999084604128616 9.262362255911022 18.628804818843584 4 5 -4
696 1 1 0.5897 6.019079399538162 7.6344388778419825 19.513123947485184 0 -5 -1
280 1 2 -1.1794 6.940065662697673 11.247895192839774 20.402547748469395 -2 -1 3
122 1 1 0.5897 9.03358514384561 7.020073314804758 18.246420777628693 -2 0 1
297 1 1 0.5897 6.329888533060169 9.95064859987712 19.205926272191796 4 5 -4
698 1 1 0.5897 8.152873869894837 9.681424961292649 20.357625118874815 1 5 -5
143 1 1 0.5897 8.889746463870694 7.4880543418445376 20.04178661965281 -6 4 2
697 1 2 -1.1794 8.950381111341486 9.236967674933354 20.645160216625946 1 5 -5
711 1 1 0.5897 6.032086851585409 11.297046365380076 16.396736510099043 -3 -4 -2
282 1 1 0.5897 6.099844555715486 11.413835786764 20.8300956608973 -2 -1 3
709 1 2 -1.1794 5.541165481668987 10.482385095254687 16.289262420479112 -3 -4 -2
496 1 2 -1.1794 8.80603244018711 13.772821041555362 5.888730713905062 2 1 1
174 1 1 0.5897 5.699627231769152 15.200391711179899 5.330880069970451 4 0 1
845 1 1 0.5897 6.055980585772003 12.616268912357974 5.508874198120244 1 -3 7
16 1 2 -1.1794 5.331770448023884 14.240028053051889 1.234404570373741 -4 5 5
842 1 1 0.5897 8.922639016130885 13.018338905593406 2.2483293128612445 -8 3 -1
570 1 1 0.5897 7.092376975999349 15.826744190496402 2.4216026620239965 5 1 1
844 1 2 -1.1794 6.230574743234033 13.457008880827317 5.085911373833137 1 -3 7
213 1 1 0.5897 6.759516472740285 12.932972449001419 3.4305353461130017 6 -1 7
846 1 1 0.5897 7.179920128622329 13.563421832296314 5.146208230509718 1 -3 7
569 1 1 0.5897 8.333621094172882 15.976205698361513 3.2753333154736177 5 1 1
568 1 2 -1.1794 8.028536979416593 15.627835052125878 2.437596247121779 5 1 1
172 1 2 -1.1794 5.636960838548119 16.155458071540636 5.343639622507041 4 0 1
18 1 1 0.5897 6.088759651122775 13.810544727761235 1.6328369533116567 -4 5 5
211 1 2 -1.1794 7.029020639508203 12.60139641983901 2.5740047169607783 6 -1 7
17 1 1 0.5897 5.034035365597686 14.864134593889181 1.8962691535044123 -4 5 5
8 1 1 0.5897 7.3740714452052645 16.47837824660378 5.17183136774226 2 -3 1
7 1 2 -1.1794 8.298967640745811 16.583977307271663 4.949026652251438 2 -3 1
173 1 1 0.5897 5.331990242865293 16.387690459518883 4.466553584687522 4 0 1
498 1 1 0.5897 8.368681685233474 13.7647172596219 6.74012916717975 2 1 0
380 1 1 0.5897 6.534728277826782 13.890791796921343 8.068916257908484 9 0 0
379 1 2 -1.1794 7.446576377038968 13.637344314036365 8.212147881114667 9 0 0
470 1 1 0.5897 8.189896982930774 15.299910283202601 8.502764266791583 4 -6 4
381 1 1 0.5897 7.396978379674662 12.887871325094673 8.805485434188046 9 0 0
469 1 2 -1.1794 8.752386099622013 16.0733023641149 8.544517507549303 4 -6 4
384 1 1 0.5897 4.950185112399421 15.473121173579607 7.74117324512573 -5 -4 0
287 1 1 0.5897 7.74374396972446 14.905148873045619 15.244974145612927 3 0 3
105 1 1 0.5897 7.199593055512272 12.800919377146899 13.56130195245988 2 -1 7
523 1 2 -1.1794 5.005267208497852 14.673874415917501 11.287386491571516 4 0 3
372 1 1 0.5897 8.079527252065759 14.675332834435217 11.680400374180637 -1 6 -1
103 1 2 -1.1794 6.6623885920183445 12.103486816320771 13.937100287034777 2 -1 7
729 1 1 0.5897 5.156516700631803 13.667395093751098 14.512597628670798 -2 -1 0
286 1 2 -1.1794 6.888150956891888 14.968845105927663 14.820501518917157 3 0 3
370 1 2 -1.1794 7.604782666935546 13.845298639789965 11.723727763821056 -1 6 -1
371 1 1 0.5897 6.683964094668387 14.090494033929795 11.633222254002833 -1 6 -1
288 1 1 0.5897 6.871155867352227 15.849540553847193 14.445782635361086 3 0 3
104 1 1 0.5897 6.034008237644577 11.88691761413077 13.248239409611157 2 -1 7
150 1 1 0.5897 8.677374421854827 12.584596943234944 11.168826477291502 -2 -2 2
281 1 1 0.5897 7.134558341947481 12.058836584104572 19.932682987602142 -2 -1 3
555 1 1 0.5897 6.936734763869428 13.088580262035327 17.838580419356347 -4 -5 4
554 1 1 0.5897 6.355839952270032 13.884191986632024 16.689041115787838 -4 -5 4
553 1 2 -1.1794 6.11914345372674 13.253277743181537 17.368854269339494 -4 -5 4
26 1 1 0.5897 7.640265165785931 14.660843630069689 20.149225928646032 1 5 2
621 1 1 0.5897 4.898282568921708 15.601348333532567 19.07138730826579 0 1 1
769 1 2 -1.1794 6.37468247221243 16.265268204833212 20.18490980379891 2 -5 -1
27 1 1 0.5897 8.761179779829162 13.845996766646532 20.758786286010697 1 5 2
25 1 2 -1.1794 8.235041138045382 13.934102189163227 19.963979907888636 1 5 2
770 1 1 0.5897 6.150063386883092 15.830749812056187 21.00771355712717 2 -5 -1
648 1 1 0.5897 8.504189424650454 16.08201872939736 17.690731903913303 -5 1 -3