LAMMPS data file via write_data, version 30 Jul 2021, timestep = 4000000

864 atoms
2 atom types
576 bonds
1 bond types
288 angles
1 angle types

-0.22631714509990708 18.433889545099163 xlo xhi
0.8249595673220753 22.804218232675467 ylo yhi
-0.2761063884035835 22.489302188404558 zlo zhi

Masses

1 1.00794
2 15.9994

Pair Coeffs # lj/cut/tip4p/long/omp

1 0 0
2 0.21084 3.1668

Bond Coeffs # harmonic/omp

1 450 0.9572

Angle Coeffs # harmonic/omp

1 55 104.52

Atoms # full

437 1 1 0.5897 1.398829692407129 4.114661795712826 4.524295258515923 -1 2 3
436 1 2 -1.1794 2.2139795159992914 4.186926977566737 5.020799346907366 -1 2 3
422 1 1 0.5897 2.9213371519076423 3.5139487036921047 0.4718395164818461 -3 1 4
387 1 1 0.5897 5.031459131753223 0.9873673553598401 3.076429634362897 -3 1 0
702 1 1 0.5897 7.069768294838253 2.1079853648308537 2.3528538242147596 4 1 2
625 1 2 -1.1794 3.243514034689159 0.9888555902402674 2.413386925212102 -3 -2 1
755 1 1 0.5897 2.853916193947167 5.9286721916934955 4.032922899840149 -4 0 -4
325 1 2 -1.1794 7.4922709604132 5.388601022366081 5.1582189006479995 1 -2 -1
823 1 2 -1.1794 5.777685456353003 5.314391129278115 0.778825498003767 -1 6 3
81 1 1 0.5897 1.1824175568322544 4.765109610461357 -0.03978358960965969 4 -1 -3
326 1 1 0.5897 7.111362476555164 5.8095028840619625 4.387542756267852 1 -2 -1
824 1 1 0.5897 6.674251082821604 5.0663159612221795 0.553364797933086 -1 6 3
834 1 1 0.5897 9.094755696648203 4.700302993987332 -0.000712245294113345 1 -1 1
423 1 1 0.5897 4.406496589077473 3.7926577168266937 0.5635690747619314 -3 1 4
832 1 2 -1.1794 8.2381854427594 4.275857352315244 0.04841093954454928 1 -1 1
386 1 1 0.5897 6.031113505496714 1.5590482351792303 4.05911801543812 -3 1 0
274 1 2 -1.1794 2.5257334037701953 1.467884744451907 5.1702764012910265 -3 4 -2
833 1 1 0.5897 8.282981584161595 3.735508925630329 0.8372599024785532 1 -1 1
147 1 1 0.5897 7.46101597358315 2.229559042803361 5.143454682217881 1 0 -3
825 1 1 0.5897 5.810373924536722 5.506815633542038 1.7158934665199166 -1 6 3
421 1 2 -1.1794 3.751682727662405 3.115115211211428 0.7319382007157607 -3 1 4
700 1 2 -1.1794 7.674452335021354 2.8473775987601524 2.2908381880458077 4 1 2
276 1 1 0.5897 2.5793771050367384 2.415167683604208 5.2966715773295565 -3 4 -2
626 1 1 0.5897 3.2182014473979432 1.813812733516964 1.9284743045006931 -3 -2 1
627 1 1 0.5897 2.884633379546443 1.2053335762216217 3.273951828428351 -3 -2 1
701 1 1 0.5897 8.42571379391213 2.588414392605801 2.8245006056623034 4 1 2
275 1 1 0.5897 1.6217464377317734 1.2467178942693873 5.394110134851227 -3 4 -2
363 1 1 0.5897 7.723831673818946 11.520541037231036 0.5231839951818104 4 -1 -2
462 1 1 0.5897 7.357719312294027 9.148808181201698 3.1737324018017223 5 3 0
393 1 1 0.5897 7.864195271579023 10.594869065390931 5.027704479497476 4 -3 -2
191 1 1 0.5897 4.809466965782434 11.60286908427552 1.3853352080608219 5 4 -5
391 1 2 -1.1794 7.338824826723645 9.804498349156972 4.903198221559118 4 -3 -2
294 1 1 0.5897 4.408735787449698 11.291555125304226 3.36297616183228 -2 0 3
195 1 1 0.5897 4.94756172589666 6.824222208040926 3.244204308721357 2 -5 0
193 1 2 -1.1794 5.8646997161800405 6.58255721262327 3.115155398961527 2 -5 0
192 1 1 0.5897 4.376204282189372 10.212715285308263 0.9711410695076923 5 4 -5
845 1 1 0.5897 0.4272923923918016 8.22440869221501 4.883918940594396 -1 0 3
194 1 1 0.5897 6.215127524281665 7.266584436695508 2.544592664149648 2 -5 0
361 1 2 -1.1794 8.341674949975449 10.833048852207783 0.7718127750858643 4 -1 -2
16 1 2 -1.1794 -0.08377141705252486 6.363155617107386 1.5651838793645296 -3 4 4
460 1 2 -1.1794 7.239810532360728 8.979253483315095 2.239092417565399 5 3 0
551 1 1 0.5897 2.8624529305119712 8.883534262947679 0.24514833425390659 -2 7 -5
409 1 2 -1.1794 0.19931424170564893 9.523678799691464 3.1994533071133224 4 2 -3
754 1 2 -1.1794 3.3199727934865035 6.725457192960819 3.7796518998846684 -4 0 -4
334 1 2 -1.1794 2.0845181053190585 8.110207093672695 1.7383194983382664 5 0 4
336 1 1 0.5897 2.4999567414971238 7.601443841574976 2.434584693863273 5 0 4
335 1 1 0.5897 1.659304490574393 8.837117520710208 2.1932823347031967 5 0 4
17 1 1 0.5897 0.6774576075706189 6.935501228147402 1.6607939336376938 -3 4 4
756 1 1 0.5897 3.7160803309741586 7.04032920910606 4.592147853608659 -4 0 -4
190 1 2 -1.1794 4.885601590546906 10.681248428577513 1.6323437132050733 5 4 -5
461 1 1 0.5897 6.430892211193287 9.437921971710182 2.012165647439163 5 3 0
411 1 1 0.5897 0.41804210607142267 10.381755815944336 3.5628423437899297 4 2 -3
362 1 1 0.5897 7.88114853937987 10.327168750726873 1.441284034861747 4 -1 -2
720 1 1 0.5897 8.386082063045158 8.2660359228449 5.202399748145853 5 5 0
550 1 2 -1.1794 3.509053241331928 9.41230737771996 -0.22231360141548606 -2 7 -5
357 1 1 0.5897 5.58581563029466 6.839186197000546 -0.21691983537237292 -2 -2 4
772 1 2 -1.1794 6.781994474189043 3.0906676151819994 8.68115745280034 0 -2 3
773 1 1 0.5897 5.932481545953707 2.721698858376044 8.922790050081417 0 -2 3
465 1 1 0.5897 4.206642436292334 5.5798975062616 8.672010417513041 8 2 -2
774 1 1 0.5897 7.091583032307509 3.5220198536984637 9.477580343639989 0 -2 3
463 1 2 -1.1794 3.4054491242751586 5.216173242015066 9.048817584315815 8 2 -2
538 1 2 -1.1794 4.448620914554916 2.369438341164904 9.959447486987315 0 -5 0
666 1 1 0.5897 7.8207506478506925 1.648415775421856 7.699585187242927 2 3 3
464 1 1 0.5897 3.6708344751843054 4.367780710674255 9.403769687335336 8 2 -2
662 1 1 0.5897 6.2920555391571105 4.700897123114764 8.010026056687261 -3 -5 3
243 1 1 0.5897 2.185073362123363 5.787705929319097 7.794796444844021 2 -3 4
663 1 1 0.5897 6.376099831692773 5.568265909326588 6.772103677778654 -3 -5 3
661 1 2 -1.1794 5.91388617803875 5.481798880867369 7.605827895445981 -3 -5 3
540 1 1 0.5897 4.885122253593998 2.1643234874943857 10.786276864529839 0 -5 0
241 1 2 -1.1794 1.5214234124439985 5.850595795951918 7.107913001550214 2 -3 4
842 1 1 0.5897 0.2518833737193463 4.7835893494541395 8.00534197028609 -1 1 0
664 1 2 -1.1794 8.73916966509217 1.3998962951853386 7.59455936757967 2 3 3
855 1 1 0.5897 8.842849347306162 4.065500441291874 6.281331641695481 -2 2 1
539 1 1 0.5897 4.251018815550284 1.515783464229012 9.574196374007288 0 -5 0
683 1 1 0.5897 5.4484863292972605 1.5650597543455083 6.521695820499398 8 -1 -6
739 1 2 -1.1794 0.15524002935447095 1.0762452924690242 8.822201617873398 -1 -1 3
438 1 1 0.5897 2.0482439851776246 4.88546326459149 5.653885746838437 -1 2 3
843 1 1 0.5897 0.2973792691529824 3.291112439443738 8.254807086803583 -1 1 0
684 1 1 0.5897 4.069995381179765 1.0168053397373282 6.220062461832125 8 -1 -6
476 1 1 0.5897 0.04276370231792309 0.968127095278529 6.934232619173128 7 -2 -1
665 1 1 0.5897 9.007185140472352 1.0991840935398405 8.462852535056314 2 3 3
682 1 2 -1.1794 4.732697643951058 1.0614543759183608 6.909282934831931 8 -1 -6
541 1 2 -1.1794 6.557208293407554 5.594533728617668 10.770391646725642 -6 1 3
841 1 2 -1.1794 -0.13519537398980624 4.0941895597840645 8.544868509204816 -1 1 0
145 1 2 -1.1794 6.6238019848951 2.5462645973201297 5.482524847521924 1 0 -3
146 1 1 0.5897 6.7164094929620415 3.4988255816454865 5.498916982771866 1 0 -3
327 1 1 0.5897 8.186946695056374 5.984521276919505 5.438390672727124 1 -2 -1
144 1 1 0.5897 2.3042831558477026 6.45403617951375 10.12096760122888 -1 3 3
242 1 1 0.5897 1.481386920653041 6.783525853783393 6.897585816656642 2 -3 4
255 1 1 0.5897 4.719136001782906 10.932564419849212 5.579911399658602 2 8 -7
503 1 1 0.5897 1.7201260855181624 11.128152016975015 7.472548961802963 -5 -1 0
502 1 2 -1.1794 1.199197476503814 10.88936061147609 6.70584526217673 -5 -1 0
254 1 1 0.5897 5.116626456055038 10.88539056782274 7.039923456424783 2 8 -7
330 1 1 0.5897 5.361974258255755 11.468310668518225 9.416584168470859 3 5 0
542 1 1 0.5897 6.65749201725775 6.505328677867413 10.493609527690026 -6 1 3
814 1 2 -1.1794 5.660587139903074 10.044235084610124 10.630202984617469 -2 8 -3
425 1 1 0.5897 0.20484124162149048 8.061063092183673 10.818384029720066 6 -4 1
349 1 2 -1.1794 6.588425993429224 7.835583894520291 9.112131726340577 -9 3 -3
846 1 1 0.5897 0.8679362406932907 9.193498852813871 5.960264768555881 -1 0 3
844 1 2 -1.1794 0.6340831230422496 8.276431486371894 5.8170461455864615 -1 0 3
350 1 1 0.5897 6.509735626584504 7.063836960465082 8.55138416100169 -9 3 -3
816 1 1 0.5897 5.8247701321213805 9.393524193521692 9.947697006810763 -2 8 -3
351 1 1 0.5897 7.475390584299996 8.158421209789676 8.95305283604361 -9 3 -3
766 1 2 -1.1794 4.525014694977138 7.7860813962154785 6.13928547722182 -1 -1 0
767 1 1 0.5897 4.875705301617041 7.184760855956651 6.796265635011512 -1 -1 0
253 1 2 -1.1794 4.908837557857392 10.323402800384239 6.293456186183506 2 8 -7
768 1 1 0.5897 4.808730887707331 8.652408847501068 6.431136040768567 -1 -1 0
142 1 2 -1.1794 1.8239066403330573 7.183648887732155 10.512252316902355 -1 3 3
504 1 1 0.5897 1.1380923503546478 11.697290371219236 6.19618351006428 -5 -1 0
718 1 2 -1.1794 8.943854344077542 7.608968286361777 5.61874486717243 5 5 0
143 1 1 0.5897 2.493812765259706 7.697987614639213 10.96266769063747 -1 3 3
392 1 1 0.5897 6.5600537132992045 9.94678233362156 5.441303954501883 4 -3 -2
11 1 1 0.5897 4.674327682028445 3.524453236447518 12.767294098345225 -1 3 5
12 1 1 0.5897 4.792266492223841 4.911323661729438 12.171903389847383 -1 3 5
674 1 1 0.5897 1.1949136646916751 3.5303595996855073 12.298358519540548 -5 -3 -3
688 1 2 -1.1794 5.695152443668155 1.7179663065330515 12.417053634068491 1 -2 6
214 1 2 -1.1794 2.175623191590552 2.371163684236783 15.168781112353685 2 0 2
10 1 2 -1.1794 4.477509332975621 4.4440357517766405 12.945701319083165 -1 3 5
93 1 1 0.5897 3.547868439947734 4.914539909361574 15.848013596191894 0 -5 -1
435 1 1 0.5897 7.9699977081550095 3.2493310447817914 15.39520222876131 2 3 -3
216 1 1 0.5897 2.1409449051405236 2.760390835724096 14.295000800484358 2 0 2
675 1 1 0.5897 2.651532282206207 3.6167817778941425 12.701599758831005 -5 -3 -3
35 1 1 0.5897 1.9329495873814775 1.1160064697536067 12.572584004162843 -5 3 0
689 1 1 0.5897 6.650110102294653 1.652656603025196 12.418014975154042 1 -2 6
673 1 2 -1.1794 1.9026628173320286 3.020699369895357 12.692732739793717 -5 -3 -3
803 1 1 0.5897 0.3332937018346248 1.7141585318715082 15.508885187773803 5 2 -3
215 1 1 0.5897 2.4241714283864444 3.0946553839338686 15.744088267220445 2 0 2
646 1 2 -1.1794 5.157354902888709 6.095790428913841 14.983439302164173 -5 -1 1
543 1 1 0.5897 7.36421466901477 5.398041958691032 11.246142415508475 -6 1 3
648 1 1 0.5897 5.021496998853773 5.447350839094944 14.292571106451119 -5 -1 1
433 1 2 -1.1794 8.554574472154398 3.9396459967867754 15.082272255848391 2 3 -3
434 1 1 0.5897 8.297552656688753 4.715728407750709 15.580101684567708 2 3 -3
676 1 2 -1.1794 8.501090042714528 1.7931388314789514 12.117875050147482 6 1 -2
306 1 1 0.5897 3.5363091186372526 1.3470631436657612 15.698091711478458 5 -1 -7
677 1 1 0.5897 8.823034446862552 2.6914331427184868 12.042977596880089 6 1 -2
92 1 1 0.5897 2.4632874490265193 5.60114322783086 16.650590608836367 0 -5 -1
838 1 2 -1.1794 9.08605206179006 4.352700737705483 12.128693567301 -1 -2 -3
690 1 1 0.5897 5.393469176638211 0.8268637601707339 12.593515084901256 1 -2 6
297 1 1 0.5897 6.269527817622915 1.4801624754786011 15.247026127397623 -2 5 0
295 1 2 -1.1794 7.032349885238457 1.6447356152508923 15.801302780148394 -2 5 0
840 1 1 0.5897 8.763535742924903 4.3076411840299915 13.02878065254 -1 -2 -3
296 1 1 0.5897 6.801059968499445 1.262103472132272 16.647640974761238 -2 5 0
472 1 2 -1.1794 -0.19723442014850423 4.567010039652974 11.228929803693719 2 2 -2
91 1 2 -1.1794 2.8446304635663826 4.7411724787165 16.473819416518133 0 -5 -1
153 1 1 0.5897 5.792363702037623 6.147217502580253 16.64743931335182 2 1 -1
473 1 1 0.5897 0.1459803044265845 5.455547584821275 11.323498469151714 2 2 -2
647 1 1 0.5897 4.967551325044596 6.935546645948318 14.565111048148195 -5 -1 1
557 1 1 0.5897 0.19638254437624025 7.517453623694814 16.187061539957753 5 2 -1
615 1 1 0.5897 0.4439820779004676 9.382521364817016 12.541693606809273 -5 1 4
13 1 2 -1.1794 8.711133836049433 6.45947962072294 16.685251432852766 -1 -5 -3
758 1 1 0.5897 6.484459019320578 11.417457476213036 15.338400475909422 -1 2 2
496 1 2 -1.1794 -0.21518489281485162 10.506023499852063 15.454406012473575 3 -1 2
862 1 2 -1.1794 7.884985704326596 11.480086279853039 12.582211665422427 0 -1 2
864 1 1 0.5897 8.670529991888705 11.21555822480792 12.103510470592921 0 -1 2
96 1 1 0.5897 2.8510535421204253 9.278224915612903 12.3616588681233 -6 2 0
270 1 1 0.5897 1.7684776054736357 11.302959743603566 11.735623488930065 2 4 6
760 1 2 -1.1794 4.824007963711936 9.14492129941942 14.646426404956609 -1 -3 0
396 1 1 0.5897 2.7271917654787705 10.90055350954998 16.081374125609667 0 0 4
498 1 1 0.5897 0.32585511650567545 10.725993153379095 16.212754751445736 3 -1 1
613 1 2 -1.1794 1.150904630134845 9.972068129531717 12.804163935880453 -5 1 4
762 1 1 0.5897 4.3179319125019004 9.368482258764882 15.427524742271162 -1 -3 0
614 1 1 0.5897 1.0738514417134977 10.030109939074338 13.75647377999173 -5 1 3
863 1 1 0.5897 7.179303734915653 10.968354488203788 12.186792701346148 0 -1 2
94 1 2 -1.1794 3.6681573238864633 8.818123146789883 12.169713159804322 -6 2 0
761 1 1 0.5897 5.67776585465986 9.553731460550376 14.7884873613546 -1 -3 0
757 1 2 -1.1794 7.083846322218813 10.760757153474769 14.983899432911947 -1 2 2
759 1 1 0.5897 7.5619965781603415 11.220060850381293 14.29353037261627 -1 2 2
95 1 1 0.5897 4.1361467614422365 8.801715321482126 13.004525737952775 -5 2 0
15 1 1 0.5897 8.822518981092447 7.406679543958938 16.60403664293232 -1 -5 -3
394 1 2 -1.1794 2.867652349932797 10.13165531755603 16.63389231738031 0 0 5
485 1 1 0.5897 8.100239863680981 9.753282585590744 16.220047759283464 -1 3 0
815 1 1 0.5897 5.079990495731168 9.601537889740218 11.249172240147761 -2 8 -3
692 1 1 0.5897 3.613101661989164 4.291947037466774 17.981853302318587 3 2 3
691 1 2 -1.1794 3.9404738615832695 4.045707671386012 18.84695236180955 3 2 3
693 1 1 0.5897 3.7400342676108176 4.798813429171347 19.40269417720321 3 2 3
377 1 1 0.5897 2.321653900988596 1.623354920181697 19.002774018150966 1 5 1
530 1 1 0.5897 1.4381905615091053 3.3774055686070485 20.685940958987796 -4 -4 -6
529 1 2 -1.1794 1.1675071478596524 2.913262430142928 19.893783096847773 -4 -4 -6
442 1 2 -1.1794 5.903299593112884 2.3259578038246116 19.721293666329395 5 7 -2
443 1 1 0.5897 5.1854678507329615 2.937028841822804 19.555441464076683 5 7 -2
671 1 1 0.5897 7.549905839737487 3.204209643539725 20.02590476434428 6 3 1
79 1 2 -1.1794 1.921615217207067 4.390835306384597 22.24635927751966 4 -1 -4
444 1 1 0.5897 5.653903025008868 1.8761846744954689 20.528572329690196 5 7 -2
80 1 1 0.5897 2.4379859860790463 5.148566670469649 21.971766097446263 4 -1 -4
152 1 1 0.5897 5.583713455736957 5.252285452336536 17.850526880203148 2 1 -2
151 1 2 -1.1794 6.132344150268405 5.9652437829805605 17.523504718549272 2 1 -1
531 1 1 0.5897 0.21620342076843663 3.0162128819406537 19.868548231158115 -4 -4 -6
378 1 1 0.5897 3.4601302805660694 2.243387376947773 18.22096630502696 1 5 1
649 1 2 -1.1794 3.2294778057135987 6.193455268969427 20.605876710867225 1 -2 -1
376 1 2 -1.1794 2.9722546259840947 1.4269582459434211 18.328722765334437 1 5 1
492 1 1 0.5897 6.429956074985258 0.8308946204455084 18.65729729908512 -1 4 4
670 1 2 -1.1794 8.351026343903083 3.6505691959282713 20.300061791338234 6 3 1
672 1 1 0.5897 8.209565829015864 3.8507877038928475 21.225314759995186 6 3 1
858 1 1 0.5897 4.30454550576523 1.2167597204360916 22.368683256527717 2 -1 -3
545 1 1 0.5897 0.633561291579172 8.272520503164843 19.670714370228055 -2 3 2
608 1 1 0.5897 2.225118347175805 8.127563009587195 16.814792501254757 4 4 1
552 1 1 0.5897 4.214380612889905 8.799785294321044 22.33443250045859 -2 7 -6
800 1 1 0.5897 7.1511279318700876 10.898645152569177 19.721811285527235 0 0 0
14 1 1 0.5897 7.777743437638243 6.341872150751106 16.861802742548686 -1 -5 -3
238 1 2 -1.1794 2.320223923981876 11.447572755719122 20.968590597442663 -7 -4 0
788 1 1 0.5897 0.594686092081104 10.789530084894992 20.06293216244608 2 -2 3
559 1 2 -1.1794 8.298266482363829 8.755160527322554 21.533837800163248 5 1 0
560 1 1 0.5897 8.362021648733657 9.491969335384734 22.14152546635896 5 1 0
787 1 2 -1.1794 0.0744154370079107 10.23416392172245 19.482300983595216 2 -2 3
544 1 2 -1.1794 0.7778941041978489 7.333876972471678 19.551096151168817 -2 3 2
70 1 2 -1.1794 4.15794102036394 10.97566776492021 19.036626850303374 6 4 -5
356 1 1 0.5897 6.6186317746130054 7.8268459586985335 22.04885856399972 -2 -2 3
801 1 1 0.5897 7.6154001362213855 9.458689275630933 19.774444434422303 0 0 0
486 1 1 0.5897 7.9677291455544506 9.277682101958348 17.65114396636535 -1 3 0
333 1 1 0.5897 5.522571302151053 7.366137169419162 18.731625413413347 -1 -1 -4
355 1 2 -1.1794 5.685546401671533 7.618632500162428 22.001946285088728 -2 -2 3
331 1 2 -1.1794 5.010155746388788 7.994766777243809 19.240010424384774 -1 -1 -4
332 1 1 0.5897 5.616626512128663 8.314195112929355 19.908126311007507 -1 -1 -4
72 1 1 0.5897 3.556330267286037 11.15239640814008 19.759860411740586 6 4 -5
650 1 1 0.5897 2.39137993132205 6.492485645165741 20.25322648715241 1 -2 -1
651 1 1 0.5897 3.870168438308286 6.81636118498075 20.262789763874217 1 -2 -1
71 1 1 0.5897 4.466635547549859 10.083376784233067 19.19383461622323 6 4 -5
609 1 1 0.5897 1.4873833459313508 7.380301727152982 17.90527163824991 4 4 1
239 1 1 0.5897 2.5454184870903767 10.851094547314467 21.68252093261561 -7 -4 0
546 1 1 0.5897 -0.09751039979135104 6.972109666083672 19.41325537494446 -2 3 2
799 1 2 -1.1794 7.289941372623745 10.12752020473764 19.172005025784213 0 0 0
607 1 2 -1.1794 1.8572680246245206 7.2703266342944195 17.02932542141041 4 4 1
395 1 1 0.5897 3.3020370131505534 10.473720269142259 17.415231532824734 0 0 5
484 1 2 -1.1794 8.466073998274734 9.12977529753212 16.84742354241068 -1 3 0
120 1 1 0.5897 7.599211526229335 16.76157443680065 2.3442661800782507 1 -2 -1
536 1 1 0.5897 7.064729375879988 13.07192510878099 4.297834987475305 8 5 4
127 1 2 -1.1794 1.5022870958147327 15.614216080885246 4.613342376427593 -2 2 -3
398 1 1 0.5897 3.1553590208797306 15.438512157126581 2.803344824367318 4 3 -4
397 1 2 -1.1794 3.7648474505577663 15.323424005003936 2.074296963241122 4 3 -4
399 1 1 0.5897 3.5847714307670486 16.061594950562746 1.4921611343271384 4 3 -4
380 1 1 0.5897 7.567616283851837 13.867312649775062 0.44474781432542165 8 4 1
112 1 2 -1.1794 8.010345701471786 15.028586328943513 2.1240975599503438 -5 -3 3
128 1 1 0.5897 1.7153415003223924 14.681164022420928 4.5965284430908495 -2 2 -3
379 1 2 -1.1794 7.0819260326595215 13.201039285731367 -0.041488887584347905 8 4 1
630 1 1 0.5897 4.456780952348309 13.94130486147948 1.190924398164953 0 -4 1
727 1 2 -1.1794 1.6238999757601817 12.855851388049384 4.646136054561601 0 2 -1
293 1 1 0.5897 5.0450848587202595 12.458280770883436 4.087997248903411 -2 0 3
628 1 2 -1.1794 4.46994302356769 13.290888980787352 0.4887950383321712 0 -4 1
114 1 1 0.5897 7.369205926585645 14.650166134514944 2.725724961998412 -5 -3 3
535 1 2 -1.1794 6.3135496207987725 13.533459462249969 3.925094351795228 8 5 4
728 1 1 0.5897 1.0093290764855418 12.765886083420028 3.917843269609185 0 2 -1
113 1 1 0.5897 8.854835339153441 14.882403495389358 2.550338718392696 -5 -3 3
292 1 2 -1.1794 4.272574532548573 11.893133610319873 4.094944324020433 -2 0 3
59 1 1 0.5897 0.23449289621890745 15.748755354239094 2.979771123831774 3 -4 -3
537 1 1 0.5897 5.857874283857742 13.901047235533253 4.68236284763345 8 5 4
729 1 1 0.5897 2.3604628630168967 12.292147834588778 4.409646042887453 0 2 -1
256 1 2 -1.1794 -0.07598253349740258 12.567050807667481 2.458278815114161 -2 -1 0
370 1 2 -1.1794 2.3333417592815984 16.801886992787793 -0.2073998551968081 3 7 -1
629 1 1 0.5897 5.395262464254786 13.203398591863882 0.2600348200606625 0 -4 1
830 1 1 0.5897 0.6866282343362985 15.735417808771976 -0.06176456834622396 3 3 4
513 1 1 0.5897 5.288194097727734 16.33598782704164 5.397213625718379 0 1 -6
694 1 2 -1.1794 8.46966746626249 12.485381829922234 5.336565780824347 2 -2 0
118 1 2 -1.1794 7.4410923674087295 17.702340631826118 2.4227993995904016 1 -2 -1
119 1 1 0.5897 8.312223679912861 18.09656488675575 2.379038868797527 1 -2 -1
553 1 2 -1.1794 6.195752116313806 18.13474911878902 5.000298833171528 -3 -5 3
501 1 1 0.5897 2.8444710147958494 19.09588476506849 4.633634648782405 -1 1 -2
252 1 1 0.5897 8.980664240440044 21.23128813793405 2.7432245892349307 5 -4 4
90 1 1 0.5897 -0.14390161656625244 19.77961642100434 1.1269742271143253 6 -1 5
67 1 2 -1.1794 7.783387608899517 20.476016441199384 4.047379312417805 7 -1 -2
554 1 1 0.5897 6.470082365190717 18.02474387197925 4.089895691269508 -3 -5 3
781 1 2 -1.1794 6.537016159508236 19.914861456168893 0.7659699619420903 -4 -2 1
69 1 1 0.5897 6.924049145012337 20.857171195930164 3.8672149995939016 7 -1 -2
222 1 1 0.5897 9.06118501963781 21.525692398636142 0.45690943233383285 2 -4 5
371 1 1 0.5897 1.8846524501328998 17.460491593185402 0.3228378672282415 3 7 -1
37 1 2 -1.1794 0.9920931018562187 18.36693861141703 4.067367428446358 -1 1 -2
38 1 1 0.5897 0.3764409234054297 18.733408254112245 4.70212653399575 -1 1 -2
500 1 1 0.5897 3.843837040067071 19.647548176843202 3.639286291569189 -1 1 -2
28 1 2 -1.1794 4.015805428586306 20.474775101660736 1.8589901029087081 -5 -2 6
68 1 1 0.5897 7.594280502045083 19.582609981294766 4.334197781134258 7 -1 -2
827 1 1 0.5897 2.1114401897497976 19.799770051366387 1.5448817605767484 0 3 1
782 1 1 0.5897 7.342875386624149 20.34791201313762 0.48438284049033886 -4 -2 1
828 1 1 0.5897 1.2781620861725815 18.82455096588387 2.348914872266053 0 3 1
29 1 1 0.5897 3.8843892062059426 21.420223331090526 1.7878711891871255 -5 -2 6
826 1 2 -1.1794 1.5148880082633067 19.057120367215113 1.4510808820090433 0 3 1
30 1 1 0.5897 4.775896708217573 20.295823092044962 1.3054293020769576 -5 -2 6
783 1 1 0.5897 6.829416355802652 19.23506867326379 1.3731050752755452 -4 -2 1
39 1 1 0.5897 1.2005795397774752 17.497639655162754 4.409584424905376 -1 1 -2
385 1 2 -1.1794 5.858073249226067 22.76888199262145 3.516677825343025 -3 0 0
499 1 2 -1.1794 3.7820405474865364 19.23634273696614 4.501438575601963 -1 1 -2
555 1 1 0.5897 5.37998201686206 18.632576128812826 4.946641634111524 -3 -5 3
104 1 1 0.5897 2.29842286655078 15.974019221039903 7.659345410333161 4 0 5
620 1 1 0.5897 7.191444084677537 14.878166595370622 8.109641392460604 1 -3 5
621 1 1 0.5897 6.049394962926405 15.43442759185062 8.933107764600594 1 -3 5
84 1 1 0.5897 0.7659868846235584 16.847506232267897 10.760198611582801 -4 -2 -6
105 1 1 0.5897 3.334996845689988 16.18567513265247 6.5764986262626035 4 0 5
512 1 1 0.5897 5.555686019841665 15.4962792742541 6.62815564782914 0 1 -6
420 1 1 0.5897 0.9838802756712266 15.253952139158459 9.269207957315661 -6 -2 4
103 1 2 -1.1794 2.623646855549124 16.627520993572453 7.040188045666338 4 0 5
495 1 1 0.5897 2.336215597384832 13.286236209602365 8.513822016336356 -2 -1 -2
571 1 2 -1.1794 8.246223153436631 12.864853389622189 8.244926790572762 3 -2 -5
493 1 2 -1.1794 2.5898521898662934 12.38004633501994 8.688985718099504 -2 -1 -2
619 1 2 -1.1794 6.475140715981638 15.512348518132635 8.079374918351016 1 -3 5
418 1 2 -1.1794 1.2970580945386032 14.817514772963092 8.476965588219906 -6 -2 4
419 1 1 0.5897 0.5229819399394919 14.38069796683265 8.121690330014669 -6 -2 4
494 1 1 0.5897 2.4873264596524054 12.280813522510744 9.635474981377907 -2 -1 -2
696 1 1 0.5897 8.502848922991769 12.634304349410561 6.28151372691763 2 -2 0
511 1 2 -1.1794 5.104708425879469 15.47987480016744 5.784024132349642 0 1 -6
572 1 1 0.5897 8.867923390487222 12.18725207623412 8.510562703702607 3 -2 -5
82 1 2 -1.1794 0.15697205731987773 16.12203119540542 10.622316096752904 -4 -2 -6
116 1 1 0.5897 6.96076088078581 17.228720163249793 8.103975473811538 -2 -3 4
573 1 1 0.5897 7.387114693740752 12.496108460260832 8.450247055566836 3 -2 -5
329 1 1 0.5897 4.584203799084766 12.365144921903372 8.477132512821386 3 5 0
328 1 2 -1.1794 5.458099154819815 12.006046209147389 8.6305775232998 3 5 0
129 1 1 0.5897 1.6068856412150068 15.867813432572005 5.530404959264598 -2 2 -3
475 1 2 -1.1794 -0.17474456022076262 22.70421098102291 6.034372031644611 7 -3 -1
74 1 1 0.5897 2.875594204875264 19.618391443159982 8.127907254239386 2 0 1
810 1 1 0.5897 1.5706804364371156 19.20297681263221 10.846665385146158 5 0 -3
73 1 2 -1.1794 2.1500083665018552 19.24227105604331 7.629644953158027 2 0 1
75 1 1 0.5897 2.4539620535722153 18.36793681375725 7.385987837213233 2 0 1
313 1 2 -1.1794 1.403435765110914 21.122830574902768 10.228135877004165 -1 -2 0
740 1 1 0.5897 0.6616844953314434 22.485941842430357 9.401257935764475 -1 -2 3
375 1 1 0.5897 6.644818201717837 19.4696996992268 8.95070033380966 0 3 1
704 1 1 0.5897 4.1520775395109615 21.818628468620883 8.567452277009028 4 -2 0
314 1 1 0.5897 2.3044056197749945 21.185950614211297 9.911159966099717 -1 -2 0
374 1 1 0.5897 6.206762660917421 19.37829923109406 10.396946989579504 0 3 1
373 1 2 -1.1794 6.1087528582045385 19.912359304158844 9.60865514367628 0 3 1
115 1 2 -1.1794 7.286428803841755 18.049811633446573 7.735273806809131 -2 -3 4
117 1 1 0.5897 6.920885738289557 18.077515574451816 6.851075459456511 -2 -3 4
122 1 1 0.5897 0.5662368970219407 19.529175328944515 6.746591160165129 3 -3 0
668 1 1 0.5897 8.666232806286082 19.6755436705953 10.617475113268727 -8 -2 -1
703 1 2 -1.1794 3.9965553609372924 21.498496198352854 9.456001442287517 4 -2 0
705 1 1 0.5897 4.778907927019597 20.98940956954931 9.668039842431527 4 -2 0
315 1 1 0.5897 1.4212950870527614 21.543985208595068 11.087519467478861 -1 -2 0
100 1 2 -1.1794 3.6657499138437473 15.907954486035033 14.048022519565873 5 -6 0
101 1 1 0.5897 3.8839708472540178 15.137031310531079 13.52433699498662 5 -6 0
102 1 1 0.5897 2.758939712970322 15.765034355931007 14.31917704651703 5 -6 0
406 1 2 -1.1794 8.329536263430416 14.113219899683724 11.748228509441171 -3 1 4
408 1 1 0.5897 8.148715854924141 13.310531923652947 12.237296283085195 -3 1 4
265 1 2 -1.1794 5.430967575090931 13.018524211243049 15.557723534152144 -4 0 -3
267 1 1 0.5897 6.259817356253538 13.485511334087342 15.452026790950931 -4 0 -3
266 1 1 0.5897 5.160576550745927 13.209867110269045 16.455775530498705 -4 0 -3
268 1 2 -1.1794 2.135899776878323 12.125905374904928 11.413126490693053 2 4 6
98 1 1 0.5897 3.602940041130249 12.971734714920734 12.736955578009228 4 -7 3
97 1 2 -1.1794 4.38707063081821 13.501490582230984 12.88084201509951 4 -7 3
269 1 1 0.5897 1.489732549738227 12.788848667157758 11.656413464373472 2 4 6
99 1 1 0.5897 4.8514473096989015 13.055399705943055 13.589057724235925 4 -7 3
746 1 1 0.5897 8.87043272862047 13.973038796477443 15.343356080571679 1 1 -9
40 1 2 -1.1794 1.0272985508976458 15.250294092290437 14.83840479786252 -2 -1 4
42 1 1 0.5897 1.3627079479133934 14.914750241976115 15.669767713565452 -2 -1 4
213 1 1 0.5897 8.480580408133592 16.746376379275944 13.967011836019859 4 2 2
181 1 2 -1.1794 0.3490553236927625 13.895149168143357 12.541629345294215 -3 0 -2
182 1 1 0.5897 0.6702505420054988 14.465791038971556 13.239773077886108 -2 0 -2
41 1 1 0.5897 0.18634051336459534 15.648877182936772 15.062289116514602 -2 -1 4
211 1 2 -1.1794 7.682498718158699 17.203693505475492 14.23184231428038 4 2 2
183 1 1 0.5897 0.11745504294307468 14.492751734700018 11.830696106165918 -3 0 -2
745 1 2 -1.1794 8.112358258630563 13.389967491014463 15.303929897967295 1 1 -9
447 1 1 0.5897 4.814942412019281 16.085302293711553 15.395274243419085 2 -2 0
446 1 1 0.5897 6.19396125273262 16.708852949596867 15.431844542143585 1 -2 0
76 1 2 -1.1794 2.5968917428687854 12.314298542610551 14.926574197138962 -7 -4 -5
77 1 1 0.5897 3.1621039535346633 13.046781085437626 14.681118358289789 -7 -4 -5
747 1 1 0.5897 8.370159199968109 12.62595589269244 15.819717491692955 1 1 -9
445 1 2 -1.1794 5.519099970027895 16.330553539138513 15.995454946280404 1 -2 0
78 1 1 0.5897 2.0049456704437234 12.678094910252447 15.584946991368183 -7 -4 -5
156 1 1 0.5897 5.432632516395857 15.218774923621067 11.403268909729757 5 4 -6
407 1 1 0.5897 8.7100530246778 14.70762988667617 12.394815493925439 -3 1 4
155 1 1 0.5897 6.938485314282422 15.29676823564738 11.538063227014035 5 4 -6
154 1 2 -1.1794 6.181546177398819 15.783192514600431 11.211480986146217 5 4 -6
298 1 2 -1.1794 0.5592379914930037 19.067347584669427 13.888325499236409 -5 -1 0
180 1 1 0.5897 6.274087626312805 17.504849722807275 11.70058031275642 -7 -1 -1
7 1 2 -1.1794 1.9007524421009827 18.986520495000516 16.197975965355557 1 -2 -2
177 1 1 0.5897 8.014045662767625 18.423678691617916 15.620951833759896 -1 -3 4
304 1 2 -1.1794 4.277316647388916 22.72269902460219 15.645707849838649 5 -2 -7
36 1 1 0.5897 2.514676916443506 21.7977001427468 13.091941904972032 -5 2 0
300 1 1 0.5897 0.04061967210297435 19.865745567644066 13.789378856956825 -5 -1 0
578 1 1 0.5897 4.467957906252867 20.439183952823157 13.598864143282524 2 4 -4
320 1 1 0.5897 3.308984161035155 18.641894489283914 12.701891259848429 4 -1 1
319 1 2 -1.1794 4.069216208495925 18.61900346266836 13.283022529335746 4 -1 1
808 1 2 -1.1794 1.7394765767647067 18.355424185162892 11.258193759257022 5 0 -3
34 1 2 -1.1794 1.7079648289086158 22.18167071870713 12.748448872667183 -5 2 0
321 1 1 0.5897 4.230397753383948 17.687126344438227 13.430734230368799 4 -1 1
579 1 1 0.5897 4.457805385182967 21.813114182775696 14.234497785703281 2 4 -4
212 1 1 0.5897 7.362608508797737 17.61323857268326 13.428007573273172 4 2 2
176 1 1 0.5897 8.441573435107967 19.78360903476373 16.13046258692928 -1 -3 4
804 1 1 0.5897 -0.12630512417677653 22.763460533992852 16.61151753022662 5 1 -3
809 1 1 0.5897 1.334402642316785 18.423525352088685 12.12278003608107 5 0 -3
179 1 1 0.5897 5.776733143321717 18.5552551974433 12.670685011105926 -7 -1 -1
577 1 2 -1.1794 4.5611767266162655 21.3692614540073 13.39277271693105 2 4 -4
9 1 1 0.5897 1.5276622819085421 19.063267332690884 15.319838727892392 1 -2 -2
299 1 1 0.5897 -0.05701562431684229 18.422335008920424 14.23528976805598 -5 -1 0