LAMMPS (30 Jul 2021)
  using 1 OpenMP thread(s) per MPI task
package omp 0
using multi-threaded neighbor list subroutines
echo both

include		in.partitions
variable        pid world 0
include		in.temp
variable        temperature equal 257.39
variable	tempDamp equal 100.0
include		in.pressure
variable        pressure equal 6750.0
variable        pressureDamp equal 1000.0 # This is 1 ps
include		in.seed
variable        seed world 745823

units		real
atom_style	full
read_restart	restart.lmp.${pid}
read_restart	restart.lmp.0
Reading restart file ...
  restart file = 30 Jul 2021, LAMMPS = 30 Jul 2021
  restoring atom style full from restart
  orthogonal box = (0.57081833 1.7638799 0.69639703) to (17.636754 21.865298 21.516799)
  4 by 4 by 4 MPI processor grid
  restoring pair style lj/cut/tip4p/long/omp from restart
  restoring bond style harmonic/omp from restart
  restoring angle style harmonic/omp from restart
  864 atoms
  576 bonds
  288 angles
Finding 1-2 1-3 1-4 neighbors ...
  special bond factors lj:    0        0        0       
  special bond factors coul:  0        0        0       
     2 = max # of 1-2 neighbors
     1 = max # of 1-3 neighbors
     1 = max # of 1-4 neighbors
     2 = max # of special neighbors
  special bonds CPU = 1.781 seconds
  read_restart CPU = 2.193 seconds
include 	in.setup
variable	out_freq equal 1000
variable	out_freq2 equal 10000
variable	out_freq3 equal 1000

timestep	2.0

neigh_modify    delay 7 every 1

include		in.tip4p
# This is TIP4P/Ice

# create groups ###
group ox type 2
288 atoms in group ox
group hy type 1
576 atoms in group hy

# set charges - beside manually ###
set group ox charge -1.1794
Setting atom values ...
  288 settings made for charge
set group hy charge 0.5897
Setting atom values ...
  576 settings made for charge

# ### TIP3P Potential Parameters ###
pair_style lj/cut/tip4p/long/omp 2 1 1 1 0.1577 8.5
pair_coeff 1 1*2 0.000 0.000
pair_coeff 2 2 0.21084 3.1668
bond_style  harmonic
bond_coeff  1 450 0.9572
angle_style harmonic
angle_coeff 1 55 104.52
kspace_style pppm/tip4p/omp 1.0e-5
pair_modify tail yes

thermo          ${out_freq}
thermo          1000
thermo_style    custom step temp pe etotal epair emol press lx ly lz vol pxx pyy pzz pxy pxz pyz enthalpy

restart 	${out_freq3} restart.lmp.${pid} restart2.lmp.${pid}
restart 	1000 restart.lmp.${pid} restart2.lmp.${pid}
restart 	1000 restart.lmp.0 restart2.lmp.${pid}
restart 	1000 restart.lmp.0 restart2.lmp.0


include         in.dump
dump            myDump all atom ${out_freq2} dump.water.${pid}
dump            myDump all atom 10000 dump.water.${pid}
dump            myDump all atom 10000 dump.water.0
dump            myDump2 all dcd ${out_freq2} dump.dcd
dump            myDump2 all dcd 10000 dump.dcd
dump_modify     myDump append yes
dump_modify     myDump2 append yes


variable natoms 	equal  "count(all)"                        # NUMBER ATOMS
variable H      	equal  "enthalpy/v_natoms"                 # ENTHALPY-per-atom
variable Vol      	equal  "vol/v_natoms"                 # volume-per-atom
fix AVG all 		ave/time ${out_freq} 1 ${out_freq} v_Vol v_H file vol_enthalpy.dat
fix AVG all 		ave/time 1000 1 ${out_freq} v_Vol v_H file vol_enthalpy.dat
fix AVG all 		ave/time 1000 1 1000 v_Vol v_H file vol_enthalpy.dat


timer           timeout 23:50:00 every 1000
New timer settings: style=normal  mode=nosync  timeout=23:50:00

fix 		1 all shake 1e-6 200 0 b 1 a 1
       0 = # of size 2 clusters
       0 = # of size 3 clusters
       0 = # of size 4 clusters
     288 = # of frozen angles
  find clusters CPU = 0.354 seconds
fix             2 all nph iso ${pressure} ${pressure} ${pressureDamp}
fix             2 all nph iso 6750 ${pressure} ${pressureDamp}
fix             2 all nph iso 6750 6750 ${pressureDamp}
fix             2 all nph iso 6750 6750 1000
fix             3 all temp/csvr ${temperature} ${temperature} ${tempDamp} ${seed}
fix             3 all temp/csvr 257.39 ${temperature} ${tempDamp} ${seed}
fix             3 all temp/csvr 257.39 257.39 ${tempDamp} ${seed}
fix             3 all temp/csvr 257.39 257.39 100 ${seed}
fix             3 all temp/csvr 257.39 257.39 100 745823

run             250000
PPPM initialization ...
  extracting TIP4P info from pair style
  using 12-bit tables for long-range coulomb (../kspace.cpp:340)
  G vector (1/distance) = 0.37382041
  grid = 24 24 24
  stencil order = 5
  estimated absolute RMS force accuracy = 0.0032117083
  estimated relative force accuracy = 9.6719642e-06
  using double precision FFTW3
  3d grid and FFT values/proc = 2535 216
Last active /omp style is kspace_style pppm/tip4p/omp
Neighbor list info ...
  update every 1 steps, delay 7 steps, check yes
  max neighbors/atom: 2000, page size: 100000
  master list distance cutoff = 10.8154
  ghost atom cutoff = 10.8154
  binsize = 5.4077, bins = 4 4 4
  1 neighbor lists, perpetual/occasional/extra = 1 0 0
  (1) pair lj/cut/tip4p/long/omp, perpetual
      attributes: half, newton on, omp
      pair build: half/bin/newton/omp
      stencil: half/bin/3d
      bin: standard
Per MPI rank memory allocation (min/avg/max) = 9.235 | 9.238 | 9.241 Mbytes
Step Temp PotEng TotEng E_pair E_mol Press Lx Ly Lz Volume Pxx Pyy Pzz Pxy Pxz Pyz Enthalpy 
11250000    270.62259   -3875.7461   -3411.9083   -3875.7461            0    7720.8584    17.065936    20.101418    20.820402    7142.4286    7100.7468    6972.6345     9089.194    334.72201    1902.3082   -1177.0976   -2607.6651 
11251000    248.09495   -3858.1086   -3432.8824   -3858.1086            0    7904.6029    17.137169    20.185322    20.907307    7232.2404    8239.7637    8278.1902    7195.8549    54.322491    -783.6729    669.86756   -2599.1459 
11252000    253.40727   -3840.4321   -3406.1007   -3840.4321            0    6188.4949    17.162308    20.214932    20.937976    7264.1142    5869.0737    7393.5515    5302.8595    1290.9006    1500.0929    262.95484   -2750.4937 
11253000    270.79717   -3878.0406   -3413.9036   -3878.0406            0    8056.0574    17.061983    20.096762    20.815579    7137.4664    7909.7085    7605.8675    8652.5963   -371.98961    56.756819   -1258.8947   -2575.3274 
11254000    246.89849   -3902.2466    -3479.071   -3902.2466            0    5954.3349    17.157434    20.209191    20.932029    7257.9267    5300.1355     7966.626    4596.2431   -165.55939   -1091.6583   -638.17239   -2848.8082 
11255000    251.62457   -3847.4168   -3416.1409   -3847.4168            0    7292.0458    17.140305    20.189016    20.911132    7236.2114    6189.3939    7286.4459    8400.2978   -317.75691    224.65159    -1651.519   -2646.5915 
11256000    278.65844    -3903.991   -3426.3799    -3903.991            0    5099.0402    17.140505     20.18925    20.911376     7236.464    4037.1874     5488.218    5771.7152    254.57744     313.2003   -899.70219   -2888.2455 
11257000    264.22874   -3885.2289   -3432.3498   -3885.2289            0    8452.6996    17.035397    20.065447    20.783144    7104.1536    8503.1065    7702.0322    9152.9601    2127.9162   -2158.0391    84.221249   -2556.5927 
11258000    264.67108   -3894.2814   -3440.6442   -3894.2814            0    6359.7497    17.138982    20.187457    20.909518    7234.5357    5839.4271    6629.0161     6610.806    1673.5736   -104.11721    293.39228    -2769.638 
11259000    261.23765   -3866.5781   -3418.8257   -3866.5781            0    5833.7311    17.151882    20.202652    20.925256    7250.8838    6105.7119    6454.4552    4941.0262   -268.55313   -117.98988    335.00925   -2801.9279 
11260000    265.97098   -3886.5051     -3430.64   -3886.5051            0     5421.343     17.12074     20.16597    20.887263      7211.46    4639.3086    7242.3401    4382.3804    9.7570042   -1456.0612    740.84877   -2860.4679 
11261000    266.86348   -3897.6622   -3440.2673   -3897.6622            0    7570.0794    17.083216    20.121771    20.841483    7164.1465    8335.0534    6609.1475    7766.0374    780.10456    1.6166678   -258.09594   -2649.3323 
11262000    274.42961   -3863.4236   -3393.0606   -3863.4236            0    8558.2882    17.043501    20.074993    20.793031    7114.2972    9142.3759    7383.8695    9148.6193   -830.19297    -508.5052    224.02622   -2505.0977 
11263000    264.19238    -3859.447   -3406.6303    -3859.447            0    6970.9602    17.120302    20.165454    20.886728     7210.906    7627.9357    5503.7376    7781.2071    828.09236    1236.5062   -188.47464   -2673.5386 
11264000    256.44839   -3894.7323   -3455.1885   -3894.7323            0    7407.7752    17.151392    20.202075    20.924658    7250.2624    6522.9525    9574.8867    6125.4863     432.2003    880.34084   -464.76758   -2671.9078 
11265000     256.7094   -3907.0237   -3467.0325   -3907.0237            0    4864.3848    17.180982    20.236928    20.960758    7287.8524    4662.3449    6602.2776    3328.5319   -1929.6551    1036.1292   -808.20751   -2950.0172 
11266000    256.46294   -3879.3345   -3439.7658   -3879.3345            0    7145.1029    17.115227    20.159477    20.880537    7204.4955    5786.5502    8053.7596    7594.9988    179.46537     226.8043    324.31227   -2689.0286 
11267000    267.64837   -3885.8006   -3427.0605   -3885.8006            0    7371.3628    17.084121    20.122837    20.842587     7165.285    8685.4641    7171.1476    6257.4768   -207.30465    2413.9616   -621.16084   -2656.7654 
11268000    243.03107   -3897.2511   -3480.7042   -3897.2511            0    6161.5075    17.131724    20.178908    20.900663    7225.3485    6786.6885    6204.7784    5493.0557    1828.8379    1228.6161   -224.73182   -2831.4397 
11269000    252.73323   -3892.9436   -3459.7675   -3892.9436            0    4707.6492     17.24523    20.312603     21.03914    7369.9159    4960.1009    5444.8764    3717.9703    669.37481    487.62015    151.99749   -2953.7768 
11270000    258.99831   -3933.2271   -3489.3129   -3933.2271            0     6041.291    17.096749    20.137712    20.857994    7181.1866    7147.2336    5649.8249    5326.8144   -1690.9812     626.1623   -710.02642    -2856.607 
11271000    251.98404   -3917.4408   -3485.5488   -3917.4408            0    7781.3315    17.100099    20.141658    20.862081    7185.4089    8997.4308    7156.0738    7190.4899    1296.4682     892.8906   -1242.7951   -2670.1289 
11272000    265.90082   -3901.4694   -3445.7245   -3901.4694            0     6509.611    17.139116    20.187615    20.909682    7234.7056    7343.8431    7543.0139    4641.9761   -46.776848   -68.774013   -488.57748   -2758.8904 
11273000    255.02401   -3911.6982   -3474.5958   -3911.6982            0     5947.856    17.061634    20.096351    20.815154    7137.0292    4300.5156    5981.0759    7561.9766   -800.34051   -711.52066    384.93733   -2855.5058 
11274000    265.14706   -3844.7557   -3390.3027   -3844.7557            0    6338.0963    17.110605    20.154033    20.874898    7198.6605    6768.8884     6629.683    5615.7174    291.28365    1096.0868    -89.86317   -2724.8971 
11275000     258.4215   -3871.7098   -3428.7842   -3871.7098            0    7528.8898    17.062891    20.097832    20.816687    7138.6065    5863.8778    8390.6835    8332.1081   -99.796499   -810.00583    1134.0396   -2644.9571 
11276000    257.50989   -3833.7207   -3392.3576   -3833.7207            0    6903.0838    17.090459    20.130303     20.85032    7173.2627    6461.0308    6962.9498    7285.2708   -232.02399   -63.153624    251.16602   -2670.1937 
11277000    271.37094   -3886.1567   -3421.0362   -3886.1567            0    6260.8438    17.167843    20.221452    20.944729    7271.1451    7263.7293    6296.9138    5221.8882    288.28356     519.4395   -127.33683   -2757.1226 
11278000    258.41189   -3884.4855   -3441.5763   -3884.4855            0    7079.9791     17.11397    20.157996    20.879003    7202.9078    6496.6278    7023.0038    7720.3058   -246.54473   -345.06193    1017.9705   -2697.8456 
11279000    252.32184    -3893.173    -3460.702    -3893.173            0    6376.7202    17.121349    20.166688    20.888006    7212.2299    5674.5787    7352.2546    6103.3274   -248.83294    1538.6261   -617.02827   -2789.9796 
11280000    257.66643   -3857.1251   -3415.4937   -3857.1251            0    7744.7561      17.1115    20.155087    20.875991    7199.7906    8367.1874     7835.611      7031.47   -231.74232    238.27658   -1203.1273   -2602.2822 
11281000    263.55722   -3857.7619   -3406.0338   -3857.7619            0    4965.5774    17.086577    20.125731    20.845584    7168.3764    4537.2036    4071.1619    6288.3666   -167.84175    999.64796    512.65685   -2886.9154 
11282000    251.96608   -3863.1736   -3431.3123   -3863.1736            0    7214.8873    17.087307     20.12659    20.846474    7169.2948    6850.9765    6374.0927    8419.5928   -792.98662    1213.8928   -1095.6747   -2676.9467 
11283000    254.55443   -3846.3252   -3410.0276   -3846.3252            0    6076.1159    17.072889    20.109608    20.828884     7151.162    4134.4603    7537.9974    6555.8901    719.92729    -539.5227   -637.30473   -2776.3351 
11284000    257.23144   -3900.6799    -3459.794   -3900.6799            0    7285.7076    17.077188    20.114672    20.834129    7156.5658    7052.7104    8468.0593     6336.353    -1465.998     305.4579   -514.72554   -2699.3762 
11285000    247.53574   -3889.4243   -3465.1565   -3889.4243            0    8161.0977    17.041639      20.0728     20.79076    7111.9664    8349.0073    9291.1838     6843.102    -662.5311    127.21027    827.96354   -2618.6815 
11286000    248.60081   -3874.4928   -3448.3996   -3874.4928            0    6515.6135    17.089543    20.129224    20.849203    7172.1101    5723.8852    7046.7321    6776.2232      15.7766   -953.58891   -112.86317   -2766.8803 
11287000    274.84913   -3887.9427   -3416.8607   -3887.9427            0     7465.778    17.061395     20.09607    20.814862    7136.7293    7881.4333    7809.3249    6706.5759    534.51802   -529.22698     334.1224   -2639.8085 
11288000    266.57186   -3864.6469   -3407.7519   -3864.6469            0    6983.1488     17.03304    20.062672    20.780269     7101.206    7090.5281    6419.1482    7439.7701    1149.3419   -451.91124   -2695.2593   -2684.5504 
11289000     262.6251   -3878.9398   -3428.8094   -3878.9398            0    6160.8138    17.135936     20.18387    20.905802    7230.6795    3937.4077    8677.1496    5867.8841    925.16887    551.21578   -961.03026    -2779.139 
11290000    254.55616   -3874.9474   -3438.6469   -3874.9474            0    4740.3328     17.17624    20.231341    20.954972    7281.8187    3198.0193    5336.7128    5686.2665   -100.57211   -243.57033    579.83416   -2935.2337 
11291000    243.35911   -3828.1509   -3411.0417   -3828.1509            0    4746.0802    17.154769    20.206052    20.928778    7254.5459    5586.5707    4472.5174    4179.1525     81.26516   -2541.6439    194.79121   -2908.9059 
11292000    246.56522   -3837.0544     -3414.45   -3837.0544            0    6459.0696    17.081635     20.11991    20.839555    7162.1587    7419.5592    5759.6074    6198.0422    509.24737    403.02445   -196.09802   -2739.7825 
11293000    267.68528   -3874.4356   -3415.6322   -3874.4356            0    5583.2688      17.1808    20.236713    20.960536    7287.6206    5323.7798    7020.1287    4405.8979    270.77339   -2236.0011    601.97631   -2822.2286 
11294000    262.97568   -3882.2541   -3431.5227   -3882.2541            0    5721.6859    17.136258    20.184249    20.906195    7231.0872    5149.1484    6388.1159    5627.7934    257.69428   -345.38104   -281.80168   -2828.1252 
11295000    259.55903   -3959.8728   -3514.9975   -3959.8728            0    6700.7234    17.112264    20.155987    20.876922    7200.7547    7619.8145    4997.6199    7484.7356    2061.0097   -1050.2605    1135.3557   -2811.3169 
11296000    273.76077   -3917.3912   -3448.1746   -3917.3912            0    7628.5654    17.097813    20.138966    20.859292    7182.5277    8638.3565     6042.207    8205.1327     -1389.01    -284.7597    888.18896   -2649.0839 
11297000    252.73088   -3906.3376   -3473.1656   -3906.3376            0    6264.6467    17.139255    20.187778    20.909851    7234.8811    7820.9454    6200.0739     4772.921     1316.324    1072.1415   -463.25079   -2812.1619 
11298000    245.56881   -3871.8315    -3450.935   -3871.8315            0     7545.609     17.19924    20.258433    20.983033    7311.1106    7799.4946    8227.2376    6610.0949   -574.42273   -40.036087   -1034.1794    -2646.384 
11299000    257.33217   -3872.5041   -3431.4456   -3872.5041            0     8299.623    17.068551    20.104499    20.823593    7145.7131     8516.671    9060.9538    7321.2442   -569.00215    925.09361     -1598.43   -2566.5178 
11300000    246.43223   -3870.1076   -3447.7312   -3870.1076            0    8323.8908    17.076761    20.114168    20.833608    7156.0285    9458.8881    9211.7975     6300.987     132.5234    632.57929     1728.954   -2579.0222 
11301000    264.29247   -3877.7898   -3424.8015   -3877.7898            0    4354.9668    17.185829    20.242636    20.966671    7294.0215    5764.5105    2969.4471    4330.9427    -714.9339   -594.76474     1927.586   -2961.5384 
11302000    256.22635   -3892.7995   -3453.6363   -3892.7995            0    6722.6789    17.126388    20.172622    20.894153    7218.5986    6586.0034    7354.8073    6227.2259    432.97911   -2134.5834   -620.43405   -2745.9005 
11303000    246.80723   -3884.9326   -3461.9135   -3884.9326            0    7360.8077    17.113461    20.157397    20.878382    7202.2657    7917.1564     8851.906    5313.3608   -1874.2073   -390.33395    343.61325   -2688.7515 
11304000    256.49045   -3845.0741   -3405.4582   -3845.0741            0    5552.8256    17.086377    20.125495     20.84534    7168.1244    4852.7503    6918.4915    4887.2349    1208.7834     328.8982   -355.40907   -2824.9673 
11305000    252.78847   -3860.2864   -3427.0156   -3860.2864            0     6214.865    17.033623    20.063358     20.78098     7101.935    7601.9222    6763.3097     4279.363    534.91257   -630.56252   -374.31101   -2783.3144 
11306000    259.52251    -3832.807   -3387.9943    -3832.807            0    7711.7167    17.060448    20.094955    20.813707    7135.5413    7518.6712    7704.4399    7912.0391   -26.516877   -76.807203    403.03258    -2585.478 
11307000    267.41039   -3895.6855   -3437.3533   -3895.6855            0    6072.6139    17.107151    20.149964    20.870684    7194.3014    5166.2539     7337.976    5713.6118   -391.49833    1554.8207    270.72443   -2800.2055 
11308000    254.83511   -3876.9752   -3440.1965   -3876.9752            0    7247.5919    17.118428    20.163247    20.884442    7208.5388    6943.4833    6619.5362    8179.7562    754.11246    1833.4006   -2010.6941   -2678.2634 
11309000    260.45053   -3881.4037   -3435.0004   -3881.4037            0    6529.5545    17.066276    20.101819    20.820817    7142.8559    7265.9213    6557.6538    5765.0883   -583.99873    13.954547    35.439884   -2754.8087 
11310000    252.90703   -3900.7361   -3467.2621   -3900.7361            0    5748.2378    17.161544    20.214032    20.937043    7263.1439    5075.6418     6391.829    5777.2427     1353.383   -1474.0589    985.75754   -2858.3771 
11311000    255.90997   -3899.2405   -3460.6196   -3899.2405            0     5047.532    17.194022    20.252287    20.976667    7304.4583    6827.8614    2411.1283    5903.6061   -94.837008   -503.25039    311.50075   -2922.9159 
11312000    255.09862   -3853.5256   -3416.2953   -3853.5256            0    6299.7914    17.149895    20.200311    20.922832    7248.3641    7484.2476    4993.0054    6422.1211   -396.26639     1585.562   -1272.2449   -2750.3446 
11313000     270.3285   -3854.0792   -3390.7454   -3854.0792            0      7985.77    17.119113    20.164054    20.885278    7209.4045    7498.6016     7812.791    8645.9174   -516.82825   -180.34815    975.18533   -2551.1074 
11314000    254.47129   -3872.9869   -3436.8318   -3872.9869            0    5367.6367    17.171283    20.225503    20.948925    7275.5159    3777.2778    6557.1941    5768.4382    658.75954   -2074.1948   -589.15248   -2867.2937 
11315000    253.75389   -3920.7043   -3485.7788   -3920.7043            0    7854.3251    17.066703    20.102321    20.821337    7143.3916    7845.0694     8222.668    7495.2379    716.59021   -70.530673   -184.79163   -2667.5228 
11316000    274.95246   -3878.7521    -3407.493   -3878.7521            0    9172.2532    17.041227    20.072314    20.790257    7111.4502    10074.949     8554.221    8887.5891   -894.42479   -679.04969    367.73976   -2456.2092 
11317000    251.50128   -3906.0449   -3474.9803   -3906.0449            0    6384.1093    17.143535     20.19282    20.915073    7240.3033    6845.1129    5101.4048    7205.8101    674.08971    1574.2302    342.98537   -2800.8669 
11318000    253.50389   -3887.9253   -3453.4283   -3887.9253            0    4719.2032    17.132596    20.179936    20.901728    7226.4523    5636.0821    3807.2729    4714.2546     979.3557    153.19179    -223.2482   -2956.0696 
11319000    247.64213    -3918.221   -3493.7709    -3918.221            0    4599.2792    17.146304    20.196081     20.91845    7243.8111    4608.8725    4801.9986    4386.9663    574.36777    438.69639    868.19603   -3007.8867 
11320000    246.71001   -3858.2758   -3435.4233   -3858.2758            0    8455.1235    17.100412    20.142026    20.862462    7185.8028    7711.8887    8950.2114    8703.2704    563.49796   -1257.4385   -661.62618    -2549.347 
11321000    246.81598   -3886.9054   -3463.8712   -3886.9054            0    5191.8769    17.175424    20.230381    20.953977    7280.7817    4851.4133    4403.9929    6320.2247   -1524.4211   -1125.1717    -367.3061   -2912.5836 
11322000    276.37714   -3869.1228   -3395.4219   -3869.1228            0     5794.712    17.155053    20.206387    20.929125    7254.9063    5061.6148    6791.6606    5530.8605    522.87346   -750.44143    401.69991   -2782.3102 
11323000    250.74501   -3887.4055   -3457.6371   -3887.4055            0    7989.1115    17.090118    20.129901    20.849904    7172.8336    8660.9431     7216.181    8090.2104    1065.8369    145.89711    998.11458   -2621.9088 
11324000    271.18971   -3931.7501   -3466.9402   -3931.7501            0    6862.8301    17.099574     20.14104    20.861441    7184.7473    7224.1314    6922.6566    6441.7021   -37.870449    79.246867   -102.31936    -2747.838 
11325000    246.27993   -3871.5171   -3449.4017   -3871.5171            0    6029.1325    17.147228    20.197169    20.919578    7244.9824    5607.4617    6192.7382    6287.1977   -1991.5136   -242.89907   -1310.7025   -2812.3597 
11326000    244.10669   -3864.8077   -3446.4171   -3864.8077            0    6819.5692    17.069605     20.10574    20.824878    7147.0365    7149.1735    6436.2632    6873.2709   -134.94809    1007.7506    623.33756   -2735.5985 
11327000    255.64189   -3895.0643   -3456.9029   -3895.0643            0    7744.7255    17.070082    20.106302     20.82546    7147.6356    5786.8201    9833.7575    7613.5989    233.16472   -1206.0359   -3062.4674   -2649.5855 
11328000    269.03371    -3850.547   -3389.4324    -3850.547            0    7000.9232    17.106726    20.149464    20.870166    7193.7658    7360.9288    8302.4179    5339.4228   -833.64662    1380.7418   -97.402405   -2654.9397 
11329000    256.41593   -3880.8306   -3441.3425   -3880.8306            0     7953.693    17.055927    20.089629    20.808191    7129.8698    7582.4877      7196.43    9082.1615     1149.282    695.24591    256.29589   -2614.3028 
11330000    271.73076   -3855.1662    -3389.429   -3855.1662            0    7042.9378    17.043057     20.07447     20.79249    7113.7415    6747.6563    8251.6817    6129.4754   -382.27204    1725.0549     623.1616    -2658.748 
11331000    260.30923   -3880.2355   -3434.0744   -3880.2355            0    5575.8084    17.090638    20.130514    20.850538    7173.4887    7112.8172    4965.3328    4649.2751   -51.304035    362.37336    302.94465   -2850.7447 
11332000    247.75096   -3869.8523   -3445.2156   -3869.8523            0     7087.682    17.069572    20.105701    20.824838    7146.9948    6620.3424    5251.1988    9391.5048   -971.90664    1005.8022   -481.38493   -2706.4553 
11333000    237.11386   -3829.2215   -3422.8164   -3829.2215            0    6379.9958    17.094972    20.135619    20.855826    7178.9475    5142.4585    7355.3697    6642.1592   -783.29183   -1911.1523   -1566.4492   -2754.8463 
11334000    268.72768   -3851.4341   -3390.8441   -3851.4341            0    7281.3801    17.066711    20.102331    20.821348    7143.4023    9074.6213    7779.6853    4989.8337   -207.52446     1079.726   -850.17735   -2632.2758 
11335000    260.43174   -3865.0065   -3418.6354   -3865.0065            0    7000.5257    17.065347    20.100725    20.819684    7141.6895    7208.7644    6867.0154    6925.7974    518.12603   -11.201994    1140.9154   -2689.5011 
11336000     255.4034   -3850.7403   -3412.9876   -3850.7403            0    5405.0101    17.143485    20.192761    20.915012    7240.2396    6504.0751    6447.7182     3263.237    775.71382   -921.43105     595.6953   -2842.2646 
11337000    240.00517   -3871.4913   -3460.1306   -3871.4913            0    6625.1521    17.130245    20.177166    20.898859    7223.4772      7774.15    6817.4297    5283.8766    1183.6952     -87.2423   -37.732791   -2762.1907 
11338000    269.81007   -3877.5624   -3415.1172   -3877.5624            0    5876.0594    17.134139    20.181753     20.90361    7228.4049    4805.9383     6731.888     6090.352    1410.3389    268.36496    13.955098   -2795.6696 
11339000    252.14056   -3910.0003     -3477.84   -3910.0003            0    7878.4442    17.068984    20.105009    20.824121    7146.2566    8965.9103    7799.4857    6869.9365    -578.6183   -1249.8211    837.70238    -2656.742 
11340000    263.45134   -3916.7232   -3465.1766   -3916.7232            0    5335.6752    17.141187    20.190054    20.912208    7237.3286    3810.5383    5401.0492     6795.438    -334.1246    516.35493   -189.69292   -2902.0014 
11341000    251.60166   -3926.3119   -3495.0752   -3926.3119            0    6874.2364     17.11384    20.157843    20.878845    7202.7441    7083.0321    5785.9983    7753.6787   -649.05656     193.6095    -1407.502   -2772.9736 
11342000    264.98196   -3855.6682   -3401.4982   -3855.6682            0    7419.5769    17.055432    20.089046    20.807587    7129.2484    7292.3279    5662.7341    9303.6687    94.496316     579.2739     -1303.92   -2630.0642 
11343000    251.66252   -3881.0091   -3449.6682   -3881.0091            0    7258.7475    17.118329     20.16313    20.884321    7208.4136    8250.2902    7598.5228    5927.4296   -1492.4035    -5.942634   -406.20902   -2686.5755 
11344000    254.90848   -3877.6829   -3440.7785   -3877.6829            0    8082.3986     17.08973    20.129444     20.84943    7172.3452    7256.3451    8545.3712    8445.4795    1152.3039    711.39635   -582.66716   -2595.3491 
11345000    258.06549   -3914.5664   -3472.2509   -3914.5664            0     7809.664    17.058367    20.092503    20.811168    7132.9302    5203.7426    7405.0851    10820.164    726.65199    1251.5867     170.1874   -2659.8392 
11346000    260.44786   -3882.5735   -3436.1747   -3882.5735            0    5919.2099    17.079857    20.117815    20.837385    7159.9214    6514.8089    6825.4673    4417.3536   -296.95608    1351.6317   -309.60653   -2818.0902 
11347000    254.30964   -3866.8403   -3430.9623   -3866.8403            0    7710.7369    17.105724    20.148284    20.868944    7192.5022    6439.3845    8779.9965    7912.8295   -1739.4069   -494.97107   -543.29743   -2622.1425 
11348000    248.82302   -3901.6795   -3475.2054   -3901.6795            0    7111.5523    17.134619    20.182318    20.904195    7229.0121    6444.7532    7742.5804    7147.3234    882.66471    110.90017     450.1129   -2725.4506 
11349000    263.98288   -3911.8637   -3459.4061   -3911.8637            0    7354.4818    17.080414    20.118472    20.838065    7160.6225    6846.5201    8299.2368    6917.6884    1229.3033    639.57227   -641.74145   -2691.3751 
11350000    257.18658   -3926.2306   -3485.4216   -3926.2306            0    7039.7764    17.065113    20.100448    20.819397    7141.3951    6040.6688    6266.9046    8811.7558   -929.92737   -500.19316    654.15777   -2752.2294 
11351000    250.44763   -3895.9846    -3466.726   -3895.9846            0    8358.6018    17.046203    20.078175    20.796327    7117.6812    8527.9215    8038.4647    8509.4193    1969.4671   -794.65084   -1029.1237    -2599.069 
11352000    266.82784   -3869.2653   -3411.9315   -3869.2653            0    5898.1376    17.084432    20.123204    20.842967    7165.6766    5332.2289    7213.5955    5148.5883   -224.38253    43.101527   -607.06775   -2795.5522 
11353000    270.06612   -3898.1919   -3435.3078   -3898.1919            0     7307.656    17.047031    20.079151    20.797338    7118.7187    7896.8075    7662.5019    6363.6586    903.66119   -836.13369    407.06583   -2676.6328 
11354000    245.43724   -3885.4543   -3464.7832   -3885.4543            0    5175.4713    17.184977    20.241633    20.965632    7292.9368    4126.1476    6392.3056    5007.9608   -920.34608   -374.08528    897.25841   -2914.3201 
11355000    263.76445    -3895.516   -3443.4327    -3895.516            0    7182.8393    17.118164    20.162936     20.88412     7208.205    5629.1272    8387.0195    7532.3713     812.8693    734.70277   -264.47394   -2688.3419 
11356000    251.43253    -3938.473   -3507.5262    -3938.473            0    5089.0902    17.148632    20.198823     20.92129     7246.762    3214.7254    5220.1063     6832.439    1608.4718    1178.2806   -1586.4185   -2969.6776 
11357000     258.0454   -3917.4382   -3475.1572   -3917.4382            0    6089.4143    17.052089    20.085108    20.803508    7125.0567    6111.0482     6754.386    5402.8087    1424.3467    50.424913   -701.30817   -2842.3961 
11358000    257.98693   -3903.9684   -3461.7876   -3903.9684            0    5662.4972    17.159156    20.211219     20.93413    7260.1121    5477.4092     6759.375    4750.7072     -602.139    728.28372    924.69973   -2862.2351 
11359000    251.87365   -3893.5519   -3461.8491   -3893.5519            0    9437.4209    17.047512    20.079717    20.797924     7119.321    10074.603    9612.5976     8625.062   -4.0781037    374.90327   -2238.1818   -2481.9806 
11360000    252.90011   -3876.3939   -3442.9318   -3876.3939            0    7977.7939    17.025647    20.053964     20.77125    7091.9636     8344.396    8406.8021    7182.1834    287.68097   -619.76621    2265.3831   -2617.7964 
11361000    262.45307   -3869.6629   -3419.8273   -3869.6629            0    9382.0637    16.981976    20.002525    20.717972    7037.5304    9722.7133     9629.201    8794.2767    1329.3343   -279.71917   -485.49397   -2456.8977 
11362000    257.51946   -3905.9088   -3464.5293   -3905.9088            0    6961.7804    17.103391    20.145535    20.866097     7189.559    7289.5768    6058.3709    7537.3935   -2001.2649   -515.94918   -568.64043   -2734.5703 
11363000    252.28448   -3905.2338   -3472.8268   -3905.2338            0    6185.6413    17.169031    20.222851    20.946178    7272.6542    5738.9919    6376.4896    6441.4425   -425.52066   -1271.9201    107.57552   -2816.7517 
11364000     267.4317    -3868.501   -3410.1322    -3868.501            0    7963.4938    17.155247    20.206615    20.929361    7255.1516    8706.8044    8421.9431    6761.7337   -508.18994      745.282   -2040.0472   -2567.5233 
11365000    264.45236   -3885.9542   -3432.6919   -3885.9542            0    6687.8317    17.153597    20.204672    20.927348    7253.0589    7707.0943    6863.1806    5493.2201   -1128.0001   -890.63318   -215.77662   -2725.2636 
11366000    260.96582   -3917.4291   -3470.1426   -3917.4291            0     6249.694    17.075309    20.112458    20.831837    7154.2035    5491.2929    6084.3087    7173.4804   -872.88838    1.8636963   -951.84932     -2818.07 
11367000    244.85792   -3909.9855   -3490.3074   -3909.9855            0     6636.411    17.090722    20.130613    20.850641    7173.5946    7633.0454     5267.484    7008.7035   -1489.1119   -1567.7698   -477.70213   -2796.0093 
11368000    243.16033   -3880.6555    -3463.887   -3880.6555            0    7064.4626    17.077673    20.115242    20.834721     7157.175    6443.3889    6110.4924    8639.5065   -125.29848   -839.32774    903.31869    -2726.498 
11369000    258.01509   -3889.5526   -3447.3236   -3889.5526            0    4925.8429    17.144271    20.193686     20.91597    7241.2347    3282.9737    6504.5939    4989.9611    -282.5925     17.22392   -893.59472   -2927.1251 
11370000     251.8112    -3905.724   -3474.1283    -3905.724            0    7168.1095    17.056006    20.089723    20.808288    7129.9689    8074.4617    7305.4045    6124.4623   -1905.9253    -1011.664    -624.6642   -2728.7647 
11371000    263.82791   -3907.9363   -3455.7443   -3907.9363            0    8566.3252    17.014826    20.041217    20.758048    7078.4492    8360.5072    7897.7902    9440.6784    679.51351    -544.4157    266.25009    -2571.426 
11372000    275.65648   -3877.4934   -3405.0276   -3877.4934            0     7931.839    17.039143     20.06986    20.787715    7108.8416    8764.5128    5612.5981    9418.4061   -594.37938    657.61943    1468.9452   -2582.6929 
11373000     251.3879    -3928.734   -3497.8638    -3928.734            0    6460.5506    17.168609    20.222354    20.945663    7272.1181    7557.0011    5588.5363    6236.1145    141.24617    1371.0818   -353.07859   -2812.6811 
11374000    261.87099   -3870.2429    -3421.405   -3870.2429            0    6617.5361    17.067963    20.103806    20.822875     7144.974    7886.0846    5206.1754    6760.3482   -713.29779    983.59564    2035.5182   -2731.8437 
11375000    265.01821   -3872.3592    -3418.127   -3872.3592            0     5113.068    17.173918    20.228607     20.95214    7278.8668    5062.2429    4557.2226    5719.7385   -1138.0982   -773.71596     2591.484   -2875.3503 
11376000    256.52474   -3877.8065   -3438.1318   -3877.8065            0    9491.3392    17.025458     20.05374    20.771019    7091.7265    9553.8132    9297.0962    9623.1082    -2335.453    122.07523    736.77363   -2456.4848 
11377000    271.39359   -3920.0826   -3454.9232   -3920.0826            0    6588.6505    17.061209    20.095851    20.814636    7136.4961    7265.9119    6367.3308    6132.7089    467.78878   -1718.4827    583.70092   -2769.1865 
11378000    250.88402   -3877.3386   -3447.3319   -3877.3386            0    5508.4524    17.032999    20.062623    20.780219    7101.1546    5290.7679    4389.2146    6845.3748    518.95738    267.70219   -1020.2921   -2876.8598 
11379000    266.01102   -3877.0869   -3421.1531   -3877.0869            0     6174.178    17.019136    20.046294    20.763306    7083.8293    4507.0484    6490.8844    7524.6013   -601.87284    408.15042    599.14344   -2783.2964 
11380000    252.45918   -3915.3952   -3482.6888   -3915.3952            0    7821.6233    17.070995    20.107377    20.826574    7148.7823    5047.8752    9369.6428    9047.3517    2195.6441   -491.17855   -931.22501   -2667.2247 
11381000    246.67669   -3884.3669   -3461.5715   -3884.3669            0    7941.0167    17.064811    20.100093    20.819029     7141.016    8177.6117    7876.5862    7768.8523    904.94061   -552.31322    1392.3098   -2634.5591 
11382000    266.44717   -3871.6138   -3414.9325   -3871.6138            0    5565.7269    17.067959    20.103801     20.82287    7144.9694    6026.7342    4055.2591    6615.1875   -1791.0489   -728.66226    -548.2922   -2834.9723 
11383000    257.19255   -3889.5741   -3448.7548   -3889.5741            0    6951.8889    17.081754     20.12005      20.8397     7162.308    6248.6102    6806.3672    7800.6892    1136.0839    748.06157    643.04277   -2722.5959 
11384000    245.88409    -3909.464    -3488.027    -3909.464            0    8567.8859    17.074258    20.111221    20.830555    7152.8833    7033.5524    10725.664    7944.4407   -15.195637   -16.576003    -1463.906   -2594.2469 
11385000    251.80301   -3921.1815   -3489.5998   -3921.1815            0    7252.2815    17.002125    20.026257    20.742553    7062.6096    5969.0666    10068.294    5719.4844    469.36333   -205.85218    410.82392   -2742.6082 
11386000    246.03435   -3863.1914    -3441.497   -3863.1914            0    5445.0316    17.064613     20.09986    20.818788    7140.7676    5823.7477    5733.6104    4777.7368   -95.349973   -1032.0598    143.39497   -2874.4472 
11387000    254.01413   -3877.6916     -3442.32   -3877.6916            0    7477.1584    16.976995    19.996658    20.711895    7031.3396     7746.817    6855.3629    7829.2954    -734.3496    343.66029    15.470565   -2675.5758 
11388000    256.64003    -3867.291   -3427.4188    -3867.291            0    5857.7363    17.013977    20.040217    20.757012    7077.3896      6414.43    5512.3743    5646.4046    1004.1715   -351.06721    923.12915   -2822.8039 
11389000    232.59489   -3873.5446   -3474.8849   -3873.5446            0    6080.7598    17.050807    20.083598    20.801945    7123.4504    5487.6347     5908.123    6846.5217    320.66714   -291.70772    1303.5914   -2843.1656 
11390000    261.17863   -3889.3383   -3441.6871   -3889.3383            0    6600.6022    17.098863    20.140201    20.860572    7183.8499    7560.8222    6988.5655    5252.4189    214.47939    811.44947    292.90667    -2750.148 
11391000    253.31011   -3897.3366   -3463.1717   -3897.3366            0    5678.8917    17.077159    20.114637    20.834094    7156.5289    7597.6595     4924.963    4514.0528   -712.28005    569.82381   -578.08298   -2870.4622 
11392000    257.18699   -3925.2578   -3484.4481   -3925.2578            0    6156.5657    17.074057    20.110984     20.83031    7152.6303    5583.8313    6020.1469    6865.7189    96.238848   -1213.1996    1387.2448   -2842.2335 
11393000    248.07941   -3906.2406    -3481.041   -3906.2406            0    6315.0011    17.137291    20.185466    20.907455    7232.3949    7281.2743    5349.9159    6313.8131    328.72466    -854.3126   -311.57155   -2814.9532 
11394000    252.85936   -3881.5495   -3448.1572   -3881.5495            0    8232.0176    17.043291    20.074746    20.792775    7114.0347    10042.535    5947.8138    8705.7039    452.16819   -570.32142   -93.068809   -2594.0779 
11395000    264.02219   -3885.4429   -3432.9179   -3885.4429            0     6070.187    17.157361    20.209105     20.93194    7257.8341    4577.0842    8297.9607     5335.516    285.70801    82.830299   -707.57989   -2790.4004 
11396000    258.88983   -3898.3243    -3454.596   -3898.3243            0     4635.597    17.210706    20.271938    20.997021     7325.742    5027.3297    6141.2631    2738.1983    1163.1917    418.96085    353.06951   -2959.3361 
11397000    239.80026   -3877.6632   -3466.6538   -3877.6632            0    5428.0288    17.147866    20.197921    20.920357    7245.7917    4425.5367    6037.8135    5820.7363   -11.954487    1969.5317   -605.05501   -2893.0608 
11398000    241.50577   -3888.4449   -3474.5123   -3888.4449            0    6414.9276    17.172004    20.226352    20.949804    7276.4326    5034.1535    8336.5877    5874.0416    104.99563    1501.2274   -1860.5567   -2793.7646 
11399000    264.53731   -3864.9227   -3411.5148   -3864.9227            0    6279.4422    17.176575    20.231736    20.955381    7282.2449     6192.798    5668.2963    6977.2322   -614.19256    787.32927     549.8657   -2744.6125 
11400000    250.60734   -3875.4192   -3445.8868   -3875.4192            0    7627.7901    17.124038    20.169855    20.891287    7215.6285    6940.9146    8787.9341    7154.5215    1082.6758    463.66945    1438.8055    -2643.195 
11401000      264.834   -3883.5893   -3429.6729   -3883.5893            0    6399.5756    17.159367    20.211468    20.934388    7260.3809    5376.7714    6654.5244     7167.431    997.89508    854.54944    334.19381   -2752.0525 
11402000    253.62749   -3917.1932   -3482.4843   -3917.1932            0    5161.8714     17.17031    20.224357    20.947738    7274.2794    4809.0763    5050.3894    5626.1484    238.07535   -888.71089    586.82286   -2934.8722 
11403000    254.44898   -3855.7203   -3419.6035   -3855.7203            0     6310.762    17.195562    20.254101    20.978546    7306.4219    7071.8649    6568.8671    5291.5539    2143.4368     476.2912    1115.6741   -2747.1497 
11404000    251.16001   -3873.4845   -3443.0049   -3873.4845            0    7315.5299    17.062361    20.097208    20.816041    7137.9414    8139.4498    8581.9219    5225.2179    269.02893     969.6649    275.24089   -2681.4615 
11405000    249.90222   -3886.7101   -3458.3862   -3886.7101            0    6537.9362    17.101857    20.143729    20.864226     7187.625    7228.1064    7353.0573    5032.6449    -1984.259    495.28784   -474.66883   -2773.0527 
11406000    247.82705   -3913.3846   -3488.6175   -3913.3846            0    6817.2046    17.037338    20.067733    20.785512    7106.5822    8740.1283    6961.6872    4749.7983    577.18905   -289.97837   -558.81731   -2782.0673 
11407000    254.95586   -3903.2635   -3466.2779   -3903.2635            0    4751.9149     17.09148    20.131506    20.851566     7174.549    4005.4096     4978.601     5271.734     979.8808    728.60327    1218.8677   -2969.0687 
11408000    256.98099   -3914.8607   -3474.4041   -3914.8607            0    8494.6393    17.036996    20.067331    20.785095    7106.1546    8337.6834      9027.45    8118.7847   -789.87151   -31.571715   -597.16976   -2594.0538 
11409000    259.21118   -3935.5802   -3491.3011   -3935.5802            0    6142.1392     17.11038    20.153768    20.874624     7198.377    3936.0482    6528.4028    7961.9665    -1122.863   -596.71312    779.75156   -2846.4935 
11410000    272.97079   -3899.7461   -3431.8835   -3899.7461            0    8241.4103    17.108465    20.151512    20.872287    7195.9597    8280.7533    8178.9891    8264.4886    1238.1157   -724.64907    1684.2262    -2566.983 
11411000    253.68453   -3920.2954   -3485.4888   -3920.2954            0    6833.3026    17.073929    20.110834    20.830154    7152.4698    6837.9465    7140.8053    6521.1561   -198.92546   -67.391422    26.975471   -2772.6972 
11412000     253.7724   -3901.8704   -3466.9132   -3901.8704            0    5427.9729    17.140011    20.188668    20.910773    7235.8382    6085.6672     4345.769    5852.4824   -2193.1579   -651.03974   -346.12671    -2894.114 
11413000    251.66472    -3892.102   -3460.7573    -3892.102            0    7501.8292    17.126823    20.173135    20.894683    7219.1486    6978.3341     6483.705    9043.4484   -1356.2062    1140.4279    254.51967   -2670.9356 
11414000    252.87034   -3859.9265   -3426.5153   -3859.9265            0    6894.2081     17.10612     20.14875    20.869426    7193.0012    4086.2199    9469.3228    7127.0817    315.20305    1212.8422    831.14573   -2703.2954 
11415000      254.924   -3877.4951   -3440.5641   -3877.4951            0     6585.152    17.148871    20.199105    20.921582    7247.0653    6921.4284    6383.7673    6450.2603    910.95359     967.8529   -1097.9084   -2744.5727 
11416000    254.66032   -3855.6634   -3419.1844   -3855.6634            0     7528.279    17.164092    20.217033    20.940152    7266.3792     8949.705    7144.1167    6491.0153    672.97396    1496.7769    -624.2132   -2621.3924 
11417000    237.90823   -3851.6454   -3443.8788   -3851.6454            0    5622.0531    17.130793    20.177811    20.899527    7224.1706    5757.0333    5801.4218    5307.7043    451.85401   -294.38982    7.7313506   -2851.5555 
11418000    272.51333   -3868.3086   -3401.2301   -3868.3086            0    7911.5571    17.101739     20.14359    20.864082    7187.4761      8713.26    7601.9825    7419.4288   -708.95393   -1525.5935    -421.7911   -2571.9251 
11419000    275.56659   -3882.0738   -3409.7621   -3882.0738            0    6685.4455    17.153901     20.20503     20.92772    7253.4448    8391.8243    5685.7719    5978.7401   -1091.1871    259.89514    1821.2301   -2702.5486 
11420000    260.74704   -3872.2067   -3425.2952   -3872.2067            0    6831.8935    17.197133    20.255951    20.980462    7308.4244    8664.8776    4281.7301    7549.0726    1339.3714   -1169.8754   -127.87245   -2697.1119 
11421000    260.40783   -3906.0861    -3459.756   -3906.0861            0    4301.8991    17.198881     20.25801    20.982595     7310.653    5171.1985    4412.1484    3322.3504   -762.30727    512.23763    726.16207   -3001.0945 
11422000    260.89811   -3868.5419   -3421.3714   -3868.5419            0    7265.5102    17.108233    20.151238    20.872004    7195.6667    6653.8557    7505.3212    7637.3537     745.0958   -77.245547   -2007.5599   -2658.9185 
11423000    253.24134   -3882.1982   -3448.1512   -3882.1982            0    7974.0673     17.11076    20.154215    20.875087    7198.8563    8591.4126    8484.5562    6846.2332    784.99664    -856.2757     149.3639   -2610.9704 
11424000    247.62538   -3883.9373   -3459.5158   -3883.9373            0    6645.9607    17.109882    20.153182    20.874017    7197.7485    6156.0352    7663.0113    6118.8354   -2041.2183    1037.5328   -578.29395   -2761.8775 
11425000    272.88065   -3902.0339   -3434.3258   -3902.0339            0    6609.9386    17.113033    20.156893    20.877861    7201.7256    6491.3934    6541.1822    6797.2401   -137.05663   -1270.2884    1411.8139   -2740.0854 
11426000    263.94715   -3923.1087   -3470.7124   -3923.1087            0    6796.2306    17.096799    20.137771    20.858055    7181.2494    4723.6504    8640.2142    7024.8271   -1046.9644   -373.55018    88.127851   -2758.9353 
11427000    260.70135   -3866.2427   -3419.4096   -3866.2427            0    7146.7698    17.120486    20.165671    20.886953    7211.1385    5904.8687    7633.1015    7902.3393   -293.09758    991.23135    940.58809   -2667.8048 
11428000    262.10048   -3864.1002   -3414.8689   -3864.1002            0    6908.6952    17.123365    20.169062    20.890465    7214.7771    8414.4112     6367.154    5944.5205   -270.92318   -1045.0886   -11.031607   -2687.9352 
11429000    247.88624   -3875.5207   -3450.6522   -3875.5207            0    7516.2619    17.113426    20.157356     20.87834    7202.2221    7833.4787    8144.4644    6570.8425   -681.79553   -817.80113    -72.15989   -2661.1664 
11430000    243.98367   -3880.8251   -3462.6455   -3880.8251            0    7922.1041    17.098262    20.139495     20.85984    7183.0936    5226.1751    10528.212    8011.9247    651.78708    175.06569   -490.68981   -2632.7413 
11431000    259.72999   -3876.1627   -3430.9944   -3876.1627            0    7530.9522    17.109909    20.153213    20.874049    7197.7822    8112.0663    7539.9992    6940.7911     605.2795    620.27056   -734.43411   -2640.4532 
11432000    271.46871   -3898.3692   -3433.0811   -3898.3692            0    7030.5634     17.13092    20.177961    20.899682    7224.3312    7796.1983    5905.9383    7389.5535    1369.9283   -978.61223   -891.06944   -2692.3448 
11433000    253.60459   -3897.9437   -3463.2741   -3897.9437            0    7844.4649    17.078432    20.116137    20.835647    7158.1302     9128.827    7691.9805    6712.5871   -1195.5075     -83.5682     649.5899   -2644.3591 
11434000    249.21454   -3874.4947   -3447.3496   -3874.4947            0     7319.572     17.05549    20.089115    20.807658    7129.3218    7749.2545    6545.5716    7663.8899    1867.0128   -545.26329    1512.5674   -2686.3055 
11435000    267.62507   -3865.0052    -3406.305   -3865.0052            0    7858.8507    17.114802    20.158977    20.880019    7203.9594    9526.1608    7658.5027    6391.8886    543.08174    1347.8043   -1969.8538   -2580.6356 
11436000    249.88662    -3823.794   -3395.4969    -3823.794            0    6524.0074    17.117147    20.161739     20.88288    7206.9209    6586.3835    6191.5577     6794.081    2070.2152   -763.07179    951.60526   -2709.7875 
11437000    250.11223   -3860.7839   -3432.1001   -3860.7839            0    7457.6394    17.027566    20.056224    20.773591    7094.3617    6729.4504    8590.0505    7053.4172    31.577853    -1098.501    688.37824   -2660.5029 
11438000    255.66963   -3854.9679   -3416.7589   -3854.9679            0    6278.2803    17.164495    20.217508    20.940644    7266.8922    6477.2485    7038.6617    5318.9307    -1178.037    357.11507    309.67868   -2751.3857 
11439000    256.08015   -3905.3807   -3466.4681   -3905.3807            0    6446.5359    17.076092    20.113381    20.832793    7155.1882    6947.9333    6407.2632    5984.4111   -617.61601    1290.5931    1079.1358   -2793.7651 
11440000    267.93984   -3861.5792   -3402.3395   -3861.5792            0    6449.3588    17.147749    20.197784    20.920214    7245.6434    7633.6687    6697.3822    5017.0256    1382.9271    564.47076    518.63561   -2720.8339 
11441000    257.00789   -3866.5563   -3426.0536   -3866.5563            0    6815.5612    17.121662    20.167056    20.888387    7212.6245    7657.1062     4807.557    7982.0204    85.539811   -170.95466   -1338.8581   -2709.1333 
11442000    256.29527    -3890.877   -3451.5957    -3890.877            0    5750.5443    17.174123    20.228849     20.95239    7279.1275    3995.2775      5915.52    7340.8353    1249.6586    1044.7221    -969.8505   -2841.1259 
11443000    252.06653   -3880.5961   -3448.5627   -3880.5961            0    7901.5387      17.0545    20.087948     20.80645    7128.0796    9928.6171    5696.4669     8079.532    1319.2907   -1347.1747    364.25598   -2627.1524 
11444000    263.11508   -3889.9713   -3439.0011   -3889.9713            0     8782.282    17.087002    20.126232    20.846103    7168.9114    7651.5744    10420.442    8274.8296   -793.59871    -1237.296   -1113.3712   -2520.8028 
11445000    257.90062   -3898.4326   -3456.3998   -3898.4326            0    6965.3543    17.116991    20.161555     20.88269     7206.724    6580.6065    5992.2049    8323.2514   -255.29439    485.69732    1323.8306   -2724.3224 
11446000    249.50829   -3854.2314   -3426.5827   -3854.2314            0    6986.5191    17.084108    20.122822    20.842571    7165.2688    8924.2214    5732.3073    6303.0286    929.27975    166.07369    796.49277   -2696.5048 
11447000    246.02662   -3869.1881   -3447.5069   -3869.1881            0    6741.7426    17.051264    20.084137    20.802502     7124.023    7224.7683     7405.823    5594.6366    -197.1507    -313.4441   -1169.6766   -2747.0629 
11448000    253.18534   -3891.7373   -3457.7863   -3891.7373            0    6220.2551    17.106795    20.149545     20.87025    7193.8528    7294.2141    5777.5607    5588.9907    359.98047    880.18571    77.815152   -2805.1885 
11449000    275.07576    -3920.732   -3449.2615    -3920.732            0    7089.0637     17.09844    20.139703    20.860056    7183.3169    8473.6539    5609.3622     7184.175   -327.49582   -1089.2498   -2508.0558   -2706.6019 
11450000    261.13946   -3906.3116   -3458.7275   -3906.3116            0    6857.3756    17.048035    20.080333    20.798563    7119.9765    7302.3797    8203.6606    5066.0865    176.70196    269.50502   -291.50392   -2746.6744 
11451000    246.19363   -3871.2638   -3449.2963   -3871.2638            0    6620.3027    17.101978    20.143872    20.864374     7187.778     7947.181     5531.229     6382.498    263.98392   -81.566021    1464.6555    -2755.314 
11452000    254.26218    -3869.904   -3434.1073    -3869.904            0    6540.7623    17.119271     20.16424    20.885471    7209.6037    7908.3229    4982.8397    6731.1243   -1481.1962   -319.17576   -336.59283    -2746.381 
11453000     251.3113   -3912.8457   -3482.1067   -3912.8457            0    6672.5666     17.13433    20.181977    20.903843    7228.6462    7680.3291    6405.4536    5931.9173   -811.48679    1248.4123    168.88599   -2778.6688 
11454000    250.93623   -3911.9745   -3481.8784   -3911.9745            0    6909.4533    17.075918    20.113176    20.832581    7154.9699    6592.9474    7269.9807    6865.4317    382.56167    261.67872   -1323.5737   -2760.8915 
11455000    250.82246   -3897.3118   -3467.4107   -3897.3118            0    5879.9843    17.067719    20.103519    20.822577    7144.6679     6606.276    4262.7099    6770.9669    1125.2869   -1249.1913    469.23442   -2854.7301 
11456000    250.43048   -3910.3624   -3481.1332   -3910.3624            0    5069.0429     17.12826    20.174828    20.896437    7220.9662    3742.2336    5831.4178    5633.4774   -1395.6685   -392.06106   -2.1815491   -2947.3103 
11457000      253.437   -3906.1239   -3471.7416   -3906.1239            0    5534.0783    17.131797    20.178994    20.900752    7225.4404    6944.3557     5054.842    4603.0372    964.94331   -15.117208   -316.18935   -2888.5845 
11458000    271.19007   -3892.6126   -3427.8021   -3892.6126            0     5865.163    17.064091    20.099245    20.818151    7140.1128    6077.7174    5517.2207    6000.5508    7.6391541   -890.06682   -117.73316   -2817.0555 
11459000    260.48244   -3884.5375   -3438.0795   -3884.5375            0    8105.0902    16.971797    19.990535    20.705553    7024.8827    8761.8655    7976.5442     7576.861      1776.48    1490.1709   -417.26351   -2607.7073 
11460000    264.78203   -3856.0947   -3402.2674   -3856.0947            0    7241.2364    17.031552    20.060918    20.778453    7099.3442    6169.2252    5415.1427    10139.341   -227.07711    313.14857    1776.7123    -2652.534 
11461000    252.11666    -3870.668   -3438.5487    -3870.668            0    8111.3813    17.000974    20.024902    20.741149    7061.1759    8468.9441    8297.7295    7567.4702    85.598044   -1370.2017   -1475.4012   -2603.2386 
11462000    261.31895   -3882.3774   -3434.4857   -3882.3774            0    6438.1997    17.152699    20.203614    20.926253    7251.9198    7721.1727     6238.522    5354.9043    980.86518   -520.31277    138.73091     -2753.57 
11463000    267.98662   -3873.5148   -3414.1949   -3873.5148            0    8363.8862    17.050398    20.083117    20.801446    7122.9383    9340.1732    9228.6192    6522.8662    506.10784   -106.73304    -1131.131   -2545.3482 
11464000    249.54436   -3868.5075    -3440.797   -3868.5075            0    6572.7468    17.050312    20.083016    20.801341    7122.8306    8228.0913    5640.0916    5850.0574   -125.27061    376.28161   -791.97772   -2758.0254 
11465000    242.38781    -3920.132   -3504.6875    -3920.132            0    5648.3402    17.118699    20.163566    20.884773     7208.881    7085.1569    5113.6614    4746.2021   -612.08398   -1523.6643   -165.08391   -2910.8542 
11466000    241.80319   -3886.0267   -3471.5843   -3886.0267            0    6042.7339    17.084704    20.123525    20.843299    7166.0192    7922.3256    5619.8496    4586.0265    1512.0759    702.53899    1451.8287    -2840.064 
11467000     249.1715   -3892.9351   -3465.8637   -3892.9351            0    7283.9526    17.015961    20.042554    20.759432    7079.8653    6572.8924    7047.2933    8231.6721   -447.14443   -14.160553    871.40991   -2713.7768 
11468000     250.4631   -3852.4514   -3423.1662   -3852.4514            0    7729.5938     17.00795    20.033119     20.74966    7069.8715     9453.729    7853.5423    5881.5102    1661.8704   -996.17795    1830.0939   -2626.1924 
11469000    257.46268   -3842.1693   -3400.8871   -3842.1693            0    6622.2178    17.156673    20.208295    20.931101    7256.9617    7182.6619    5434.0625    7249.9289   -1002.7496    1201.7047   -1294.5412   -2700.0224 
11470000    248.78366   -3896.4174   -3470.0108   -3896.4174            0    6323.6495    17.104939    20.147359    20.867986    7191.5121    5809.7407    5612.8567    7548.3511   -932.33282    896.03214   -469.63178   -2806.7812 
11471000    261.59512   -3883.9116   -3435.5466   -3883.9116            0    6933.3289    17.029094    20.058024    20.775455    7096.2716    5834.8401    8100.6445    6864.5021   -1246.4868    540.77412    1203.4006   -2718.0036 
11472000    242.81229   -3882.2124   -3466.0404   -3882.2124            0    6941.3183    17.113993    20.158023    20.879031    7202.9373    4448.2102    8155.2473    8220.4973   -443.62993    226.26802    194.63109   -2736.8726 
11473000    255.51053   -3899.0622   -3461.1259   -3899.0622            0    4852.3648    17.098724    20.140038    20.860403    7183.6751     5224.274    3090.9165    6241.9041   -353.54446    -759.1506    1381.7012   -2952.7605 
11474000    257.20237   -3880.1967   -3439.3607   -3880.1967            0    6313.8463    17.093843    20.134289    20.854449    7177.5255    5984.9795    6626.9937    6329.5657   -749.00019   -537.32579   -1194.5795   -2778.4472 
11475000    260.08808   -3884.1376   -3438.3555   -3884.1376            0    8552.5282    17.085008    20.123883     20.84367    7166.4019    8193.6754    6884.8434    10579.066    1226.1522    1554.7866   -1011.5306   -2544.4913 
11476000    249.94859   -3847.2554    -3418.852   -3847.2554            0    6475.7785    17.092243    20.132405    20.852497      7175.51    8155.2954    6952.7437    4319.2964    211.61545   -43.786116    750.17115   -2741.1783 
11477000    274.36447   -3848.8022   -3378.5508   -3848.8022            0    7155.3003    17.074451    20.111448    20.830791    7153.1257    7266.1002    7902.8875    6296.9131   -720.11883    105.57233   -360.35637   -2632.1028 
11478000    258.78877   -3837.5651     -3394.01   -3837.5651            0    7469.6158    17.063988    20.099124    20.818025    7139.9832    8237.3322    8144.2919    6027.2231   -266.12601    617.59396     594.2417   -2616.2039 
11479000    256.84847   -3849.4758   -3409.2463   -3849.4758            0    5510.0166    17.115842    20.160201    20.881287     7205.272    4033.9773    7042.3831    5453.6893    1562.4892   -735.90214    614.37683   -2830.2455 
11480000    255.00481   -3829.2573   -3392.1878   -3829.2573            0    7026.1295    17.086594    20.125751    20.845605     7168.398    5765.1397     8256.169    7057.0797   -747.30032     639.9216   -193.55563     -2657.65 
11481000    258.11738   -3859.0796   -3416.6753   -3859.0796            0    4029.5086    17.259508     20.32942    21.056559    7388.2366    5202.9244     4073.109    2812.4923   -1763.7495     1076.594   -53.847585   -2982.4963 
11482000    258.68168   -3887.3766    -3444.005   -3887.3766            0    7277.5042    17.174942    20.229813    20.953389    7280.1687    7944.3319    7867.6253    6020.5555   -895.57075    778.04796   -677.49668   -2671.3248 
11483000    252.78466   -3850.9939   -3417.7296   -3850.9939            0    7125.3768    17.065882    20.101354    20.820336    7142.3605    8534.5994    6900.6501    5940.8808    76.547103    1366.2749    665.93868   -2675.5218 
11484000    259.41332   -3872.1456   -3427.5201   -3872.1456            0    5773.8721    17.144414    20.193855    20.916145    7241.4161    6518.2569    5367.5109    5435.8485   -797.73916    -1323.165   -1619.8092   -2817.7494 
11485000    234.20131   -3881.4802   -3480.0671   -3881.4802            0    7410.2479     17.15152    20.202225    20.924815    7250.4249    5640.3391    7813.8585    8776.5461    348.64151   -1370.9354    277.88197   -2696.5075 
11486000    255.52841   -3889.3085   -3451.3416   -3889.3085            0    8070.5283    17.133808    20.181363    20.903206    7227.9861    7632.3135    7204.7214      9374.55     1575.006    569.07852    51.059751   -2600.6049 
11487000    262.45446   -3881.6409   -3431.8029   -3881.6409            0    8425.9129    17.088846    20.128403    20.848352    7171.2323    10953.766    6913.1791    7410.7938    1371.8165   -106.07269   -238.86279   -2550.5782 
11488000    264.07772   -3868.6648   -3416.0446   -3868.6648            0    7905.6382    17.112608    20.156392    20.877342    7201.1886    8276.7148    7988.5576    7451.6422    1070.4923    -169.1875   -194.31508   -2585.7791 
11489000    258.41169   -3881.5325   -3438.6237   -3881.5325            0    6829.8913     17.05222    20.085262    20.803668    7125.2212    5984.1401    7231.0499    7274.4839    91.209641   -363.60638    1024.9115   -2728.9021 
11490000    264.72385    -3874.376   -3420.6484    -3874.376            0    6744.0434    17.086774    20.125963    20.845824     7168.624    8424.6758    4790.1388    7017.3156    1704.6424   -299.06793    388.36547   -2715.5787 
11491000     247.8272   -3900.5065   -3475.7392   -3900.5065            0    7015.7492    17.062065    20.096859    20.815679    7137.5696    9143.8656    6405.6525    5497.7296   -1249.8125    90.927743    288.58703   -2745.4409 
11492000    253.87823   -3863.1475   -3428.0089   -3863.1475            0    5787.2595    17.099662    20.141143    20.861548    7184.8576    6863.0127    6566.9287     3931.837   -496.64595   -410.45429     427.6597    -2821.598 
11493000    260.07314   -3852.6526   -3406.8961   -3852.6526            0    8032.4908    17.050947    20.083763    20.802115    7123.6258    8374.4019    7021.4892    8701.5812     1885.552   -1746.1828   -1323.6951   -2572.3944 
11494000    257.88095   -3867.8382    -3425.839   -3867.8382            0    7730.0087    17.078152    20.115807    20.835305    7157.7774    6683.4577     8583.368    7923.2003   -1187.8978   -72.889202    910.28543   -2618.9124 
11495000    263.55909   -3862.2012     -3410.47   -3862.2012            0    6102.2493    17.197447    20.256321    20.980845    7308.8246    5740.9294    6363.1667    6202.6519   -961.46039   -1575.1026    1961.3351   -2760.0208 
11496000    262.20571   -3878.8432   -3429.4316   -3878.8432            0    6325.9337    17.107998    20.150962    20.871718    7195.3709    5192.7291     5958.492    7826.5801   -847.81232    730.76261   -176.95994   -2765.6065 
11497000    245.10061   -3854.3781    -3434.284   -3854.3781            0    6451.0497     17.11737    20.162001    20.883151    7207.2018     6265.851    8538.7345    4548.5637   -186.74423   -1040.0852    491.01763   -2756.2165 
11498000    254.64359    -3829.733   -3393.2826    -3829.733            0    8541.8771    17.095472    20.136208    20.856436    7179.5778    9988.9848    7384.9322    8251.7142    855.12356    1083.8937   -126.33749   -2498.8902 
11499000    246.81147   -3847.8969   -3424.8705   -3847.8969            0    8226.9357    17.033919    20.063706    20.781341    7102.3045    7554.8979    8568.3272    8557.5819    683.95664   -664.24836    918.13021   -2572.7259 
11500000    258.66247    -3831.027   -3387.6884    -3831.027            0    5998.5003    17.127098    20.173459     20.89502    7219.4972    6077.3303    4914.5093    7003.6614    667.54016     38.69952    130.02556   -2756.1125 
Loop time of 422.204 on 64 procs for 250000 steps with 864 atoms

Performance: 102.320 ns/day, 0.235 hours/ns, 592.130 timesteps/s
99.1% CPU use with 64 MPI tasks x 1 OpenMP threads

MPI task timing breakdown:
Section |  min time  |  avg time  |  max time  |%varavg| %total
---------------------------------------------------------------
Pair    | 21.74      | 26.381     | 31.164     |  47.3 |  6.25
Bond    | 0.27335    | 0.28384    | 0.30504    |   1.2 |  0.07
Kspace  | 179.93     | 187.27     | 195.05     |  27.8 | 44.35
Neigh   | 4.8982     | 5.5223     | 6.1277     |  16.7 |  1.31
Comm    | 89.059     | 96.706     | 104.6      |  36.2 | 22.91
Output  | 1.0828     | 1.0841     | 1.1027     |   0.2 |  0.26
Modify  | 98.31      | 100.47     | 102.59     |  11.6 | 23.80
Other   |            | 4.489      |            |       |  1.06

Nlocal:        13.5000 ave          20 max           8 min
Histogram: 3 3 9 8 9 17 8 3 3 1
Nghost:        2204.72 ave        2243 max        2169 min
Histogram: 4 3 5 12 9 12 7 8 2 2
Neighs:        4276.84 ave        6143 max        2163 min
Histogram: 1 1 6 11 12 8 8 9 5 3

Total # of neighbors = 273718
Ave neighs/atom = 316.80324
Ave special neighs/atom = 2.0000000
Neighbor list builds = 13576
Dangerous builds = 0

unfix		3
unfix		2
unfix		1

write_data	data.final.${pid}
write_data	data.final.0
System init for write_data ...
PPPM initialization ...
  extracting TIP4P info from pair style
  using 12-bit tables for long-range coulomb (../kspace.cpp:340)
  G vector (1/distance) = 0.37352453
  grid = 24 24 24
  stencil order = 5
  estimated absolute RMS force accuracy = 0.0032461287
  estimated relative force accuracy = 9.7756202e-06
  using double precision FFTW3
  3d grid and FFT values/proc = 2535 216
Last active /omp style is kspace_style pppm/tip4p/omp
WARNING: Not all mixed pair coeffs generated from mixing. Use write_data with 'pair ij' option to store all pair coeffs. (../write_data.cpp:312)

write_restart   restart.lmp.${pid}
write_restart   restart.lmp.0
System init for write_restart ...
PPPM initialization ...
  extracting TIP4P info from pair style
  using 12-bit tables for long-range coulomb (../kspace.cpp:340)
  G vector (1/distance) = 0.37352453
  grid = 24 24 24
  stencil order = 5
  estimated absolute RMS force accuracy = 0.0032461287
  estimated relative force accuracy = 9.7756202e-06
  using double precision FFTW3
  3d grid and FFT values/proc = 2535 216
Last active /omp style is kspace_style pppm/tip4p/omp
Total wall time: 0:07:05
