LAMMPS (30 Jul 2021)
  using 1 OpenMP thread(s) per MPI task
package omp 0
using multi-threaded neighbor list subroutines
echo both

include		in.partitions
variable        pid world 0
include		in.temp
variable        temperature equal 293.51
variable	tempDamp equal 100.0
include		in.pressure
variable        pressure equal 13625.0
variable        pressureDamp equal 1000.0 # This is 1 ps
include		in.seed
variable        seed world 745823

units		real
atom_style	full
read_restart	restart.lmp.${pid}
read_restart	restart.lmp.0
Reading restart file ...
  restart file = 30 Jul 2021, LAMMPS = 30 Jul 2021
  restoring atom style full from restart
  orthogonal box = (0.70161659 1.9179429 0.85597060) to (17.505956 21.711235 21.357225)
  4 by 4 by 4 MPI processor grid
  restoring pair style lj/cut/tip4p/long/omp from restart
  restoring bond style harmonic/omp from restart
  restoring angle style harmonic/omp from restart
  864 atoms
  576 bonds
  288 angles
Finding 1-2 1-3 1-4 neighbors ...
  special bond factors lj:    0        0        0       
  special bond factors coul:  0        0        0       
     2 = max # of 1-2 neighbors
     1 = max # of 1-3 neighbors
     1 = max # of 1-4 neighbors
     2 = max # of special neighbors
  special bonds CPU = 1.247 seconds
  read_restart CPU = 1.573 seconds
include 	in.setup
variable	out_freq equal 1000
variable	out_freq2 equal 10000
variable	out_freq3 equal 1000

timestep	2.0

neigh_modify    delay 7 every 1

include		in.tip4p
# This is TIP4P/Ice

# create groups ###
group ox type 2
288 atoms in group ox
group hy type 1
576 atoms in group hy

# set charges - beside manually ###
set group ox charge -1.1794
Setting atom values ...
  288 settings made for charge
set group hy charge 0.5897
Setting atom values ...
  576 settings made for charge

# ### TIP3P Potential Parameters ###
pair_style lj/cut/tip4p/long/omp 2 1 1 1 0.1577 8.5
pair_coeff 1 1*2 0.000 0.000
pair_coeff 2 2 0.21084 3.1668
bond_style  harmonic
bond_coeff  1 450 0.9572
angle_style harmonic
angle_coeff 1 55 104.52
kspace_style pppm/tip4p/omp 1.0e-5
pair_modify tail yes

thermo          ${out_freq}
thermo          1000
thermo_style    custom step temp pe etotal epair emol press lx ly lz vol pxx pyy pzz pxy pxz pyz enthalpy

restart 	${out_freq3} restart.lmp.${pid} restart2.lmp.${pid}
restart 	1000 restart.lmp.${pid} restart2.lmp.${pid}
restart 	1000 restart.lmp.0 restart2.lmp.${pid}
restart 	1000 restart.lmp.0 restart2.lmp.0


include         in.dump
dump            myDump all atom ${out_freq2} dump.water.${pid}
dump            myDump all atom 10000 dump.water.${pid}
dump            myDump all atom 10000 dump.water.0
dump            myDump2 all dcd ${out_freq2} dump.dcd
dump            myDump2 all dcd 10000 dump.dcd
dump_modify     myDump append yes
dump_modify     myDump2 append yes


variable natoms 	equal  "count(all)"                        # NUMBER ATOMS
variable H      	equal  "enthalpy/v_natoms"                 # ENTHALPY-per-atom
variable Vol      	equal  "vol/v_natoms"                 # volume-per-atom
fix AVG all 		ave/time ${out_freq} 1 ${out_freq} v_Vol v_H file vol_enthalpy.dat
fix AVG all 		ave/time 1000 1 ${out_freq} v_Vol v_H file vol_enthalpy.dat
fix AVG all 		ave/time 1000 1 1000 v_Vol v_H file vol_enthalpy.dat


timer           timeout 23:50:00 every 1000
New timer settings: style=normal  mode=nosync  timeout=23:50:00

fix 		1 all shake 1e-6 200 0 b 1 a 1
       0 = # of size 2 clusters
       0 = # of size 3 clusters
       0 = # of size 4 clusters
     288 = # of frozen angles
  find clusters CPU = 0.174 seconds
fix             2 all nph iso ${pressure} ${pressure} ${pressureDamp}
fix             2 all nph iso 13625 ${pressure} ${pressureDamp}
fix             2 all nph iso 13625 13625 ${pressureDamp}
fix             2 all nph iso 13625 13625 1000
fix             3 all temp/csvr ${temperature} ${temperature} ${tempDamp} ${seed}
fix             3 all temp/csvr 293.51 ${temperature} ${tempDamp} ${seed}
fix             3 all temp/csvr 293.51 293.51 ${tempDamp} ${seed}
fix             3 all temp/csvr 293.51 293.51 100 ${seed}
fix             3 all temp/csvr 293.51 293.51 100 745823

run             250000
PPPM initialization ...
  extracting TIP4P info from pair style
  using 12-bit tables for long-range coulomb (../kspace.cpp:340)
  G vector (1/distance) = 0.37509318
  grid = 24 24 24
  stencil order = 5
  estimated absolute RMS force accuracy = 0.0030674089
  estimated relative force accuracy = 9.2374107e-06
  using double precision FFTW3
  3d grid and FFT values/proc = 2535 216
Last active /omp style is kspace_style pppm/tip4p/omp
Neighbor list info ...
  update every 1 steps, delay 7 steps, check yes
  max neighbors/atom: 2000, page size: 100000
  master list distance cutoff = 10.8154
  ghost atom cutoff = 10.8154
  binsize = 5.4077, bins = 4 4 4
  1 neighbor lists, perpetual/occasional/extra = 1 0 0
  (1) pair lj/cut/tip4p/long/omp, perpetual
      attributes: half, newton on, omp
      pair build: half/bin/newton/omp
      stencil: half/bin/3d
      bin: standard
Per MPI rank memory allocation (min/avg/max) = 9.240 | 9.242 | 9.244 Mbytes
Step Temp PotEng TotEng E_pair E_mol Press Lx Ly Lz Volume Pxx Pyy Pzz Pxy Pxz Pyz Enthalpy 
14750000    308.20846   -3732.7898   -3204.5311   -3732.7898            0    11236.323    16.804339    19.793292    20.501255    6818.9877    11630.177    11694.695    10384.098    116.58258    801.66187   -1155.3949   -2087.1019 
14751000    297.94748   -3758.5626   -3247.8908   -3758.5626            0    11526.153     16.79042    19.776897    20.484273    6802.0572    11291.834    10480.183    12806.443   -108.76193   -136.56094    12.017711   -2104.4846 
14752000    286.27596   -3733.3605   -3242.6933   -3733.3605            0    13032.257    16.804525    19.793511    20.501482    6819.2143    12447.747    14068.226    12580.799   -851.74964   -88.602179    856.54588   -1946.6191 
14753000    302.97774   -3755.4426   -3236.1491   -3755.4426            0    11409.504    16.835725    19.830261    20.539546    6857.2675    11156.049    10588.016    12484.447    89.665677    1491.6437   -1251.2259   -2095.1278 
14754000    283.21027   -3779.3988   -3293.9861   -3779.3988            0    13187.552     16.75249    19.732221    20.437999    6756.0632    13795.921    13903.985     11862.75    462.47182    236.18701   -1649.9276   -1994.6132 
14755000    294.24321   -3742.5294   -3238.2066   -3742.5294            0    13225.568    16.831356    19.825114    20.534215    6851.9295    15371.341    12168.369    12136.994     512.1925   -2082.8746    28.080862   -1916.5972 
14756000    294.94864   -3727.8288   -3222.2969   -3727.8288            0     14220.78    16.782275    19.767303    20.474336    6792.1624    14245.593    12053.169    16363.579    340.47738   -1705.2198    1166.2201    -1813.633 
14757000    289.41085   -3735.2665   -3239.2262   -3735.2665            0    12920.825    16.768907    19.751557    20.458027    6775.9445    12906.639    11738.535    14117.302    40.797322   -1639.7876    1068.2789   -1962.3877 
14758000     306.0478   -3738.8899   -3214.3345   -3738.8899            0    12087.502    16.761684     19.74305    20.449215    6767.1925    8999.6422    12707.114    14555.749    1736.2241    261.02589    1654.5252    -2021.388 
14759000    304.85527   -3717.3892   -3194.8777   -3717.3892            0    15905.882    16.710505    19.682768    20.386777    6705.3943    15490.911    17436.691    14790.043   -42.584349     325.7004    645.62028   -1639.4209 
14760000    298.09563   -3743.5187    -3232.593   -3743.5187            0    16008.707    16.690151    19.658793    20.361945    6680.9217    15727.201    17940.169     14358.75   -1328.2604   -3303.1566   -1064.6934   -1672.7943 
14761000    299.40342   -3756.5617   -3243.3945   -3756.5617            0    16510.063    16.677834    19.644286    20.346919    6666.1419    15675.251    17465.265    16389.673   -255.82493    349.82536    2145.3968   -1638.3053 
14762000    302.60575   -3734.7514   -3216.0955   -3734.7514            0    16033.123    16.750766    19.730189    20.435895     6753.977    15456.292    15967.201    16675.877   -392.90038   -1372.9505    59.835956   -1636.8356 
14763000    304.47385   -3725.2276   -3203.3698   -3725.2276            0    13070.615    16.752303       19.732    20.437771    6755.8369    13691.142    13956.943    11563.761    537.35088   -680.87744    410.10174   -1915.5619 
14764000    281.43917   -3747.4438   -3265.0666   -3747.4438            0    15332.903    16.732367    19.708518    20.413448    6731.7456    15661.603    15076.876    15260.231   -1094.7826     2635.008     1850.671   -1759.7496 
14765000    292.21737   -3739.1505      -3238.3   -3739.1505            0    12734.502    16.766984    19.749293    20.455682    6773.6145     13025.88    10404.488    14773.138   -1785.8003   -2818.2833   -1250.7707   -1980.3066 
14766000    295.00941    -3734.809   -3229.1729    -3734.809            0    14745.345    16.681213    19.648265    20.351041     6670.194    15992.939    13753.021    14490.075    546.55737    591.64084   -1538.7816   -1794.7762 
14767000    293.39435   -3719.7603   -3216.8924   -3719.7603            0    16298.531    16.672819    19.638379    20.340801    6660.1304    16960.755    15133.416    16801.421   -717.96997   -306.54326   -554.09322   -1633.7971 
14768000    298.26862   -3806.1822     -3294.96   -3806.1822            0    11787.624     16.76022    19.741325    20.447429    6765.4194     11295.85    10704.175    13362.846   -475.71608   -720.73182    419.67249   -2131.9141 
14769000    280.04716   -3725.5547   -3245.5634   -3725.5547            0    14114.201    16.732259    19.708391    20.413317    6731.6163    13909.037    14829.403    13604.161   -1316.5587   -2247.7908    700.29017   -1859.9199 
14770000    274.22727   -3765.9078   -3295.8917   -3765.9078            0    13840.133    16.730103    19.705852    20.410687    6729.0143    15657.888    12140.335    13722.175   -2065.1151   -102.12758   -23.416858   -1937.6796 
14771000    291.54358   -3756.8963   -3257.2006   -3756.8963            0    11041.898    16.789697    19.776046    20.483392    6801.1789    11032.606    10009.537     12083.55   -1044.9176    1639.9129   -676.88517   -2161.9744 
14772000    304.16147   -3737.8847   -3216.5624   -3737.8847            0    12980.312    16.748376    19.727374    20.432979    6751.0867    14231.578    11245.015    13464.345    570.80524   -731.40558   -363.46811    -1938.551 
14773000     296.0424   -3753.8418   -3246.4352   -3753.8418            0    14232.674    16.721549    19.695776    20.400251    6718.6979    15621.476    15158.211    11918.334     -1313.98    182.57679   -999.27777   -1851.8422 
14774000    294.27427   -3672.8497   -3168.4736   -3672.8497            0    14212.735    16.729607    19.705268    20.410082     6728.416    12493.697    14628.274    15516.235   -2566.2791   -148.04147   -1931.5716   -1773.8199 
14775000    304.03222   -3733.2499   -3212.1491   -3733.2499            0    11513.757    16.736896    19.713853    20.418974    6737.2139    10843.377    13348.925    10348.967    -362.7012    114.71261   -1311.8003   -2080.8609 
14776000    299.30164    -3702.713   -3189.7202    -3702.713            0    14646.173    16.730445    19.706255    20.411104    6729.4272    15156.721    13848.253    14933.545   -360.05703   -2032.6615    119.69072   -1752.3186 
14777000     299.1148   -3702.4448   -3189.7723   -3702.4448            0    14479.051     16.70485    19.676106    20.379877    6698.5885    16531.219    14298.908    12607.025    589.63464   -666.13824    -228.3952   -1775.2843 
14778000    287.35953   -3750.7002   -3258.1758   -3750.7002            0    11950.284    16.756509    19.736954    20.442902    6760.9266    12688.679    11777.831    11384.341    305.22205   -2137.1538    1020.3488   -2079.8638 
14779000      296.278    -3798.862   -3291.0517    -3798.862            0     12492.74    16.696138    19.665845     20.36925    6688.1142    12451.305    12539.918    12486.997    -19.25428   -2330.0229   -99.328606   -2072.5187 
14780000    323.24323   -3752.7028    -3198.675   -3752.7028            0    15494.225     16.64333    19.603644    20.304824    6624.8532     17563.64    14523.113    14395.921   -1021.1674    956.28103   -120.44489   -1701.6743 
14781000    297.55752   -3739.8017   -3229.7983   -3739.8017            0    12609.681    16.723744    19.698362    20.402929    6721.3444    14500.633     10624.67    12703.741   -429.54203    1238.7876    1305.6375    -1993.748 
14782000    299.06309    -3766.298   -3253.7141    -3766.298            0    9934.4496    16.781431     19.76631    20.473307    6791.1387    8246.9558    11554.397    10001.996    400.45322   -254.20607   -608.74257   -2269.7884 
14783000    297.39433   -3764.3626   -3254.6389   -3764.3626            0    13969.172     16.75624    19.736637    20.442573    6760.6006    13615.905    14477.671     13813.94    386.77477   -635.23786   -875.08877   -1877.3284 
14784000    291.52346   -3787.1053    -3287.444   -3787.1053            0    11259.632    16.747706    19.726585    20.432162    6750.2764    8959.7927    11901.712    12917.391   -358.37358     91.41468    441.24351   -2178.9799 
14785000    295.71463   -3791.1835   -3284.3388   -3791.1835            0    14873.106    16.700301    19.670748    20.374328    6693.1177     14860.98    13721.639      16036.7   -24.773533    345.51461   -1406.4662   -1832.5413 
14786000    288.34291   -3753.6986   -3259.4887   -3753.6986            0    14518.711    16.722409    19.696789      20.4013    6719.7341    16030.414    14667.901    12857.819   -958.09996    885.67679    219.57369   -1836.6488 
14787000    295.60594   -3720.2469   -3213.5884   -3720.2469            0    16284.817    16.669238     19.63416    20.336431    6655.8392    17133.184    15006.359    16714.909   -903.63181    1700.0469    2247.2873   -1632.8442 
14788000    284.64304   -3713.1938   -3225.3254   -3713.1938            0    13410.241     16.73091    19.706802    20.411671    6729.9879    13277.701    14001.293    12951.731   -1483.2799    1642.2016    822.01362   -1909.1106 
14789000    285.19735    -3731.589   -3242.7705    -3731.589            0    13432.119    16.749309    19.728473    20.434118     6752.215    13052.591    13761.867    13481.901   -440.07364    1611.3128    1167.6756   -1920.0543 
14790000    283.68286   -3758.9795   -3272.7568   -3758.9795            0    12608.349    16.787214    19.773121    20.480362    6798.1616    12424.298    13088.353    12312.397    522.55135   -873.01709   -546.26235   -2022.7119 
14791000    295.56631   -3730.4407   -3223.8501   -3730.4407            0    14576.408     16.75198    19.731619    20.437376    6755.4454    14861.652    15396.946    13470.626    78.480648   -1272.9043   -1187.9501   -1787.7643 
14792000    293.63908   -3755.0532   -3251.7659   -3755.0532            0    12496.979    16.753426    19.733323     20.43914    6757.1951    14286.423    12195.862    11008.653     93.88876      764.691   -731.06878   -2020.2291 
14793000    289.30457   -3741.1244   -3245.2663   -3741.1244            0    13638.975     16.78543     19.77102    20.478186    6795.9948    13464.991    14269.968    13181.967    563.29509   -695.12729   -1321.2867   -1893.4718 
14794000    295.50118   -3742.1704   -3235.6915   -3742.1704            0    14839.496    16.684845    19.652543    20.355472    6674.5519    15449.805    13652.463     15416.22    192.51622   -44.963844   -2593.5883   -1791.1928 
14795000    292.54847   -3819.7373   -3318.3192   -3819.7373            0    13308.595    16.713239    19.685988    20.390112    6708.6858    12512.032     13003.52    14410.234   -130.09912    1212.3391    1417.2245   -2016.2155 
14796000    312.82635   -3763.1357   -3226.9621   -3763.1357            0    15156.237    16.670437    19.635573    20.337895    6657.2761     14271.01      14767.1    16430.599   -161.58066   -753.22843   -615.05342     -1755.45 
14797000    288.78306   -3771.3218   -3276.3575   -3771.3218            0    13412.789    16.765259     19.74726    20.453576    6771.5231    14768.834     15511.74    9957.7946    2098.8966     557.1403   -117.55166   -1951.7679 
14798000    294.43636   -3714.5664   -3209.9125   -3714.5664            0    13236.756    16.741685    19.719493    20.424816    6742.9988    12388.071    13763.549    13558.647   -975.64062    168.92659    1477.2898   -1908.2137 
14799000    301.52174   -3728.0456   -3211.2477   -3728.0456            0    12995.567    16.748437    19.727447    20.433055    6751.1611    13145.657    12053.965    13787.079   -930.34959    136.41514   -1144.4326   -1931.7203 
14800000    295.44703   -3727.5048   -3221.1188   -3727.5048            0    14497.266    16.693758    19.663042    20.366346    6685.2545    15520.868    12342.217    15628.712   -523.71946    188.36058   -407.13727   -1807.6705 
14801000    303.83594   -3738.0861   -3217.3217   -3738.0861            0    13484.493    16.758753    19.739597     20.44564    6763.6433    10129.103    13029.661    17294.715    853.01605   -29.852288   -120.68704   -1887.2006 
14802000    288.80002   -3733.9722   -3238.9788   -3733.9722            0    15059.448    16.708594    19.680517    20.384446    6703.0944    16745.393    16616.529    11816.423   -346.43424   -1737.2125    890.59716   -1766.8009 
14803000    292.31262   -3760.1886   -3259.1748   -3760.1886            0    15134.969    16.663209    19.627059    20.329076      6648.62    14238.774    15175.458    15990.674    1369.8892    -1596.436    -3183.054   -1791.6383 
14804000    294.62357   -3726.6777    -3221.703   -3726.6777            0     13398.05    16.696921    19.666767    20.370204    6689.0546    12855.558    13345.853    13992.738    586.86223    62.499127   -188.73489    -1914.683 
14805000    299.19149   -3748.8379   -3236.0339   -3748.8379            0    13278.087    16.729428    19.705056    20.409863    6728.1996    12905.989    14846.827    12081.444   -1562.4773     661.3486   -1723.8618   -1933.1364 
14806000    300.83361   -3689.4172   -3173.7987   -3689.4172            0    14365.382    16.762968    19.744562    20.450782    6768.7483     13287.61    15235.656    14572.879    140.52128    122.70687    1479.1437   -1755.7164 
14807000    304.56041   -3747.2025   -3225.1964   -3747.2025            0    14014.929    16.702509    19.673349    20.377022    6695.7729    13832.054     12674.13    15538.604   -97.466616   -228.72636    443.90715   -1856.6248 
14808000    287.20205   -3754.3962   -3262.1417   -3754.3962            0    12434.272    16.749873    19.729138    20.434806    6752.8973    14452.598    8847.2264    14002.992   -1489.1329    1892.8865   -192.89966   -2037.5639 
14809000    286.35609   -3734.2723   -3243.4678   -3734.2723            0    12964.243    16.775781    19.759654    20.466414    6784.2812    14747.026    12336.834    11808.869   -977.90287    -880.5099   -1145.8921   -1960.7625 
14810000    286.40996   -3744.8624   -3253.9656   -3744.8624            0    13803.604    16.722578    19.696988    20.401506     6719.938    12708.772    14888.113    13813.928    -26.64214    1266.5772    959.23109   -1901.1654 
14811000    284.22898   -3728.4178   -3241.2591   -3728.4178            0    12152.352    16.792783     19.77968    20.487156    6804.9291    11760.745     11200.91      13495.4    788.06022    244.58893    387.67407   -2035.2243 
14812000    296.14053   -3716.6023   -3209.0275   -3716.6023            0    12915.256    16.717354    19.690835    20.395133    6713.6428    11854.435    14225.116    12666.218    915.51112    185.72297   -171.93068   -1944.4742 
14813000    303.96586   -3730.7019   -3209.7148   -3730.7019            0    11658.707    16.805623    19.794804    20.502821    6820.5509    12574.489    10358.873    12042.758   -1885.9618    2343.7143    331.44157   -2050.0147 
14814000    298.16288   -3729.6555   -3218.6146   -3729.6555            0    13192.621    16.753822     19.73379    20.439624    6757.6751    12491.799    15063.896    12022.166   -1780.9074    728.80945   -1578.6038   -1918.4322 
14815000    283.75601   -3778.1699   -3291.8219   -3778.1699            0     11881.18    16.769962      19.7528    20.459314    6777.2236    12871.601    11862.255    10909.684   -1295.6896    541.65347    422.84273   -2117.4996 
14816000    289.77181   -3741.2724   -3244.6135   -3741.2724            0    12417.362    16.786304    19.772049    20.479252    6797.0565    14937.838    9987.9455    12326.301     1126.058    897.62708   -1085.9768    -2013.704 
14817000    287.53263   -3784.4398   -3291.6187   -3784.4398            0    12453.677    16.771179    19.754233    20.460799    6778.6993    13325.245    11980.136    12055.651   -1365.7219   -599.77093   -398.41893   -2060.4435 
14818000    309.15945    -3786.793   -3256.9043    -3786.793            0    14729.126     16.68695    19.655023     20.35804    6677.0787    18990.569    13213.916    11982.893    10.787642    1821.2621    1142.4266   -1822.6064 
14819000     287.6307   -3795.0115   -3302.0224   -3795.0115            0    12403.757    16.753374    19.733261    20.439077    6757.1323    12664.476    11880.695      12666.1   -754.31521    1344.0515    1977.7084   -2079.6837 
14820000    288.34653   -3747.1062   -3252.8901   -3747.1062            0    14652.938    16.752842    19.732635    20.438428    6756.4888    13421.936    16078.603    14458.276    419.87521    333.92552   -1006.4503   -1809.0415 
14821000    296.86464   -3756.4339   -3247.6181   -3756.4339            0    10577.331    16.777502    19.761682    20.468514    6786.3698    10366.496    9390.5951    11974.901   -1161.5644    1436.2843    247.31373   -2200.7559 
14822000    306.37913   -3705.1493    -3180.026   -3705.1493            0    16096.642    16.747618    19.726482    20.432055      6750.17    16089.312     16370.02    15830.595    256.00639    816.99403    -1585.891   -1595.4032 
14823000    277.56607   -3764.0111   -3288.2724   -3764.0111            0    12020.472    16.759193    19.740116    20.446177    6764.1762    13588.991    10471.847    12000.579   -506.12688     712.9229   -454.06124     -2102.47 
14824000    297.49964    -3755.577   -3245.6728    -3755.577            0    15234.375    16.712975    19.685676     20.38979    6708.3675    14257.194    15138.008    16307.922   -511.44643    397.43392   -1794.8316   -1755.2229 
14825000    289.16909   -3739.0498   -3243.4239   -3739.0498            0    12821.835    16.753517     19.73343    20.439252    6757.3058     14258.29    12974.955    11232.259    2144.3134    -1336.709    233.33347   -1979.8529 
14826000    290.88906   -3750.3491   -3251.7753   -3750.3491            0    15299.894    16.727298    19.702547    20.407264    6725.6299    13007.735    14967.109    17924.838   -648.64162   -986.59777    2890.8061   -1751.0635 
14827000    294.53659   -3786.1775   -3281.3518   -3786.1775            0      14093.4    16.730092    19.705839    20.410674    6729.0013    14606.344    12056.961    15616.895   -1391.8004    1398.3997   -1562.4531   -1898.2878 
14828000    307.87662   -3757.2788   -3229.5888   -3757.2788            0    14164.483    16.755349    19.735588    20.441487    6759.5232      14473.6    13603.774    14416.075   -239.02026    231.16277    1527.3314   -1833.2439 
14829000    313.75839   -3780.6842    -3242.913   -3780.6842            0    15222.296    16.687356    19.655501    20.358535    6677.5655    14912.638    13379.853    17374.397   -1551.1507   -1266.8128   -159.16964    -1760.483 
14830000    299.80491   -3718.7861   -3204.9307   -3718.7861            0    13444.152    16.791362    19.778007    20.485423    6803.2023    13197.951    13591.211    13543.295   -315.42157   -1015.6888   -622.33412   -1871.0325 
14831000    291.13157   -3721.4403   -3222.4507   -3721.4403            0     12403.61    16.720565    19.694617     20.39905    6717.5117    13705.685    10468.521    13036.625    834.37705    416.43196   -682.89691   -2007.2936 
14832000    288.28778   -3771.9454     -3277.83   -3771.9454            0    11851.428    16.766623    19.748867    20.455241    6773.1763    11575.011    11415.587    12563.686    2108.1282   -480.89874    426.57617    -2107.148 
14833000    274.83832   -3753.9476   -3282.8842   -3753.9476            0     14150.68    16.766947    19.749249    20.455636    6773.5689    11866.684    14026.851    16558.507    1692.0956    523.84363     1519.212   -1885.0013 
14834000    305.43129   -3736.1797   -3212.6809   -3736.1797            0    13477.942    16.742159    19.720052    20.425395    6743.5719    15018.512    10505.646    14909.668    18.320987    -983.7073    176.32407   -1887.1512 
14835000    294.07149   -3747.5951   -3243.5666   -3747.5951            0    13201.579    16.715125    19.688209    20.392413    6710.9567    13578.813    11795.365    14230.559    765.65431   -1293.5736   -1493.9728   -1951.4961 
14836000    288.21981   -3726.5659    -3232.567   -3726.5659            0    12877.048    16.708064    19.679892    20.383799    6702.4558    14381.991     11782.92    12466.232    -1082.465   -1129.8651   -1245.2921   -1973.8556 
14837000    296.00598   -3777.9787   -3270.6346   -3777.9787            0    13629.477    16.716241    19.689524    20.393775    6712.3013    13386.369     13389.93    14112.132    1756.7562    1899.4037   -1778.7781   -1936.4174 
14838000    303.99837   -3749.0109   -3227.9681   -3749.0109            0     13411.14     16.71632    19.689617    20.393872    6712.3969    13093.175    14787.463    12352.783   -1489.7898    694.98553    954.26928   -1915.1057 
14839000    286.40947   -3787.2794   -3296.3834   -3787.2794            0    12540.678    16.725729      19.7007    20.405351    6723.7381    14377.578    12499.767    10744.689    1153.3897   -1066.8965   -1106.2865   -2066.6593 
14840000     291.3636   -3757.9757   -3258.5885   -3757.9757            0    14158.404    16.756341    19.736757    20.442697    6760.7237    12635.119    15896.535    13943.558   -636.12441    223.85577    150.46038    -1862.595 
14841000    285.30085   -3760.6028   -3271.6069   -3760.6028            0    14499.629     16.71696     19.69037    20.394652    6713.1672    13771.414    15057.405    14670.068   -7.1014762   -1216.6782   -157.21016   -1852.0257 
14842000    286.38018   -3734.2021   -3243.3563   -3734.2021            0    14522.053     16.76936    19.752091     20.45858    6776.4939    10119.821    16539.023    16907.314   -764.52562   -233.76947   -111.54064   -1808.1678 
14843000    288.14747   -3769.7549     -3275.88   -3769.7549            0    14364.859    16.691517    19.660403    20.363612    6682.5629    14483.517    14477.816    14133.243   -1399.6611    1125.2899    1452.3825    -1875.905 
14844000    287.59709   -3756.0094   -3263.0779   -3756.0094            0    13108.577     16.77641    19.760395    20.467182    6785.0447    11775.167    13739.174    13811.389   -259.16595   -492.09665    1453.5029    -1965.946 
14845000    290.60033   -3780.4144   -3282.3354   -3780.4144            0    13186.641    16.742396    19.720331    20.425684    6743.8583    13357.244    13519.584    12683.096    122.56678    1245.9307    1522.2759   -1985.3995 
14846000    296.92041   -3754.4688   -3245.5574   -3754.4688            0    14269.084    16.770515    19.753451    20.459989    6777.8938    15109.847    13708.345    13989.061   -1508.2155   -2155.4425    91.961707    -1835.078 
14847000    291.36263   -3726.3919   -3227.0063   -3726.3919            0      13954.9    16.760808    19.742018    20.448146    6766.1314    14082.987    15382.222    12399.492    583.71342     427.5776   -582.96854   -1849.9774 
14848000    281.67127   -3748.8029    -3266.028   -3748.8029            0    11642.352    16.738101    19.715272    20.420444    6738.6687    10877.735    11413.222    12636.099    656.90984   -817.71573    2282.4286   -2121.8576 
14849000    307.48484   -3754.3592   -3227.3407   -3754.3592            0    13384.396    16.742219    19.720123    20.425468    6743.6444    11697.479    14734.146    13721.562    911.61235    348.29056    1065.6183    -1910.997 
14850000    294.12561   -3755.6963   -3251.5751   -3755.6963            0    13524.427     16.74537    19.723834    20.429312     6747.452    12101.343    14572.613    13899.327   -1501.2069   -53.142559    1579.0025   -1920.7083 
14851000    277.90519   -3754.4801   -3278.1601   -3754.4801            0    13569.832    16.706517     19.67807    20.381911    6700.5943    14067.097    11715.819     14926.58    1296.4476    308.90135   -590.21047   -1952.0986 
14852000    293.35167   -3758.5166   -3255.7219   -3758.5166            0    8905.5749    16.869409    19.869936     20.58064    6898.5086    8769.3665    8949.2912    8998.0671    255.82236   -355.87482    1583.7153   -2359.7527 
14853000    291.66016   -3768.4071   -3268.5115   -3768.4071            0    14390.389    16.761683    19.743048    20.449214    6767.1908    14969.432    12587.412    15614.322    655.02616     11.68925   -327.00648   -1848.2876 
14854000    294.99033   -3759.3285   -3253.7252   -3759.3285            0     13497.37    16.760848    19.742065    20.448195    6766.1799     14514.07     13056.53    12921.511   -11.066168     450.3973   -632.55794   -1921.8344 
14855000     298.2183   -3732.8844   -3221.7485   -3732.8844            0    13150.958    16.823952    19.816394    20.525183    6842.8919     15371.92    11455.051    12625.901    1206.1013    201.31011   -203.31037   -1909.3282 
14856000    280.48044   -3781.3684   -3300.6345   -3781.3684            0    12977.208    16.785898    19.771571    20.478757    6796.5629    13505.642    12606.398    12819.584    1467.3407   -361.72219   -1215.5824    -2014.322 
14857000     292.9473   -3777.6836    -3275.582   -3777.6836            0    14874.494    16.692284    19.661305    20.364547    6683.4833    14554.334     14880.91    15188.239   -1617.0895    2085.7471    297.06288    -1825.739 
14858000    295.39106   -3769.2206   -3262.9304   -3769.2206            0    12462.079    16.786337    19.772087    20.479292    6797.0958    11700.868    14135.584    11549.785    429.16253    381.25777   -52.747415   -2027.5811 
14859000    294.95947   -3741.5471   -3235.9966   -3741.5471            0    14271.539    16.693528    19.662771    20.366065    6684.9776     12575.98    18583.389    11655.248   -657.22678   -147.71553    765.27119   -1844.6138 
14860000    292.33496   -3750.4945   -3249.4423   -3750.4945            0    14083.032     16.70692    19.678545    20.382403    6701.0793     14054.53    13137.015    15057.552    711.93955    1552.5058    255.57033   -1873.1306 
14861000    301.57056   -3747.4662   -3230.5846   -3747.4662            0    14909.367    16.649264    19.610634    20.312064    6631.9424     12822.43    14626.954    17278.717   -678.74636   -1879.4421    1010.0088   -1788.5495 
14862000    290.45551   -3735.7975   -3237.9667   -3735.7975            0    11236.007    16.770931    19.753941    20.460496    6778.3982    11791.057    9922.4153     11994.55    602.56252    1514.1058    1643.4842   -2127.2202 
14863000    289.44659   -3753.0706    -3256.969   -3753.0706            0    13461.671    16.726457    19.701557    20.406239    6724.6158    12472.937     13805.88    14106.196   -80.008449   -2081.4727    -2237.849   -1936.7611 
14864000    298.58313   -3735.8598   -3224.0985   -3735.8598            0    11637.312    16.764184    19.745994    20.452265    6770.2211    12665.051    9146.9853    13099.901   -1292.1279   -489.39526   -422.59622   -2075.0683 
14865000      292.034   -3753.8029   -3253.2667   -3753.8029            0    12734.091    16.795267    19.782606    20.490186     6807.949    12718.177    13280.237    12203.858    677.80877    1054.7614   -1584.9557   -1988.9376 
14866000    285.69822   -3724.5384   -3234.8614   -3724.5384            0    15808.909    16.620081     19.57626     20.27646    6597.1293    13969.533    16076.349    17380.845   -1057.3416    1035.9539    53.131024   -1713.8489 
14867000    282.59776   -3773.8425   -3289.4796   -3773.8425            0    13737.744    16.736358    19.713219    20.418318    6736.5643    14846.024    13943.825    12423.381    1315.2036   -1175.1359    527.47071   -1939.8029 
14868000    275.84481   -3760.5707   -3287.7822   -3760.5707            0    14593.773    16.729707    19.705385    20.410204    6728.5363    13732.755    17214.836    12833.729    265.17864   -1368.9826   -443.51833   -1855.7127 
14869000    290.37057   -3738.4257   -3240.7405   -3738.4257            0    14945.194     16.73703     19.71401    20.419137    6737.3752    14475.107    15695.743     14664.73    1502.3072     -2548.28   -845.21916     -1772.26 
14870000    290.60571   -3755.4933   -3257.4051   -3755.4933            0    16081.695    16.703279    19.674257    20.377962    6696.6998     16209.44    14719.675    17315.969   -1641.4569    856.57765   -101.98571   -1686.7944 
14871000    283.87712   -3759.7029   -3273.1473   -3759.7029            0    14480.278    16.719932    19.693871    20.398278     6716.749    15042.199    14790.147    13608.489    359.17875   -626.43706    1315.6639   -1854.7042 
14872000    280.39022   -3699.9906   -3219.4114   -3699.9906            0    14155.588    16.737456    19.714512    20.419657    6737.8902    13901.602    14678.858    13886.304    527.34466   -649.28439    1618.3812   -1828.4094 
14873000    281.36603   -3756.1249   -3273.8732   -3756.1249            0    13189.421    16.701367    19.672004    20.375629    6694.3997     15135.56    11627.372    12805.331   -1237.8684    -1939.193    821.13368   -1986.1775 
14874000     285.7845   -3721.1643   -3231.3394   -3721.1643            0    14546.311    16.704091    19.675213    20.378952     6697.676    16188.503    15172.432    12277.996    365.20138     606.0151     224.1425   -1810.4742 
14875000    306.37179   -3734.6141   -3209.5034   -3734.6141            0    14803.978    16.675287    19.641285    20.343811    6663.0878    14550.274    14831.318    15030.342    623.21848    561.49189    1284.3413   -1770.9371 
14876000    296.23468   -3741.7903   -3234.0542   -3741.7903            0    15655.293    16.686448    19.654432    20.357427    6676.4758    13761.563    15556.091    17648.227    1767.5023    453.84342    1289.1725   -1709.7053 
14877000    299.63354   -3761.7647   -3248.2031   -3761.7647            0    12931.874    16.750124    19.729433    20.435112    6753.2005    10198.256    15633.479    12963.887    733.93257    1269.1817    304.05472   -1974.5622 
14878000    290.65919   -3767.6547   -3269.4747   -3767.6547            0    13553.161    16.764304    19.746136    20.452412    6770.3666    14281.656    13516.964    12860.862   -291.32333    553.93279   -683.07775   -1931.2512 
14879000    294.59821   -3739.8444   -3234.9132   -3739.8444            0    12547.913    16.843057    19.838896     20.54849    6866.2296      12028.8    13682.464    11932.475    300.25307    527.29376    163.91721   -1978.4039 
14880000    292.72382   -3767.2171   -3265.4985   -3767.2171            0    15594.853     16.70563    19.677026     20.38083    6699.5276    15800.008    15753.343    15231.209   -76.360627   -722.92615   -942.88554   -1741.7918 
14881000    298.79922    -3796.791   -3284.6594    -3796.791            0    13369.374    16.738391    19.715613    20.420798    6739.0192    11068.727    15724.415    13314.981    1074.5754    212.23678    178.87099   -1970.6947 
14882000    299.16708     -3752.64   -3239.8779     -3752.64            0    14385.497    16.758721     19.73956      20.4456    6763.6044    12987.285    14902.383    15266.822    150.11129    1751.3767   -466.99605   -1820.8891 
14883000    286.08595   -3749.3792   -3259.0377   -3749.3792            0     12973.95    16.758717    19.739555    20.445595    6763.5995    14635.698    12965.565    11320.587    52.295093   -284.19663   -810.22232   -1979.2852 
14884000    286.38611    -3800.728    -3309.872    -3800.728            0     12874.45    16.773518    19.756988    20.463652    6781.5354    12897.958     14147.97    11577.421     787.8649   -1151.7397   -352.42635   -2036.5665 
14885000    272.95569   -3757.8219   -3289.9852   -3757.8219            0     14639.16    16.700929    19.671489    20.375095    6693.8738    14912.247    15393.255    13611.979   -3077.8347    982.83009    840.19348   -1860.8623 
14886000    293.11946   -3751.7557   -3249.3589   -3751.7557            0    10441.758    16.803502    19.792306    20.500233    6817.9686    9665.1881    12594.083     9066.002    1044.1283   -462.67168   -139.40008   -2211.1028 
14887000    289.82948   -3773.6066   -3276.8488   -3773.6066            0    14323.719     16.69762    19.667591    20.371058    6689.8954    13911.313    15181.231    13878.614   -1259.0671    389.24417    1248.6552   -1879.3514 
14888000    291.00651   -3768.9418   -3270.1666   -3768.9418            0    13799.622    16.790656    19.777175    20.484561    6802.3437    11517.259    15546.012    14335.594   -349.99362   -1727.8323   -207.27222   -1901.1722 
14889000      283.676     -3801.65    -3315.439     -3801.65            0    13195.979    16.731364    19.707337    20.412225    6730.5358     12600.59    14828.739    12158.607   -289.61983    847.04797    342.12639   -2020.1487 
14890000    292.43507   -3760.5168   -3259.2931   -3760.5168            0    12719.805    16.771596    19.754724    20.461307    6779.2045    13458.388    14255.584    10445.444   -325.96789   -820.30342    411.12921   -2001.7146 
14891000    284.11168   -3798.1292   -3311.1715   -3798.1292            0     10697.62    16.814619      19.8054    20.513796    6831.5093    9124.9397    10128.914    12839.006    304.08526   -241.70836   -494.59957   -2245.3617 
14892000    288.83238   -3796.5732   -3301.5244   -3796.5732            0    12839.765    16.767789     19.75024    20.456663    6774.5891    12775.894    11102.424    14640.976    -848.2712    1388.3535    532.28021   -2032.9501 
14893000    279.98264   -3742.9796   -3263.0989   -3742.9796            0    11504.116     16.77762     19.76182    20.468657    6786.5127    12486.784    10552.053    11473.512   -112.84868    1169.7084   -1711.8458   -2124.4867 
14894000     295.4572   -3744.6747   -3238.2712   -3744.6747            0    13499.787    16.761797    19.743182    20.449353    6767.3291    12794.931    12970.253    14734.179   -831.97509   -1407.3582    863.16397   -1905.9157 
14895000    310.70648   -3740.9632   -3208.4229   -3740.9632            0    10253.339    16.812651    19.803082    20.511395    6829.1113    10975.332    9434.8104    10349.875    995.30336   -1215.3505   -2134.9648   -2187.2356 
14896000    288.70182   -3758.6662   -3263.8411   -3758.6662            0    11460.543    16.795196    19.782523      20.4901    6807.8634    14647.947     9660.971     10072.71   -1952.4318    1619.1729   0.96749673   -2125.9731 
14897000    275.77118   -3764.7191   -3292.0568   -3764.7191            0    12199.868    16.772777    19.756116    20.462749    6780.6373    12661.428    11105.663    12832.513    1127.1609    632.34977   -1810.4512   -2085.6284 
14898000    289.96037   -3789.1719   -3292.1897   -3789.1719            0     14956.54    16.688044    19.656311    20.359374    6678.3915    15943.133    13802.892    15123.593   -968.64738    583.40078   -713.07681   -1835.4603 
14899000    296.31452   -3709.5648   -3201.6919   -3709.5648            0    13766.649    16.742258    19.720169    20.425516    6743.6917    13716.469    14702.925    12880.553   -1059.4643     1278.639    1749.9856   -1847.7444 
14900000    293.92302   -3758.7171   -3254.9431   -3758.7171            0    13866.398     16.76487    19.746803    20.453102    6771.0524    12750.987    13921.777    14926.431   -546.97919    78.430777   -17.417297   -1885.6522 
14901000    288.43272   -3720.4348    -3226.071   -3720.4348            0    11872.683    16.748114    19.727066     20.43266    6750.7703     11433.33    12581.096    11603.624    284.60916   -609.29417   -773.98781    -2057.169 
14902000    273.14113   -3739.6549   -3271.5003   -3739.6549            0    14144.013    16.752579    19.732325    20.438107    6756.1705     15335.62    12831.381    14265.038   -2038.6494    1048.7667   -766.46863    -1877.865 
14903000    298.06436     -3752.38   -3241.5079     -3752.38            0    15120.582    16.716779    19.690158    20.394432      6712.95    17266.788    12667.226    15427.732   -743.13043    1527.1891    -1995.362   -1761.1804 
14904000    277.13243   -3747.2491   -3272.2536   -3747.2491            0    15208.312    16.696718    19.666528    20.369957    6688.8109    16242.182    15594.363    13788.392    1902.5142   -1252.9354   -417.88396   -1788.6911 
14905000    296.22292    -3759.016   -3251.3001    -3759.016            0    13267.327    16.794654    19.781884    20.489439    6807.2046    12370.149    12838.874    14592.957   -111.37145   -404.45733    695.22103   -1934.1717 
14906000    277.27773    -3813.688   -3338.4434    -3813.688            0    11854.314    16.804645    19.793652    20.501627    6819.3597    11380.228    13066.211    11116.504    14.168177   -907.32025   -622.10061    -2159.492 
14907000    288.89252    -3748.062   -3252.9101    -3748.062            0    16004.246    16.704644    19.675864    20.379627    6698.3412    17061.782    14441.099    16509.856    2106.3205    1378.9066    1355.4863   -1689.4803 
14908000    290.99129   -3751.2293   -3252.4802   -3751.2293            0     14334.78     16.72361    19.698203    20.402765    6721.1819    14906.098    14708.687    13389.554    773.42424   -387.31855     2114.715   -1847.3629 
14909000    287.35186   -3745.3816   -3252.8703   -3745.3816            0    13898.553    16.711264    19.683661    20.387703    6706.3077    13505.348    15928.042     12262.27   -1166.9956    479.08707    263.94815   -1893.5276 
14910000    296.65506   -3708.2168   -3199.7602   -3708.2168            0    14064.352    16.775357    19.759154    20.465896    6783.7664    13891.081    13415.061    14886.913   -512.36009    351.96993    1460.4868   -1808.3138 
14911000    297.87806   -3790.8543   -3280.3015   -3790.8543            0    18172.541    16.652964    19.614992    20.316577    6636.3644    19803.741      18782.7    15931.181   -1382.3394   -374.74477    309.90033     -1521.48 
14912000     269.6043   -3734.7405    -3272.648   -3734.7405            0     12494.77    16.819283    19.810894    20.519486    6837.1963    11649.996     13740.05    12094.264   -947.76281    758.67603   -1316.0332   -2026.7508 
14913000    295.69882   -3758.2223   -3251.4047   -3758.2223            0    13469.362    16.734946    19.711556    20.416595    6734.8596    13610.005    14795.235    12002.846   -190.42354   -649.50169   -88.765553   -1928.4302 
14914000    292.55054   -3766.3924   -3264.9708   -3766.3924            0    14361.285     16.69637    19.666119    20.369533    6688.3931    14007.078    15788.815     13287.96    277.49141   -885.89978   -969.66772   -1864.1229 
14915000    288.34221   -3768.6004   -3274.3917   -3768.6004            0     13926.67    16.659795    19.623038    20.324911     6644.534    13574.067    14580.835     13625.11    1171.0279   -184.48424   -66.774829   -1924.8456 
14916000    304.66035   -3748.4149   -3226.2375   -3748.4149            0    14536.518      16.6668    19.631289    20.333457    6652.9198    14020.735    14520.382    15068.438   -49.607407    -634.4335    315.95513   -1815.8171 
14917000    280.90863   -3781.0655   -3299.5977   -3781.0655            0    12730.206      16.7452    19.723633    20.429104    6747.2465     11425.93    13491.766    13272.922   -1010.7748   -507.13264    1923.4664   -2046.9242 
14918000    297.46068   -3727.3613   -3217.5239   -3727.3613            0    13850.826    16.709505     19.68159    20.385557    6704.1907    10852.595     17151.04    13548.843   -2648.0236   -387.43068    224.73938   -1863.2768 
14919000    312.10308   -3726.5906   -3191.6566   -3726.5906            0    15120.751    16.713806    19.686655    20.390804    6709.3685    16654.366    14529.091    14178.798   -1077.1956   -85.318437    339.76381   -1712.1023 
14920000    315.80602   -3765.0262   -3223.7455   -3765.0262            0    12775.848    16.740728    19.718366    20.423649    6741.8424    12334.857    13638.457    12354.231    668.70233    1850.7786   -587.51996   -1967.5876 
14921000    286.49091   -3743.5276    -3252.492   -3743.5276            0    13699.154    16.749468    19.728661    20.434312    6752.4075    14318.473    12429.486    14349.502    107.30277    121.54285    507.07042   -1903.4413 
14922000    292.66175   -3765.9318   -3264.3196   -3765.9318            0    14257.666    16.783204    19.768397    20.475469    6793.2903    14404.036    13371.611     14997.35    -669.1497   -1230.6915    419.92362   -1851.7674 
14923000    291.01282   -3755.3761   -3256.5901   -3755.3761            0    13445.249     16.74703    19.725789    20.431337    6749.4589    14486.431    13454.326    12394.989   -2675.4546     32.11847   -153.30821   -1933.1214 
14924000     287.2901    -3775.159   -3282.7536    -3775.159            0    13440.867    16.753628    19.733561    20.439387      6757.44    13580.356    15181.834    11560.411    343.10411    118.56542    36.422497   -1958.1516 
14925000     301.3559   -3775.4807    -3258.967   -3775.4807            0    13544.738    16.750119    19.729428    20.435106     6753.195    12853.794    13519.329    14261.091   -1332.5586   -1196.3681    1116.0604   -1924.9672 
14926000    305.83289   -3802.9095   -3278.7224   -3802.9095            0    13022.688    16.739333    19.716724    20.421948    6740.1579    11282.583    12445.862    15339.619   -651.26758   -1574.9705   -21.474069   -1998.6144 
14927000    298.97777   -3720.3424   -3207.9047   -3720.3424            0    13629.262     16.70005    19.670454    20.374023    6692.8168    13805.396      14690.5    12391.888    2163.2251    326.87046    874.77784   -1877.5815 
14928000    295.31021   -3740.2329   -3234.0813   -3740.2329            0    14875.389    16.684246    19.651838    20.354741    6673.8329    14605.661    15307.621    14712.886   -1255.2878   -1247.5595    167.26335   -1786.2447 
14929000    281.49101    -3740.178    -3257.712    -3740.178            0    13527.727    16.833345    19.827457    20.536642    6854.3592    13638.497     14092.98    12851.705   -147.56742    812.59651   -534.97848    -1905.429 
14930000    290.89411   -3758.8823   -3260.2997   -3758.8823            0    12060.567    16.779394     19.76391    20.470821    6788.6653    10296.835    13068.189    12816.676     1065.465   -419.62238   -2204.4015   -2066.2346 
14931000     302.6197   -3749.5427   -3230.8629   -3749.5427            0    16847.257    16.682672    19.649984    20.352821    6671.9447    15828.033    18643.731    16070.006   -2204.5178      2554.87   -475.98136   -1591.5663 
14932000    311.16016    -3716.002   -3182.6842    -3716.002            0    14804.771    16.646013    19.606804    20.308097    6628.0573    17294.606    12451.183    14668.524    738.64591    2226.0572    1604.8196   -1751.6045 
14933000     300.8663   -3740.6465   -3224.9719   -3740.6465            0    14948.905    16.688791    19.657191    20.360286    6679.2883    14336.858    15029.178     15480.68   -580.26566    220.11043   -1689.0447   -1768.7906 
14934000    287.66773   -3749.6946    -3256.642   -3749.6946            0    12467.046    16.754117    19.734137    20.439984    6758.0319    13625.389    12178.512    11597.238    803.52268   -339.59065    215.38494   -2027.9028 
14935000    304.70952   -3752.7246   -3230.4629   -3752.7246            0    13597.252    16.764171    19.745979    20.452249    6770.2051    14043.199    12765.477    13983.079   -197.20187    943.08567   -908.32758   -1887.9179 
14936000    289.78558   -3726.0143   -3229.3317   -3726.0143            0    13436.267    16.774079     19.75765    20.464338    6782.2169    12750.692     13677.06     13881.05    66.210636   -769.92128   -1124.9601    -1900.328 
14937000    285.97355   -3763.0647   -3272.9158   -3763.0647            0    13389.658    16.769539    19.752302    20.458798     6776.711    15043.752    11142.496    13982.726    1502.9996    -561.7521   -960.54204   -1949.5974 
14938000    296.12897   -3689.1449     -3181.59   -3689.1449            0    15687.876    16.706239    19.677743    20.381572    6700.2599    15229.019    14409.404    17425.206    27.303792   -427.45896    -750.8153   -1648.6269 
14939000    277.82724   -3722.9765   -3246.7901   -3722.9765            0    14574.985    16.709665    19.681778    20.385752    6704.3831    14689.021    13040.754     15995.18   -341.66818   -119.28019    1508.1598   -1821.6983 
14940000    294.36673   -3682.7635    -3178.229   -3682.7635            0    14781.579    16.766044    19.748185    20.454535    6772.4748    15265.615    15138.423    13940.697     -692.001    316.07179   -834.42498   -1718.2584 
14941000    296.36628   -3732.6363   -3224.6746   -3732.6363            0    12083.613    16.823543    19.815911    20.524683    6842.3919    12605.405    10372.912    13272.523    566.97809    106.42054    860.10105   -2018.8597 
14942000    293.27695   -3724.6785   -3222.0119   -3724.6785            0    16397.407    16.627012    19.584423    20.284915    6605.3857    14382.836    18834.024    15975.362   -1793.7231   -1274.0087    1050.2121   -1642.4041 
14943000    317.12016    -3764.851   -3221.3179    -3764.851            0    14510.265    16.694182    19.663542    20.366863     6685.764    13319.615    14683.028    15528.153   -1142.1138   -1200.7203   -2902.3965   -1806.4944 
14944000    308.76506   -3749.1614   -3219.9486   -3749.1614            0    12268.384    16.716212     19.68949     20.39374    6712.2672    11234.098    12513.506    13057.549   -1009.1358    1738.3237    337.98733   -2018.9777 
14945000    285.52141   -3768.2488   -3278.8749   -3768.2488            0    14496.249    16.757296    19.737882    20.443863    6761.8798    14515.571    12206.255     16766.92   -1093.1964     854.1149    1735.3224   -1849.3261 
14946000    289.57622   -3755.1198    -3258.796   -3755.1198            0    13123.523    16.738311    19.715519      20.4207    6738.9228    14081.495    12598.827    12690.246    -1657.735    2098.4324   -71.471544   -1969.0126 
14947000    286.19846   -3709.5838   -3219.0494   -3709.5838            0    12728.753     16.71654    19.689877     20.39414    6712.6623    13356.644    13299.558    11530.057   -446.12208    180.67242   -940.22796   -1972.9389 
14948000    297.08515   -3735.8145   -3226.6208   -3735.8145            0    16272.596    16.702677    19.673547    20.377227    6695.9751    17866.901    16058.861    14892.027    148.91005    2.9707412    -1535.714   -1637.5378 
14949000    296.15939   -3730.4406   -3222.8336   -3730.4406            0    14720.064    16.704048    19.675162    20.378899    6697.6242    15850.985    12508.161    15801.046    -1994.341   -1753.0871   -2297.2884   -1785.0075 
14950000    286.37663   -3737.4793   -3246.6396   -3737.4793            0    15274.895    16.731448    19.707436    20.412328    6730.6372    18979.862    14834.179    12010.645    1466.7101   -721.35916    -1590.505   -1747.2644 
14951000    287.07711   -3751.8368   -3259.7965   -3751.8368            0    12468.021    16.782449    19.767508    20.474548     6792.374     13585.36    12821.461    10997.242    508.33728   -265.27148   -1425.6304   -2024.7167 
14952000    299.01292   -3748.5326   -3236.0347   -3748.5326            0    13705.914    16.770316    19.753217    20.459747    6777.6531    13360.957    12852.043    14904.743   -1773.7339    1995.1043    207.42387    -1881.272 
14953000    289.28079   -3790.0866   -3294.2692   -3790.0866            0      12852.3    16.784121    19.769477    20.476588     6794.404    12115.541    11986.672    14454.689    485.71942    675.16012    100.59466   -2020.7423 
14954000    281.73748   -3755.0143   -3272.1259   -3755.0143            0    13531.302    16.750377    19.729731     20.43542    6753.5063    15768.842    12091.775    12733.288    2454.6267    166.96637   -106.87576   -1939.3879 
14955000    285.72029   -3774.6019   -3284.8871   -3774.6019            0    13833.531    16.725351    19.700255     20.40489    6723.2823    14538.562     14918.13    12043.901    518.35315    423.09632    1128.8771   -1928.4793 
14956000     287.2281   -3798.3129   -3306.0138   -3798.3129            0     11681.17    16.809455    19.799317    20.507496     6825.217     12246.34    14670.377    8126.7941    221.12773    1498.1493    525.40978   -2143.2842 
14957000     290.3704   -3760.1004   -3262.4154   -3760.1004            0     13726.45    16.796528    19.784091    20.491724    6809.4826    13561.317    14034.587    13583.445    718.56981    1290.3021   -938.42719    -1899.251 
14958000    290.38779   -3744.1739   -3246.4591   -3744.1739            0    12526.389    16.808521    19.798217    20.506356    6824.0794     14509.63    11713.305    11356.231   -1119.7062    907.53594    541.14396   -1999.8054 
14959000    287.52683   -3742.1764   -3249.3653   -3742.1764            0    13285.466    16.772832    19.756181    20.462816    6780.7043    12888.837    13448.904    13518.656    381.65882    738.79475   -212.62733   -1935.5706 
14960000    294.31848   -3716.7764   -3212.3246   -3716.7764            0    13855.151    16.775452    19.759266    20.466012    6783.8817    13224.149    12326.468    16014.835   -1212.7372    1377.4171   -711.07725   -1841.5521 
14961000    300.81614   -3804.9675    -3289.379   -3804.9675            0    11669.999    16.801987    19.790521    20.498384    6816.1242    12643.056    11585.063     10781.88   -1059.3182   -1676.7595   -346.46572   -2129.3089 
14962000    280.70153   -3740.4195   -3259.3067   -3740.4195            0    13429.773    16.801121    19.789502    20.497329    6815.0713    15925.129    13459.544    10904.646    278.21416    557.97581   -153.48855   -1924.5105 
14963000    316.97836    -3754.452   -3211.1619    -3754.452            0    11898.096    16.810086     19.80006    20.508265    6825.9856    12022.684    13152.913     10518.69   -423.02516    568.72997    1776.4549   -2026.7066 
14964000    287.03343   -3738.4901   -3246.5246   -3738.4901            0    13020.666    16.763708    19.745434    20.451685    6769.6442    12164.301    11928.293    14969.405    12.267179   -218.68815   -997.00559   -1961.0161 
14965000    282.04326   -3763.7502   -3280.3377   -3763.7502            0    14718.905    16.662876    19.626667     20.32867    6648.2219    13888.113     15763.34    14505.263    652.98646    1030.2568   -206.10869   -1853.2295 
14966000    292.47854    -3774.316   -3273.0178    -3774.316            0    13083.233    16.727086    19.702298    20.407006    6725.3748    12896.733    13827.412    12525.554    817.44731   -757.91031    235.40327    -1989.779 
14967000    292.08525   -3762.5523   -3261.9282   -3762.5523            0    13196.087    16.710303    19.682529     20.38653    6705.1507    13691.822    13948.214    11948.226   -198.33247    448.53544    159.69009   -1971.5126 
14968000    293.55658   -3735.3712   -3232.2253   -3735.3712            0    14018.976    16.706912    19.678536    20.382394    6701.0702    12536.186    12684.101    16836.641    2174.5512    79.980014   -105.89998   -1862.1755 
14969000     308.5102   -3777.7833   -3249.0074   -3777.7833            0    14131.611    16.741512     19.71929    20.424605    6742.7896    14483.035    15602.043    12309.754    3080.3403    2405.8788   -1475.3806   -1859.3519 
14970000    295.14688    -3794.334   -3288.4624    -3794.334            0    15285.904    16.696434    19.666193     20.36961    6688.4692    14872.883    16274.325    14710.503   -1293.1947    14.680204   -119.98238   -1797.4071 
14971000    292.35834   -3744.1843   -3243.0921   -3744.1843            0    14783.468    16.697872    19.667887    20.371364    6690.1976    16283.094    14773.802    13293.507   -2267.6504   -606.34013    877.62906    -1800.674 
14972000     279.1063   -3774.0442   -3295.6656   -3774.0442            0    13375.325    16.798383    19.786276    20.493988     6811.739    15422.208    12386.394    12317.373    2024.1198   -491.61654    171.17068    -1966.931 
14973000    296.64201   -3767.5617   -3259.1275   -3767.5617            0    13009.963    16.741213    19.718937     20.42424    6742.4283    15004.202    10547.468    13478.219     -1023.79    567.07725    187.00432   -1979.8396 
14974000    289.31542   -3735.2872   -3239.4105   -3735.2872            0    14803.065    16.735434    19.712131    20.417191    6735.4488    15266.986    17277.548    11864.662   -70.020325    363.27561    373.62142   -1785.3112 
14975000    289.03381   -3766.0023   -3270.6082   -3766.0023            0    14662.089    16.678266    19.644795    20.347446    6666.6599    14218.551    15359.389    14408.329    1896.1729    1988.1049   -177.93205   -1845.0661 
14976000    283.99982   -3765.7748   -3279.0088   -3765.7748            0    11745.355    16.778272    19.762588    20.469452    6787.3034    11970.485    13407.454    9858.1266    1081.6979   -752.68118   -1101.1254   -2116.3847 
14977000    313.18717   -3729.2141    -3192.422   -3729.2141            0    15552.136    16.696291    19.666025    20.369435    6688.2973    13982.816    17574.668    15098.925    1388.4005   -1363.2345     679.0648   -1675.4363 
14978000    296.11046   -3736.2479   -3228.7247   -3736.2479            0    14397.413    16.702035    19.672791    20.376443    6695.2029    12924.494    14780.643    15487.103    1915.8835    311.55407    649.93144   -1822.9229 
14979000    298.10548   -3741.9252   -3230.9826   -3741.9252            0    13801.006    16.741907    19.719755    20.425088    6743.2674    15225.205    9928.4129    16249.401    1739.0161    1308.3695     254.9168   -1873.7414 
14980000     295.5084   -3733.5157   -3227.0244   -3733.5157            0    10612.945      16.8573    19.855673    20.565867     6883.664    10860.879    11170.212    9807.7445    2132.7162   -505.45619    362.80091   -2161.5784 
14981000    291.62168   -3740.4851   -3240.6556   -3740.4851            0     13236.01    16.774348    19.757966    20.464665    6782.5427    13985.718    13860.501    11861.812   -234.40098    424.14987    323.66924   -1931.3967 
14982000    304.91802   -3767.9314   -3245.3123   -3767.9314            0    13155.047    16.692379    19.661417    20.364663    6683.5972    15850.763    12499.811    11114.568    817.16335   -1126.4483    724.45727    -1963.045 
14983000    280.76689   -3741.9398    -3260.715   -3741.9398            0    15367.896    16.709122    19.681139     20.38509    6703.7294    14183.892    18648.362    13271.435    1179.7852    2133.7123    600.20493   -1758.2416 
14984000    304.56419   -3746.2018   -3224.1892   -3746.2018            0    14926.477     16.74757    19.726425    20.431996    6750.1124    16179.757    13653.605     14946.07    258.92594     986.5575    155.07579   -1754.7751 
14985000    293.79573     -3778.31   -3274.7542     -3778.31            0    13153.017    16.806298    19.795599    20.503644    6821.3725     13210.54    13599.392    12649.119     -1614.51    1901.5812    716.38324   -1966.2562 
14986000    280.17287   -3717.8771   -3237.6704   -3717.8771            0    13058.609    16.768857    19.751498    20.457966     6775.884    14136.439    11943.725    13095.664    930.91804    273.29614    823.25728   -1947.2276 
14987000    304.41939     -3756.07   -3234.3055     -3756.07            0    13239.619    16.708095    19.679929    20.383837    6702.4936    11823.634    14757.237    13137.985   -338.51837      -1782.4    2071.3766   -1940.1461 
14988000    286.38094    -3712.023   -3221.1759    -3712.023            0    12487.779    16.698749     19.66892    20.372434    6691.2518    13014.834    14094.228    10354.274    2880.8632   -1243.4011    391.30172   -2002.5555 
14989000    292.83197   -3748.6226   -3246.7186   -3748.6226            0    13813.142    16.730425    19.706231    20.411079    6729.4025      12292.7    13659.465    15487.262    1361.9152   -57.821049     331.6227    -1891.077 
14990000       295.68   -3723.9095   -3217.1241   -3723.9095            0    15427.671    16.687486    19.655654    20.358693    6677.7214    16729.488    16022.514    13531.011   -744.91216   -2169.6261    1554.3328   -1714.6584 
14991000     287.7674   -3774.0987   -3280.8753   -3774.0987            0    12067.945    16.754097    19.734113    20.439959    6758.0075    11235.458     11746.46    13221.917     516.2631    1239.6988   -818.27292   -2091.4754 
14992000    280.47492   -3742.5128   -3261.7884   -3742.5128            0     13565.24    16.731069    19.706989    20.411865    6730.1794    13003.799    12748.554    14943.365    1795.4767   -1871.6733    1122.6446   -1930.3226 
14993000    298.74841   -3744.0844   -3232.0398   -3744.0844            0     12982.13    16.805283    19.794404    20.502406     6820.137    11931.837    12326.329    14688.224    2422.1084   -245.32756   -1787.6809   -1940.7762 
14994000    308.37755   -3774.2787   -3245.7301   -3774.2787            0    14076.173    16.750894    19.730341    20.436052    6754.1326    13402.998    14621.235    14204.286    698.73446    2125.3573    285.55281   -1859.1976 
14995000    308.42708   -3724.6173   -3195.9839   -3724.6173            0    13866.685    16.734981    19.711597    20.416638    6734.9021    15543.591    12525.055    13531.408   -751.07293    806.48915    894.14972   -1833.9754 
14996000    291.49718   -3754.4091   -3254.7929   -3754.4091            0    9743.3287    16.804117     19.79303    20.500983     6818.717    8329.8518    9694.7148    11205.419    136.66837   -311.40904    747.14739   -2285.8774 
14997000    293.07072   -3738.0159   -3235.7027   -3738.0159            0    13320.743    16.718823    19.692565    20.396925     6715.412    14930.824    12745.301    12286.105   -1565.9548    873.62394    -359.6099   -1931.1038 
14998000    298.79519   -3706.5413   -3194.4166   -3706.5413            0    16266.606    16.665276    19.629494    20.331597    6651.0942    15310.154    13675.902    19813.762    1296.1825    59.704575    551.04809   -1616.5658 
14999000    284.39601   -3772.4552   -3285.0101   -3772.4552            0    11413.406     16.73073    19.706591    20.411452    6729.7711    10777.365    11854.957    11607.897    1469.9556   -120.94875    563.63423   -2164.8208 
15000000    306.73849   -3731.2393      -3205.5   -3731.2393            0    13275.051    16.714024    19.686912     20.39107    6709.6311    13420.882    13575.199    12829.071    1838.8274    26.008722   -356.70063   -1906.4953 
Loop time of 418.198 on 64 procs for 250000 steps with 864 atoms

Performance: 103.300 ns/day, 0.232 hours/ns, 597.802 timesteps/s
99.1% CPU use with 64 MPI tasks x 1 OpenMP threads

MPI task timing breakdown:
Section |  min time  |  avg time  |  max time  |%varavg| %total
---------------------------------------------------------------
Pair    | 22.665     | 28.01      | 32.82      |  47.8 |  6.70
Bond    | 0.27385    | 0.28291    | 0.30119    |   0.9 |  0.07
Kspace  | 173.34     | 180.86     | 188.15     |  28.0 | 43.25
Neigh   | 5.9865     | 6.7246     | 7.4308     |  15.5 |  1.61
Comm    | 93.068     | 99.275     | 106.06     |  31.7 | 23.74
Output  | 1.2142     | 1.2181     | 1.2277     |   0.5 |  0.29
Modify  | 95.852     | 97.897     | 100.09     |  13.1 | 23.41
Other   |            | 3.933      |            |       |  0.94

Nlocal:        13.5000 ave          20 max          10 min
Histogram: 5 5 12 14 10 9 3 2 1 3
Nghost:        2339.64 ave        2394 max        2296 min
Histogram: 2 7 13 6 11 8 7 6 0 4
Neighs:        4587.23 ave        7432 max        3195 min
Histogram: 5 13 12 18 5 3 3 3 1 1

Total # of neighbors = 293583
Ave neighs/atom = 339.79514
Ave special neighs/atom = 2.0000000
Neighbor list builds = 16931
Dangerous builds = 0

unfix		3
unfix		2
unfix		1

write_data	data.final.${pid}
write_data	data.final.0
System init for write_data ...
PPPM initialization ...
  extracting TIP4P info from pair style
  using 12-bit tables for long-range coulomb (../kspace.cpp:340)
  G vector (1/distance) = 0.37553529
  grid = 24 24 24
  stencil order = 5
  estimated absolute RMS force accuracy = 0.0030186823
  estimated relative force accuracy = 9.090672e-06
  using double precision FFTW3
  3d grid and FFT values/proc = 2535 216
Last active /omp style is kspace_style pppm/tip4p/omp
WARNING: Not all mixed pair coeffs generated from mixing. Use write_data with 'pair ij' option to store all pair coeffs. (../write_data.cpp:312)

write_restart   restart.lmp.${pid}
write_restart   restart.lmp.0
System init for write_restart ...
PPPM initialization ...
  extracting TIP4P info from pair style
  using 12-bit tables for long-range coulomb (../kspace.cpp:340)
  G vector (1/distance) = 0.37553529
  grid = 24 24 24
  stencil order = 5
  estimated absolute RMS force accuracy = 0.0030186823
  estimated relative force accuracy = 9.090672e-06
  using double precision FFTW3
  3d grid and FFT values/proc = 2535 216
Last active /omp style is kspace_style pppm/tip4p/omp
Total wall time: 0:07:00
