LAMMPS data file via write_data, version 30 Jul 2021, timestep = 29750000

1920 atoms
2 atom types
1280 bonds
1 bond types
640 angles
1 angle types

0.017689453652867115 24.71231154634235 xlo xhi
-0.032713751654446455 24.762714751646655 ylo yhi
0.05366337808117194 22.75633662192221 zlo zhi

Masses

1 1.008
2 15.999

Pair Coeffs # lj/cut/tip4p/long/omp

1 0 0
2 0.21084 3.1668

Bond Coeffs # harmonic/omp

1 450 0.9572

Angle Coeffs # harmonic/omp

1 55 104.52

Atoms # full

1 1 2 -1.1794 4.557173837219922 1.3094140475109717 4.263753362433174 0 0 0
2 1 1 0.5897 4.774967572472053 1.9641277058561946 4.927204030549248 0 0 0
3 1 1 0.5897 5.205896189641681 1.4430216012919368 3.5727369653095487 0 0 0
4 2 2 -1.1794 2.9557512860439648 1.3877847438699153 2.0987556145326245 0 0 0
5 2 1 0.5897 3.3410590414470387 1.2101923634651532 2.956771373231175 0 0 0
6 2 1 0.5897 2.012349902335942 1.4093413679685642 2.2591481636542503 0 0 0
10 4 2 -1.1794 3.303929287087652 4.45447369267272 3.6903702872173927 0 0 0
11 4 1 0.5897 2.869553224756453 5.161742086221854 4.167182899361833 0 0 0
12 4 1 0.5897 2.8472923102082532 4.415770537350993 2.8500283483047464 0 0 0
13 5 2 -1.1794 1.4694764977343897 2.8367258137217153 4.97627495343084 0 0 0
14 5 1 0.5897 2.203190554499707 3.1006021286280734 4.421081625921919 0 0 0
15 5 1 0.5897 1.5955310112909313 1.8973104614678962 5.110182120078145 0 0 0
22 8 2 -1.1794 1.6293755302817405 4.552413057451734 1.4236414431161437 0 0 0
24 8 1 0.5897 1.497041283768713 5.340568217561482 0.8967858065468559 0 0 0
23 8 1 0.5897 0.8448263683172956 4.493672815804607 1.9688277871241717 0 0 0
20 7 1 0.5897 3.895125084226293 2.936364019816542 1.24305458072479 0 0 0
9 3 1 0.5897 5.098149289704542 4.654136431869741 3.621139623916893 0 0 0
19 7 2 -1.1794 4.761282938327043 3.2148050840574154 0.9456344541227266 0 0 0
21 7 1 0.5897 5.3725393152262235 2.7378683594419226 1.5069929397001112 0 0 0
27 9 1 0.5897 4.938329412472932 4.986543995331242 0.6933325333102247 0 0 0
387 129 1 0.5897 4.072072205658543 0.2517621291176372 1.2642202839501386 0 1 0
7 3 2 -1.1794 6.054035647008738 4.604407774843669 3.618876124160722 0 0 0
28 10 2 -1.1794 1.7619377682821429 0.03649773318465166 4.972611185123016 0 0 0
99 33 1 0.5897 0.2118567065851501 3.7391683691898474 3.9686088289102037 1 0 0
16 6 2 -1.1794 0.28252500893946597 1.35737198420089 2.216779015118761 0 0 0
47 16 1 0.5897 6.184815889091613 0.7718120328677538 1.7089271344896364 0 0 0
98 33 1 0.5897 0.390698022573623 5.241667668178353 3.9173661395453534 1 0 0
150 50 1 0.5897 1.5423925481101641 5.980668286350469 5.68064575135899 0 0 0
25 9 2 -1.1794 4.813814587949629 5.93280037800832 0.6197806693789628 0 0 0
1455 485 1 0.5897 1.7783735439681796 3.282652547673998 0.1776038427131219 0 0 1
77 26 1 0.5897 12.010111421031484 0.9509007439363841 1.6966883883739905 0 0 0
8 3 1 0.5897 6.331972021397252 5.3006896020175915 4.214023645028898 0 0 0
46 16 2 -1.1794 6.410871507160596 1.5107281465265443 2.2738771052813243 0 0 0
416 139 1 0.5897 10.02350423885952 0.10093568406451955 1.0056291744117019 0 1 0
31 11 2 -1.1794 10.77949655085243 1.3991594848645306 4.472009861646461 0 0 0
32 11 1 0.5897 10.737235201277453 2.2025835990342855 4.990664190633388 0 0 0
34 12 2 -1.1794 9.084914047614568 1.4826696781128863 2.2107340089485947 0 0 0
36 12 1 0.5897 9.582963518604261 2.115177125341007 1.6929224343230833 0 0 0
39 13 1 0.5897 11.282742669375814 4.660064824636808 3.688717554953622 0 0 0
40 14 2 -1.1794 9.48199829428798 4.6869457168134625 3.8237148654710333 0 0 0
41 14 1 0.5897 9.098312986114866 4.751087037474733 2.9491515248597677 0 0 0
42 14 1 0.5897 9.01634911387648 3.9600645678248183 4.237342371556477 0 0 0
43 15 2 -1.1794 7.7136336632215 2.795899544336369 4.960735334743298 0 0 0
45 15 1 0.5897 7.03838007517355 3.2393295799484307 4.447295161209755 0 0 0
48 16 1 0.5897 7.366958483617372 1.4959641835357333 2.3172233763283607 0 0 0
49 17 2 -1.1794 10.919388243306232 3.343687750827354 0.8465474275230244 0 0 0
52 18 2 -1.1794 7.955885695468936 4.811193483273809 1.5801507659586325 0 0 0
53 18 1 0.5897 7.9505024931058506 4.067244996394341 0.977841988066136 0 0 0
54 18 1 0.5897 7.199251945363224 4.665629708733392 2.148053168112936 0 0 0
35 12 1 0.5897 9.574695265889778 1.4040006972130437 3.0293396787655484 0 0 0
33 11 1 0.5897 10.773803584762172 0.6945836074109298 5.119929984943129 0 0 0
59 20 1 0.5897 7.760067361524521 0.9439705975005526 4.8984171578587095 0 0 0
50 17 1 0.5897 11.62687778429863 2.895978163030612 1.3104808797902818 0 0 0
56 19 1 0.5897 10.789491780154258 5.021581287519319 0.5589754026280085 0 0 0
37 13 2 -1.1794 12.228343992104746 4.59722975761527 3.5542158452504617 0 0 0
78 26 1 0.5897 12.097366590177467 1.7541206516122032 2.976960170101409 0 0 0
58 20 2 -1.1794 7.5811386453005785 0.00394211741857859 4.923948591485449 0 0 0
180 60 1 0.5897 8.391122116628415 5.979804731017283 4.665099193433581 0 0 0
55 19 2 -1.1794 10.783053621018334 5.9787786328040795 0.5517100477679164 0 0 0
1619 540 1 0.5897 7.8151528231576926 5.874816549663901 0.0752156873631904 0 0 1
579 193 1 0.5897 0.06569128850148816 5.168262587393965 9.795427053817257 1 0 0
496 166 2 -1.1794 0.14811382985212543 1.6660938101529534 7.801501266634411 0 0 0
494 165 1 0.5897 1.4392547863538425 1.974422243069252 10.56370008710725 0 0 0
504 168 1 0.5897 1.6077737818658222 3.884507246636117 6.597564738144684 0 0 0
501 167 1 0.5897 4.806978277757758 4.144927564286507 6.337936687135953 0 0 0
499 167 2 -1.1794 4.8734876887111644 3.1960114327378952 6.444947542362069 0 0 0
483 161 1 0.5897 4.876863319598798 2.2869410152647056 10.34795746751599 0 0 0
492 164 1 0.5897 2.804829915531366 4.157892826811804 9.784707801789757 0 0 0
493 165 2 -1.1794 1.641107472889818 2.906036001564266 10.47615865265301 0 0 0
491 164 1 0.5897 2.877328245417353 4.789638356872356 8.410850099220186 0 0 0
485 162 1 0.5897 3.2563947060602443 1.6577634895602866 8.545080777815361 0 0 0
481 161 2 -1.1794 4.613555319285964 1.5476594827262715 9.799873669168148 0 0 0
482 161 1 0.5897 5.257824541406789 1.5321658564643321 9.092153218718945 0 0 0
502 168 2 -1.1794 1.637221385072739 4.694353636587852 7.107036570938105 0 0 0
500 167 1 0.5897 4.073450801355015 2.95020807349849 6.909410269486812 0 0 0
490 164 2 -1.1794 3.2622900050494237 4.834879666482856 9.286033174045876 0 0 0
503 168 1 0.5897 0.8981169282463892 4.624749399229134 7.711248837502363 0 0 0
498 166 1 0.5897 1.0975747488170575 1.6186338503800177 7.689809044139328 0 0 0
484 162 2 -1.1794 2.8706858549623138 1.5737300710057052 7.673092564994472 0 0 0
489 163 1 0.5897 4.946795580937151 4.785190030097827 9.321596746341754 0 0 0
486 162 1 0.5897 3.2709384193910656 0.7842418096517277 7.308698524181162 0 0 0
528 176 1 0.5897 5.9683218426783515 2.062886504061802 7.297569568705602 0 0 0
527 176 1 0.5897 5.806844976112604 0.557906145346092 7.330325146833634 0 0 0
578 193 1 0.5897 0.3014490796909076 3.7137112544880804 9.447887496806278 1 0 0
505 169 2 -1.1794 4.664408843750906 5.91566362131991 6.2623392650241865 0 0 0
629 210 1 0.5897 2.1593560505434803 6.055675218209682 10.13434635071356 0 0 0
508 170 2 -1.1794 1.4066511664708614 0.1354575969657178 10.436874711142865 0 0 0
487 163 2 -1.1794 5.898329957783864 4.889015704504612 9.320866565461639 0 0 0
495 165 1 0.5897 1.388205473416409 3.286488565694606 11.317295891821539 0 0 0
1347 449 1 0.5897 4.44087488727514 0.39032299313133156 11.170162784584273 0 1 0
531 177 1 0.5897 10.734760044803362 4.256286601725175 6.545178416040467 0 0 0
526 176 2 -1.1794 6.273133156629819 1.2785977797342942 7.753930795122802 0 0 0
659 220 1 0.5897 6.968908503694919 6.069743276031416 10.135106497474421 0 0 0
44 15 1 0.5897 7.6950200337345755 3.2344883620602403 5.811327498055676 0 0 0
529 177 2 -1.1794 10.894515850359397 3.3133243581194276 6.585426219709527 0 0 0
532 178 2 -1.1794 7.640513278791819 4.512469249760094 7.1939166392932234 0 0 0
533 178 1 0.5897 7.564116440387139 5.198684665705203 6.530949728427415 0 0 0
514 172 2 -1.1794 8.970711448169544 1.6474829442151209 7.787156745664683 0 0 0
515 172 1 0.5897 8.023234265320324 1.5136865259080075 7.762965443849222 0 0 0
1010 337 1 0.5897 10.695344580982688 2.919209094157746 11.212160507519158 0 0 0
558 186 1 0.5897 12.030046736917193 2.1603216207559166 7.359987575849062 0 0 0
535 179 2 -1.1794 10.557457875213865 6.072461628369234 6.4315463172853296 0 0 0
530 177 1 0.5897 10.163654637172344 2.9677232656659145 7.097888470738676 0 0 0
513 171 1 0.5897 11.347212345274235 1.5854955861697329 9.343326385895589 0 0 0
519 173 1 0.5897 11.178983619901643 4.746877405143715 9.34964460922386 0 0 0
517 173 2 -1.1794 12.126499425297219 4.749737160898958 9.213984053597043 0 0 0
538 180 2 -1.1794 7.437408777349 0.30435768555131376 10.559251303238263 0 0 0
1377 459 1 0.5897 10.793135951645658 0.08127456739924127 11.189742108329302 0 1 0
511 171 2 -1.1794 10.57641755022797 1.6730105590509008 9.904049058974621 0 0 0
516 172 1 0.5897 9.332063158569088 0.8879382713793494 7.330224725342297 0 0 0
523 175 2 -1.1794 7.561331735869023 3.1092312569216443 10.795842370974263 0 0 0
488 163 1 0.5897 6.211553624224609 4.235147986117461 9.945843627764884 0 0 0
520 174 2 -1.1794 9.432711146582074 4.684934435904397 9.422224317162117 0 0 0
525 175 1 0.5897 7.527426094950508 2.156962179998401 10.704456497767593 0 0 0
534 178 1 0.5897 6.9213748784444835 4.684826596348366 7.801640605486158 0 0 0
521 174 1 0.5897 9.060073901540074 5.359007197951658 9.990577266714519 0 0 0
522 174 1 0.5897 8.844270176791632 4.654902004884987 8.667880107167518 0 0 0
524 175 1 0.5897 8.289204653873373 3.378345902979575 10.235503160508184 0 0 0
512 171 1 0.5897 9.834662252361793 1.5281485144673401 9.316674244023046 0 0 0
896 299 1 0.5897 11.373421424367535 0.08682164249568558 7.095765894673915 0 1 0
539 180 1 0.5897 8.23174738704324 0.011515186239869024 10.112623587872637 0 0 0
961 321 2 -1.1794 4.543541322944031 1.682642187591369 15.670616143434831 0 0 0
962 321 1 0.5897 5.229782199562849 1.6954308908894922 15.003455909343067 0 0 0
963 321 1 0.5897 4.791642722350341 0.9674015116344643 16.25639875660068 0 0 0
964 322 2 -1.1794 2.888726563194259 1.6641438185249164 13.395440688027389 0 0 0
965 322 1 0.5897 3.2668741535819423 1.6631204865757252 14.274753456867272 0 0 0
966 322 1 0.5897 1.960685568533182 1.4744179674175732 13.53308773121548 0 0 0
970 324 2 -1.1794 3.2332661738118302 4.667131120123535 14.829665084944496 0 0 0
971 324 1 0.5897 4.169661128293271 4.513508281933746 14.955229574044397 0 0 0
972 324 1 0.5897 2.8085661652783034 3.9242738079646022 15.258692402276894 0 0 0
973 325 2 -1.1794 1.5594906647146152 2.815677996641484 16.39524915177701 0 0 0
975 325 1 0.5897 0.763512229547576 3.1610174278052345 15.991055245479535 0 0 0
982 328 2 -1.1794 1.34331905347953 4.479624254386547 12.704882476720385 0 0 0
983 328 1 0.5897 1.2604270049688817 5.2673679606471495 12.16742129194077 0 0 0
984 328 1 0.5897 2.014616175551909 4.699413598741993 13.350831734099875 0 0 0
980 327 1 0.5897 3.894654190986066 2.808675307581883 12.276375401515393 0 0 0
981 327 1 0.5897 5.392661835368385 2.8760452871941324 12.484321882918321 0 0 0
979 327 2 -1.1794 4.67940519961901 3.2720349763842522 11.983650736575783 0 0 0
990 330 1 0.5897 1.7010759094806274 0.9344470702859512 16.579580040700584 0 0 0
986 329 1 0.5897 4.693107607331929 5.001365774337576 12.09239950512197 0 0 0
967 323 2 -1.1794 5.865874917800377 4.448955989102848 14.991768284312071 0 0 0
1346 449 1 0.5897 3.7652889957095814 0.46666656912747534 12.522768840270622 0 1 0
1110 370 1 0.5897 2.208638491649228 5.803105721605312 16.009709989742127 0 0 0
1008 336 1 0.5897 6.092800191378753 0.8177788514318615 12.97222470683885 0 0 0
985 329 2 -1.1794 4.795845280890304 5.950534477224232 12.022828261543049 0 0 0
988 330 2 -1.1794 1.560177585535209 0.012938484278379854 16.362134488110915 0 0 0
976 326 2 -1.1794 0.12401493990774949 1.3907015609890236 13.656731399674685 0 0 0
1109 370 1 0.5897 0.7030316483497727 5.947730455784413 15.946035460324369 0 0 0
968 323 1 0.5897 6.153673191906236 5.276501307983259 15.377288958231263 0 0 0
1018 340 2 -1.1794 7.686341295788706 0.16553517641145685 16.24368778577135 0 0 0
1006 336 2 -1.1794 6.300253200304386 1.580155873458586 13.512607787037592 0 0 0
969 323 1 0.5897 6.430445119738502 3.788127063338314 15.392791890573854 0 0 0
1017 339 1 0.5897 10.745771316805508 5.1507224871915 11.975220011841841 0 0 0
991 331 2 -1.1794 10.726369270767085 1.5846788784576635 15.565172224641683 0 0 0
992 331 1 0.5897 11.472767905298596 1.5557606922755618 14.966636899853954 0 0 0
993 331 1 0.5897 10.867248752452252 0.8482273350625728 16.160206595562208 0 0 0
994 332 2 -1.1794 9.102109559593048 1.6625002598849923 13.353507853351855 0 0 0
995 332 1 0.5897 9.560455403929646 2.3749651407021988 12.907890516925297 0 0 0
998 333 1 0.5897 11.299879715030562 4.875178125807109 14.964197959523663 0 0 0
1000 334 2 -1.1794 9.51848737454549 4.791060441164117 15.056006233631754 0 0 0
1001 334 1 0.5897 9.055619150643397 4.0824887943828925 15.50315192763067 0 0 0
1002 334 1 0.5897 9.114421547330528 4.832242020352715 14.189273053699898 0 0 0
1003 335 2 -1.1794 7.614215509823996 2.8853879181906286 16.405952305461998 0 0 0
1004 335 1 0.5897 7.73421665194629 1.9555621474133358 16.59918480593479 0 0 0
1007 336 1 0.5897 7.2567932019531 1.613469939873457 13.523481258726529 0 0 0
1012 338 2 -1.1794 7.690644645019531 4.890582480337219 12.877715400120056 0 0 0
1014 338 1 0.5897 7.734208665002697 4.113285837999438 12.320768886396142 0 0 0
1011 337 1 0.5897 11.490626280395462 3.0193533160210344 12.49640558981912 0 0 0
1009 337 2 -1.1794 10.750172210007594 3.409834567145322 12.032222523645057 0 0 0
996 332 1 0.5897 9.525638441911623 1.6032194389605383 14.209836180516188 0 0 0
1013 338 1 0.5897 6.976814838759517 4.708232766418031 13.488772990351276 0 0 0
1015 339 2 -1.1794 10.728335732672207 6.107788005284343 11.968799677295387 0 0 0
1376 459 1 0.5897 10.219379004845742 0.24780330912460335 12.580733393422213 0 1 0
1038 346 1 0.5897 12.226840972040252 0.9965654824452781 12.797642644069478 0 0 0
1490 497 1 0.5897 10.942791018587544 2.7774919843977592 17.04704723837526 0 0 0
1139 380 1 0.5897 8.310432355823492 6.102465787314452 15.844310457720901 0 0 0
660 220 1 0.5897 7.608180466216749 6.149610225797591 11.505051018065178 0 0 0
997 333 2 -1.1794 12.253730260064689 4.814743248092148 15.016308255555069 0 0 0
1460 487 1 0.5897 4.633026841461819 2.687450672287576 17.108966598991575 0 0 0
974 325 1 0.5897 1.5545045278238128 3.1766588931326267 17.28174336266381 0 0 0
1468 490 2 -1.1794 1.6324898939201458 0.08519262273806535 21.905348735559826 0 0 0
1539 513 1 0.5897 0.42180138575892695 5.293419548648072 21.16783316188056 1 0 0
1538 513 1 0.5897 0.38392757534332167 3.78003169028411 21.186319374875975 1 0 0
1454 485 1 0.5897 2.5166960617643417 3.254876938431284 21.558953696552653 0 0 0
1464 488 1 0.5897 0.9699353033150602 4.71877680714304 19.231525704117516 0 0 0
1443 481 1 0.5897 4.767819951028708 2.3432440161845776 22.028925982591584 0 0 0
1450 484 2 -1.1794 3.478783910866716 4.613127362119946 20.69496781232954 0 0 0
1469 490 1 0.5897 1.734330634960423 1.0297484355591868 22.02265925681339 0 0 0
1442 481 1 0.5897 4.1455165452651785 1.6767094794919295 20.820490854142925 0 0 0
1453 485 2 -1.1794 1.8034052745204314 2.8313592747558696 22.03652190381196 0 0 0
1444 482 2 -1.1794 3.0857437521394684 1.2497408194824426 19.381704566899845 0 0 0
1463 488 1 0.5897 1.5598180357250842 5.154164474844145 17.907031231642073 0 0 0
1452 484 1 0.5897 3.1899742311988444 4.571639389491693 19.78334607773953 0 0 0
1441 481 2 -1.1794 4.895791212937703 1.6223124930864865 21.412370395521844 0 0 0
1451 484 1 0.5897 4.433133867157688 4.664457220782753 20.6422622703755 0 0 0
1445 482 1 0.5897 2.137623610876067 1.1570079400855628 19.474796553877322 0 0 0
1446 482 1 0.5897 3.1971554056864724 1.994112345085112 18.790296849734872 0 0 0
1461 487 1 0.5897 5.425265495702169 2.7514221180076324 18.39739901099836 0 0 0
1459 487 2 -1.1794 4.726737532062019 3.1942611317530853 17.915556983093005 0 0 0
1462 488 2 -1.1794 1.550525292162878 4.4265166866964405 18.528887267711063 0 0 0
1466 489 1 0.5897 4.401055831285441 4.963071851080068 17.66856500318489 0 0 0
1456 486 2 -1.1794 0.31116094154329893 1.232412308387428 19.290836011356504 0 0 0
1447 483 2 -1.1794 6.159365866158596 4.715686079805091 20.666343893057853 0 0 0
1487 496 1 0.5897 6.059684566686433 1.5381505718684099 20.098992484565034 0 0 0
1465 489 2 -1.1794 4.36148645489508 5.914942148173276 17.575326598619302 0 0 0
1590 530 1 0.5897 2.351628232256183 5.877619529501545 21.58447643071423 0 0 0
1826 609 1 0.5897 4.092463449124939 0.048838798880720624 18.215264959582257 0 1 0
1488 496 1 0.5897 6.061517867068827 0.8420252309366644 18.754649045798036 0 0 0
386 129 1 0.5897 4.8373879908817266 0.3483888354963514 22.66430288259008 0 1 -1
51 17 1 0.5897 10.917130064871804 2.949341080814245 22.677041046911302 0 0 -1
1620 540 1 0.5897 8.622508922373827 5.887599583034316 21.497342049532485 0 0 0
1005 335 1 0.5897 7.532632054098867 3.3004052365157412 17.264623206222346 0 0 0
1492 498 2 -1.1794 7.795769175289675 4.462103639976662 18.531011977026676 0 0 0
1449 483 1 0.5897 6.4768678601860445 3.9549711382603068 21.152940968589206 0 0 0
1475 492 1 0.5897 8.304273687989587 1.415568033544335 19.095803578036215 0 0 0
1481 494 1 0.5897 10.476514624380844 4.513823194542332 20.805688633641907 0 0 0
1517 506 1 0.5897 12.24208536895182 2.000920514283877 18.49612324533713 0 0 0
1448 483 1 0.5897 6.602092019503891 5.461541948276108 21.071263401963883 0 0 0
1476 492 1 0.5897 9.557183869102756 0.7140543320473074 18.6162557666047 0 0 0
1856 619 1 0.5897 11.657493204087569 0.08301222197443985 18.078634391925252 0 1 0
1485 495 1 0.5897 7.75548510082422 2.0096534766341394 22.27952261748044 0 0 0
1496 499 1 0.5897 10.814666824801714 4.983809046972212 17.815593268697853 0 0 0
1473 491 1 0.5897 10.365494522422644 1.7146273069332494 20.666182066754413 0 0 0
1477 493 2 -1.1794 12.26528948331489 4.6155778154108775 20.57649094343279 0 0 0
1483 495 2 -1.1794 7.755978676996497 2.9660417531696597 22.23889867884774 0 0 0
1471 491 2 -1.1794 11.042035210614138 1.7514367445512447 21.342297576039876 0 0 0
1518 506 1 0.5897 12.343787008885496 1.3879300872847982 19.876605309921892 0 0 0
1486 496 2 -1.1794 6.4971124336930055 1.5373712579896537 19.247615015729593 0 0 0
1491 497 1 0.5897 10.166807555959341 2.691432121563905 18.344055976660698 0 0 0
1484 495 1 0.5897 8.477704989972766 3.180779169400522 21.647969968513223 0 0 0
1494 498 1 0.5897 7.192886281766877 4.5318357412345724 19.271191116224603 0 0 0
1472 491 1 0.5897 10.911740313864755 0.9541892914593133 21.855814245491565 0 0 0
1489 497 2 -1.1794 10.898489220588704 3.1477847109901913 17.928595478830506 0 0 0
1482 494 1 0.5897 9.305851843435104 4.372697176535649 19.856250392285148 0 0 0
1480 494 2 -1.1794 9.532896238215505 4.354468793783303 20.785930752815784 0 0 0
1493 498 1 0.5897 7.643301974935595 5.257999330941081 18.021520651234184 0 0 0
1474 492 2 -1.1794 9.253803749321648 1.3964320986046876 19.21506852744527 0 0 0
1495 499 2 -1.1794 10.705658126146172 5.934238866669447 17.84900679139476 0 0 0
1498 500 2 -1.1794 7.842387859141199 0.28744851317987063 22.159656014930952 0 0 0
121 41 2 -1.1794 4.556968381326106 7.644972575603673 4.2592510250394815 0 0 0
122 41 1 0.5897 3.881093215503269 7.638995443575576 3.581499168390625 0 0 0
123 41 1 0.5897 5.381749755734616 7.5947679805160355 3.7761269459168054 0 0 0
124 42 2 -1.1794 3.033245407135638 7.5901670833556825 2.0624787377099545 0 0 0
125 42 1 0.5897 3.3000499784119395 6.817789538870793 1.563960469395528 0 0 0
126 42 1 0.5897 3.5651168926526733 8.30160953527116 1.7057913151169493 0 0 0
129 43 1 0.5897 5.131176048017212 10.699424249779945 3.359813118924441 0 0 0
130 44 2 -1.1794 3.2409468161493415 10.855571967287174 3.3947013535200496 0 0 0
132 44 1 0.5897 2.9197127857831684 10.0621943037901 3.823230828695587 0 0 0
133 45 2 -1.1794 1.6766443732846308 9.023416252764983 4.713006354937943 0 0 0
135 45 1 0.5897 0.9677961172232321 9.430850793549943 4.215265376166225 0 0 0
137 46 1 0.5897 1.1492502434382086 7.80400180840442 2.2705616477144606 0 0 0
139 47 2 -1.1794 4.6941948207962 9.496957227888707 0.8341689463464336 0 0 0
142 48 2 -1.1794 1.2928899778035778 10.813416506382987 1.3235389818533667 0 0 0
143 48 1 0.5897 2.0130833540723936 10.891235157978548 1.9492057332435344 0 0 0
144 48 1 0.5897 1.482578618887009 11.47276621524298 0.6560634333781896 0 0 0
149 50 1 0.5897 1.6403257249427725 7.150494372411823 4.724661062844863 0 0 0
131 44 1 0.5897 2.938338982446298 11.57031281078093 3.954911000772701 0 0 0
140 47 1 0.5897 4.833035368946672 10.439858129730087 0.7448625117677496 0 0 0
168 56 1 0.5897 6.07732591375426 8.333853204477183 1.87334932496089 0 0 0
148 50 2 -1.1794 1.5564691173183482 6.197222994031723 4.748389781052805 0 0 0
127 43 2 -1.1794 6.0499708571082 10.538224801687091 3.5743609086699606 0 0 0
136 46 2 -1.1794 0.2048850780825123 7.953110383880797 2.3168603564960555 0 0 0
218 73 1 0.5897 0.07950336740154576 10.976620338280574 2.800115393016772 1 0 0
26 9 1 0.5897 5.40963387349253 6.304560377023383 1.2701704932562765 0 0 0
145 49 2 -1.1794 4.818680297742176 12.183180917238094 0.7033171481629509 0 0 0
270 90 1 0.5897 0.8079564456345811 12.209832571934824 4.514528428076613 0 0 0
621 207 1 0.5897 4.65436582642912 8.837394053162942 5.498965614481597 0 0 0
507 169 1 0.5897 4.619097989504812 6.440066188276658 5.462856232474762 0 0 0
146 49 1 0.5897 4.031729417661678 12.362141795342152 1.2179804228942193 0 0 0
134 45 1 0.5897 1.7253393868081066 9.532721983039753 5.521994540944968 0 0 0
1574 525 1 0.5897 1.524426888261886 9.476080476574907 0.09891113832709664 0 0 1
128 43 1 0.5897 6.324755895242296 11.319146060065366 4.054911371565434 0 0 0
197 66 1 0.5897 12.257866018251756 8.243816405614433 1.5428750400923994 0 0 0
166 56 2 -1.1794 6.411713918383725 7.507353537183327 2.221729494220727 0 0 0
151 51 2 -1.1794 10.884738275785491 7.8031036683921355 4.227006275626767 0 0 0
152 51 1 0.5897 10.074131541290495 7.745953914704228 3.7211952545320606 0 0 0
153 51 1 0.5897 10.782197917362868 7.150005416801137 4.91924509437085 0 0 0
154 52 2 -1.1794 9.080534987428354 7.655605537228626 2.083492634679648 0 0 0
155 52 1 0.5897 9.420120593801094 8.400361423362675 1.5872160405583717 0 0 0
156 52 1 0.5897 9.382556461087686 6.886902142847993 1.5995990291345672 0 0 0
158 53 1 0.5897 11.36574535971788 10.97816793436867 3.3931869862980815 0 0 0
160 54 2 -1.1794 9.534903422495569 10.751647321451978 3.6474766890651074 0 0 0
161 54 1 0.5897 9.124109650464476 10.815590976096267 2.7852991361927066 0 0 0
162 54 1 0.5897 9.005667853137087 10.10785257004232 4.11831596050108 0 0 0
163 55 2 -1.1794 7.810645291602066 9.063135308663144 4.97111034606132 0 0 0
164 55 1 0.5897 7.048409275841453 9.350235424508838 4.468340623445195 0 0 0
167 56 1 0.5897 7.361861085004021 7.5738795013351625 2.1269032946365325 0 0 0
169 57 2 -1.1794 10.890329052537073 9.413072826496192 0.8131313870788924 0 0 0
172 58 2 -1.1794 7.809617856758988 10.956921077249108 1.52479462314109 0 0 0
173 58 1 0.5897 7.810980872942103 10.224905309716954 0.90801680506145 0 0 0
174 58 1 0.5897 7.0506896627879465 10.79671677946202 2.085652550796511 0 0 0
179 60 1 0.5897 7.772602606543195 7.283214037259182 5.1239979415233945 0 0 0
171 57 1 0.5897 10.831778059287274 10.358773122975503 0.6769668379162299 0 0 0
178 60 2 -1.1794 7.628557700015632 6.336877751470675 5.120299198910274 0 0 0
175 59 2 -1.1794 10.79063540668519 12.143358850420327 0.8370869178290424 0 0 0
650 217 1 0.5897 10.964519006289644 9.218704074505801 5.422572980682094 0 0 0
57 19 1 0.5897 11.368787759598982 6.228151587311914 1.266502700848941 0 0 0
300 100 1 0.5897 8.339603840806518 12.098994965877518 4.289300987028265 0 0 0
299 100 1 0.5897 7.6725132737134825 11.987393425034954 5.643672023671626 0 0 0
198 66 1 0.5897 12.180624825263926 7.643987727502336 2.9307050515512083 0 0 0
157 53 2 -1.1794 12.315882810037856 11.008196281029845 3.5051465466154457 0 0 0
616 206 2 -1.1794 0.22403876188317118 7.754392754220907 7.877707718516794 0 0 0
698 233 1 0.5897 0.372706549786233 11.459473694590852 9.79527625786056 1 0 0
628 210 2 -1.1794 1.4197574292694501 6.3462284686179995 10.667993666694503 0 0 0
506 169 1 0.5897 4.030109402484333 6.3226076440441545 6.8524909028169505 0 0 0
699 233 1 0.5897 0.4250500888163659 10.928969151657526 8.378360697059247 1 0 0
603 201 1 0.5897 3.90843457157777 7.687084949090997 9.331526592685512 0 0 0
630 210 1 0.5897 1.5538319685936117 7.288384078031312 10.771359042092774 0 0 0
601 201 2 -1.1794 4.614626235258518 7.84125370618848 9.959001278410724 0 0 0
622 208 2 -1.1794 1.3597259920673812 10.801756016914343 6.86334305674203 0 0 0
605 202 1 0.5897 3.2077541776686185 8.260920779331407 7.146335441729094 0 0 0
619 207 2 -1.1794 4.564310907993884 9.371122856441364 6.2884274454022355 0 0 0
604 202 2 -1.1794 2.926979856714477 7.554154518503968 7.727633144576454 0 0 0
615 205 1 0.5897 0.8174326393166105 9.361990015043748 10.231727207848524 0 0 0
612 204 1 0.5897 2.816262456548155 11.410387883874177 9.620334828950933 0 0 0
620 207 1 0.5897 5.286008063141138 9.090755396111167 6.851233207085635 0 0 0
610 204 2 -1.1794 3.238818414037138 10.763787345880512 9.05500149492209 0 0 0
614 205 1 0.5897 2.312994588836594 9.535400579914459 10.073508593954278 0 0 0
626 209 1 0.5897 4.569562100572936 11.169221989319142 6.337879312070065 0 0 0
623 208 1 0.5897 2.1674858705357365 10.797552040571281 7.3768601884258365 0 0 0
611 204 1 0.5897 4.174903163666862 10.943089994554375 9.143303350943235 0 0 0
602 201 1 0.5897 4.568525384355951 7.097410548129456 10.559702090835323 0 0 0
606 202 1 0.5897 1.9769977228814712 7.655274021058749 7.786866571191608 0 0 0
613 205 2 -1.1794 1.6549973248020025 9.086238962295061 10.604086897815373 0 0 0
624 208 1 0.5897 1.4144905107218408 11.599014589418116 6.3364117707806376 0 0 0
647 216 1 0.5897 5.838717847598485 7.798812715049771 8.559674578403497 0 0 0
648 216 1 0.5897 5.931989741250686 6.975361554935339 7.292747064292152 0 0 0
625 209 2 -1.1794 4.442067551157634 12.117633270207648 6.313811703370577 0 0 0
607 203 2 -1.1794 5.924326701457646 10.920062778382741 9.050127083199966 0 0 0
1101 367 1 0.5897 4.494189568571409 8.935272014023251 11.277060366901015 0 0 0
678 226 1 0.5897 12.157477261182757 8.486392765163368 7.168149095312811 0 0 0
633 211 1 0.5897 10.789729654825111 7.279833279054223 10.411632789550353 0 0 0
649 217 2 -1.1794 10.937546957969838 9.649054284308374 6.2771398985892715 0 0 0
165 55 1 0.5897 7.771850330725866 9.574965286482785 5.779038893446078 0 0 0
642 214 1 0.5897 9.025360693665814 10.409026831244278 9.614084574008778 0 0 0
655 219 2 -1.1794 10.790888783832312 12.336401504135 6.377544184142445 0 0 0
643 215 2 -1.1794 7.634620262168037 9.341370181064956 10.444360918258907 0 0 0
779 260 1 0.5897 8.332252988803628 12.286995714161476 10.161488523611181 0 0 0
657 219 1 0.5897 10.91882781381607 11.389096448536783 6.326941358178267 0 0 0
637 213 2 -1.1794 12.171892740322551 10.742376512354975 9.186468661756114 0 0 0
658 220 2 -1.1794 7.668088559892073 6.5085108671179235 10.61972230093809 0 0 0
640 214 2 -1.1794 9.398874060904573 11.177068203391832 9.181792310127806 0 0 0
654 218 1 0.5897 8.582974956279145 10.869662764293732 7.565273754460188 0 0 0
645 215 1 0.5897 7.64849484742275 8.390141989928505 10.55061379125331 0 0 0
536 179 1 0.5897 11.332920797713017 6.310345153392011 6.939748096506174 0 0 0
651 217 1 0.5897 10.268594823055809 9.169848227992825 6.766108285657147 0 0 0
609 203 1 0.5897 6.385323086454599 10.309874711070012 9.625795872155791 0 0 0
634 212 2 -1.1794 9.041125899860022 7.983261372969933 7.754264906110097 0 0 0
537 179 1 0.5897 9.839708986538032 6.544356503963781 6.853892390134283 0 0 0
635 212 1 0.5897 9.407964457663738 8.141182955407865 8.6241426760391 0 0 0
608 203 1 0.5897 6.394621995646626 11.747605895722325 9.15153551482843 0 0 0
646 216 2 -1.1794 6.325354515493311 7.725466301244172 7.738702969636566 0 0 0
641 214 1 0.5897 10.344003895581311 11.026723744932674 9.199978540441732 0 0 0
652 218 2 -1.1794 7.764901264603095 10.785017486714631 7.075589016109057 0 0 0
632 211 1 0.5897 11.49749845340055 7.974259704200442 9.267651309051997 0 0 0
636 212 1 0.5897 8.10682353011894 7.844596681417542 7.909371511797048 0 0 0
631 211 2 -1.1794 10.810531948234418 8.101994030177691 9.921834318170099 0 0 0
653 218 1 0.5897 7.089334166885681 10.704960240745319 7.748932933666575 0 0 0
1130 377 1 0.5897 10.626709502616228 9.139675629067026 11.353631936122664 0 0 0
644 215 1 0.5897 7.537355165848598 9.68086042597492 11.334021339184234 0 0 0
1081 361 2 -1.1794 4.575356369453156 7.756356812605245 15.663218556975748 0 0 0
1082 361 1 0.5897 4.684997309620275 8.489556972854071 16.268742007791317 0 0 0
1083 361 1 0.5897 4.432334920533681 6.997356422704537 16.228670962438887 0 0 0
1084 362 2 -1.1794 2.9932942132425366 7.6246185950890295 13.396095043221854 0 0 0
1085 362 1 0.5897 3.3333018619899923 7.66388728178388 14.28998504878579 0 0 0
1086 362 1 0.5897 3.456122919172994 8.322514534361913 12.932425687199613 0 0 0
1089 363 1 0.5897 5.055727151969516 10.832495875955441 14.944908016668775 0 0 0
1090 364 2 -1.1794 3.3026150676128023 11.04045339212945 14.989093781807846 0 0 0
1091 364 1 0.5897 2.7686083835718085 11.746461702034477 15.353304595086884 0 0 0
1092 364 1 0.5897 2.9772341713864963 10.24827572675242 15.41671704395577 0 0 0
1095 365 1 0.5897 0.9896967146912585 9.360974948561118 15.985671918619424 0 0 0
1097 366 1 0.5897 1.1262087065727018 7.5428137081473325 13.363496244872273 0 0 0
1099 367 2 -1.1794 4.517845188559528 9.48254761004479 12.06201932067409 0 0 0
1102 368 2 -1.1794 1.7168757455397348 10.826525586892739 12.750347285813874 0 0 0
1104 368 1 0.5897 2.424319468043108 10.85223540515867 13.394594465031327 0 0 0
1093 365 2 -1.1794 1.6893689457660739 9.004640761602065 16.533119147459196 0 0 0