LAMMPS data file via write_data, version 30 Jul 2021, timestep = 42750000

972 atoms
2 atom types
648 bonds
1 bond types
324 angles
1 angle types

0.06112758662975892 19.93887341333388 xlo xhi
0.033767583505907695 19.966233416472654 ylo yhi
0.01162408784627722 20.688373912143824 zlo zhi

Masses

1 1.008
2 15.999

Pair Coeffs # lj/cut/tip4p/long/omp

1 0 0
2 0.21084 3.1668

Bond Coeffs # harmonic/omp

1 450 0.9572

Angle Coeffs # harmonic/omp

1 55 104.52

Atoms # full

10 4 2 -1.1794 1.459378691524409 4.172307458991346 3.999961618325693 0 0 0
11 4 1 0.5897 1.2820183225853135 3.419636810819282 3.435892068257614 0 0 0
12 4 1 0.5897 2.4137162069130933 4.2456263290182665 4.009298350189177 0 0 0
33 11 1 0.5897 1.599983900588728 2.346436879412122 1.4773877388227508 0 0 0
31 11 2 -1.1794 0.9419664540933822 2.230318829180547 2.1626782341791344 0 0 0
18 6 1 0.5897 4.243528093797817 3.274599881162088 3.3953490290206894 0 0 0
4 2 2 -1.1794 4.165394095106246 1.4403823770843416 3.3039320032311617 0 0 0
16 6 2 -1.1794 4.1818394112173065 4.188367369479624 3.673658631711982 0 0 0
23 8 1 0.5897 2.598017518131412 1.1099681172051674 4.317270494596135 0 0 0
5 2 1 0.5897 4.286748263715485 0.8325829242886533 2.5745885997180484 0 0 0
17 6 1 0.5897 4.339631836640367 4.6934165140612425 2.876109446224707 0 0 0
111 37 1 0.5897 3.619334497121382 9.431189462242315 0.29124374258989927 0 0 0
236 79 1 0.5897 0.9077489161858676 0.490786484298529 1.9860808045128902 0 1 0
674 225 1 0.5897 2.0127411121670984 5.657837906993419 0.7343000556008293 0 0 1
22 8 2 -1.1794 1.940403962027048 0.9314792005598039 4.98942455210939 0 0 0
3 1 1 0.5897 3.593062159927964 2.544992924639568 0.18194423881444258 0 0 0
114 38 1 0.5897 3.3768369030202434 7.801917985411167 3.8947566699818967 0 0 0
139 47 2 -1.1794 0.9927918478680808 8.827343994293567 1.979428182711055 0 0 0
14 5 1 0.5897 4.183861317726008 5.757578668955988 0.9397788904613186 0 0 0
112 38 2 -1.1794 4.147804552978078 7.934127592987185 3.3431556393656208 0 0 0
6 2 1 0.5897 4.835983510434023 1.1896907349516765 3.9392055747895123 0 0 0
141 47 1 0.5897 1.1257000558216024 7.921658335031464 2.259259296153999 0 0 0
130 44 2 -1.1794 2.1869272813886034 7.558643847698592 5.176050917475263 0 0 0
13 5 2 -1.1794 4.807124028100427 5.880465350335738 1.6556916934552095 0 0 0
140 47 1 0.5897 1.2358975780668553 9.352322857336254 2.741908929370869 0 0 0
126 42 1 0.5897 4.387999724491 9.735132601259139 3.3295730250921385 0 0 0
15 5 1 0.5897 4.4923190937950945 6.657774118112715 2.117082284437464 0 0 0
19 7 2 -1.1794 1.0219957033775466 6.0936060475835285 2.1717512598507462 0 0 0
20 7 1 0.5897 1.2171184833934925 5.41611169188678 2.819099575801705 0 0 0
110 37 1 0.5897 2.1962868412055787 9.335326309662685 0.7987271323605794 0 0 0
32 11 1 0.5897 0.10771642642777007 2.4023065800403076 1.726091165358716 0 0 0
132 44 1 0.5897 1.2301951643665043 7.586912386087053 5.166681641036873 0 0 0
1 1 2 -1.1794 2.6497075068941163 2.6622921231028647 0.06994845861128632 0 0 0
113 38 1 0.5897 4.889601911952219 7.83834919445969 3.9403943664272303 0 0 0
102 34 1 0.5897 0.13857981017587429 0.8760156389455154 5.053676605008634 1 0 0
21 7 1 0.5897 0.11161168586632897 5.933138122951387 1.9234352908148653 0 0 0
673 225 2 -1.1794 2.664488701888506 5.446922897511426 0.06583585227139821 0 0 1
325 109 2 -1.1794 2.6123245597281683 2.5281990699322088 7.178115549433623 0 0 0
326 109 1 0.5897 2.4463487692255708 2.0063698844888895 6.3931226602298725 0 0 0
327 109 1 0.5897 3.5553774679808074 2.4509390914172395 7.322662604134377 0 0 0
355 119 2 -1.1794 0.7841047969461789 1.9050587215936217 9.087792565603676 0 0 0
356 119 1 0.5897 1.523754388631572 2.0676053369921665 8.502445992118492 0 0 0
27 9 1 0.5897 2.736037159503171 4.261683817498114 6.624793746046707 0 0 0
329 110 1 0.5897 4.228647807836772 0.6487042561184165 9.496506189756996 0 0 0
342 114 1 0.5897 4.175822699053483 4.76324534650819 9.851772580682988 0 0 0
328 110 2 -1.1794 4.083273793805868 1.4063211289362232 10.063111299147613 0 0 0
344 115 1 0.5897 0.9287732105203124 5.304694322946288 9.281796463040504 0 0 0
337 113 2 -1.1794 4.394019720311933 6.040936868587711 8.53061708309521 0 0 0
335 112 1 0.5897 1.0725446075678366 3.28081332122928 10.20004728801132 0 0 0
561 187 1 0.5897 0.7542861115862862 0.10042135848731522 8.79346243098397 0 1 0
435 145 1 0.5897 2.48303411028603 8.662289190641289 6.529189280058394 0 0 0
433 145 2 -1.1794 2.7377971000216927 9.125928062006514 7.326808253338552 0 0 0
345 115 1 0.5897 0.8243260525543953 6.728790122804759 8.778878727809929 0 0 0
437 146 1 0.5897 4.228515900151881 7.595300081610351 9.46588155820906 0 0 0
339 113 1 0.5897 3.9329783730455663 5.74755030027885 7.744850938274378 0 0 0
463 155 2 -1.1794 0.8225373193991843 8.457064407939361 9.158087724606636 0 0 0
468 156 1 0.5897 4.543342268589147 9.085778313963198 7.269523170318227 0 0 0
438 146 1 0.5897 4.19231117140373 9.008201627712836 10.00835062728736 0 0 0
26 9 1 0.5897 2.012024007131882 5.462243997418708 7.196023086465859 0 0 0
131 44 1 0.5897 2.3980410495241364 6.695040728357418 5.5307925214366165 0 0 0
343 115 2 -1.1794 0.7541135748342588 5.817960888056116 8.493052352959737 0 0 0
25 9 2 -1.1794 2.725192703062071 5.218650792925335 6.6059498805563575 0 0 0
464 155 1 0.5897 1.4655862513023923 8.733083156917528 8.505084313521031 0 0 0
341 114 1 0.5897 4.022061299932443 3.304786894001159 10.227513328964204 0 0 0
24 8 1 0.5897 2.2281836719966863 0.1138784391122627 5.395523568008218 0 0 0
443 148 1 0.5897 0.9945630212403029 9.880929085030852 10.24728379780831 0 0 0
436 146 2 -1.1794 4.238028962709543 8.09257317553744 10.28361308140225 0 0 0
81 27 1 0.5897 0.10572929429489264 4.459046214709022 5.182234742841633 1 0 0
649 217 2 -1.1794 2.675340477562633 2.4414727553403868 13.824077690486739 0 0 0
650 217 1 0.5897 2.477215069798768 1.7989153935779532 13.142917149362948 0 0 0
651 217 1 0.5897 2.0199478302527476 2.281195134668277 14.502955697512434 0 0 0
348 116 1 0.5897 2.629319461494565 0.8839297899946529 11.075323162325114 0 0 0
346 116 2 -1.1794 2.136330835143196 0.5917296252659078 11.841908763568576 0 0 0
350 117 1 0.5897 2.4505977110860973 4.241861461502451 13.464737685177823 0 0 0
347 116 1 0.5897 1.221312672008916 0.7611888399688683 11.61777328999022 0 0 0
683 228 1 0.5897 4.449860841742419 2.6536794814714124 14.303884422008066 0 0 0
336 112 1 0.5897 2.110030036984017 4.145312804230388 10.88418793418097 0 0 0
330 110 1 0.5897 4.612637319911286 1.229443111912901 10.840639215055194 0 0 0
334 112 2 -1.1794 1.1839069469658012 4.121746101989007 10.643467601617608 0 0 0
340 114 2 -1.1794 3.972099524973186 4.1892441033052075 10.590088899623835 0 0 0
757 253 2 -1.1794 2.8511993977161167 9.183657330106278 14.141337819657325 0 0 0
661 221 2 -1.1794 4.562231033495583 5.712781989246777 15.346124275769224 0 0 0
533 178 1 0.5897 0.26990200988897517 7.573925943151441 12.101656138888046 1 0 0
351 117 1 0.5897 3.2425466503818265 5.402441663396005 14.028398017824472 0 0 0
759 253 1 0.5897 2.6390945245598907 8.643894513760207 13.379926335779166 0 0 0
668 223 1 0.5897 1.234086748772431 5.502190199331202 14.794036854477023 0 0 0
455 152 1 0.5897 2.727401610387528 7.6292353009806355 11.332590751551368 0 0 0
456 152 1 0.5897 2.2653590089145657 6.651025537243091 12.391477465339136 0 0 0
454 152 2 -1.1794 2.084027454064519 7.519714826754808 12.03270747257845 0 0 0
792 264 1 0.5897 4.67571560923542 9.214264948115124 14.208330671903058 0 0 0
349 117 2 -1.1794 2.468625058485102 5.198118481655317 13.50356568455828 0 0 0
789 263 1 0.5897 1.6389319956511303 8.607777634922659 15.388876570908929 0 0 0
653 218 1 0.5897 3.3802452145030757 1.0760455767847703 17.477535910978325 0 0 0
652 218 2 -1.1794 4.231792216515575 1.3030068535064738 17.103980629175496 0 0 0
664 222 2 -1.1794 4.066721082196959 4.052463838506157 17.495619313841104 0 0 0
671 224 1 0.5897 2.141744561319524 1.5424451108499138 19.39392290367529 0 0 0
666 222 1 0.5897 4.2054204543225815 3.117449269844647 17.34474497919995 0 0 0
670 224 2 -1.1794 1.9795641183048303 0.9348216975687929 18.672405204197425 0 0 0
665 222 1 0.5897 3.123304535813151 4.135816801650593 17.63431266707807 0 0 0
681 227 1 0.5897 0.9933115910921371 2.5912145489935647 16.49882686453782 0 0 0
672 224 1 0.5897 1.0280341232259995 0.8324668597247716 18.654108964424957 0 0 0
658 220 2 -1.1794 1.3081633875418541 4.016655572421012 17.525890967814675 0 0 0
659 220 1 0.5897 0.664433317650715 4.15340240582672 18.220878810769136 0 0 0
654 218 1 0.5897 4.381875116201875 0.641035614636637 16.429158804169077 0 0 0
679 227 2 -1.1794 0.8722971731931446 1.970688590657114 15.780213514431281 0 0 0
660 220 1 0.5897 1.099334748612428 4.682760136370732 16.871049052119062 0 0 0
760 254 2 -1.1794 4.204931280682112 7.938694272385998 17.02051687106438 0 0 0
762 254 1 0.5897 4.927409246495364 7.6999061721272515 17.60115380278142 0 0 0
662 221 1 0.5897 4.358305794260119 5.055985637330182 16.011822214707763 0 0 0
788 263 1 0.5897 1.0838625098159174 9.058800003587773 16.72300126262946 0 0 0
669 223 1 0.5897 0.843882918507348 6.618096242842729 15.739646803508922 0 0 0
779 260 1 0.5897 2.4562382473704685 8.265568277723649 19.486938696062445 0 0 0
675 225 1 0.5897 2.5827120076826198 6.14948414343299 20.09771763234224 0 0 0
663 221 1 0.5897 4.403558120211711 6.5513043340980355 15.779601059650615 0 0 0
787 263 2 -1.1794 1.0068872304093892 8.366937437289852 16.066091457968383 0 0 0
858 286 1 0.5897 0.5231524345934762 7.393624160059045 18.935912713903342 1 0 0
780 260 1 0.5897 2.8900487338716325 7.581038545561759 18.20839307017563 0 0 0
761 254 1 0.5897 4.208429869295566 8.89587972669036 17.014173675137748 0 0 0
778 260 2 -1.1794 2.285046035902229 7.495342844093997 18.94507398274216 0 0 0
884 295 1 0.5897 0.7051022937470557 0.1260927636868781 15.525692415835225 0 1 0
2 1 1 0.5897 2.5400841819447026 3.602367246758603 20.603539115025136 0 0 -1
109 37 2 -1.1794 2.7082461117538426 9.518592482734242 20.68784564181835 0 0 -1
667 223 2 -1.1794 0.6655249059781545 5.699465139380133 15.538273472796757 0 0 0
120 40 1 0.5897 1.3641142070553436 11.487849110089735 3.2305764190712454 0 0 0
129 43 1 0.5897 1.08014442203517 13.5903163717021 2.101870715247492 0 0 0
118 40 2 -1.1794 1.607842941242486 10.781417660947929 3.8286540126042197 0 0 0
119 40 1 0.5897 2.564868344444488 10.77290224319342 3.812677809921821 0 0 0
240 80 1 0.5897 2.703387120389827 13.998924739875005 4.2963486244464 0 0 0
127 43 2 -1.1794 0.9452381505622313 12.66235831817795 1.9096694224980038 0 0 0
123 41 1 0.5897 4.168000318804903 12.469207093236632 0.7469131499529061 0 0 0
222 74 1 0.5897 4.431497007230748 14.184341423689084 2.52609034374192 0 0 0
124 42 2 -1.1794 4.313609398925752 10.686664086954545 3.402450556568116 0 0 0
783 261 1 0.5897 1.9823306551615794 12.440190739846159 0.41952880060684966 0 0 1
220 74 2 -1.1794 4.182643950488767 14.552396731605786 3.3738204197169783 0 0 0
122 41 1 0.5897 4.6199730971566435 11.896134455745377 2.0730818916483114 0 0 0
125 42 1 0.5897 4.7883907886483446 10.903748279675733 4.204635955309205 0 0 0
235 79 2 -1.1794 0.7899131655490943 19.500511592249097 1.7604521269458555 0 0 0
227 76 1 0.5897 1.2080965507840289 18.345437944812176 3.0677368264325056 0 0 0
238 80 2 -1.1794 2.0682912458240073 13.937428825152303 5.009762259454525 0 0 0
121 41 2 -1.1794 4.831953839538548 12.571379982746397 1.4286902495410416 0 0 0
234 78 1 0.5897 3.1921216280459515 17.457148896656008 3.6366230683833938 0 0 0
249 83 1 0.5897 1.5896060712680251 15.634439497414117 1.4071751598810027 0 0 0
230 77 1 0.5897 4.039525893282089 19.082902710031 0.7046563517154514 0 0 0
229 77 2 -1.1794 4.520265179128467 19.235103781181607 1.5181491878503766 0 0 0
247 83 2 -1.1794 1.0593772072629786 15.397797904691128 2.168046756798679 0 0 0
248 83 1 0.5897 1.1919379948754896 16.116805811871856 2.7857801035398513 0 0 0
890 297 1 0.5897 1.8055740445959818 18.968027584524435 0.270154892628066 0 0 1
226 76 2 -1.1794 1.4260933458374698 17.636273585308892 3.6724735790804295 0 0 0
228 76 1 0.5897 0.788416376855471 17.720865425491702 4.381203156291951 0 0 0
221 74 1 0.5897 4.182573424625811 15.499299422731266 3.233717173759668 0 0 0
232 78 2 -1.1794 4.125652542784985 17.367865505520683 3.4448970064332656 0 0 0
233 78 1 0.5897 4.268012745635641 17.925776996066183 2.680340636576229 0 0 0
317 106 1 0.5897 0.21570905299616613 13.86928095445847 5.001562821649415 1 0 0
219 73 1 0.5897 3.460154828162152 15.933245590899329 0.08193286300701336 0 0 0
188 63 1 0.5897 0.3126398891641955 10.915269255762876 5.05309788811001 1 0 0
133 45 2 -1.1794 2.6576962034821854 11.85537004518399 6.771962149664229 0 0 0
134 45 1 0.5897 1.9813687604874664 12.157622788305414 7.378055840055198 0 0 0
135 45 1 0.5897 3.482285042634104 12.109585976136371 7.186216386648687 0 0 0
453 151 1 0.5897 0.9253798319475146 11.918947389448387 9.401271149399555 0 0 0
451 151 2 -1.1794 0.8242570614456561 12.572894309476032 8.709722927595317 0 0 0
450 150 1 0.5897 4.210838285607833 11.495274464090796 9.53100662779122 0 0 0
446 149 1 0.5897 4.531952711659003 13.440347074299673 8.75189108309615 0 0 0
573 191 1 0.5897 0.8829602356074012 14.490513788547208 9.071927757730695 0 0 0
445 149 2 -1.1794 4.778146302711559 12.645525617870172 8.278779619757676 0 0 0
544 182 2 -1.1794 4.234814811093061 14.641105719015712 10.151268134877036 0 0 0
239 80 1 0.5897 2.3138530003662656 13.141680797320179 5.481643681703159 0 0 0
243 81 1 0.5897 1.88934165117652 18.830055205297022 7.241269343193709 0 0 0
555 185 1 0.5897 3.9924348795498674 18.855164268223724 7.864000397335619 0 0 0
241 81 2 -1.1794 2.587445306560233 18.65684644904391 6.609788190402218 0 0 0
558 186 1 0.5897 4.106844660700085 17.8168275925728 10.038534551136586 0 0 0
551 184 1 0.5897 1.0571547757200528 17.955786307405056 10.051227762178367 0 0 0
543 181 1 0.5897 2.408941457018048 15.26269079217351 6.114867649626265 0 0 0
541 181 2 -1.1794 2.6649201907776794 15.910892260152007 6.770939255323461 0 0 0
576 192 1 0.5897 4.452400487566119 15.84858000924993 7.099772519166615 0 0 0
542 181 1 0.5897 2.082531037407414 15.744883108800494 7.512114850601165 0 0 0
242 81 1 0.5897 2.5785227668829744 17.70635898308415 6.496878863546037 0 0 0
559 187 2 -1.1794 0.6994735585808525 19.107342636378135 8.55554002396923 0 0 0
571 191 2 -1.1794 0.7939293094974584 15.385320773944416 8.743871463135951 0 0 0
572 191 1 0.5897 0.891168939911029 15.936465428161426 9.520303560278284 0 0 0
553 185 2 -1.1794 4.355149555749566 18.97368760205118 8.741727989083362 0 0 0
434 145 1 0.5897 2.649664694130963 10.052734764480896 7.10430378933816 0 0 0
448 150 2 -1.1794 3.997764685125336 10.870330552818801 10.223933891562641 0 0 0
457 153 2 -1.1794 2.513978606173996 11.857339827334709 13.479697766174736 0 0 0
458 153 1 0.5897 1.8256705329723955 12.02296931151142 14.123834804894898 0 0 0
459 153 1 0.5897 3.3139902346165417 12.179254369348442 13.895056642925631 0 0 0
562 188 2 -1.1794 2.095188956069299 13.891178689355536 11.630704520999986 0 0 0
563 188 1 0.5897 2.1779783633070187 13.114637069915881 12.18414381411202 0 0 0
449 150 1 0.5897 4.537886989023216 11.141667552363613 10.96604272502839 0 0 0
442 148 2 -1.1794 1.202834469803334 10.715523108878036 10.667140195651427 0 0 0
444 148 1 0.5897 2.156025914627548 10.781681234111103 10.609937272039296 0 0 0
769 257 2 -1.1794 4.593845130189732 12.493208053965928 15.264479475288523 0 0 0
545 182 1 0.5897 3.474177740154668 14.269533006850939 10.597970466747592 0 0 0
775 259 2 -1.1794 0.8306076995787246 12.510776160218901 15.507247451139671 0 0 0
896 299 1 0.5897 0.1457849826468486 15.454223103508252 15.207752433928778 0 0 0
758 253 1 0.5897 2.6664400382708724 10.079571055495075 13.859488893383872 0 0 0
564 188 1 0.5897 2.2973413941333978 14.623573605908073 12.212840747039388 0 0 0
552 184 1 0.5897 2.152891100088319 17.27129778075556 10.840258891730285 0 0 0
642 214 1 0.5897 0.2476055529003531 14.004133451096584 11.921297828878997 1 0 0
567 189 1 0.5897 2.6364222420182464 19.095337486441615 12.917540758794814 0 0 0
550 184 2 -1.1794 1.2036764831685902 17.284546376374898 10.71763086837974 0 0 0
556 186 2 -1.1794 3.91831889661292 17.281421456791634 10.809167820872304 0 0 0
866 289 1 0.5897 3.6035007553803777 15.711672878296715 13.86328359237691 0 0 0
867 289 1 0.5897 2.1623434272450934 15.612485231597834 14.31611165439762 0 0 0
566 189 1 0.5897 2.7244337713331896 17.661934148027008 13.396598513987275 0 0 0
885 295 1 0.5897 1.2221809657752205 18.8620306081865 14.755804987921868 0 0 0
565 189 2 -1.1794 2.675048126285414 18.56407089558158 13.712730451286767 0 0 0
879 293 1 0.5897 3.9387677552516083 18.949823654148325 14.822457338649734 0 0 0
865 289 2 -1.1794 2.703512473300008 15.788405979271296 13.54652997759696 0 0 0
546 182 1 0.5897 4.971930860188428 14.446194412181093 10.72989287140616 0 0 0
557 186 1 0.5897 4.104963286461186 16.38499385192558 10.530208308089934 0 0 0
883 295 2 -1.1794 0.5384765907514878 19.128877666284815 15.370190086142388 0 0 0
877 293 2 -1.1794 4.586052654327085 19.08171007862731 15.515077003845217 0 0 0
768 256 1 0.5897 1.2227608876264178 11.344043000970913 16.79683369591072 0 0 0
888 296 1 0.5897 2.332329743103053 13.49607264103173 19.006866213739904 0 0 0
766 256 2 -1.1794 1.3966005441167784 10.738910188974796 17.517732664752906 0 0 0
773 258 1 0.5897 3.185477500409132 10.722785285469717 17.42862270083831 0 0 0
886 296 2 -1.1794 2.127771463114849 14.301084355303914 18.531153497032165 0 0 0
774 258 1 0.5897 4.303872684896369 11.25363783318498 16.557375744120307 0 0 0
772 258 2 -1.1794 4.132696077294784 10.67415092850413 17.29965915034613 0 0 0
869 290 1 0.5897 3.4383440487792685 14.561958177427472 17.343481034549818 0 0 0
767 256 1 0.5897 0.7462584306416058 10.964824572046556 18.182657887618163 0 0 0
868 290 2 -1.1794 4.302596159663412 14.675946547696233 16.948183495583727 0 0 0
771 257 1 0.5897 4.472020165235873 13.308171494751457 15.75149305139329 0 0 0
965 322 1 0.5897 0.3441976990637817 14.121302473303944 18.91440073443843 1 0 0
218 73 1 0.5897 2.4676309260421854 16.991835295998648 20.32722704806863 0 0 -1
782 261 1 0.5897 2.631330740536469 11.300212989919322 20.340614841059875 0 0 0
777 259 1 0.5897 0.9313686857287327 13.443552725381146 15.697036523483353 0 0 0
895 299 2 -1.1794 0.9699216224230349 15.237621586410343 15.643706766190324 0 0 0
887 296 1 0.5897 2.2243909767663177 14.995914420458247 19.18231053332449 0 0 0
876 292 1 0.5897 0.95306571915888 18.079320956460897 16.714723281256006 0 0 0
881 294 1 0.5897 3.0218826240221754 17.389622127373663 17.50771062377669 0 0 0
882 294 1 0.5897 4.152065802553692 16.431515440514204 17.19690148636245 0 0 0
897 299 1 0.5897 1.0829810563385482 15.92621499072422 16.298826253146302 0 0 0
874 292 2 -1.1794 1.2276732652586124 17.4391175171448 17.371118879242047 0 0 0
889 297 2 -1.1794 2.445012157468401 18.769362547726665 20.262983915859692 0 0 0
891 297 1 0.5897 2.3039748110778433 19.4444766539779 19.599316288446524 0 0 0
880 294 2 -1.1794 3.9766121926147853 17.33177361749916 17.470733546645427 0 0 0
875 292 1 0.5897 0.660385087538006 17.608296001521573 18.123208228878205 0 0 0
878 293 1 0.5897 4.3892684037639365 18.402242974791037 16.159849503024425 0 0 0
781 261 2 -1.1794 2.5953619403595227 12.255732106076659 20.384760512657465 0 0 0
870 290 1 0.5897 4.917591366039223 14.473684774597588 17.653139767898487 0 0 0
217 73 2 -1.1794 2.52703593000132 16.076404976365183 20.600531832905816 0 0 -1
9 3 1 0.5897 5.234877028680134 4.566078541635786 5.0358649468620404 0 0 0
273 91 1 0.5897 7.381310128315676 0.13902943460033867 1.8581400110496793 0 1 0
47 16 1 0.5897 7.685301457402357 3.3154804760574423 3.334937381726899 0 0 0
34 12 2 -1.1794 5.406005209136387 2.457893339968113 0.4199457196096927 0 0 0
69 23 1 0.5897 6.727062588242895 2.1712203715038214 1.7060899397953289 0 0 0
48 16 1 0.5897 7.353588123217331 4.213336767159934 4.507691327081936 0 0 0
67 23 2 -1.1794 7.535963408617698 1.9487171183919383 2.166895217241786 0 0 0
46 16 2 -1.1794 7.973830739214978 4.108725289426114 3.7862773230521634 0 0 0
68 23 1 0.5897 8.233956791567106 2.2078240677848293 1.5654021318041351 0 0 0
53 18 1 0.5897 9.813490192377978 4.067685369187847 3.564580135744825 0 0 0
138 46 1 0.5897 7.043036556640423 7.5199339168277595 5.089562410277416 0 0 0
58 20 2 -1.1794 8.767006830921318 0.902418449348366 4.9754912187172105 0 0 0
711 237 1 0.5897 8.663109169253019 5.524210022364431 0.6223370749532605 0 0 1
175 59 2 -1.1794 7.606854911998754 8.757000354005358 2.083763279492914 0 0 0
56 19 1 0.5897 6.531809218358246 5.954886087537389 1.7309154344134385 0 0 0
176 59 1 0.5897 7.5934318251329795 7.799897208946843 2.0894824747046075 0 0 0
177 59 1 0.5897 8.270504214393254 8.983816736878229 1.4324341720787896 0 0 0
55 19 2 -1.1794 7.48136240333717 5.992794977417183 1.84550725866019 0 0 0
142 48 2 -1.1794 5.43450710441367 9.119724276541268 0.41435924751497 0 0 0
57 19 1 0.5897 7.649124643860484 5.473287077928352 2.6316605353030904 0 0 0
166 56 2 -1.1794 8.822607635480301 7.64028200535494 5.118966452353392 0 0 0
143 48 1 0.5897 6.125393353050776 9.115553121772066 1.0767524171506744 0 0 0
37 13 2 -1.1794 9.233265921491409 2.5575496245198552 0.12587022186583868 0 0 0
145 49 2 -1.1794 9.421242358936816 9.46441057590121 0.06158412027134522 0 0 0
136 46 2 -1.1794 6.1008960001064 7.3670941805225345 5.161896299010834 0 0 0
29 10 1 0.5897 6.915098568827949 0.8039819091143104 4.979375455723743 0 0 0
8 3 1 0.5897 5.795104035415177 3.9618626801048538 6.305719277607035 0 0 0
392 131 1 0.5897 8.07567244231247 2.1594648580298323 8.2466633180948 0 0 0
393 131 1 0.5897 7.322085442655529 1.0463772079404134 8.943035193868564 0 0 0
358 120 2 -1.1794 5.410761154074742 2.4340015236845884 7.20041909433259 0 0 0
7 3 2 -1.1794 5.920619732094976 4.68616367191314 5.692711758729896 0 0 0
362 121 1 0.5897 9.105778724843523 3.601758360763553 6.803858075163987 0 0 0
361 121 2 -1.1794 9.266874458291088 2.691554510210925 7.05249042449674 0 0 0
391 131 2 -1.1794 7.381006548568638 2.0000387822497396 8.885522289752327 0 0 0
59 20 1 0.5897 8.883491474086851 1.6248399660561956 5.592483301991017 0 0 0
359 120 1 0.5897 6.065183199164531 2.282319499985058 7.882201560810972 0 0 0
360 120 1 0.5897 5.571637378636286 1.7448816631680344 6.555931897143483 0 0 0
28 10 2 -1.1794 5.9833315854640166 0.7383888972213066 5.1884718196404735 0 0 0
168 56 1 0.5897 8.962582557434878 8.326311061025361 5.771568546666131 0 0 0
469 157 2 -1.1794 9.2291175517769 9.444341611015165 7.1488188787347315 0 0 0
62 21 1 0.5897 8.31988735423169 5.461772057372401 7.222108084228283 0 0 0
499 167 2 -1.1794 7.462769861007791 8.44212069718563 9.000174722072398 0 0 0
61 21 2 -1.1794 9.027322897545659 5.368960523579041 6.584113587785932 0 0 0
167 56 1 0.5897 8.911575768751584 6.822145583582637 5.6077668913568415 0 0 0
501 167 1 0.5897 6.715191881211469 8.673714961467233 8.44914154998305 0 0 0
381 127 1 0.5897 7.530185891330101 5.210062142208622 9.277376583950328 0 0 0
379 127 2 -1.1794 7.172422210830477 5.7352521615526015 8.561644602961625 0 0 0
137 46 1 0.5897 6.026577644902063 6.454831209228808 5.442052194815385 0 0 0
338 113 1 0.5897 5.3210434555583905 5.924502933018673 8.322565708106785 0 0 0
380 127 1 0.5897 7.34596716634863 6.640897818952013 8.818404368525407 0 0 0
467 156 1 0.5897 5.672568725313718 8.413098157656057 6.518468257281135 0 0 0
500 167 1 0.5897 7.542041585408909 9.170878276648349 9.615620463624463 0 0 0
466 156 2 -1.1794 5.497770702924197 9.060654356529252 7.2012793026895565 0 0 0
470 157 1 0.5897 8.783895013540814 9.072974513695012 7.910354397566609 0 0 0
60 20 1 0.5897 8.883957132367074 0.113465609604539 5.50468512528001 0 0 0
371 124 1 0.5897 7.752644723616727 3.276986824898491 10.20636950400785 0 0 0
63 21 1 0.5897 9.822357718881866 5.575553093714807 7.075441126250814 0 0 0
377 126 1 0.5897 9.763935819326436 4.076955052954778 10.340297107929938 0 0 0
705 235 1 0.5897 7.821399844268452 5.945882657132375 15.347847045473008 0 0 0
332 111 1 0.5897 5.2542656717553005 4.418332172963364 11.841018484384794 0 0 0
682 228 2 -1.1794 5.404181293629137 2.6995841115176042 14.361999179733903 0 0 0
685 229 2 -1.1794 9.236607928428693 2.860627396782817 13.807198381715832 0 0 0
386 129 1 0.5897 9.045069061960943 4.748074229712012 13.669357384480525 0 0 0
331 111 2 -1.1794 5.952202507108611 4.626419270114687 12.462067088301492 0 0 0
372 124 1 0.5897 7.318748832055524 4.1740383993140515 11.345929961523531 0 0 0
382 128 2 -1.1794 8.39383377769247 1.0054390156416286 11.982448395001754 0 0 0
684 228 1 0.5897 5.643442394231125 3.438353616011297 13.802415743800154 0 0 0
354 118 1 0.5897 5.562235330925414 1.4493380075325566 13.069796548417727 0 0 0
384 128 1 0.5897 9.057739972345752 1.0701346018157618 11.296052902058594 0 0 0
353 118 1 0.5897 6.562353829772401 0.9572778902897742 12.045471838655232 0 0 0
686 229 1 0.5897 8.74732225393312 2.6989920034830677 14.613750600954956 0 0 0
383 128 1 0.5897 8.61213417026982 1.7083330198722497 12.594351345851182 0 0 0
352 118 2 -1.1794 5.644047436411658 0.8805510652142199 12.304381048013864 0 0 0
491 164 1 0.5897 9.452935578432312 7.631005842289141 11.224881324462565 0 0 0
490 164 2 -1.1794 8.93393886714114 7.5130354993510196 12.020357074915726 0 0 0
794 265 1 0.5897 9.004609447135358 8.783507182475132 13.35945498070526 0 0 0
461 154 1 0.5897 5.9528566231738544 8.02198073054765 12.84560443682824 0 0 0
791 264 1 0.5897 6.046049180143632 9.095839311639565 14.840731784197198 0 0 0
370 124 2 -1.1794 7.9950574329673465 4.075081836204255 10.675914455422532 0 0 0
790 264 2 -1.1794 5.608709430452511 9.308654033243005 14.016421410891184 0 0 0
387 129 1 0.5897 8.99676867811799 6.206664662518272 13.26674641352964 0 0 0
333 111 1 0.5897 5.95304485482484 5.58239663059209 12.510697242163989 0 0 0
385 129 2 -1.1794 9.034210300600767 5.633653707535686 14.032471759120442 0 0 0
460 154 2 -1.1794 6.090657000611027 7.348887148114923 12.179210808946078 0 0 0
793 265 2 -1.1794 9.252064995415331 9.32050038882032 14.112107741565712 0 0 0
462 154 1 0.5897 5.459175802852715 7.559423603464059 11.491457252815483 0 0 0
492 164 1 0.5897 8.026752332116374 7.499608372459889 11.71534355757301 0 0 0
824 275 1 0.5897 8.079838110349964 8.963443385087603 15.421941508435058 0 0 0
717 239 1 0.5897 6.679297063007322 2.378641773047919 15.48293747670343 0 0 0
702 234 1 0.5897 9.71562835770774 4.284983918060744 17.822132435534478 0 0 0
38 13 1 0.5897 9.074185380457257 2.06166119662656 19.999594253939946 0 0 -1
694 232 2 -1.1794 7.930534789491435 4.192454423683597 17.841757528379468 0 0 0
677 226 1 0.5897 5.339172211512463 0.8787899552625366 18.351935234878404 0 0 0
695 232 1 0.5897 7.709150430239789 3.4260932297020332 17.312748365264433 0 0 0
708 236 1 0.5897 7.698765216551326 0.8929907318960187 18.586571715070733 0 0 0
715 239 2 -1.1794 7.499908731490491 2.1978483042250225 15.941282633932811 0 0 0
655 219 2 -1.1794 5.792503064625071 4.617492874289748 19.485541296078758 0 0 0
657 219 1 0.5897 6.62934316087034 4.470444651360266 19.044804034716307 0 0 0
706 236 2 -1.1794 8.655584900329934 0.9032682472106283 18.611354946754602 0 0 0
716 239 1 0.5897 7.490381993468682 1.2517331899350048 16.086302430815614 0 0 0
676 226 2 -1.1794 5.950726908969602 0.6864406703148456 19.06263119225119 0 0 0
825 275 1 0.5897 7.344134658238781 7.935037211820446 16.254320125018914 0 0 0
35 12 1 0.5897 5.606348568406017 1.7776356532577968 20.453855962025578 0 0 -1
656 219 1 0.5897 5.132876749156619 4.390114138866095 18.830329590200655 0 0 0
785 262 1 0.5897 5.7835425395426 6.429336632510799 19.251119880017306 0 0 0
696 232 1 0.5897 7.719261856071834 4.939674223915606 17.28212282906457 0 0 0
823 275 2 -1.1794 7.404845954765562 8.876940325056667 16.094997673556684 0 0 0
144 48 1 0.5897 5.715019302254262 8.468879057674991 20.447805728851485 0 0 -1
816 272 1 0.5897 8.997542794565653 8.207110608329016 19.543770664545043 0 0 0
703 235 2 -1.1794 7.231319278863402 6.127508240473815 16.079213619691984 0 0 0
704 235 1 0.5897 6.3665593632124216 5.870147669345301 15.759592695335426 0 0 0
784 262 2 -1.1794 6.011487928412119 7.326725682119717 19.008283100938478 0 0 0
814 272 2 -1.1794 8.747534434893028 7.474593309100215 18.980678066274614 0 0 0
815 272 1 0.5897 8.975638336808228 6.6944426242884685 19.48615278015381 0 0 0
786 262 1 0.5897 6.968464653930766 7.334540692555067 18.989502645523466 0 0 0
707 236 1 0.5897 8.889981415964751 0.1443257126727886 19.145429006206435 0 0 0
797 266 1 0.5897 9.982033224179851 7.804934817630008 17.681806602512808 0 0 0
710 237 1 0.5897 9.207886791024094 4.3383963791031315 20.531726217993167 0 0 0
709 237 2 -1.1794 9.238760875311 5.294356247568713 20.56978709130228 0 0 0
36 12 1 0.5897 5.590384328836584 3.2797390410385656 20.64197865827685 0 0 -1
154 52 2 -1.1794 8.175415551646047 10.788130078510694 3.9570873684206376 0 0 0
246 82 1 0.5897 5.483767466306229 14.223770206435617 4.620711513201604 0 0 0
819 273 1 0.5897 8.564191204750204 12.495643831486047 0.6262087377496721 0 0 1
224 75 1 0.5897 5.229541952027783 17.77896975883526 4.836461116312277 0 0 0
156 52 1 0.5897 9.121634287042271 10.851731123181967 3.827307786157181 0 0 0
163 55 2 -1.1794 7.589823856162038 12.840597493463267 2.1417292877319336 0 0 0
165 55 1 0.5897 7.758634904112115 12.164756463528237 2.7981357092362424 0 0 0
285 95 1 0.5897 7.612445100672084 14.747844966900491 2.1507645361038277 0 0 0
164 55 1 0.5897 6.68205427202718 12.69496376526787 1.8753600383644944 0 0 0
276 92 1 0.5897 9.546340189862496 14.091390253883379 4.311432617532048 0 0 0
264 88 1 0.5897 8.637812200496315 17.634232360781965 3.9059717881671476 0 0 0
254 85 1 0.5897 8.76321695637457 15.946422629692812 0.5352479228711764 0 0 0
251 84 1 0.5897 5.944317834904131 15.706727887692267 0.9477088744816096 0 0 0
263 88 1 0.5897 7.266635765605656 17.695989616641867 4.544581498373842 0 0 0
271 91 2 -1.1794 7.251003820673006 19.177869810258045 1.5408367413954434 0 0 0
284 95 1 0.5897 7.611080741846503 16.199036361006065 2.5819873253405876 0 0 0