LAMMPS data file via write_data, version 30 Jul 2021, timestep = 48750000

972 atoms
2 atom types
648 bonds
1 bond types
324 angles
1 angle types

0.08153709410469467 19.91846390585556 xlo xhi
0.0827045914430844 19.917296408537794 ylo yhi
0.02334467004693863 20.67665332994551 zlo zhi

Masses

1 1.008
2 15.999

Pair Coeffs # lj/cut/tip4p/long/omp

1 0 0
2 0.21084 3.1668

Bond Coeffs # harmonic/omp

1 450 0.9572

Angle Coeffs # harmonic/omp

1 55 104.52

Atoms # full

10 4 2 -1.1794 1.2980833135445005 4.1443945017857295 3.8810957826353447 0 0 0
11 4 1 0.5897 1.1190475961618167 3.3937618284323183 3.3148062122361446 0 0 0
12 4 1 0.5897 2.2526672828311103 4.174844426639433 3.9445690827215087 0 0 0
33 11 1 0.5897 1.619022727879108 2.31236331683179 1.4476299836335593 0 0 0
31 11 2 -1.1794 0.9488992066538092 2.109773256884502 2.1003856462205848 0 0 0
18 6 1 0.5897 4.142681516677027 3.143893705509414 3.431258171924176 0 0 0
4 2 2 -1.1794 4.206446023044892 1.3259348372826845 3.3437682735527514 0 0 0
16 6 2 -1.1794 4.055322022510444 4.064699406419413 3.6775573877014733 0 0 0
23 8 1 0.5897 2.724948023599405 0.9851861757807608 4.348711148401312 0 0 0
5 2 1 0.5897 4.333197816987614 0.6711487257552055 2.6571936638230134 0 0 0
17 6 1 0.5897 4.348693573094645 4.5484933421085625 2.905495917900997 0 0 0
236 79 1 0.5897 0.9681205661089963 0.33731244215336265 2.030291192210026 0 1 0
3 1 1 0.5897 3.601990823182515 2.5786048025427615 0.17494244042570214 0 0 0
6 2 1 0.5897 4.848437672269252 1.0965419165660104 4.015650384542269 0 0 0
22 8 2 -1.1794 2.0746121950879495 0.8839687628904046 5.043707265191555 0 0 0
114 38 1 0.5897 3.413192726721422 7.660232080625895 3.7652251955285116 0 0 0
113 38 1 0.5897 4.909735702813323 7.670132926840008 3.9933599288490256 0 0 0
139 47 2 -1.1794 0.9408895386227213 8.878014530284682 1.8901052016677302 0 0 0
14 5 1 0.5897 4.150097246902663 5.678402119964508 0.9746085852747288 0 0 0
141 47 1 0.5897 1.019344764215559 7.960124221760427 2.149913144537104 0 0 0
112 38 2 -1.1794 4.244357574191823 7.844480578328426 3.3277209997289057 0 0 0
132 44 1 0.5897 1.1015479638513797 7.49126544479496 4.940707599593065 0 0 0
13 5 2 -1.1794 4.837529814656474 5.780655783092605 1.632773124732931 0 0 0
130 44 2 -1.1794 2.0585289887315814 7.485530764359154 4.959188007034153 0 0 0
140 47 1 0.5897 1.151666480272986 9.370752765670522 2.6831910900816256 0 0 0
674 225 1 0.5897 1.9874345882870765 5.736733561351194 0.6304433364089568 0 0 1
19 7 2 -1.1794 0.8772245804114474 6.1158612600580575 2.0150497365364144 0 0 0
15 5 1 0.5897 4.5873555754365025 6.564864002749555 2.1212577166250064 0 0 0
20 7 1 0.5897 1.055998605241401 5.5224165891858945 2.744475715898797 0 0 0
126 42 1 0.5897 4.32942428153804 9.649016045153532 3.3580172824972863 0 0 0
111 37 1 0.5897 3.6095987215832928 9.374826443002352 0.2404833746056644 0 0 0
110 37 1 0.5897 2.1463526419640186 9.33344916239141 0.6264688650113972 0 0 0
32 11 1 0.5897 0.11947947144814267 2.2742380543368084 1.6518256341202264 0 0 0
102 34 1 0.5897 0.2453487411439318 0.8973077649091205 5.0542417453429005 1 0 0
1 1 2 -1.1794 2.6676316529859427 2.73608002932231 0.03944129162241815 0 0 0
325 109 2 -1.1794 2.763024173357903 2.654945158500784 7.024996094774902 0 0 0
326 109 1 0.5897 2.5543996972291696 2.085506394517398 6.284445853468597 0 0 0
327 109 1 0.5897 3.694051463348908 2.504533198464994 7.188556294059895 0 0 0
355 119 2 -1.1794 0.965908700253029 1.9778071543376776 9.007602215105665 0 0 0
356 119 1 0.5897 1.6534918222921327 2.1727013958448147 8.37085678983625 0 0 0
27 9 1 0.5897 2.6693737591560316 4.407650904745165 6.578999003947192 0 0 0
329 110 1 0.5897 4.131434121420821 0.8030026291500892 9.504897076932044 0 0 0
342 114 1 0.5897 4.220336102039623 4.795895092575691 9.764539529792488 0 0 0
328 110 2 -1.1794 4.0270309273470986 1.539991208942521 10.106675045232745 0 0 0
561 187 1 0.5897 0.8772459136883696 0.19359304883264128 8.916959338095557 0 1 0
335 112 1 0.5897 1.1709664774982094 3.412167292379922 10.081419259813389 0 0 0
339 113 1 0.5897 4.0834662675270055 5.756480941586502 7.6182062024774755 0 0 0
443 148 1 0.5897 1.0419079043788195 9.903725249957276 10.135616317723416 0 0 0
463 155 2 -1.1794 0.7717482755478008 8.618417912278385 8.957350303512076 0 0 0
26 9 1 0.5897 1.9685341710957942 5.574924078535414 7.240871998301686 0 0 0
468 156 1 0.5897 4.538300452267683 9.06653323357332 7.351706380594284 0 0 0
131 44 1 0.5897 2.2843918657294275 6.693628234240941 5.447105030822559 0 0 0
343 115 2 -1.1794 0.7975276452744592 5.910287344224553 8.55043172107884 0 0 0
438 146 1 0.5897 4.2235545050684244 8.858085012635984 10.078651517906867 0 0 0
25 9 2 -1.1794 2.6270092363750015 5.363882862210612 6.579002334582882 0 0 0
464 155 1 0.5897 1.4870484550529959 8.795150419686323 8.346360808447317 0 0 0
344 115 1 0.5897 1.0166973082018145 5.392039012693328 9.32475874293725 0 0 0
337 113 2 -1.1794 4.538763102472963 5.98217384838976 8.42936215673622 0 0 0
435 145 1 0.5897 2.4683875220186833 8.710567548099434 6.310434217537145 0 0 0
433 145 2 -1.1794 2.753692729709641 9.153108228633073 7.10978508029449 0 0 0
345 115 1 0.5897 0.8643756602310868 6.819142893869648 8.843164212940518 0 0 0
437 146 1 0.5897 4.36427671662574 7.459270439780274 9.517151130267013 0 0 0
357 119 1 0.5897 0.14897200172987296 2.137632097350598 8.535094097804865 0 0 0
436 146 2 -1.1794 4.3254194771188565 7.943483735901642 10.341913080510821 0 0 0
341 114 1 0.5897 4.090455582655395 3.3574445923518956 10.218140855853633 0 0 0
649 217 2 -1.1794 2.670184675712026 2.6250532586608295 13.784119292524302 0 0 0
650 217 1 0.5897 2.4577109707481637 1.9612366022307781 13.12807420770298 0 0 0
651 217 1 0.5897 2.0881137988309297 2.4312793878028724 14.518861825377158 0 0 0
348 116 1 0.5897 2.597515069725889 1.0171477366776385 11.108097682923246 0 0 0
346 116 2 -1.1794 2.081944130494954 0.7194008255815099 11.857588547548872 0 0 0
350 117 1 0.5897 2.540942395013245 4.466291392236695 13.53253264239801 0 0 0
347 116 1 0.5897 1.1733477595660682 0.8796102805695812 11.602689038773859 0 0 0
683 228 1 0.5897 4.426287920697462 2.6628268754065427 14.183460161380674 0 0 0
336 112 1 0.5897 2.251466396286102 4.277329928470672 10.694441001509333 0 0 0
330 110 1 0.5897 4.653034771687841 1.3663674171561921 10.80965128585045 0 0 0
334 112 2 -1.1794 1.3008972534828422 4.190061203879035 10.623809188891503 0 0 0
340 114 2 -1.1794 4.029934580357638 4.259045582318784 10.53378676665176 0 0 0
792 264 1 0.5897 4.512873856160354 9.18872566216631 14.195141498704857 0 0 0
454 152 2 -1.1794 2.1830185550691565 7.550821645988918 11.948299739425693 0 0 0
349 117 2 -1.1794 2.5889118005864304 5.414477710346315 13.654257740927145 0 0 0
757 253 2 -1.1794 2.717829429791969 9.289333050667278 14.02251524499174 0 0 0
533 178 1 0.5897 0.36613305213069575 7.554174410774997 11.853754679225302 1 0 0
351 117 1 0.5897 3.389235827382476 5.551165490099024 14.161201340646146 0 0 0
759 253 1 0.5897 2.5273833807324806 8.742000938975028 13.260702295848857 0 0 0
668 223 1 0.5897 1.3185215914609556 5.813788826357911 14.855427416296346 0 0 0
455 152 1 0.5897 2.902560905402169 7.662810981733734 11.327078551093436 0 0 0
456 152 1 0.5897 2.395890816234618 6.745267612331946 12.419419619526431 0 0 0
661 221 2 -1.1794 4.688959421640499 5.805856344695235 15.341927128924585 0 0 0
789 263 1 0.5897 1.5164102491242437 8.918629598650014 15.285114470341979 0 0 0
680 227 1 0.5897 0.08259306871651972 2.4063018579736695 15.335486385855232 0 0 0
653 218 1 0.5897 3.3811905725728137 1.096429528016757 17.46788260134702 0 0 0
652 218 2 -1.1794 4.217493882342778 1.2962618233769032 17.047340925668813 0 0 0
664 222 2 -1.1794 4.093960522644897 4.027410959570476 17.309296161402415 0 0 0
671 224 1 0.5897 2.1782076766980283 1.683315762325284 19.296213712147207 0 0 0
666 222 1 0.5897 4.224546204710485 3.100392936705091 17.109891510304852 0 0 0
670 224 2 -1.1794 1.9976409770217332 0.9934991814035171 18.65766662193996 0 0 0
665 222 1 0.5897 3.151817027091799 4.110879633015573 17.456216023326117 0 0 0
681 227 1 0.5897 0.9798705860328747 2.803865049228365 16.48816080990682 0 0 0
672 224 1 0.5897 1.042735425345358 0.9317568661103544 18.634662552700636 0 0 0
658 220 2 -1.1794 1.4045190140303045 4.215796661295702 17.536948943878926 0 0 0
659 220 1 0.5897 0.760824266838968 4.298929608660182 18.24047397062037 0 0 0
654 218 1 0.5897 4.343277171041391 0.5887475276195675 16.41504741929689 0 0 0
679 227 2 -1.1794 0.8728064824510632 2.141008956359757 15.805991946618883 0 0 0
660 220 1 0.5897 1.1694153612492701 4.903487539989374 16.914051958140675 0 0 0
884 295 1 0.5897 0.8880625052476843 0.3447450167659465 15.75711127928267 0 1 0
762 254 1 0.5897 4.907648462461508 7.682344926206926 17.710750857832295 0 0 0
662 221 1 0.5897 4.568696610108877 5.089361879680069 15.965116069337263 0 0 0
778 260 2 -1.1794 2.197393697214402 7.494648496495652 18.79740692349402 0 0 0
760 254 2 -1.1794 4.265174724426754 7.879466708995679 17.02915612036747 0 0 0
761 254 1 0.5897 4.259289407651104 8.835031823694496 16.97405088522687 0 0 0
788 263 1 0.5897 0.9821331200484182 9.381179232246811 16.623931357260467 0 0 0
669 223 1 0.5897 0.8474939559288068 6.926107801157498 15.767932933129229 0 0 0
779 260 1 0.5897 2.3931042824832907 8.244927424762997 19.358626394790026 0 0 0
675 225 1 0.5897 2.5318492019233783 6.130754494283039 19.92721419426573 0 0 0
663 221 1 0.5897 4.483494907156326 6.595785975540592 15.84190866845229 0 0 0
787 263 2 -1.1794 0.8474353649103266 8.723766483424868 15.941392256519354 0 0 0
858 286 1 0.5897 0.4219272018737293 7.338843045448448 18.705397150662865 1 0 0
780 260 1 0.5897 2.8302493844797993 7.558432257280076 18.08212519558398 0 0 0
109 37 2 -1.1794 2.731282896646972 9.538760337517894 20.550459300110514 0 0 -1
2 1 1 0.5897 2.597207000359096 3.684614578613689 20.58551854071844 0 0 -1
673 225 2 -1.1794 2.647067928203473 5.495167698657265 20.633578988485226 0 0 0
667 223 2 -1.1794 0.7212510332318438 5.9959175874024115 15.580891558635235 0 0 0
120 40 1 0.5897 1.2855154221063665 11.481067313358098 3.1951653793549264 0 0 0
129 43 1 0.5897 1.0101034555055017 13.606397395064816 2.1201480966543214 0 0 0
118 40 2 -1.1794 1.4875954754233205 10.784566079225643 3.8198568334344407 0 0 0
119 40 1 0.5897 2.4436360619466746 10.772540576220644 3.8648887175443325 0 0 0
240 80 1 0.5897 2.6074601719093287 14.001368020935137 4.374757543940082 0 0 0
127 43 2 -1.1794 0.9090014167420598 12.68222043711005 1.8924354021465863 0 0 0
123 41 1 0.5897 4.259720831191747 12.421895653075536 0.8827406994208474 0 0 0
222 74 1 0.5897 4.424843038717461 13.89725267400292 2.6216477024257925 0 0 0
124 42 2 -1.1794 4.238613721878509 10.590801883959172 3.5028241709291885 0 0 0
783 261 1 0.5897 2.0693064977138738 12.455342398722818 0.5396349363451823 0 0 1
220 74 2 -1.1794 4.08786105561373 14.359459454445437 3.389117886981147 0 0 0
122 41 1 0.5897 4.630834019400258 11.751144854594632 2.188190040137573 0 0 0
219 73 1 0.5897 3.4962191534017735 15.909199286840849 0.1605658851630585 0 0 0
125 42 1 0.5897 4.786363113402372 10.770015605437678 4.267060649479661 0 0 0
238 80 2 -1.1794 1.922133472362408 13.938789088504484 5.0400482407640235 0 0 0
121 41 2 -1.1794 4.917285056803082 12.430929592304476 1.578247334945307 0 0 0
890 297 1 0.5897 1.9809976805527159 19.008870983593972 0.44631451244095693 0 0 1
226 76 2 -1.1794 1.60020833243492 17.46948049587457 3.825376646481667 0 0 0
228 76 1 0.5897 0.9113857145591184 17.552680501139882 4.484770961120553 0 0 0
232 78 2 -1.1794 4.341759444640411 17.116330348811033 3.453818362954743 0 0 0
221 74 1 0.5897 4.206875357133168 15.286432466361234 3.182395687508034 0 0 0
233 78 1 0.5897 4.49399251834002 17.765220576674068 2.766823024553614 0 0 0
235 79 2 -1.1794 0.8966475801267241 19.232024995713118 1.8638714363402513 0 0 0
227 76 1 0.5897 1.3859477714074802 18.132861942062455 3.16947211770512 0 0 0
234 78 1 0.5897 3.4373285820195623 17.26598462827109 3.7291283059730986 0 0 0
249 83 1 0.5897 1.6165599821554504 15.63953252197662 1.3963238736108472 0 0 0
230 77 1 0.5897 4.149538844082775 18.95186215807678 0.7626830821264712 0 0 0
229 77 2 -1.1794 4.6379835249912835 19.09611231053404 1.5731277397702943 0 0 0
247 83 2 -1.1794 1.047781902075125 15.38527593605311 2.122992575774125 0 0 0
248 83 1 0.5897 1.212901816304825 16.04301248346886 2.798502588171898 0 0 0
188 63 1 0.5897 0.13976684799021863 10.954972574109503 5.048999789988336 1 0 0
317 106 1 0.5897 0.13602709661161905 13.881878723662787 4.930710714063459 1 0 0
133 45 2 -1.1794 2.4593428627737683 11.869431434031846 6.806514095483636 0 0 0
134 45 1 0.5897 1.796641941068288 12.109265733009765 7.454206918066442 0 0 0
135 45 1 0.5897 3.289194349697524 12.13547187780585 7.202442556245729 0 0 0
453 151 1 0.5897 0.8975337161037021 11.986592202808112 9.529376548314662 0 0 0
451 151 2 -1.1794 0.7841816153036457 12.64562447825028 8.844523404463319 0 0 0
450 150 1 0.5897 4.1794058314761156 11.303164453321141 9.576132971075918 0 0 0
446 149 1 0.5897 4.348979571296981 13.29017841207372 8.895046407319063 0 0 0
573 191 1 0.5897 0.889814387733182 14.506019952650389 9.273028723299861 0 0 0
445 149 2 -1.1794 4.606856335860542 12.539673424885136 8.359855452528612 0 0 0
239 80 1 0.5897 2.1452290106261516 13.154514713032125 5.541375765442015 0 0 0
544 182 2 -1.1794 4.1784230296690845 14.573160290864996 10.213490950193412 0 0 0
434 145 1 0.5897 2.6550414190868605 10.08530600561587 6.916259499988974 0 0 0
543 181 1 0.5897 2.3098352135647544 15.249516254180806 6.284084301938012 0 0 0
541 181 2 -1.1794 2.6005502155700873 15.819771270494657 6.995767246945686 0 0 0
576 192 1 0.5897 4.343386501651493 15.62010898480489 7.333362879426103 0 0 0
242 81 1 0.5897 2.594085643232665 17.60127352250646 6.674162972618608 0 0 0
542 181 1 0.5897 1.9498529572664562 15.692711076026981 7.686165514812143 0 0 0
559 187 2 -1.1794 0.7834582590007024 19.085858338880932 8.777672674163979 0 0 0
572 191 1 0.5897 0.9613824275865459 15.926810414893394 9.790711798975936 0 0 0
571 191 2 -1.1794 0.7851639049556468 15.417363842543484 8.999754991161808 0 0 0
551 184 1 0.5897 1.1520469028692777 17.998965744851567 10.184449290192589 0 0 0
553 185 2 -1.1794 4.43416494407186 19.05532614762106 8.682085354776685 0 0 0
243 81 1 0.5897 1.8936133191280717 18.74438023993234 7.377317299374054 0 0 0
555 185 1 0.5897 3.9405820295678806 18.869989375072734 7.883191196565743 0 0 0
241 81 2 -1.1794 2.558929847298522 18.556918011965884 6.715192525877202 0 0 0
558 186 1 0.5897 4.198893792578119 17.80162012957546 9.9756378839245 0 0 0
448 150 2 -1.1794 3.9452326703443283 10.677939146799176 10.26202650788777 0 0 0
24 8 1 0.5897 2.2800576521364966 19.873441536041177 5.443392655902164 0 -1 0
457 153 2 -1.1794 2.5073674462503868 11.977862174663558 13.43315731718132 0 0 0
458 153 1 0.5897 1.8622661778507748 12.163971790911422 14.11536583606292 0 0 0
459 153 1 0.5897 3.351249956915951 12.169764737303948 13.842091563101059 0 0 0
562 188 2 -1.1794 2.010624202704218 14.135287406288821 11.811208224429436 0 0 0
563 188 1 0.5897 2.163287358452026 13.316787634370906 12.283370544028383 0 0 0
449 150 1 0.5897 4.497829072241691 10.919107152667172 11.005450013503186 0 0 0
442 148 2 -1.1794 1.2435324518519713 10.656658815317673 10.69115931219124 0 0 0
444 148 1 0.5897 2.199743216192171 10.698546272346276 10.700825762715933 0 0 0
769 257 2 -1.1794 4.626367697512201 12.438403697602649 15.142825289667078 0 0 0
545 182 1 0.5897 3.3825587666508663 14.37210174470935 10.705800901888463 0 0 0
564 188 1 0.5897 2.2061292749517483 14.820839313325019 12.449948787190317 0 0 0
758 253 1 0.5897 2.5996174685374016 10.18605522133884 13.709314028164822 0 0 0
642 214 1 0.5897 0.23100045184598364 14.159459223499123 11.954331114684065 1 0 0
546 182 1 0.5897 4.892044034279445 14.377652388052347 10.820712928586053 0 0 0
877 293 2 -1.1794 4.896178545014735 18.96266049776859 15.478699492840317 0 0 0
879 293 1 0.5897 4.253894033090676 18.944049639389384 14.769244207732918 0 0 0
865 289 2 -1.1794 2.646436556331115 15.971361109357266 13.689177896473316 0 0 0
552 184 1 0.5897 2.2757401195309352 17.338139309327964 10.954136081416175 0 0 0
567 189 1 0.5897 2.5665727016168165 19.22904891392527 12.973208645419053 0 0 0
550 184 2 -1.1794 1.3214476418349088 17.37326828400338 10.888723963518565 0 0 0
556 186 2 -1.1794 4.036866389980933 17.247015853810893 10.73876446321653 0 0 0
866 289 1 0.5897 3.554976459708314 15.863222660397108 13.97033632855381 0 0 0
867 289 1 0.5897 2.127848507126205 15.748123755444777 14.46211702613294 0 0 0
566 189 1 0.5897 2.677612042249689 17.81780620227577 13.509707600950062 0 0 0
885 295 1 0.5897 1.4813351727261854 19.09556003956193 14.88232692041575 0 0 0
565 189 2 -1.1794 2.787789156845623 18.73445445737935 13.762285548750052 0 0 0
557 186 1 0.5897 4.13927565051671 16.353220781416454 10.411926286787207 0 0 0
896 299 1 0.5897 0.10768878101981526 15.56276748100775 15.291478960502653 0 0 0
768 256 1 0.5897 1.2468023940080695 11.552918762686062 16.933541745338665 0 0 0
888 296 1 0.5897 2.287085255626311 13.439285368848488 19.17890320140852 0 0 0
766 256 2 -1.1794 1.4655582805194147 10.898183170456068 17.59661211144497 0 0 0
773 258 1 0.5897 3.271393633614383 10.674235071380284 17.427759543986653 0 0 0
886 296 2 -1.1794 2.069821822967226 14.222073711785221 18.672715380610295 0 0 0
774 258 1 0.5897 4.304520391473815 11.194305421083348 16.451038477764747 0 0 0
772 258 2 -1.1794 4.19537054887581 10.596210953567143 17.190340994529514 0 0 0
869 290 1 0.5897 3.32931012227949 14.327458200114226 17.439930531249843 0 0 0
767 256 1 0.5897 0.8073894434558591 11.020309677875503 18.280790369047175 0 0 0
868 290 2 -1.1794 4.114859025642801 14.468429547512143 16.911504479677074 0 0 0
965 322 1 0.5897 0.340601859197755 14.159726788001263 18.85364627425507 1 0 0
782 261 1 0.5897 2.6961622287968035 11.339892803462584 20.383865519809014 0 0 0
771 257 1 0.5897 4.37946690928962 13.209153431673705 15.65387573450813 0 0 0
781 261 2 -1.1794 2.7246744807332415 12.287497668869104 20.515802137497296 0 0 0
870 290 1 0.5897 4.84012532959031 14.250067377528014 17.49674110400668 0 0 0
777 259 1 0.5897 0.9140783358229706 13.54414395369923 15.739921425535398 0 0 0
887 296 1 0.5897 2.203858264355123 14.947268814717678 19.282894031721632 0 0 0
882 294 1 0.5897 4.1017725087129175 16.23431699127132 17.110963907135062 0 0 0
897 299 1 0.5897 0.9645872011183031 16.014979198874926 16.454685879524853 0 0 0
874 292 2 -1.1794 1.3041674217624004 17.430661637205453 17.54207938990689 0 0 0
889 297 2 -1.1794 2.5793118162692403 18.8179473140111 20.37728917286678 0 0 0
891 297 1 0.5897 2.36908023276054 19.473167744175143 19.711944163293467 0 0 0
880 294 2 -1.1794 4.019532793198255 17.158734750268962 17.345198773977167 0 0 0
878 293 1 0.5897 4.61643223392133 18.267279576633932 16.07399611588515 0 0 0
875 292 1 0.5897 0.6688188332211943 17.58698132784034 18.240719124822597 0 0 0
895 299 2 -1.1794 0.9011476181666076 15.340472549295573 15.778511638406894 0 0 0
218 73 1 0.5897 2.520716706780216 16.997549072635664 20.419333219351344 0 0 -1
876 292 1 0.5897 1.1229714133329367 18.113072484065356 16.895799780079223 0 0 0
881 294 1 0.5897 3.084141858885221 17.283390387968694 17.50548298139093 0 0 0
217 73 2 -1.1794 2.569826112855823 16.065250473646593 20.630485133671414 0 0 -1
883 295 2 -1.1794 0.8237453922017595 19.244528931837735 15.561727401701782 0 0 0
775 259 2 -1.1794 0.8314217611423302 12.6112326000461 15.542384116051991 0 0 0
29 10 1 0.5897 6.906897608492423 0.7331615002768926 5.149826506519766 0 0 0
68 23 1 0.5897 8.126242070616211 2.2520733195663136 1.5433180989308015 0 0 0
9 3 1 0.5897 5.213020483314672 4.374286748456607 4.954037402088059 0 0 0
53 18 1 0.5897 9.78899200822093 4.027769280390847 3.88671892779374 0 0 0
46 16 2 -1.1794 8.002557821306501 4.102595183416846 3.8407108889972577 0 0 0
58 20 2 -1.1794 8.681487967088787 0.8245503101908853 5.071052705943566 0 0 0
273 91 1 0.5897 7.458162111908271 0.2812904980096059 1.8508536592978786 0 1 0
47 16 1 0.5897 7.733355750401587 3.330275434359697 3.343479330435475 0 0 0
34 12 2 -1.1794 5.343432009337775 2.463826253073373 0.3883568629017904 0 0 0
69 23 1 0.5897 6.615914948703417 2.2011246554964417 1.6333128105477412 0 0 0
48 16 1 0.5897 7.33032644838551 4.200168535722807 4.51508850217175 0 0 0
67 23 2 -1.1794 7.410153401403809 2.0557067657036217 2.1473495631426522 0 0 0
138 46 1 0.5897 6.966354506482941 7.366471230406133 5.111728192549591 0 0 0
176 59 1 0.5897 7.621328601499348 7.848728250983603 2.1821229385407737 0 0 0
56 19 1 0.5897 6.635862662810127 5.838839533621667 1.6773055987600851 0 0 0
166 56 2 -1.1794 8.71825667230378 7.498207067965096 5.006821635817488 0 0 0
55 19 2 -1.1794 7.556945383109716 5.992140020698296 1.8877652960462337 0 0 0
143 48 1 0.5897 6.072806918031253 9.090207783689072 1.0889926962735403 0 0 0
711 237 1 0.5897 8.63980616425918 5.657694086750353 0.5030488161029488 0 0 1
142 48 2 -1.1794 5.427041866107107 9.172305180933748 0.3872456650581379 0 0 0
175 59 2 -1.1794 7.578055104628769 8.803401476040396 2.1282512739761503 0 0 0
57 19 1 0.5897 7.743458811623583 5.385850894341927 2.6045807700178147 0 0 0
177 59 1 0.5897 8.24917972906267 9.038271005496613 1.4874493875905035 0 0 0
37 13 2 -1.1794 9.238153027126025 2.6912734858789586 0.18968846940787834 0 0 0
145 49 2 -1.1794 9.348507691731024 9.461621821996197 0.0982900992561747 0 0 0
41 14 1 0.5897 9.978137903260285 1.0411739118047554 3.9133139491118945 0 0 0
155 52 1 0.5897 7.930146698390317 9.97966757759459 3.404987211407926 0 0 0
168 56 1 0.5897 8.867406912118492 8.205377986748038 5.634401104924769 0 0 0
7 3 2 -1.1794 5.916827972704075 4.545295123854461 5.579823917298471 0 0 0
362 121 1 0.5897 9.247408758738116 3.5728709226984634 6.780085048507395 0 0 0
136 46 2 -1.1794 6.042276483558573 7.250621883524509 5.332741575385077 0 0 0
361 121 2 -1.1794 9.343104769511193 2.6436939116731617 6.98900994511656 0 0 0
391 131 2 -1.1794 7.563131302560486 2.070516835599908 9.02151595024576 0 0 0
59 20 1 0.5897 8.91046333245091 1.5198840750750053 5.687714625605909 0 0 0
360 120 1 0.5897 5.681253215784844 1.7712408716962218 6.666383918188981 0 0 0
359 120 1 0.5897 6.135450035093484 2.3678194476125634 7.981538031590192 0 0 0
8 3 1 0.5897 5.799205370130267 3.8825081056545803 6.260319493581106 0 0 0
392 131 1 0.5897 8.224415041786978 2.2822810182247304 8.3626843230066 0 0 0
393 131 1 0.5897 7.488832993840416 1.1167875795581543 8.989038020911616 0 0 0
358 120 2 -1.1794 5.477715302754354 2.4655543489203313 7.2930365761862666 0 0 0
469 157 2 -1.1794 9.237824136537618 9.349926193529058 6.9898064935634965 0 0 0
371 124 1 0.5897 7.832649616931507 3.3938559805537536 10.218343825341595 0 0 0
499 167 2 -1.1794 7.561461518666556 8.48419927421518 9.073532750771644 0 0 0
61 21 2 -1.1794 9.230593520671261 5.323004233375232 6.579087216277928 0 0 0
62 21 1 0.5897 8.500264899615035 5.533832465458965 7.160781584134028 0 0 0
466 156 2 -1.1794 5.49457737124334 9.033728380167087 7.326302007057091 0 0 0
338 113 1 0.5897 5.466515731552609 5.867349998026088 8.223744387770388 0 0 0
379 127 2 -1.1794 7.303689101125339 5.824617330573091 8.464315827480778 0 0 0
501 167 1 0.5897 6.764226722578687 8.738160663552073 8.608653221814812 0 0 0
380 127 1 0.5897 7.441587388169923 6.719374562128359 8.775078708456853 0 0 0
137 46 1 0.5897 5.958896607000885 6.318787620913974 5.535004429651011 0 0 0
381 127 1 0.5897 7.497174764705377 5.274472202736031 9.223331468940652 0 0 0
167 56 1 0.5897 8.994855450341404 6.70614768656132 5.467604486735601 0 0 0
500 167 1 0.5897 7.673281860757901 9.158072609706675 9.7440444835385 0 0 0
467 156 1 0.5897 5.694388980358563 8.357209309483434 6.679315819181556 0 0 0
470 157 1 0.5897 8.74539900133782 9.053846548998322 7.755350704677238 0 0 0
28 10 2 -1.1794 5.976132547705738 0.6122970915539094 5.337591235174488 0 0 0
352 118 2 -1.1794 5.749106657747382 0.9870867843937483 12.129396662918998 0 0 0
332 111 1 0.5897 5.234635576669628 4.5666435953503655 11.792873338893557 0 0 0
370 124 2 -1.1794 8.017629080117487 4.23800447343539 10.6299003638242 0 0 0
682 228 2 -1.1794 5.3800602180931865 2.7208886846960914 14.239444618750568 0 0 0
685 229 2 -1.1794 9.128276341708865 2.759130919916918 13.72354174962647 0 0 0
386 129 1 0.5897 9.072855152094066 4.597077606027343 13.749527138038971 0 0 0
331 111 2 -1.1794 5.967649978367479 4.690333313671587 12.395856574133623 0 0 0
372 124 1 0.5897 7.3525703900580135 4.322794140611437 11.313060942268118 0 0 0
382 128 2 -1.1794 8.496015975793462 0.870664259369389 11.849993649428328 0 0 0
684 228 1 0.5897 5.604541535322014 3.491865093250156 13.718492036320002 0 0 0
354 118 1 0.5897 5.6517006946060775 1.53808031304317 12.906003897397568 0 0 0
384 128 1 0.5897 9.140669654676113 0.9380448193566087 11.145661570491837 0 0 0
353 118 1 0.5897 6.687260014580215 1.0027582257735093 11.940160884873828 0 0 0
686 229 1 0.5897 8.635032538617152 2.559705449276642 14.519246359576451 0 0 0
383 128 1 0.5897 8.71973830829797 1.5828963842229242 12.449046810945292 0 0 0
492 164 1 0.5897 8.132430131275433 7.481534623728216 11.916298269234712 0 0 0
824 275 1 0.5897 7.932550035736442 9.028487981553603 15.466946423315669 0 0 0
491 164 1 0.5897 9.541960204341322 7.563011072606695 11.37005807466264 0 0 0
490 164 2 -1.1794 9.05088562661454 7.430497733499215 12.180917284262469 0 0 0
794 265 1 0.5897 9.143304759769356 8.660221129915998 13.498528304140814 0 0 0
461 154 1 0.5897 5.987898498860776 8.006212062673551 12.868222063765664 0 0 0
791 264 1 0.5897 5.86517608713353 9.11658120455417 14.871801801379315 0 0 0
790 264 2 -1.1794 5.451975264886293 9.240091778652099 14.017273793233588 0 0 0
387 129 1 0.5897 9.098121090868371 6.044299397593899 13.306047806487566 0 0 0
333 111 1 0.5897 6.043782291846636 5.639867661118608 12.489476195130722 0 0 0
705 235 1 0.5897 7.918682313175496 5.872067474782385 15.318334207778996 0 0 0
385 129 2 -1.1794 9.12882719459988 5.491173853165439 14.086631762715296 0 0 0
460 154 2 -1.1794 6.293977872315368 7.427666199794857 12.169796762517784 0 0 0
793 265 2 -1.1794 9.268460392696483 9.233158289756853 14.255019557050632 0 0 0
462 154 1 0.5897 5.697510251217117 7.595712591091515 11.440283402661859 0 0 0
377 126 1 0.5897 9.802141018813318 4.102330599330684 10.487277346344365 0 0 0
717 239 1 0.5897 6.705813038269513 2.3756780337279495 15.410624667992364 0 0 0
704 235 1 0.5897 6.449270075238697 5.923498283287314 15.678846495949708 0 0 0
696 232 1 0.5897 7.795275467001465 4.879490908856837 17.188010739121328 0 0 0
35 12 1 0.5897 5.551278876044375 1.7915154377715552 20.39282649033155 0 0 -1
702 234 1 0.5897 9.770263035806089 4.09736117212447 17.74184282890985 0 0 0
38 13 1 0.5897 9.043809723554595 2.1854880828245737 20.053937770908416 0 0 -1
694 232 2 -1.1794 8.003719916899989 4.146459567148017 17.76715386118774 0 0 0
677 226 1 0.5897 5.389754688523694 0.9044463747745465 18.32809427124451 0 0 0
695 232 1 0.5897 7.84952856668686 3.3672789833533283 17.233027567099313 0 0 0
708 236 1 0.5897 7.766721080982574 1.048851739375309 18.687781217862074 0 0 0
715 239 2 -1.1794 7.533024095350775 2.225251810411681 15.868103500457094 0 0 0
655 219 2 -1.1794 5.796848845543053 4.595464507616071 19.361817705588088 0 0 0
657 219 1 0.5897 6.635153531728041 4.42307356057444 18.9331961214002 0 0 0
706 236 2 -1.1794 8.723575075397925 1.0724379206321104 18.679984968664545 0 0 0
716 239 1 0.5897 7.611129078048609 1.2724606846611322 15.915688557280918 0 0 0
676 226 2 -1.1794 5.995459505881273 0.7257715015721018 19.047399189260478 0 0 0
707 236 1 0.5897 8.986803802769437 0.29581368173689987 19.173697853771188 0 0 0
710 237 1 0.5897 9.25366358316397 4.459070164957278 20.464794123785556 0 0 0
786 262 1 0.5897 6.938548005916319 7.421229080345274 18.944279216454674 0 0 0
785 262 1 0.5897 5.891330536508424 6.381433987486199 19.281820523343175 0 0 0
816 272 1 0.5897 8.910884828610685 8.245558352689663 19.519184158913863 0 0 0
144 48 1 0.5897 5.661875644086352 8.485357261155501 20.4167366646802 0 0 -1
815 272 1 0.5897 8.949978442884792 6.737693632611496 19.390487525855143 0 0 0
709 237 2 -1.1794 9.28725853617964 5.415193098413709 20.494391848766583 0 0 0
823 275 2 -1.1794 7.239071738354507 8.836445040215992 16.098139378299113 0 0 0
703 235 2 -1.1794 7.321776256161761 6.097856030143049 16.031723817016736 0 0 0
825 275 1 0.5897 7.258105722465959 7.884202059826791 16.193250476043758 0 0 0
814 272 2 -1.1794 8.7158704245772 7.53246158677259 18.911195252913874 0 0 0
784 262 2 -1.1794 6.0015995863191245 7.316515407855967 19.10965649821598 0 0 0
656 219 1 0.5897 5.141438007748049 4.418383069626333 18.687074011878572 0 0 0
36 12 1 0.5897 5.527245155939339 3.2913313912372724 20.59710766304196 0 0 -1
163 55 2 -1.1794 7.6120952813625555 12.779355090041982 2.151198296741294 0 0 0
165 55 1 0.5897 7.808214191887301 12.094516419535735 2.7905140850230725 0 0 0
285 95 1 0.5897 7.647330185155227 14.6393108694513 2.0807690562594545 0 0 0
275 92 1 0.5897 7.848066764233821 13.9071240836079 4.921445691473326 0 0 0
164 55 1 0.5897 6.699912225114307 12.624587285660382 1.905928621364783 0 0 0
246 82 1 0.5897 5.319378818669096 14.06871650980848 4.608325345417367 0 0 0
276 92 1 0.5897 9.255453452886725 14.06783198317973 4.387380634797241 0 0 0
154 52 2 -1.1794 8.144347672695236 10.716313966524032 3.9774032320120796 0 0 0
819 273 1 0.5897 8.576161643918264 12.447579389426304 0.6666472737998819 0 0 1
156 52 1 0.5897 9.100060969924154 10.765456818190515 3.957815844980635 0 0 0
927 309 1 0.5897 8.633531268182455 19.02323547987269 0.3083022491473235 0 0 1
250 84 2 -1.1794 5.279951011361839 15.615286554599992 0.36008207062267944 0 0 0
254 85 1 0.5897 8.814025763207084 15.938186950774336 0.47691702247021184 0 0 0
264 88 1 0.5897 8.761243980383087 17.477566920856177 3.8869150813907574 0 0 0
251 84 1 0.5897 6.070001877378589 15.608373419464927 0.9004220909454161 0 0 0
263 88 1 0.5897 7.387914303774216 17.55657538245729 4.518989739118061 0 0 0
271 91 2 -1.1794 7.383635107487204 19.21685157763818 1.5309032831663751 0 0 0