LAMMPS (30 Jul 2021)
Processor partition = 0
  using 4 OpenMP thread(s) per MPI task
using multi-threaded neighbor list subroutines
variable        pid world 0 1
variable        phase world IceVI IceV

shell cd ${phase}
shell cd IceVI
include Restart.lmp
echo both
log log.lammps
#include		in.partitions
include		in.temp
variable        temperature equal 160.77
variable	tempDamp equal 100.0
include		in.pressure
variable        pressure equal 8321.1
variable        pressureDamp equal 1000.0 # This is 1 ps
include		in.seed
variable        seed equal 745823

units		real
atom_style	full
read_restart	restart.lmp.${pid}
read_restart	restart.lmp.0
Reading restart file ...
  restart file = 30 Jul 2021, LAMMPS = 30 Jul 2021
  restoring atom style full from restart
  orthogonal box = (0.023387799 -0.10065592 0.014161199) to (24.706613 24.830657 22.795839)
  2 by 4 by 2 MPI processor grid
  restoring pair style lj/cut/tip4p/long/omp from restart
  restoring bond style harmonic/omp from restart
  restoring angle style harmonic/omp from restart
  1920 atoms
  1280 bonds
  640 angles
Finding 1-2 1-3 1-4 neighbors ...
  special bond factors lj:    0        0        0       
  special bond factors coul:  0        0        0       
     2 = max # of 1-2 neighbors
     1 = max # of 1-3 neighbors
     1 = max # of 1-4 neighbors
     2 = max # of special neighbors
  special bonds CPU = 0.001 seconds
  read_restart CPU = 0.007 seconds
include 	in.setup
variable	out_freq equal 1000
variable	out_freq2 equal 10000
variable	out_freq3 equal 1000

timestep	2.0

neigh_modify    delay 7 every 1

include		in.tip4p
# This is TIP4P/Ice

# create groups ###
group ox type 2
640 atoms in group ox
group hy type 1
1280 atoms in group hy

# set charges - beside manually ###
set group ox charge -1.1794
Setting atom values ...
  640 settings made for charge
set group hy charge 0.5897
Setting atom values ...
  1280 settings made for charge

# ### TIP3P Potential Parameters ###
pair_style lj/cut/tip4p/long/omp 2 1 1 1 0.1577 8.5
pair_coeff 1 1*2 0.000 0.000
pair_coeff 2 2 0.21084 3.1668
bond_style  harmonic
bond_coeff  1 450 0.9572
angle_style harmonic
angle_coeff 1 55 104.52
kspace_style pppm/tip4p/omp 1.0e-5
pair_modify tail yes

thermo          ${out_freq}
thermo          1000
thermo_style    custom step temp pe etotal epair emol press lx ly lz vol pxx pyy pzz pxy pxz pyz enthalpy

restart 	${out_freq3} restart.lmp.${pid} restart2.lmp.${pid}
restart 	1000 restart.lmp.${pid} restart2.lmp.${pid}
restart 	1000 restart.lmp.0 restart2.lmp.${pid}
restart 	1000 restart.lmp.0 restart2.lmp.0


include         in.dump
dump            myDump all atom ${out_freq2} dump.water.${pid}
dump            myDump all atom 10000 dump.water.${pid}
dump            myDump all atom 10000 dump.water.0
dump            myDump2 all dcd ${out_freq2} dump.dcd
dump            myDump2 all dcd 10000 dump.dcd
dump_modify     myDump append yes
dump_modify     myDump2 append yes


variable natoms 	equal  "count(all)"                        # NUMBER ATOMS
variable H      	equal  "enthalpy/v_natoms"                 # ENTHALPY-per-atom
variable Vol      	equal  "vol/v_natoms"                 # volume-per-atom
fix AVG all 		ave/time ${out_freq} 1 ${out_freq} v_Vol v_H file vol_enthalpy.dat
fix AVG all 		ave/time 1000 1 ${out_freq} v_Vol v_H file vol_enthalpy.dat
fix AVG all 		ave/time 1000 1 1000 v_Vol v_H file vol_enthalpy.dat




fix 		1 all shake 1e-6 200 0 b 1 a 1
Finding SHAKE clusters ...
       0 = # of size 2 clusters
       0 = # of size 3 clusters
       0 = # of size 4 clusters
     640 = # of frozen angles
  find clusters CPU = 0.000 seconds
fix             2 all nph aniso ${pressure} ${pressure} ${pressureDamp}
fix             2 all nph aniso 8321.1 ${pressure} ${pressureDamp}
fix             2 all nph aniso 8321.1 8321.1 ${pressureDamp}
fix             2 all nph aniso 8321.1 8321.1 1000
fix             3 all temp/csvr ${temperature} ${temperature} ${tempDamp} ${seed}
fix             3 all temp/csvr 160.77 ${temperature} ${tempDamp} ${seed}
fix             3 all temp/csvr 160.77 160.77 ${tempDamp} ${seed}
fix             3 all temp/csvr 160.77 160.77 100 ${seed}
fix             3 all temp/csvr 160.77 160.77 100 745823


run             250000
PPPM initialization ...
  extracting TIP4P info from pair style
  using 12-bit tables for long-range coulomb (../kspace.cpp:340)
  G vector (1/distance) = 0.3749372
  grid = 30 30 30
  stencil order = 5
  estimated absolute RMS force accuracy = 0.0032170361
  estimated relative force accuracy = 9.6880088e-06
  using double precision FFTW3
  3d grid and FFT values/proc = 7920 1800
Last active /omp style is kspace_style pppm/tip4p/omp
Neighbor list info ...
  update every 1 steps, delay 7 steps, check yes
  max neighbors/atom: 2000, page size: 100000
  master list distance cutoff = 10.8154
  ghost atom cutoff = 10.8154
  binsize = 5.4077, bins = 5 5 5
  1 neighbor lists, perpetual/occasional/extra = 1 0 0
  (1) pair lj/cut/tip4p/long/omp, perpetual
      attributes: half, newton on, omp
      pair build: half/bin/newton/omp
      stencil: half/bin/3d
      bin: standard
Setting up Verlet run ...
  Unit style    : real
  Current step  : 20750000
  Time step     : 2
Per MPI rank memory allocation (min/avg/max) = 12.56 | 12.56 | 12.56 Mbytes
Step Temp PotEng TotEng E_pair E_mol Press Lx Ly Lz Volume Pxx Pyy Pzz Pxy Pxz Pyz Enthalpy 
20750000     161.9122   -9519.5668   -8902.2836   -9519.5668            0    8974.5089    24.683225    24.931313    22.781678    14019.508    10774.739    7638.4862    8510.3015    424.39468   -496.55587    288.23137   -7067.3543 
20751000    158.79229    -9535.476   -8930.0873    -9535.476            0    7642.7405    24.837426     24.80497    22.868703    14089.216    7135.8169    7962.3984    7830.0062   -340.72204    335.23116    94.263777   -7359.6817 
20752000    160.88331   -9530.8712   -8917.5107   -9530.8712            0    9011.6036    24.696698    24.857102     22.87809    14044.592    9477.8101    8203.7052    9353.2954    496.15739   -858.38643    258.94318   -7071.7002 
20753000    166.30779    -9554.192   -8920.1508    -9554.192            0    8472.5641    24.842109    24.832137    22.736516    14025.762    8054.1582    7880.3099    9483.2244   -190.64942    600.79983   -451.95144   -7187.0764 
20754000    157.86627   -9554.9431   -8953.0848   -9554.9431            0    6864.4155    24.860485    24.822188    22.882253    14120.447    6487.1838    6690.4848    7415.5779    203.40411    354.34426    -491.8988   -7539.4805 
20755000    158.53101   -9518.2624   -8913.8699   -9518.2624            0    8069.7926     24.72165    24.809255     22.94123    14070.446     8192.487    8370.7782    7646.1127   -1114.4917     376.6486   -1532.8703    -7257.924 
20756000     159.8365   -9499.7395   -8890.3698   -9499.7395            0    8728.6301    24.760556    24.791056    22.893728    14053.094    9149.3862    9481.0568    7555.4472   -253.86871   -204.14716    -333.1783   -7101.4375 
20757000    156.84808   -9532.5597   -8934.5832   -9532.5597            0    8319.7082    24.790805     24.95593    22.719658    14056.144    9387.0218    7534.3817    8037.7212   -1015.5557   -456.38062    30.605232   -7229.0893 
20758000    160.10231    -9545.955    -8935.572    -9545.955            0    8778.9491    24.735819    24.804945    22.885933    14042.136    8316.8468    9552.3278    8467.6726   -249.86837   -624.54882    105.77537   -7137.7297 
20759000    162.96185   -9519.5127   -8898.2278   -9519.5127            0    8141.9107    24.787444    24.769728    22.943858     14087.03    7890.4449    9049.0781    7486.2092    302.16938    550.21875   -333.22622   -7225.5139 
20760000    162.45375   -9537.3521   -8918.0043   -9537.3521            0    7441.4178    24.829412    24.866233     22.83387     14097.95    8058.1869    6496.3173    7769.7491   -2.7684441   -1163.0049   -473.21881    -7388.018 
20761000    157.69861   -9529.6283   -8928.4093   -9529.6283            0    8132.0169    24.769465    24.882655    22.810385    14058.726    8449.3814    7357.1835    8589.4858    -258.5731    373.64931   -406.35372   -7261.0848 
20762000    166.25847   -9527.2187   -8893.3656   -9527.2187            0    8433.1951    24.795857    24.827831    22.831308    14055.578    8802.2203    7991.6687    8505.6963    381.47879   -202.66091    84.682128   -7164.6771 
20763000    170.04668   -9549.8523   -8901.5568   -9549.8523            0    8736.9212    24.855191    24.705757    22.823191    14014.952    8780.5176    9665.1963    7765.0497    200.92453    1288.9216    167.66358   -7115.7851 
20764000    155.60855   -9543.3059   -8950.0552   -9543.3059            0    8159.3884    24.725467    24.852843    22.891415    14066.732    9039.1713    7594.6477    7844.3461    107.44469    -337.6066    -155.2168   -7276.1659 
20765000    160.90871   -9533.8516   -8920.3942   -9533.8516            0    8186.1176    24.733659    24.955162    22.756612    14046.119    9087.1943    6595.1982    8875.9605   -659.61336    830.21682     75.26792   -7243.4824 
20766000    163.07814   -9535.3181   -8913.5899   -9535.3181            0    8694.0814    24.785097    24.725856    22.907941    14038.737    9009.7331    9199.6997    7872.8113    156.88134    253.00483   -784.92109   -7133.5587 
20767000    157.11297   -9512.1827   -8913.1964   -9512.1827            0    7989.9946    24.767043    24.879097    22.822426     14062.76    8535.3891    7744.0376    7690.5572   -771.60515    625.49404     522.4721    -7274.521 
20768000    157.78532   -9546.8774   -8945.3278   -9546.8774            0    8249.6813    24.774654    24.908858    22.759941    14045.349    8307.9325    7685.1909    8755.9205     458.9418    325.91244    411.12132   -7255.4878 
20769000    163.72805   -9555.4282   -8931.2223   -9555.4282            0    7787.4715    24.840017    24.744578    22.894991    14072.538      7374.18    7840.2152    8148.0192    102.51832   -140.71043    933.68244    -7332.972 
20770000    161.83592    -9554.748   -8937.7556    -9554.748            0    7654.8035    24.752327    24.810818    22.946433    14091.989    7749.2828     8371.438    6843.6897    98.457456    -845.1473    411.48244   -7364.5618 
20771000    159.14381   -9540.8052   -8934.0764   -9540.8052            0    8194.8256    24.778487    24.905489    22.774646    14054.698    8294.2493    7450.9684     8839.259   -397.70242   -116.98735   -52.757616   -7254.3556 
20772000    165.15685   -9531.4755   -8901.8222   -9531.4755            0    9334.6577    24.851783    24.748741    22.795444    14020.346    7966.2136    10447.657    9590.1029     564.7352   -729.20398    473.41356   -6993.1427 
20773000    160.61825   -9566.4498   -8954.0998   -9566.4498            0    7320.9344    24.677351     24.85376    22.968288    14087.025    8205.5564    7467.4805    6289.7664   -516.53167    30.783994    265.58487   -7450.0518 
20774000    169.46766   -9530.3424   -8884.2544   -9530.3424            0    7590.3026     24.84881    24.877271    22.792273    14089.513    6867.4193    7790.6548    8112.8337     -538.454    -510.7419    886.34744   -7324.5908 
20775000    164.81125   -9541.5917   -8913.2561   -9541.5917            0    8588.7796    24.795958    24.796145    22.837163    14041.296    8013.8838    9649.0313    8103.4236   -258.91925   -654.85807    665.53543   -7154.4638 
20776000    163.95233   -9528.4803   -8903.4192   -9528.4803            0    8363.7746    24.687251    24.896318    22.866341    14054.148    9788.0081    6840.0865    8463.2292   -132.20104   -300.69943   -575.55501   -7189.1353 
20777000    161.14978   -9532.0977   -8917.7212   -9532.0977            0    8547.1767    24.780736    24.787168    22.887027    14058.226    8341.0263    8946.6893    8353.8144   -89.502594    100.80616   -18.451533    -7165.338 
20778000    164.02856    -9561.156   -8935.8043    -9561.156            0    8487.1258    24.883629    24.742611    22.786601     14029.39    8260.4688    8952.8815     8248.027   -1026.8247    632.28191    1286.0087   -7199.3022 
20779000    159.70624   -9550.3079   -8941.4349   -9550.3079            0    7478.0316    24.718574    24.972073     22.81124    14080.786    7711.6188    6695.5609    8026.9151   -96.417454   -852.51184   -431.66902   -7405.7925 
20780000    162.54953   -9516.4087   -8896.6957   -9516.4087            0    9763.2521    24.799325    24.749651    22.829317    14012.056    8585.4942    10414.141    10290.121    474.43073   -115.49723   -60.241859   -6901.5609 
20781000    166.11695   -9536.0455   -8902.7319   -9536.0455            0    8239.2083    24.773828    24.811415    22.899237     14075.56    8937.6973    8619.3144    7160.6133    159.34641   -1203.4022   -406.84344    -7211.407 
20782000    164.33065   -9529.1972   -8902.6938   -9529.1972            0      7702.34     24.73887    24.882204     22.87986    14083.872    7263.2861     7843.597    8000.1368   -223.07512   -425.74692   -710.43587   -7320.6422 
20783000    164.72951   -9542.1715   -8914.1475   -9542.1715            0    7413.2436    24.849692    24.805775    22.871501    14098.356    6526.2411    7681.7352    8031.7544    393.00559   -50.186218   -131.96058     -7389.91 
20784000    157.28406   -9546.9901   -8947.3515   -9546.9901            0    7949.1611    24.761953    24.787523    22.911267    14062.649    7239.8022    9307.3481     7300.333    114.48875   -492.77449    915.65052   -7317.0635 
20785000    157.54468    -9553.444   -8952.8118    -9553.444            0    8817.4204    24.751472    24.947116     22.69421    14013.172    9432.9624    7970.1925    9049.1062   -250.10143    -467.3213    11.069949   -7150.8156 
20786000    162.14257    -9542.432   -8924.2706    -9542.432            0    9004.1613    24.778299    24.741604    22.893985    14035.268    8981.3129    9446.3592    8584.8119   -66.513448    641.09026    511.46659   -7081.2089 
20787000    161.44748   -9542.0136   -8926.5022   -9542.0136            0      8139.28    24.674073     24.80495    22.967533    14057.029    8115.7594    8598.2812    7703.7994   -525.01646    318.60912    1167.1885     -7257.89 
20788000    161.29691   -9522.5364    -8907.599   -9522.5364            0    8276.9265    24.813723    24.878886    22.789063     14068.55    8009.9949    8374.4214    8446.3633   -622.56898    40.281305    -200.7546   -7209.3775 
20789000    162.97391   -9555.0475   -8933.7166   -9555.0475            0    8123.5355    24.870537    24.821833    22.736931    14036.242      7251.14    8306.8565    8812.6098    -934.9033   -822.63549   -183.93277   -7270.7948 
20790000     160.5989   -9547.8294   -8935.5532   -9547.8294            0    8031.9074    24.759605    24.797031    22.903574    14061.986    7947.8355    8384.5072    7763.3795    487.34504     305.1911   -677.32915   -7288.3725 
20791000    154.04907   -9547.7692   -8960.4639   -9547.7692            0    8306.7519    24.635879    24.826428    22.997751    14065.904     9652.722     8548.685    6718.8485    -761.9269    250.55969   -169.37703   -7256.4435 
20792000     157.9548   -9530.4049   -8928.2092   -9530.4049            0    8336.1868    24.806812    24.875094     22.80196    14070.446    8668.0872     8013.102    8327.3712   -629.25955   -626.60837   -535.25761   -7217.5985 
20793000    165.06496   -9541.0923   -8911.7894   -9541.0923            0    8750.2509    24.842366    24.856591    22.727574    14034.198    9028.5209    8021.2834    9200.9485    -267.4004    567.67404    526.86864   -7120.8372 
20794000    159.50993   -9532.8792   -8924.7546   -9532.8792            0    7889.3249     24.74246    24.856764    22.878049    14070.401     8298.723    7671.8612    7697.3905    -327.6165   -1059.6416    465.26019   -7305.8465 
20795000    159.06286    -9566.778   -8960.3579    -9566.778            0    7980.5758    24.756376    24.727488    22.979795     14067.38    7585.7116    7741.0713    8614.9445     538.4886   -595.17238    702.19425   -7323.0764 
20796000    159.10153   -9491.4302   -8884.8626   -9491.4302            0    9473.0705    24.815505    24.762426    22.835246    14032.078      8956.37    10088.566    9374.2758    476.04662    282.82842    102.92069   -6946.2607 
20797000    157.46579   -9540.6139   -8940.2825   -9540.6139            0    7764.2258    24.841634    24.904924     22.75124    14075.715    7462.4813    7201.0623    8629.1339    -120.5484    941.96819    606.62047   -7346.4432 
20798000     160.3821   -9541.0351   -8929.5854   -9541.0351            0    8121.6492    24.772717    24.892587    22.806264    14063.642    8781.9767    7341.8772    8241.0937    558.44357   -644.98291    537.10508   -7263.8043 
20799000    163.70735   -9533.7476   -8909.6205   -9533.7476            0    7922.6355    24.761053    24.727092    23.005041    14085.269    7719.4557     8820.651    7227.7997   -412.98571   -813.98153   -164.54372    -7282.159 
20800000    165.37833   -9529.5559   -8899.0583   -9529.5559            0    8415.2972    24.759053    24.851675    22.822425    14042.728    8587.2777    8542.7113    8115.9026   -162.39949   -123.01949    118.83786   -7175.6156 
20801000    163.29404   -9547.5739   -8925.0226   -9547.5739            0    7486.2379     24.83454    24.870635    22.818525     14093.88    7193.5804    7086.1006    8179.0328   -245.93862    957.26772   -7.3571344   -7386.2654 
20802000    156.83903    -9513.917   -8915.9751    -9513.917            0    9707.0437    24.717473    24.765356    22.855545    13990.725    10412.389    9452.5837    9256.1582    814.00783    -11.94117    -184.4831   -6935.3463 
20803000    159.56356   -9538.9226   -8930.5935   -9538.9226            0    7671.5287    24.760014    24.755336    22.971011    14079.907    7977.0015    8253.6479    6783.9368    1205.6901   -522.65664    123.26288   -7355.3141 
20804000    162.84453   -9528.8718   -8908.0342   -9528.8718            0    8437.6123    24.830958    24.810939    22.814533    14055.563    8212.0746    8162.7958    8937.9665   -91.075629   -415.10146   -11.330836   -7178.4421 
20805000    168.05925   -9552.0481   -8911.3296   -9552.0481            0    7171.6456    24.792206    24.963455    22.810313    14117.282    6875.5495    6603.1301    8036.2571   -414.92303   -18.244024    145.54631   -7434.7877 
20806000    167.24401   -9537.6199   -8900.0095   -9537.6199            0    8207.5775    24.790477    24.773803    22.902531     14065.69    8717.5905     8253.542    7651.6001    434.91436   -818.24102    601.68958   -7216.3591 
20807000    157.54926   -9524.3372   -8923.6876   -9524.3372            0    8698.6839    24.780817    24.752339    22.910936    14053.183    9178.5714    9368.3171    7549.1632   -135.17995   -748.33546    -662.7518   -7140.8814 
20808000    158.36682   -9539.6572   -8935.8907   -9539.6572            0    7232.2698    24.788717    24.860292    22.850655    14081.824    7695.3821    6985.4869    7015.9403   -230.93401   -622.62099    367.57568    -7450.607 
20809000    158.44706   -9523.7804   -8919.7079   -9523.7804            0    9478.5997    24.800009    24.744577    22.833528    14012.154    9958.6619    9328.8058    9148.3314    118.08066    256.05861   -837.43169   -6982.7287 
20810000    161.40665   -9570.9081   -8955.5524   -9570.9081            0    7957.6356    24.746732    24.847737    22.869751    14062.616    8574.0586    7570.7736    7728.0746    493.15295    227.49172   -114.17687   -7323.5301 
20811000    161.08468   -9553.0183     -8938.89   -9553.0183            0    7938.2119    24.782206    24.945086    22.742217    14059.108     7992.716    7864.5158     7957.404   -598.99049    121.12324   -541.41709   -7311.2576 
20812000     160.4461   -9531.3288   -8919.6351   -9531.3288            0    9824.9731    24.850229    24.770589    22.732553    13993.132    9201.1069    9112.4634    11161.349   -109.74751   -879.23969    509.41323   -6914.5991 
20813000    168.81098   -9546.8291   -8903.2446   -9546.8291            0     6947.038    24.790684     24.83944     22.90779    14106.313    7558.7549     6884.496    6397.8632    283.27406   -588.52337   -284.05134   -7474.0576 
20814000    164.44721   -9541.8528    -8914.905   -9541.8528            0    8354.9389    24.703958     24.80273    22.929579     14049.54    9508.8772    7510.4355     8045.504    106.73924   -463.78849    1019.2642   -7202.9936 
20815000    155.05325   -9542.9077    -8951.774   -9542.9077            0    8414.4043    24.807738    24.879807    22.770289    14054.089    8168.9034    8059.2999    9015.0096   -505.79763    464.10424   -420.52918     -7227.12 
20816000     165.4954   -9510.2818   -8879.3378   -9510.2818            0    8509.3974    24.830157    24.862225    22.754343    14047.006     8161.236    8302.0939    9064.8623     815.5882   -1107.6587    97.505568   -7136.0927 
20817000    156.98697   -9546.4234   -8947.9175   -9546.4234            0    8639.6658    24.810417    24.666598    22.951752     14046.21    8164.3683    10278.999    7475.6298    11.276468   -708.64955    714.83932   -7178.0857 
20818000     156.9897   -9537.1497   -8938.6334   -9537.1497            0    9133.9242    24.705417    24.813469    22.863276    14015.807    8893.1358    9779.3147    8729.3221    212.09379     108.9265    608.02842   -7071.6029 
20819000    158.06408   -9545.8814    -8943.269   -9545.8814            0    8248.1164    24.842895    24.878436    22.726759    14046.327    8213.2971    7684.1808    8846.8715   -581.00258   -189.77002   -430.30056   -7253.6319 
20820000    160.88786   -9551.2722   -8937.8943   -9551.2722            0    8385.4146    24.825632    24.758634    22.870674    14057.431    8073.8659    8586.4563    8495.9218   -270.99258   -531.09078    5.1036483   -7218.7735 
20821000    156.79157   -9510.1006   -8912.3396   -9510.1006            0    9155.7398    24.611382    24.905497    22.883749    14026.793    10772.062    8319.9662    8375.1913    164.86317    1177.8747   -333.54911    -7039.383 
20822000    163.94561    -9535.858   -8910.8226    -9535.858            0    8220.3493    24.877953    24.780415    22.816518    14066.064    6544.4979    8668.7324    9447.8177    70.811484   -495.38297    388.40072   -7224.5074 
20823000    158.10911   -9568.5941     -8965.81   -9568.5941            0    8329.1211    24.823458    24.834246    22.757399    14029.296    8353.7733     7801.338     8832.252    -324.9831   -724.94397   -35.525229   -7261.6478 
20824000      162.976   -9530.0359   -8908.6971   -9530.0359            0    8553.2087    24.776527    24.778788    22.887486    14051.367    9161.4195    8549.7272    7948.4795   -553.29931   -480.39265   -276.39863   -7155.9326 
20825000    165.08185   -9536.5233    -8907.156   -9536.5233            0    7012.2237    24.805969    24.850521     22.90538    14119.821    7072.9531    7681.9885    6281.7294    -536.4468    532.39165    38.138618   -7463.1771 
20826000    159.10535    -9525.072   -8918.4898    -9525.072            0     8372.266    24.815674    24.862522    22.768013    14047.414    8982.0433    7793.3491    8341.4056   -148.20017    447.06629    907.77269   -7203.2878 
20827000    161.15848    -9567.495   -8953.0854    -9567.495            0    8181.1063    24.782277    24.859036    22.809526    14052.117    8519.0841    7781.9931    8242.2416    203.87849   -139.76804   -991.64668   -7276.4845 
20828000    161.71538   -9518.7757    -8902.243   -9518.7757            0    7437.7823     24.77438     24.77783    22.981382    14107.245    7725.4978    7865.0871    6722.7621    726.27789    -100.7216    269.69397   -7371.9958 
20829000    162.11111   -9546.7164   -8928.6749   -9546.7164            0    8556.3547    24.735809     24.81991    22.883485      14049.1    7887.2015    8925.1274    8856.7351    190.69456    662.50587    461.25164   -7175.5488 
20830000    156.37659   -9516.2099    -8920.031   -9516.2099            0    9214.3977    24.866429    24.808649     22.72258    14017.617    9067.7346     9166.931    9408.5276   -432.45981   -774.95227   -621.52208   -7036.3081 
20831000    165.62227   -9533.3791   -8901.9514   -9533.3791            0    8399.9902    24.767997    24.851638    22.800323    14034.175     8662.481    7989.6074    8547.8822   -507.94632   -1359.0299    130.67825   -7182.6914 
20832000    161.95158   -9547.6617   -8930.2284   -9547.6617            0    7665.5614    24.758333    24.785848    22.945516     14080.66    7855.1158     8118.787    7022.7815   -97.111415    -256.9221    312.16432   -7356.0902 
20833000    159.39901   -9564.2504   -8956.5487   -9564.2504            0    8697.7525    24.734145    24.817761     22.85066    14026.788    8229.2718    8691.2369    9172.7488    92.156637   -524.77759    179.92024   -7177.2815 
20834000    161.09588   -9518.2399    -8904.069   -9518.2399            0    7262.0138     24.78668    24.808202    22.965457    14121.757    7900.8443    7072.4155    6812.7815   -78.623779    1275.7492    1103.6237   -7408.4475 
20835000    155.99989   -9528.5838   -8933.8411   -9528.5838            0    8002.7137     24.84149    24.776945    22.828797    14051.038    8034.8799    7599.3513      8373.91    -94.76472    169.24257   -508.12004   -7293.9251 
20836000     161.3222   -9521.2746   -8906.2408   -9521.2746            0    9610.0826    24.757913    24.834787    22.750399    13988.253    10211.121    8610.4555    10008.671    166.11294    363.46293    473.44941   -6945.7424 
20837000    161.82346   -9543.9175   -8926.9726   -9543.9175            0    8308.2698    24.764051    24.838828    22.838832    14048.394    8900.0165    7147.8744    8876.9187   -16.121422    1615.0865    697.21604   -7224.7626 
20838000    161.42866   -9514.8003   -8899.3606   -9514.8003            0    8983.2323    24.694417    24.722603    22.999576    14041.477    9951.9985    8902.5105    8095.1878   -265.94246   -543.19522    531.34153   -7059.7694 
20839000    153.05676   -9548.1807   -8964.6586   -9548.1807            0     7443.576    24.850741    24.808366    22.858627    14092.487    7546.6238    7143.7151    7640.3892   -108.87727    691.20751    76.558292   -7434.8216 
20840000    165.75366   -9540.7336    -8908.805   -9540.7336            0    8429.8002    24.767376    24.833895    22.843203    14050.178    9039.0024    8198.4637    8051.9345   -735.10092   -833.36285    106.63216   -7181.4763 
20841000    155.83179   -9540.8513   -8946.7495   -9540.8513            0     8303.888    24.679416    24.803176    22.966409     14058.38    8866.6658    8468.0253    7576.9731   -47.885575    611.59958    672.04009   -7244.2278 
20842000    163.87722   -9537.4661   -8912.6915   -9537.4661            0    8914.1619    24.796092    24.802757     22.78595    14013.621    9049.7494    8394.3495    9298.3868    202.21876    124.94944    814.52741    -7090.866 
20843000    161.86311   -9537.7492   -8920.6532   -9537.7492            0    8324.7319    24.791565    24.872602    22.812455     14066.86    7271.9991    8768.2522    8933.9442    282.10631    21.474339   -392.27923   -7212.8284 
20844000    156.16755   -9519.5594   -8924.1774   -9519.5594            0    9030.1315    24.697462    24.807104    22.917201    14040.739    9239.1309    9197.9824    8653.2811    749.76097    563.84112     -496.533   -7075.0794 
20845000    153.29272   -9551.9669   -8967.5451   -9551.9669            0    7086.1679    24.905646    24.767443    22.874072    14109.852     6685.946    7814.6519    6757.9058   -302.28961   -84.040434    91.922431   -7509.3697 
20846000    158.94533   -9526.2398   -8920.2678   -9526.2398            0     8446.357    24.797074    24.886681    22.790081    14064.144    8889.1078    7475.3296    8974.6336    33.466172   -751.08025    345.01817   -7187.8261 
20847000     161.7544   -9530.4962   -8913.8147   -9530.4962            0    8169.9636    24.809036    24.805124    22.837664    14054.098     7231.422    8648.4322    8630.0365    586.84712     342.4628    370.17439   -7239.2614 
20848000    159.17394   -9570.4899   -8963.6462   -9570.4899            0    7608.4225    24.770251    24.773415    22.916538    14062.589    8194.7591    8248.6506    6381.8578   -265.70565    237.96076    723.43924   -7403.2467 
20849000    161.53446   -9527.9423   -8912.0992   -9527.9423            0     7772.828    24.766403    24.843019     22.88032    14077.625    7927.8455    8111.3686    7279.2699    -132.3763    44.806537    -72.29403   -7316.2776 
20850000    162.32855   -9561.4114   -8942.5409   -9561.4114            0    8903.8791     24.79053    24.877747     22.71395    14008.432    8358.2474    9012.4534    9340.9365    -487.7211    529.11379   -409.07572   -7123.4908 
20851000    158.31999   -9539.1088   -8935.5208   -9539.1088            0    8311.3986    24.800263    24.772767    22.849965    14038.359    8547.4626     8723.575    7663.1582    -373.5782   -485.91741    857.67617    -7233.886 
20852000    162.17641   -9520.9508   -8902.6604   -9520.9508            0    8044.0655    24.762593    24.806678    22.922666    14080.882    8468.1789    7734.3784    7929.6393    14.336702     6.412611   -82.368028   -7250.7695 
20853000    156.30937   -9513.6874   -8917.7648   -9513.6874            0    8676.7935    24.822014     24.80993    22.815309    14050.407    7867.4683    9202.1248    8960.7875   -164.56378   -145.67221    364.68894   -7139.7963 
20854000    163.53567   -9552.4231   -8928.9505   -9552.4231            0    7995.9624    24.855372     24.82147    22.774255    14050.505    7511.9957    8747.0514    7728.8401   -345.46977    250.84068    173.60536   -7290.4802 
20855000    165.59647   -9544.6622   -8913.3329   -9544.6622            0    8628.5186     24.73622    24.768924    22.948325      14060.2    8816.3508     8666.681     8402.524   -878.78114   -200.43754    813.23115   -7144.0242 
20856000    159.48688   -9560.9407    -8952.904   -9560.9407            0    7272.7673    24.686955    24.741416    23.121367    14122.305    8309.6009    8045.1228    5463.5783   -68.189099   -622.59496    227.92844   -7455.0097 
20857000    162.13187   -9538.0315   -8919.9109   -9538.0315            0    8442.8093     24.76841    24.786759    22.840964    14022.722    8581.9509    8753.7179    7992.7591   -144.08015    132.05373    207.68569   -7193.2972 
20858000    156.60869   -9529.9714   -8932.9077   -9529.9714            0    7500.2951    24.904721    24.771598    22.851999    14098.078    6005.7801    9118.4089    7376.6963    -192.8254   -979.25408   -484.68772    -7390.802 
20859000    163.52332   -9559.5004   -8936.0749   -9559.5004            0    8185.7594    24.719425    24.840817    22.895777    14059.168    9294.2181    7700.4435    7562.6167    593.48692   -294.40251    939.15003   -7257.6787 
20860000       161.39   -9550.7935   -8935.5012   -9550.7935            0    9221.8684    24.677244    24.814379    22.868974    14003.827    10240.509    9300.3425    8124.7538   -240.49217    270.73127   -85.912806   -7052.1056 
20861000    157.34481   -9526.6791   -8926.8089   -9526.6791            0    7659.7398    24.937022    24.801816    22.781527    14089.997    6537.9342    8305.0962    8136.1891    230.04438    456.26747    231.75445   -7352.8231 
20862000    162.59892   -9534.6336   -8914.7324   -9534.6336            0    8671.4026    24.798366      24.8747    22.788739    14057.277    9326.6432    7899.5494    8788.0152   -251.93467    622.14924    756.90147   -7136.9998 
20863000    161.82548   -9535.2926   -8918.3401   -9535.2926            0     8602.493    24.657058    24.805556    22.954324      14039.6    10008.716    8045.7966    7752.9664   -625.06311    -463.2346    162.53653   -7156.9525 
20864000    164.76661   -9517.3197   -8889.1542   -9517.3197            0    7856.5043    24.811695    24.776862     22.91289    14085.835    7634.8409    8329.4883    7605.1836   -92.927736    417.22407    -693.3869   -7275.2126 
20865000    165.44683   -9514.6428   -8883.8841   -9514.6428            0     9065.903    24.743234    24.854937    22.813329    14030.004    8953.7603    8975.2035    9268.7452    155.96278   -624.75299    139.33974   -7028.8805 
20866000    159.06968   -9546.6263   -8940.1801   -9546.6263            0    8513.4474    24.875586    24.847985    22.703241    14033.059    8329.4691    8300.1036    8910.7693    127.68077   -278.07203    559.49398    -7197.837 
20867000    157.96556    -9560.638   -8958.4012    -9560.638            0    8586.4469    24.762408    24.777394    22.874119    14034.368    8316.4745    9034.3848    8408.4812   -130.14414   -862.62167     375.8134   -7200.9542 
20868000    153.75084   -9545.4978   -8959.3295   -9545.4978            0    8199.9725    24.689063    24.775924    22.967984    14049.386    8147.0749    9603.2156     6849.627   -224.33642    193.36702   -282.78198   -7279.1889 
20869000    159.25545   -9533.0381   -8925.8837   -9533.0381            0    8147.4269    24.877771    24.862309    22.744471    14067.884    7280.2669    8116.3562    9045.6577    57.182734   -37.458267    47.085857   -7254.3115 
20870000     159.8831   -9540.4967   -8930.9494   -9540.4967            0    8146.2467    24.799422    24.816381    22.828609    14049.454    8309.3858    8381.9385    7747.4159   -283.92681   -129.46439    311.05081   -7261.8089 
20871000    161.32344   -9547.4899   -8932.4514   -9547.4899            0    8527.3328    24.810272    24.826991    22.797098    14042.201    7614.4323    8973.8581    8993.7081    233.02005   -112.90668    -144.5496   -7186.1295 
20872000    165.17167   -9536.4597   -8906.7499   -9536.4597            0    8427.0106    24.733824    24.776862     22.92548    14049.343    8863.4615    8551.6686    7865.9017   -119.24325   -205.59969    502.49546   -7180.0954 
20873000    158.58729   -9547.4747   -8942.8676   -9547.4747            0    8982.7575    24.818476    24.774298    22.798119    14017.659      8772.54    8571.1132    9604.6194    535.23387   -850.74318    523.23726    -7106.494 
20874000    164.45157   -9532.8675   -8905.9031   -9532.8675            0    7640.9347    24.744384    24.985823    22.800299    14096.485    8646.5584    6659.5154    7616.7302   -26.321884   -743.78509    105.23105   -7335.0585 
20875000    164.21056   -9524.5502   -8898.5046   -9524.5502            0    7992.5724    24.878258    24.860086    22.778564    14087.987    7605.5978    8167.7222    8204.3973   -87.960178   -459.49272   -481.14757   -7256.3599 
20876000    163.38421   -9552.8306   -8929.9355   -9552.8306            0    7517.6089    24.785603     24.78091     22.94388    14092.356    7577.1978    7642.0145    7333.6143   -294.89183   -553.27133    368.67841   -7384.8973 
20877000    164.48676   -9540.6297   -8913.5312   -9540.6297            0    8815.5305    24.713528    24.846211    22.877731    14047.786    8750.5257    8144.1646    9551.9012     614.3218    210.81937    1342.3069    -7107.471 
20878000    157.70473   -9520.5908   -8919.3484   -9520.5908            0    10819.143    24.858326     24.64938    22.762239    13947.387    9453.6791    12326.276    10677.474   -572.82304   -155.63438    652.81632   -6718.6445 
20879000    157.91516    -9521.458   -8919.4134    -9521.458            0    7777.6698    24.718414    24.887362    22.885107    14078.371    7756.6256    8211.9292    7364.4547     -356.643   -60.367204   -206.92753   -7322.5131 
20880000    156.63581   -9546.5827   -8949.4155   -9546.5827            0    8331.3541    24.859501    24.728475    22.852122    14048.058    7829.4245    8974.9398     8189.698     543.5987   -161.03134   -74.127658   -7242.5168 
20881000    158.70679   -9557.6001   -8952.5374   -9557.6001            0    8631.5848    24.771826    24.789136     22.87389    14046.219     9425.926    8333.4879    8135.3405   -420.65675    453.09382    467.25228   -7184.3599 
20882000    163.43264   -9549.3247    -8926.245   -9549.3247            0    9173.5709    24.767576     24.78037    22.837507    14016.513    9861.2409    8627.3973    9032.0745   -478.82489    67.253736   -117.50792   -7051.0161 
20883000    159.47154   -9548.6658   -8940.6876   -9548.6658            0    7383.5574    24.823281    24.835655    22.870406    14099.661      6978.17    7413.4615    7759.0406    128.87966    565.08744   -834.11351   -7422.4133 
20884000     160.0792   -9555.9038   -8945.6089   -9555.9038            0    8943.1071    24.736836     24.74894    22.899018    14019.019    8809.4167     9614.583    8405.3216    4.8468826   -1254.0483   -47.200096   -7117.1637 
20885000    160.41031   -9578.6993    -8967.142   -9578.6993            0    6847.1198    24.795367    24.910053    22.813823    14091.047    7457.3002    5848.9128    7235.1463   -457.88379   -520.56115    243.55756   -7560.0352 
20886000    158.02896   -9523.7759   -8921.2974   -9523.7759            0     8571.634    24.799946    24.752218    22.885448    14048.316    8447.6456    9425.0889    7842.1675   -335.50032   -350.82198   -288.56918   -7165.1387 
20887000    161.42969   -9553.8784   -8938.4348   -9553.8784            0    8680.0258    24.703361    24.821061    22.872046    14024.307    10252.682    7691.4963    8095.8994    -1145.682    992.17104    324.62308    -7163.108 
20888000    160.04549   -9535.0577   -8924.8913   -9535.0577            0    7874.2585    24.740314    24.963888    22.809287    14087.344    8025.7557    6738.7377     8858.282    299.08015   -177.62965    355.62714   -7307.1291 
20889000    155.32417   -9544.8665      -8952.7   -9544.8665            0    7455.1064    24.912304    24.762326    22.834024    14086.003    6069.1602    9169.0868    7127.0722    297.66269    3.0674255    63.078117   -7421.1981 
20890000    161.80875   -9534.7394   -8917.8506   -9534.7394            0    9321.2593    24.733544    24.836226    22.811921    14013.087    10072.497    8724.4645    9166.8161   -568.88532    -199.6782    451.16536   -7012.8975 
20891000     161.6697   -9565.0759   -8948.7172   -9565.0759            0    8196.5421    24.785693    24.833245    22.843634    14060.467    8320.3511    8113.3226    8155.9525    152.84504   -1072.3769   -17.039065   -7267.9549 
20892000    157.71872   -9545.5296   -8944.2339   -9545.5296            0     8806.951    24.834218    24.699545    22.884018    14036.917    7877.1872    10516.736    8026.9297    172.99032   -442.96343    383.58388   -7141.3274 
20893000    160.72057   -9541.2706   -8928.5305   -9541.2706            0    8382.5921    24.687998    24.939178    22.802541    14039.487    9372.2588    7320.2655     8455.252   -405.12315   -1192.2293     551.0399    -7212.182 
20894000    161.47603   -9549.4805   -8933.8603   -9549.4805            0    8291.7218    24.830987    24.804906    22.830244    14061.839    7504.5244    8263.3409       9107.3   -349.83439    378.33479    648.12367   -7233.4147 
20895000    167.23371   -9520.5158   -8882.9446   -9520.5158            0    8497.2551    24.744744    24.720823    22.961025    14045.498    8469.2498     9876.651    7145.8644    134.52091    217.67391    561.53875   -7142.3738 
20896000    162.21047   -9554.3725   -8935.9523   -9554.3725            0     8502.808      24.7631    24.847243    22.834478    14049.935    8402.6263    8399.0912    8706.7064     170.4561     58.10534    559.44478   -7193.6939 
20897000    158.12905   -9537.5524   -8934.6924   -9537.5524            0     8088.513    24.883981    24.857022    22.745179    14068.841    7492.2557    8008.5676    8764.7157   -532.05261    208.03051   -17.844555   -7275.0944 
20898000    155.64271   -9546.5874   -8953.2064   -9546.5874            0    8282.2604    24.808034     24.87125    22.782934    14057.226    8580.5535    7388.6007    8877.6269    640.57928   -390.96142    813.28342   -7255.2584 
20899000    159.14552   -9527.6976   -8920.9623   -9527.6976            0    8408.4781    24.751236    24.748673    22.945986    14055.799    9864.0069    8002.8987    7358.5288   -181.66189   -1369.7198    -922.1454   -7197.3132 
20900000      162.409   -9557.0882    -8937.911   -9557.0882            0    9114.4924    24.804735    24.808536    22.760544    14006.137    8935.2463     8906.537    9501.6939   -138.07886   -1175.2262    1236.6274   -7076.1379 
20901000    164.08095   -9549.1719   -8923.6206   -9549.1719            0    8072.2374    24.781958    24.901123    22.797478    14068.292    8857.1684    6896.1638    8463.3799    8.8445985    173.06875    -778.7106   -7267.4266 
20902000    156.22033   -9535.8458   -8940.2627   -9535.8458            0    8303.5061    24.917739    24.690474    22.836589    14049.773    7805.2436     8349.508    8755.7669    664.01652   -291.14323    127.55642   -7238.8616 
20903000    157.68765   -9518.3277   -8917.1504   -9518.3277            0    8647.8441    24.737897    24.806258    22.909814    14058.714    8779.5754     8298.333    8865.6239   -486.31384    -886.9603    393.64356   -7144.0663 
20904000    148.82762   -9515.1989   -8947.8001   -9515.1989            0    8439.5319    24.837096    24.836078    22.785659    14055.472    8114.4316    7508.5551     9695.609   -42.080751   -124.49123   -1151.1028   -7217.8258 
20905000    161.43807   -9552.5052   -8937.0296   -9552.5052            0    7541.9196    24.848632    24.849879    22.830505    14097.506    7905.4415    7562.4229    7157.8945    299.71995    59.971458   -154.60884   -7386.4286 
20906000    155.26074   -9568.5012   -8976.5764   -9568.5012            0    8915.5902      24.6593    24.803185    22.902459    14007.812    9221.1325    8751.3372     8774.301    672.37078    371.06503    876.26236   -7155.2143 
20907000    161.65866   -9543.6641   -8927.3475   -9543.6641            0    8991.4245    24.818647    24.737515    22.809417     14003.88     8188.665    9545.9284    9239.6801    143.75143    664.69214   -975.58017   -7091.0089 
20908000    160.88457   -9538.7349   -8925.3696   -9538.7349            0    8470.8008    24.724575     24.84698    22.859652    14043.393    8738.0444    7650.3816    9023.9763    82.680556    48.012014    565.94722   -7190.4777 
20909000     169.1214   -9549.7002   -8904.9323   -9549.7002            0    8504.9384    24.905958    24.752089    22.781698    14044.336    7306.0965    9196.0202    9012.6985   -237.59858   -407.96431    130.85144   -7162.9319 
20910000    155.20362    -9522.487   -8930.7801    -9522.487            0    8991.5055    24.799416     24.83764    22.788488    14036.774    8520.9937    8567.8922    9885.6305   -259.11635    -736.1621   -1341.5324   -7090.1115 
20911000    151.79888    -9535.497   -8956.7705    -9535.497            0    8805.7989    24.687266    24.845611    22.877018    14032.081    10195.903     8607.295    7614.1986   -714.03636   -267.49711   -1405.5291   -7154.7208 
20912000    165.44356     -9569.54   -8938.7937     -9569.54            0    8179.6001    24.812398    24.786104    22.836078    14044.249    7767.9895    8225.6948    8545.1161   -390.58634    484.47534    20.007236   -7263.4402 
20913000    160.20213   -9528.8548   -8918.0913   -9528.8548            0    8372.6676    24.840571    24.837359    22.790428    14061.106     7600.194    9242.8945    8274.9143   -120.86515    -241.5287   -439.45113   -7201.1351 
20914000    155.17205   -9535.4936    -8943.907   -9535.4936            0    7523.3413    24.716138    24.860309    22.929827    14089.251     8742.695    7304.5628    6522.7659    10.411113   -30.627408    57.557367   -7398.0313 
20915000    161.88618    -9541.577   -8924.3931    -9541.577            0    8327.1098    24.764206    24.759885    22.918098    14052.435    8575.3729    8653.0084     7752.948    257.59377   -468.07199   -119.76446   -7217.8323 
20916000     164.6721   -9530.6308   -8902.8256   -9530.6308            0    9092.6372    24.774345     24.75441    22.891844    14038.979    9171.5186    9344.4655    8761.9274    316.73527    590.80744    -27.18771   -7041.1617 
20917000    150.14691   -9542.4352   -8970.0067   -9542.4352            0    7497.0544    24.814628     24.95604     22.78534    14110.388    7288.3991    6375.1436    8827.6206    328.44859    382.92599    438.33309   -7427.2213 
20918000    161.89675   -9510.8514   -8893.6271   -9510.8514            0    8857.2129    24.773129    24.831351    22.805359    14028.723    8949.2107    9139.5417    8482.8864   -351.78561   -308.52231    294.80901   -7081.4898 
20919000    159.77123   -9537.5671   -8928.4463   -9537.5671            0    7509.1076    24.794608    24.810191    22.923477    14101.583    7557.5039    7634.8198    7334.9991    -578.1568    -1129.717    332.69298   -7384.1449 
20920000    159.85007   -9537.6315   -8928.2102   -9537.6315            0    9407.0729    24.765318    24.835032    22.783356    14012.846    9811.5403    8649.0916    9760.5869   -228.08174   -560.33583    570.18226   -7005.7527 
20921000    157.86515   -9537.0061   -8935.1522   -9537.0061            0    8886.2081    24.826704    24.795376    22.804929    14038.428    8943.6665    8936.9132    8778.0445   -273.65141    746.39666    900.49779   -7115.8248 
20922000    161.71397   -9546.9407   -8930.4132   -9546.9407            0    8179.3266    24.641995    24.857535    22.970807    14070.521    9452.4771     7853.873    7231.6297    -116.6688   -453.67243    329.61845   -7251.9817 
20923000    164.49024   -9557.9582   -8930.8464   -9557.9582            0    8175.8362    24.779862    24.819114    22.844006    14049.389    8161.5713    8430.7041    7935.2332   -438.61618   -160.89876    92.813856   -7255.6509 
20924000    158.68295    -9544.082   -8939.1102    -9544.082            0     8759.858    24.866536    24.785003    22.767415    14031.949    8153.7438    9230.6255    8895.2045   -93.343043     598.4458    477.94707    -7146.479 
20925000     161.7221   -9549.5425   -8932.9841   -9549.5425            0    8051.2116    24.746731    24.811881    22.906332    14064.785    8118.4065    8516.9963    7518.2321   -866.81739    170.08171   -1117.9896   -7281.5159 
20926000    154.05126   -9528.1925   -8940.8788   -9528.1925            0    7770.2753    24.745067    24.894804    22.864164    14084.864    8752.1916    6581.8925    7976.7418   -515.29832   -174.18974     89.66863   -7344.7609 
20927000    157.98625   -9524.7412   -8922.4256   -9524.7412            0    8374.1652    24.842387    24.877558    22.753279    14061.934    8417.2573    8648.5192    8056.7192   -402.79998   -429.76655    1053.2694   -7205.0611 
20928000    156.01946   -9522.4751   -8927.6578   -9522.4751            0     8525.893    24.801209    24.808444    22.839349    14052.581    7791.0102    9051.7103    8734.9585   -161.99007   -1110.5264    701.74486   -7180.3401 
20929000    164.44685   -9559.5106   -8932.5643   -9559.5106            0    8986.1312    24.734728    24.699899    22.947259     14019.52    8648.2391    9476.5427    8833.6119     -652.365   -84.872378    698.02931    -7095.257 
20930000    157.29241   -9550.1867   -8950.5163   -9550.1867            0    7839.1576    24.787748    24.819308    22.869543     14069.68    8427.2715     7547.613    7542.5883   -277.09549     202.3883   -113.02361    -7341.985 
20931000    159.55582   -9538.7195     -8930.42   -9538.7195            0    8743.3948    24.898508    24.790408    22.739061    14035.553    8109.0466    8149.6513    9971.4865   -452.68702    183.98923    553.90096   -7140.6983 
20932000    161.15605   -9523.4772   -8909.0769   -9523.4772            0    8247.0337    24.760851    24.811561    22.896581    14066.638    7855.9162    8846.4589     8038.726   -713.41283    26.331777    568.55653   -7217.2187 
20933000    160.66697   -9536.7917   -8924.2559   -9536.7917            0    8950.6191    24.609558     24.91032     22.88321    14028.139    9973.3942    7934.7208    8943.7422    569.96586   -264.61378   -813.65036   -7093.0844 
20934000    156.29674   -9524.3766   -8928.5022   -9524.3766            0    8242.5462     24.86034    24.785368    22.835665    14070.712    8247.2935    8162.4781    8317.8669   -455.81396   -167.04065    458.31155   -7237.0748 
20935000    166.06456   -9529.8024   -8896.6886   -9529.8024            0    7914.3033    24.836979    24.843811    22.817942    14079.702    7621.5421    8088.2408     8033.127    365.88111    565.49856    43.436761   -7271.5813 
20936000    167.96481   -9538.7765    -8898.418   -9538.7765            0    8783.4306    24.750822     24.82945    22.842998    14038.148    9156.9176    8154.4915    9038.8827    -68.03865    -642.7735    440.74167   -7100.1687 
20937000    159.17335    -9568.873   -8962.0316    -9568.873            0    7573.0267    24.803875    24.766267    22.866477    14046.863    8074.2013    7910.2276     6734.651     -746.027   -28.571289    110.29579   -7410.6282 
20938000     160.6965   -9524.6979   -8912.0495   -9524.6979            0    7221.5178    24.756438    24.903955    22.892354    14113.896    8248.5272    5993.5885    7422.4378    662.12327   -813.02714    -584.0877   -7425.5961 
20939000    151.77034   -9533.3074   -8954.6897   -9533.3074            0    9820.9714     24.89516    24.704613    22.732285     13980.93    8707.5539    10939.813    9815.5476   -507.23137    870.71941   -275.86397   -6952.2179 
20940000    165.04091   -9529.6069   -8900.3957   -9529.6069            0    8390.2715    24.725178    24.817199    22.916273    14061.646    8855.0224    8738.6557    7577.1365    -394.7211   -153.42506     797.3966   -7179.7634 
20941000    161.74322   -9536.1143   -8919.4754   -9536.1143            0    7651.7301    24.869119    24.720675    22.900623    14078.877    7091.5729    8501.2003    7362.4172   -1376.0561     792.8196   -386.94441   -7348.3764 
20942000    160.88706   -9521.7031   -8908.3282   -9521.7031            0    8513.8661    24.765387    24.835273    22.853571    14056.206    8874.1257    7054.9458    9612.5268    4.8640189    622.36745    983.73646   -7163.0252 
20943000    156.54194   -9530.1469   -8933.3376   -9530.1469            0    6685.0354    24.923749    24.798825    22.846557    14120.993    6040.0917     7271.315    6743.6994    525.57587   -214.80258    498.56936   -7556.6201 
20944000    159.34492   -9539.4585    -8931.963   -9539.4585            0    8615.8154    24.804161     24.81206    22.821294     14045.19    7838.4301    8771.3419    9237.6742    273.80752   -1089.2906   -86.898415   -7167.1451 
20945000    158.52188   -9533.1553   -8928.7976   -9533.1553            0    8136.2935     24.75412     24.85259    22.844208    14053.848    7794.9514    8910.0637    7703.8653   -300.21491   -557.53465    353.41423    -7261.175 
20946000    157.21725   -9517.5352   -8918.1513   -9517.5352            0    8389.5602    24.870723    24.759898    22.854879    14073.956     8899.012    7978.1287    8291.5397    33.719624   -251.44036    388.65569   -7196.1587 
20947000    165.20007   -9557.5724   -8927.7543   -9557.5724            0    8117.0884    24.773797    24.812584    22.863596    14054.296    8522.7536    8029.4241    7799.0874    79.993694   -301.24565   -320.43182   -7264.0151 
20948000    166.16907   -9550.1026   -8916.5903   -9550.1026            0    8379.4273    24.836088    24.891202    22.703625    14035.383    8470.6815    7833.7283    8833.8722   -260.96351    1359.7073   -418.64592   -7201.3914 
20949000    162.53592   -9523.0831    -8903.422   -9523.0831            0    8446.7375    24.846115    24.681182    22.917093    14053.483    8319.1898    9381.7834    7639.2394   -192.38254    503.84943    702.94105   -7172.2156 
20950000     164.1785   -9554.2657   -8928.3424   -9554.2657            0     8263.476    24.728042    24.856314    22.874257    14059.615    8396.6295    8820.6132    7573.1851    42.803075    115.27851     334.2628   -7233.9574 
20951000    160.99106   -9515.2185   -8901.4471   -9515.2185            0    8633.8736    24.766492    24.812411     22.87716     14058.39    8842.4332     8075.039    8984.1485   -739.53417   -587.16213   -560.46629   -7131.2683 
20952000    164.27379   -9560.3458   -8934.0592   -9560.3458            0    8440.8875    24.854229    24.743667    22.805288    14024.904    7110.8884    9092.0903    9119.6837   -463.25529   -739.72462    480.93589   -7207.5699 
20953000    161.02453   -9571.6212   -8957.7222   -9571.6212            0    7876.0204    24.741537    24.879532    22.825235    14050.254    8312.3111    7151.3455    8164.4046   -517.99784   -347.24587   -210.99469   -7343.8584 
20954000    161.66933   -9532.5124   -8916.1552   -9532.5124            0    8135.9874    24.924383    24.714863    22.854188    14078.242    6867.1037    9490.3156    8050.5429   -477.78684    34.582154   -324.65256   -7245.7009 
20955000    159.54135   -9554.7949   -8946.5505   -9554.7949            0     8141.687     24.78242     24.80103    22.848072      14043.1    8429.6935    8035.6497    7959.7179    5.6511013    537.53049    289.67707   -7279.0987 
20956000     153.5727   -9560.1769   -8974.6877   -9560.1769            0      9056.88    24.658333    24.895833     22.82478    14011.898    10149.192     8141.813    8879.6353   -140.14509    398.45085      1122.05   -7123.9218 
20957000    158.52407   -9535.4006   -8931.0345   -9535.4006            0    7366.7308    24.878172     24.81194    22.859849     14110.83    6659.0551    7428.6061    8012.5311    374.29635   -514.67171      803.655   -7415.0204 
20958000    159.50099   -9528.8187   -8920.7282   -9528.8187            0    8903.4891    24.808326    24.887506    22.741839    14041.206    9158.0713    7751.6382    9800.7579   -93.557962   -1361.2257    819.73791    -7097.502 
20959000    167.18356   -9543.2328   -8905.8528   -9543.2328            0    7925.0271    24.696955     24.85012    22.919856    14066.426    8119.6118    7890.0425    7765.4269    267.28454    -587.0535    370.47382   -7280.0779 
20960000    167.63603   -9556.5267   -8917.4217   -9556.5267            0    7910.7244    24.841233    24.762186    22.858036    14060.509     8061.473    8605.3743    7065.3259   -608.75375    826.61287   -511.91268   -7295.2636 
20961000    163.14967   -9530.8626   -8908.8616   -9530.8626            0    7732.6108     24.85224    24.947297    22.711534    14081.065    8157.3446     6583.125    8457.3629   -259.02953   -289.19079    401.64114    -7320.909 
20962000    159.61631   -9540.9354   -8932.4052   -9540.9354            0    8597.2592    24.804668     24.80915    22.825879    14046.652    8100.0631    8535.6891    9156.0254   -68.923421   -194.84792   -74.049699    -7171.205 
20963000    158.44162   -9548.7002   -8944.6485   -9548.7002            0    8047.7395    24.851087    24.628005    22.980046    14064.539    7015.5511    10128.363    6999.3044   -487.15247     339.6743   -1.1005025   -7293.9213 
20964000    161.46677   -9531.6823   -8916.0974   -9531.6823            0    7930.0512    24.803914    24.824902    22.806836    14043.418     8367.315    8046.4882    7376.3504    209.44594   -1295.6082   -83.983783   -7291.9528 
20965000    159.93609   -9549.8124   -8940.0631   -9549.8124            0    7301.0506    24.827573    24.905716     22.78228    14087.389    7347.7811    5863.5978     8691.773   -147.08643   -233.53013   -134.04047   -7440.0614 
20966000     157.2843   -9549.1763   -8949.5368   -9549.1763            0    7299.7652     24.91527    24.795135    22.820414    14097.938      7046.05    7212.8328    7640.4128    805.93272   -821.69351    71.887498   -7448.6762 
20967000    164.45076   -9538.0923    -8911.131   -9538.0923            0    8232.3358    24.694051    24.862085    22.883252    14049.072    8811.1995    7768.1499    8117.6578     402.1175   -94.817443    396.52342    -7224.397 
20968000    160.47638   -9541.1155   -8929.3064   -9541.1155            0    6983.6348    24.850419    24.758759    22.970714    14133.089    6906.0984    7376.0392    6668.7669    -1025.183    255.69661    609.14284   -7489.8633 
20969000    157.09431    -9551.761   -8952.8459    -9551.761            0    8630.4424    24.774154    24.844535    22.796473    14031.282    8253.9725     8335.754    9301.6008    1123.6391   -320.05546   -696.84492   -7186.7824 
20970000    158.16375   -9524.9706   -8921.9782   -9524.9706            0    9869.7649    24.716745    24.819473    22.823481    14001.215    10360.899    9074.9069    10173.489   -56.813017   -1133.9036   -143.55882   -6906.6378 
20971000    158.59605   -9535.2496   -8930.6091   -9535.2496            0    8210.2441    24.757222    24.757095    22.950336    14066.649    8278.5592    8597.8995    7754.2735    6.5984777   -355.72698    963.42481   -7246.2969 
20972000    163.14364   -9568.4021   -8946.4242   -9568.4021            0    7902.4367    24.713678     24.88382    22.843229    14047.917    8714.8959    6912.7172    8079.6969    782.99812   -707.43696    10.961407   -7327.4167 
20973000    157.02459   -9530.5294   -8931.8801   -9530.5294            0    8062.2348    24.824653    24.869697    22.775488    14061.167    8113.5504    7639.7088    8433.4453   -475.31924    409.45559   -484.59169   -7278.5761 
20974000    162.50214   -9508.2108   -8888.6785   -9508.2108            0    8349.4367    24.832638    24.714432     22.92562    14070.015    9060.7823    9185.3374    6802.1905   -288.46797    337.64957    892.51429   -7175.4013 
20975000    155.31336   -9533.5569   -8941.4315   -9533.5569            0    7496.0095    24.741413    24.919708    22.840016    14081.984    8184.8148      6665.02    7638.1936    -417.5964   -126.09984    -251.1012   -7401.9663 
20976000    159.05724   -9535.2717    -8928.873   -9535.2717            0    8408.0342    24.802449    24.802351     22.84773    14054.989    8094.5422    7992.0816    9137.4788    129.48128   -826.28992    815.80504   -7205.4144 
20977000    158.32596   -9515.4444   -8911.8337   -9515.4444            0    8477.2451    24.879422    24.703687    22.864434    14052.789    8388.1241    8764.6493    8278.9619   -1364.4624    334.45967     179.4624   -7174.4604 
20978000    163.94278   -9533.5917   -8908.5671   -9533.5917            0    8361.0261    24.696426    24.911858    22.850434    14058.361    9039.1581    7834.5349    8209.3851   -32.552674    660.74454    462.58518   -7194.3329 
20979000    156.09423   -9539.1888   -8944.0864   -9539.1888            0    8312.9039     24.93827     24.72223    22.800281    14057.049    7809.9711    8437.2321    8691.5084   -229.91342   -272.41265    -233.9912   -7239.8775 
20980000    163.19229   -9540.5877   -8918.4243   -9540.5877            0    8575.0052     24.78194    24.830218    22.847259    14058.855    8318.6118    9264.7506    8141.6531    311.84645    569.58329   -961.47231   -7160.2569 
20981000    161.00041   -9524.4205   -8910.6135   -9524.4205            0    7658.6496    24.743464    24.944585    22.844665     14100.08    8698.4103     6128.398    8149.1405    383.89371   -132.28722    201.26062   -7335.7256 
20982000    160.95656   -9523.1646   -8909.5248   -9523.1646            0    8476.4322    24.877788    24.765517    22.812499    14055.038    6902.9409     10558.78    7967.5756    578.09168   -393.40381   -764.22582   -7172.0401 
20983000    164.46375   -9524.9664   -8897.9556   -9524.9664            0    9359.5437    24.722889    24.799814    22.849693    14009.673    9609.9736    9383.3846    9085.2729    533.11415   -207.29992   -696.22249   -6985.6444 
20984000    161.21104   -9530.0037   -8915.3937   -9530.0037            0    8125.3519    24.729992    24.864676     22.87048    14063.132    8155.6168    7746.6558    8473.7831   -111.70669   -985.25323   -727.85709   -7248.9137 
20985000    155.28798   -9533.8403   -8941.8117   -9533.8403            0    8196.4902    24.857137    24.698594    22.880376    14047.094    7603.3548    9213.9753    7772.1405   -526.88498     321.1879    550.20759   -7262.6586 
20986000    162.98323   -9537.7499   -8916.3835   -9537.7499            0    7994.2497    24.779397    24.881671    22.794871    14054.242    8911.4343    6683.9892    8387.3255   -210.22189   -1044.7579    85.590402   -7277.8285 
20987000    157.51078   -9535.2839    -8934.781   -9535.2839            0    8663.1672    24.739664    24.837492    22.869396    14052.585    9190.7555    8298.4409    8500.3053   -345.12549     471.5804   -542.08209   -7159.3295 
20988000    165.81201   -9519.0514   -8886.9004   -9519.0514            0    9349.1876    24.797026    24.731482    22.878066    14030.367    8780.7498    9611.8042    9655.0088   -195.87771    985.84232    842.39109   -6973.8835 
20989000    159.37571   -9527.7834   -8920.1705   -9527.7834            0    8626.5094     24.78696    24.804373    22.853668    14051.006    7860.1088    8952.8991    9066.5202    998.97877    862.77225    438.62528   -7152.4304 
20990000    162.59511   -9524.0426   -8904.1559   -9524.0426            0    8057.6959    24.773683    24.878086    22.846298    14080.672    8654.2297    7143.0346    8375.8235   -103.64304    631.21135   -215.62677   -7249.4906 
20991000    163.76886   -9539.9272   -8915.5656   -9539.9272            0    7574.3525    24.877183    24.856812    22.775251    14083.474    7445.3035    8195.3788    7082.3751   -1576.5238   -265.59056    220.84697   -7359.8465 
20992000    164.44298   -9529.1437    -8902.212   -9529.1437            0    9425.3021    24.670068    24.823106    22.880847     14011.95    9542.0109    9534.8165    9199.0789   -388.95847    803.92753    416.19376   -6976.1523 
20993000    156.44818   -9526.5241   -8930.0723   -9526.5241            0    8242.6603     24.79517    24.761376    22.908383    14064.888    8335.8979    8370.1447    8021.9385   -264.10256   -358.31147   -491.32611   -7239.3215 
20994000    160.80082   -9560.5655   -8947.5194   -9560.5655            0    6955.7298    24.933588    24.849122    22.746689    14093.343    5446.2982    7297.2881    8123.6031   -304.44662    250.01971   -56.985533   -7517.8599 
20995000    162.28594    -9543.654    -8924.946    -9543.654            0     8397.218    24.743819    24.890603    22.818233    14053.489    9337.0299    7180.5753    8674.0488   -313.37267    210.07367   -401.50316   -7203.8881 
20996000    159.04597   -9548.4276   -8942.0718   -9548.4276            0     7201.517    24.860313    24.797062    22.857035     14090.51    7801.2529    6906.6801    6896.6181    126.29691    139.53261    2.6063731   -7462.1915 
20997000    166.15705   -9518.3804   -8884.9139   -9518.3804            0     9446.731    24.714955     24.78995    22.872226    14013.412    9405.1986    9500.6612    9434.3331   -125.36015   -462.98622   -630.94381   -6954.2738 
20998000    159.31983   -9560.4569   -8953.0571   -9560.4569            0    7910.2003    24.771486    24.817682     22.86121    14054.406    8379.7197    7887.2641    7463.6171   -504.54323    76.187612    709.03819   -7331.7105 
20999000    154.60786   -9563.0961   -8973.6604   -9563.0961            0    7276.7284    24.906119    24.864868    22.764931    14098.034    6477.2327    7025.9566    8326.9958    576.55484    -654.6701     220.4907    -7477.526 
21000000    161.49194   -9524.0861   -8908.4052   -9524.0861            0    8405.4059    24.744878    24.858195    22.860293    14061.664    9260.3261     8367.422    7588.4697    1058.3439    204.55281    28.707307    -7184.667 
Loop time of 519.363 on 64 procs for 250000 steps with 1920 atoms

Performance: 83.179 ns/day, 0.289 hours/ns, 481.359 timesteps/s
371.7% CPU use with 16 MPI tasks x 4 OpenMP threads

MPI task timing breakdown:
Section |  min time  |  avg time  |  max time  |%varavg| %total
---------------------------------------------------------------
Pair    | 75.14      | 77.572     | 79.966     |  16.9 | 14.94
Bond    | 1.6293     | 1.9461     | 3.4168     |  40.1 |  0.37
Kspace  | 249.36     | 253.16     | 256.99     |  14.7 | 48.74
Neigh   | 1.7036     | 1.7575     | 1.8342     |   3.3 |  0.34
Comm    | 63.964     | 67.987     | 71.626     |  22.1 | 13.09
Output  | 0.49971    | 0.50014    | 0.50215    |   0.1 |  0.10
Modify  | 75.402     | 87.725     | 94.457     |  53.4 | 16.89
Other   |            | 28.72      |            |       |  5.53

Nlocal:        120.000 ave         126 max         115 min
Histogram: 1 1 2 4 3 2 0 1 0 2
Nghost:        4185.44 ave        4220 max        4163 min
Histogram: 2 3 1 3 1 3 2 0 0 1
Neighs:        43244.2 ave       45493 max       41854 min
Histogram: 2 1 5 3 2 0 0 1 0 2

Total # of neighbors = 691907
Ave neighs/atom = 360.36823
Ave special neighs/atom = 2.0000000
Neighbor list builds = 3474
Dangerous builds = 0

unfix		3
unfix		2
unfix		1

write_data	data.final.${pid}
write_data	data.final.0
System init for write_data ...
PPPM initialization ...
  extracting TIP4P info from pair style
  using 12-bit tables for long-range coulomb (../kspace.cpp:340)
  G vector (1/distance) = 0.37489124
  grid = 30 30 30
  stencil order = 5
  estimated absolute RMS force accuracy = 0.0032202313
  estimated relative force accuracy = 9.697631e-06
  using double precision FFTW3
  3d grid and FFT values/proc = 7920 1800
Last active /omp style is kspace_style pppm/tip4p/omp
WARNING: Not all mixed pair coeffs generated from mixing. Use write_data with 'pair ij' option to store all pair coeffs. (../write_data.cpp:312)

write_restart   restart.lmp.${pid}
write_restart   restart.lmp.0
System init for write_restart ...
PPPM initialization ...
  extracting TIP4P info from pair style
  using 12-bit tables for long-range coulomb (../kspace.cpp:340)
  G vector (1/distance) = 0.37489124
  grid = 30 30 30
  stencil order = 5
  estimated absolute RMS force accuracy = 0.0032202313
  estimated relative force accuracy = 9.697631e-06
  using double precision FFTW3
  3d grid and FFT values/proc = 7920 1800
Last active /omp style is kspace_style pppm/tip4p/omp
Total wall time: 0:08:39
