LAMMPS (30 Jul 2021)
Processor partition = 1
  using 4 OpenMP thread(s) per MPI task
using multi-threaded neighbor list subroutines
variable        pid world 0 1
variable        phase world IceII IceIh

shell cd ${phase}
shell cd IceIh
include Restart.lmp
echo both
log log.lammps
#include		in.partitions
include		in.temp
variable        temperature equal 30.10
variable	tempDamp equal 100.0
include		in.pressure
variable        pressure equal 1999.7
variable        pressureDamp equal 1000.0 # This is 1 ps
include		in.seed
variable        seed equal 745823

units		real
atom_style	full
#include		in.box
read_restart	restart.lmp.${pid}
read_restart	restart.lmp.1
Reading restart file ...
  restart file = 30 Jul 2021, LAMMPS = 30 Jul 2021
  restoring atom style full from restart
  orthogonal box = (0.16730818 0.15337929 0.17135780) to (18.040264 23.475799 22.041838)
  2 by 4 by 2 MPI processor grid
  restoring pair style lj/cut/tip4p/long/omp from restart
  restoring bond style harmonic/omp from restart
  restoring angle style harmonic/omp from restart
  864 atoms
  576 bonds
  288 angles
Finding 1-2 1-3 1-4 neighbors ...
  special bond factors lj:    0        0        0       
  special bond factors coul:  0        0        0       
     2 = max # of 1-2 neighbors
     1 = max # of 1-3 neighbors
     1 = max # of 1-4 neighbors
     2 = max # of special neighbors
  special bonds CPU = 0.001 seconds
  read_restart CPU = 0.005 seconds
include 	in.setup
variable	out_freq equal 1000
variable	out_freq2 equal 10000
variable	out_freq3 equal 1000

timestep	2.0

neigh_modify    delay 7 every 1

include		in.tip4p
# This is TIP4P/Ice

# create groups ###
group ox type 2
288 atoms in group ox
group hy type 1
576 atoms in group hy

# set charges - beside manually ###
set group ox charge -1.1794
Setting atom values ...
  288 settings made for charge
set group hy charge 0.5897
Setting atom values ...
  576 settings made for charge

# ### TIP3P Potential Parameters ###
pair_style lj/cut/tip4p/long/omp 2 1 1 1 0.1577 8.5
pair_coeff 1 1*2 0.000 0.000
pair_coeff 2 2 0.21084 3.1668
bond_style  harmonic
bond_coeff  1 450 0.9572
angle_style harmonic
angle_coeff 1 55 104.52
kspace_style pppm/tip4p/omp 1.0e-5
pair_modify tail yes

thermo          ${out_freq}
thermo          1000
thermo_style    custom step temp pe etotal epair emol press lx ly lz vol pxx pyy pzz pxy pxz pyz enthalpy

restart 	${out_freq3} restart.lmp.${pid} restart2.lmp.${pid}
restart 	1000 restart.lmp.${pid} restart2.lmp.${pid}
restart 	1000 restart.lmp.1 restart2.lmp.${pid}
restart 	1000 restart.lmp.1 restart2.lmp.1


include         in.dump
dump            myDump all atom ${out_freq2} dump.water.${pid}
dump            myDump all atom 10000 dump.water.${pid}
dump            myDump all atom 10000 dump.water.1
dump            myDump2 all dcd ${out_freq2} dump.dcd
dump            myDump2 all dcd 10000 dump.dcd
dump_modify     myDump append yes
dump_modify     myDump2 append yes


variable natoms 	equal  "count(all)"                        # NUMBER ATOMS
variable H      	equal  "enthalpy/v_natoms"                 # ENTHALPY-per-atom
variable Vol      	equal  "vol/v_natoms"                 # volume-per-atom
fix AVG all 		ave/time ${out_freq} 1 ${out_freq} v_Vol v_H file vol_enthalpy.dat
fix AVG all 		ave/time 1000 1 ${out_freq} v_Vol v_H file vol_enthalpy.dat
fix AVG all 		ave/time 1000 1 1000 v_Vol v_H file vol_enthalpy.dat


timer           timeout 23:50:00 every 1000
New timer settings: style=normal  mode=nosync  timeout=23:50:00

fix 		1 all shake 1e-6 200 0 b 1 a 1
Finding SHAKE clusters ...
       0 = # of size 2 clusters
       0 = # of size 3 clusters
       0 = # of size 4 clusters
     288 = # of frozen angles
  find clusters CPU = 0.000 seconds
fix             2 all nph aniso ${pressure} ${pressure} ${pressureDamp}
fix             2 all nph aniso 1999.7 ${pressure} ${pressureDamp}
fix             2 all nph aniso 1999.7 1999.7 ${pressureDamp}
fix             2 all nph aniso 1999.7 1999.7 1000
fix             3 all temp/csvr ${temperature} ${temperature} ${tempDamp} ${seed}
fix             3 all temp/csvr 30.1 ${temperature} ${tempDamp} ${seed}
fix             3 all temp/csvr 30.1 30.1 ${tempDamp} ${seed}
fix             3 all temp/csvr 30.1 30.1 100 ${seed}
fix             3 all temp/csvr 30.1 30.1 100 745823


run             250000
PPPM initialization ...
  extracting TIP4P info from pair style
  using 12-bit tables for long-range coulomb (../kspace.cpp:340)
  G vector (1/distance) = 0.37216383
  grid = 24 27 25
  stencil order = 5
  estimated absolute RMS force accuracy = 0.0031076495
  estimated relative force accuracy = 9.3585943e-06
  using double precision FFTW3
  3d grid and FFT values/proc = 6300 1296
Last active /omp style is kspace_style pppm/tip4p/omp
Neighbor list info ...
  update every 1 steps, delay 7 steps, check yes
  max neighbors/atom: 2000, page size: 100000
  master list distance cutoff = 10.8154
  ghost atom cutoff = 10.8154
  binsize = 5.4077, bins = 4 5 5
  1 neighbor lists, perpetual/occasional/extra = 1 0 0
  (1) pair lj/cut/tip4p/long/omp, perpetual
      attributes: half, newton on, omp
      pair build: half/bin/newton/omp
      stencil: half/bin/3d
      bin: standard
Setting up Verlet run ...
  Unit style    : real
  Current step  : 42250000
  Time step     : 2
  Walltime left : 23:49:59.97
Per MPI rank memory allocation (min/avg/max) = 12.26 | 12.29 | 12.31 Mbytes
Step Temp PotEng TotEng E_pair E_mol Press Lx Ly Lz Volume Pxx Pyy Pzz Pxy Pxz Pyz Enthalpy 
42250000    32.047591   -4686.7399   -4631.8114   -4686.7399            0    1910.8273    17.872956    23.322419     21.87048    9116.5035    1485.6752    2065.3328     2181.474   -473.38392    158.64795    22.915601   -4377.7576 
42251000    30.541439    -4687.882    -4635.535    -4687.882            0    1911.0385    17.951727    23.112957    21.970601    9115.9865    1958.0566    2242.4094    1532.6496   -205.95833    39.170329   0.67355874   -4381.4676 
42252000    30.629375   -4688.9608   -4636.4631   -4688.9608            0    1881.1525    17.911399    23.275892    21.853126    9110.6511    2074.3232    1768.7806    1800.3538    186.25875   -453.02287    201.99247   -4386.5153 
42253000    30.862203   -4690.2953   -4637.3985   -4690.2953            0    1811.2333    17.867942    23.347714    21.853735    9116.8452    1627.5337    2150.3807    1655.7856    118.44306    170.67156    97.483076   -4396.5772 
42254000    29.080179   -4690.6323   -4640.7898   -4690.6323            0    1830.8528     17.85276    23.304125    21.915434    9117.7614    2098.1201    1471.8553    1922.5831    110.42012   -323.80064    95.208346   -4397.3355 
42255000    30.036299    -4686.008   -4634.5268    -4686.008            0    2315.2953    17.848694    23.314821    21.852154    9093.5354    2396.6603    2052.0997    2497.1258    93.565805    170.22695    119.85219   -4327.4726 
42256000    30.471787   -4685.2976     -4633.07   -4685.2976            0    2228.2151    17.942759     23.22131    21.824646    9093.3339    1719.5263    2112.0834    2853.0355   -212.01319    194.96814    149.44481   -4337.5709 
42257000    30.255321   -4687.0734   -4635.2168   -4687.0734            0    1920.5729    17.918952    23.182383    21.933899    9111.4297    1936.3785    2141.3469    1683.9933    135.96411    -293.6893    301.02772   -4380.0095 
42258000     29.22175    -4683.445   -4633.3599    -4683.445            0    2183.4571    17.869738     23.20209    21.969614    9108.9375    2423.1441    2422.3598    1704.8675   -298.66503    315.47234   -10.410904   -4343.2996 
42259000     31.35657   -4686.0739   -4632.3298   -4686.0739            0    2106.9864    17.902195    23.237545    21.911907    9115.4202    2001.7725    2218.2984    2100.8883   -238.71869   -214.00374   -49.415483   -4352.2291 
42260000    30.915505   -4689.7998   -4636.8117   -4689.7998            0    1456.7788    17.853614    23.373324    21.896542    9137.3895    1740.8641    1242.6825    1386.7899   -444.36536   -152.53153    229.39909   -4442.6821 
42261000    30.520322   -4688.2578    -4635.947   -4688.2578            0    1939.1912     17.95826    23.271279    21.806558    9113.2155     1688.417    1804.7883    2324.3684   -313.56464    346.95455   -68.804175   -4378.2151 
42262000    33.003831   -4686.2218   -4629.6543   -4686.2218            0    2357.8447    17.823199    23.283088    21.925746    9098.7266    2554.7761    2431.3869    2087.3712    146.05564   -350.07951    101.40471   -4316.7787 
42263000      31.2776   -4686.9155   -4633.3068   -4686.9155            0    2000.1921    17.843628    23.344602    21.874092    9111.7057     2116.486    1640.7253     2243.365   -378.93327    -183.3975   -9.7182848   -4367.5115 
42264000    28.816544   -4687.7978   -4638.4072   -4687.7978            0    1824.8767    17.914421    23.277134    21.876301    9122.3381    1580.9326    1703.8801    2189.8173   -207.07333    234.54126    358.45743   -4395.6257 
42265000    30.526087   -4687.6743   -4635.3536   -4687.6743            0    2266.1213    17.872128    23.277345    21.895065    9108.6905    2079.7463    2287.3568    2431.2607   -24.883193   -258.82761    25.793743     -4334.32 
42266000    30.331013   -4689.5122   -4637.5259   -4689.5122            0    1854.3008    17.861567    23.366819    21.861586    9124.3261    2051.0737    1534.0249    1977.8039   -274.52063   -55.773496   -218.19437   -4390.7761 
42267000    31.191116   -4688.8827   -4635.4222   -4688.8827            0    2097.8465    17.873861    23.281745    21.919654     9121.528    2360.2781    1736.1577    2197.1037   -313.08732    35.736267    417.21046   -4356.3496 
42268000    29.197755   -4690.0476   -4640.0036   -4690.0476            0    1914.9445    17.974325     23.26163    21.799288    9114.5461    1120.1582    2261.2908    2363.3846   -374.49416   -85.251317    200.56653   -4385.4571 
42269000    29.772957   -4686.7702   -4635.7404   -4686.7702            0    2072.4948    17.877351    23.285168    21.867123     9102.783    2288.3773    1923.4065    2005.7007   -302.68968   -214.71805    7.5968694   -4360.6068 
42270000    29.988203   -4689.6057   -4638.2069   -4689.6057            0    2156.8635    17.947408    23.207354    21.877726    9112.3321     2092.292    2457.3434     1920.955    -57.40801   -89.832672    154.05247   -4351.5726 
42271000     30.41627   -4689.6601   -4637.5276   -4689.6601            0    2171.3926    17.869848    23.173698    21.993045    9107.5499    2233.4044    2648.3663    1632.4071   0.30847326    171.36456     79.71577    -4349.114 
42272000    30.827604    -4686.426   -4633.5886    -4686.426            0    2006.8914    17.866044    23.291617    21.886799    9107.7328    2712.4145    2019.8386    1288.4211    98.251638   -106.22298    -75.70233   -4367.0193 
42273000    29.596562   -4689.6359   -4638.9084   -4689.6359            0    1792.0365    17.848881    23.300474    21.932028    9121.2538    1710.7892    2125.3289    1539.9914   -588.70238   -11.823124    86.574646   -4400.5243 
42274000    31.587983   -4683.1069   -4628.9662   -4683.1069            0     1763.654    17.928514    23.190622    21.961046    9130.8185    1727.9001    1762.3874    1800.6744    -756.4084   -281.29583    35.862335   -4394.1116 
42275000     31.00538   -4687.9193   -4634.7772   -4687.9193            0    2064.1751    17.841497    23.352459    21.854405    9105.4808     2083.093    1793.8307    2315.6017   -118.53184   -45.875172    420.74882   -4360.6669 
42276000    31.965472   -4687.5325   -4632.7448   -4687.5325            0    1881.9133    17.892923    23.357902    21.810979    9115.7056    1781.8461    1663.4065    2200.4873    29.814066   -217.10754    143.60321   -4382.5572 
42277000    31.507222   -4687.2337   -4633.2314   -4687.2337            0    1873.0481     17.82978    23.279524    21.961198    9115.4083    2027.4048    1857.3297    1734.4098     257.4964    109.13656   -46.705383   -4384.2305 
42278000    30.130837    -4690.003   -4638.3598    -4690.003            0    2139.5635    17.859791     23.32674    21.852214    9103.8667     2565.885    1681.1784    2171.6271    153.16237   -499.06715   -172.84447   -4354.2887 
42279000    28.577226   -4688.4959   -4639.5155   -4688.4959            0     1737.795    17.848344    23.332867    21.892336      9117.13    1772.2659    1379.7846    2061.3346   -360.29812   -127.32984    324.24402   -4408.4513 
42280000    31.282497   -4686.0221    -4632.405   -4686.0221            0    2492.1779    17.949778    23.272816    21.763858     9091.675    2066.0495    2451.5042    2958.9801    32.822667     203.5763    111.28633   -4301.9603 
42281000    29.808476   -4683.3125   -4632.2218   -4683.3125            0     2008.476    17.858015    23.245108    21.953531    9113.1629    2618.1559    2035.7442    1371.5278   -293.88599   -185.67669    204.88556    -4365.283 
42282000    30.245224   -4686.5613    -4634.722   -4686.5613            0    2233.6062    17.882836    23.284289    21.865254    9104.4541    2479.5343    2650.1109    1571.1734    36.728738   -130.96331    144.98177   -4338.1457 
42283000    31.354396   -4689.6447   -4635.9044   -4689.6447            0    1943.4985    17.841537    23.310581    21.907454    9111.2357    2064.6628    1877.0792    1888.7534   -214.09357    175.88919   -68.194426   -4377.6561 
42284000    29.298021   -4688.8806   -4638.6648   -4688.8806            0    1854.2326    17.863225    23.357038    21.839635     9112.195    2147.6372    1561.9331    1853.1275   -292.09918    37.725864    238.19996   -4392.2521 
42285000    28.477534   -4689.1223   -4640.3128   -4689.1223            0     2144.378    17.813035    23.359096    21.877452     9103.129    2041.4526    1975.7317    2415.9496   -222.35369   -41.056167    61.794788   -4355.6256 
42286000    30.079358   -4689.4016   -4637.8466   -4689.4016            0    2048.5803    17.923417    23.306925    21.802506    9107.7729    1986.2711    1812.5288    2346.9409    419.48203    156.80284   -209.21159   -4365.7388 
42287000    30.982264   -4688.2236    -4635.121   -4688.2236            0    1746.4784    17.957475    23.243623    21.855854    9122.5631    1665.8361    1916.4985    1657.1007   -105.75047   -346.42383    208.95381   -4402.7639 
42288000    29.936502   -4686.7824   -4635.4723   -4686.7824            0    1989.7579    17.998292    23.169028    21.839536    9107.1504       1734.2    2471.0869    1763.9869    130.27458   -116.04859    308.66661   -4371.1957 
42289000    29.986641    -4686.863   -4635.4669    -4686.863            0    1856.6237    17.927973    23.239597    21.899372    9124.1297    2145.4154    1946.5687     1477.887    109.40556    121.08221   -129.74612   -4388.4133 
42290000    29.042409   -4686.3603   -4636.5826   -4686.3603            0    1918.4668    17.859285    23.293841    21.909022    9114.4015    1733.0155    2213.1697    1809.2152   -123.09221     96.13219    283.00174   -4381.5719 
42291000    29.067324   -4685.1743   -4635.3539   -4685.1743            0    2218.8397    17.826124    23.260427    21.945296     9099.469    2467.5745    2316.6314    1872.3132    7.5845496    189.98376    114.85671   -4340.8996 
42292000    30.981626     -4689.67   -4636.5686     -4689.67            0    2065.6636    17.962278    23.191286    21.864888    9108.2196    1650.4369    2414.1959     2132.358    -76.75751   -2.7892426    -212.5492   -4362.1781 
42293000    32.023772   -4690.0885   -4635.2009   -4690.0885            0    2032.1488    17.863506    23.267745     21.91549    9109.0306    2364.7314    1988.2046    1743.5103     75.80833   -71.291565    228.89322   -4365.2383 
42294000    32.024232   -4690.1472   -4635.2588   -4690.1472            0    1790.6896    17.840068    23.342559    21.913781    9125.6181    1760.9309    1398.2944    2212.8436    7.9740129    101.70761     171.2583   -4396.9399 
42295000    28.891279   -4690.6186   -4641.0999   -4690.6186            0    1861.6609    17.897986    23.321557    21.852722    9121.5207    2101.4865     1792.684    1690.8121   -235.70299   -166.15124   -130.12434   -4393.4468 
42296000    32.019897   -4689.7861   -4634.9051   -4689.7861            0    2079.5786    17.895904     23.31912    21.835254    9112.2165     2149.241    1769.0512    2320.4434    41.883422    26.787016    222.71497    -4358.545 
42297000    29.124757   -4688.8064   -4638.8875   -4688.8064            0    1786.8743    17.932158    23.272311    21.863393    9124.0915    2010.5993    1476.9411    1873.0825    221.76939   -113.93273     41.26771   -4401.1162 
42298000    30.409941   -4686.8193   -4634.6977   -4686.8193            0    2017.4673    17.863778    23.329796    21.874543    9116.3969    2503.8641    1668.2454    1880.2925    24.038965   -390.32203   -84.253878   -4366.4688 
42299000     31.67272   -4687.7871   -4633.5011   -4687.7871            0    1929.1967    17.803202    23.390836    21.878462     9110.887    1959.0012    1764.9643    2063.6246   -353.86311   -11.330437    159.96999   -4377.1631 
42300000    30.097197   -4688.8847   -4637.2991   -4688.8847            0    2182.8366    17.825758    23.279813    21.943982    9106.3208     2456.828    2080.6146    2011.0671    155.74024    56.940052   -1.1698692   -4347.4046 
42301000      30.3598   -4685.1835   -4633.1478   -4685.1835            0    1952.2053     17.90831    23.218563    21.910631     9110.555    1720.3936    1844.6275    2291.5948    79.774116   -106.33324    74.938358    -4373.762 
42302000    30.729376   -4687.1765   -4634.5074   -4687.1765            0    2171.5801    17.894057    23.206732    21.908124    9097.6241    2367.3823    1944.5809    2202.7769   -440.35644   -94.703203    88.748526   -4346.3832 
42303000    28.682752   -4687.0722   -4637.9109   -4687.0722            0    2130.2281     17.89914    23.253005    21.881442    9107.2488    2275.2071    2279.7729    1835.7042   -107.96909   -203.29549    131.22251   -4354.9743 
42304000    29.699578   -4683.5773   -4632.6733   -4683.5773            0    2366.6298    17.867419    23.228568    21.913485    9094.8534    2114.4791    2668.2063    2317.2041    101.29914    34.472917    181.76556   -4318.7656 
42305000    29.055803   -4686.3423   -4636.5417   -4686.3423            0    2026.1528    17.877191     23.32297    21.850612    9110.5953    1923.6124    1687.2819    2467.5641   -408.00744    21.760081    455.03706   -4367.3294 
42306000    31.344606   -4686.0655   -4632.3419   -4686.0655            0    1850.7605    17.879616    23.232839    21.950489    9118.1067    2012.7781    1949.8742    1589.6292    122.94052     85.11082    326.38083    -4386.231 
42307000    30.718687   -4688.9792   -4636.3284   -4688.9792            0     1866.603     17.96475    23.162837    21.903571    9114.3952    1465.9194    2158.0187     1975.871    233.23656    30.031322   -200.51112   -4388.2118 
42308000    28.867943   -4686.5236    -4637.045   -4686.5236            0     1975.096    17.890136    23.314519    21.847859    9112.7403    1760.4903     1946.813    2217.9847   -432.68777   -257.37013    88.788571   -4374.5548 
42309000    31.839919   -4689.8363   -4635.2638   -4689.8363            0    2007.8553    17.947386    23.254699    21.835448    9113.2659    1862.5318     1517.349    2643.6849    9.0544567    397.35732   -128.92791   -4368.4045 
42310000    29.957685   -4691.5455    -4640.199   -4691.5455            0    1916.3627     17.85202    23.287259    21.927102    9115.6354    1749.3643    1807.2473    2192.4764    297.14778    96.529091    102.44912   -4385.4336 
42311000    29.210117   -4685.7457   -4635.6806   -4685.7457            0    2179.5745     17.86407    23.260677     21.90983    9104.1991    2407.1975    2355.9344    1775.5916   -228.31686   -19.177413    295.41091   -4346.2867 
42312000    30.692485   -4687.3744   -4634.7685   -4687.3744            0    1824.9505    17.860368    23.314149    21.923498    9128.9286    2101.9608    1687.9529    1684.9378    28.162065    -118.6457    -225.5997   -4391.8018 
42313000    30.270128   -4682.9721   -4631.0901   -4682.9721            0    2038.7694    17.813097    23.457838    21.811988    9114.2867    2132.3925    1978.0954    2005.8204   -521.16642   -159.04156    167.27641   -4360.0917 
42314000    30.515655   -4689.6301   -4637.3273   -4689.6301            0    2021.1067       17.936    23.331184    21.773627    9111.5686    1936.6333    2015.6765    2111.0103     165.6218    139.43465    14.901649   -4368.7568 
42315000    29.426462   -4690.2074   -4639.7714   -4690.2074            0    1684.6563    17.887389    23.259391     21.92577    9122.2114    1666.6821    1734.9849    1652.3019    49.528814   -78.133887    126.36106    -4415.648 
42316000    30.590746   -4684.3001   -4631.8687   -4684.3001            0    1973.4809    17.798522    23.335407    21.930495    9108.5186    2164.2631    1910.7781    1845.4014    76.760645    146.37681    180.87385   -4369.7146 
42317000     29.23031   -4691.3111   -4641.2113   -4691.3111            0    2199.0237    17.831007    23.239868    21.962447    9101.0239    2464.8196    1888.5384    2243.7132   -251.65843   -141.20268    18.284332   -4349.3369 
42318000    29.105172   -4686.6653     -4636.78   -4686.6653            0    1818.4377    17.864384     23.25613    21.958234    9122.6895    2167.9253    2024.6726    1262.7153    186.67181    108.83563   -232.18114   -4394.8459 
42319000    28.132283   -4688.8934   -4640.6756   -4688.8934            0    2154.2845    17.841138    23.308181    21.883496     9100.131     2087.526    2026.5119    2348.8156   -94.955328    -359.9945    26.451172   -4354.7674 
42320000    30.456743   -4690.0839   -4637.8821   -4690.0839            0    1844.7776     17.96984    23.235457    21.838834    9118.5311    1718.1243    1843.1809    1973.0276    335.66158   -223.89777    240.02745   -4392.5554 
42321000    29.834259   -4686.8683   -4635.7334   -4686.8683            0    1826.6702    17.949819    23.133064    21.952068    9115.2517    1482.6977    1998.6758    1998.6371   -256.13646   -76.323378    93.548875   -4392.9021 
42322000    33.424766   -4687.4399    -4630.151   -4687.4399            0      2002.12    17.894339    23.313347    21.864875    9121.5217    1513.7143    2173.3846     2319.261   -35.276901   -10.487693   -91.440583    -4363.813 
42323000     28.77584   -4689.7987   -4640.4779   -4689.7987            0     1928.445    17.927145    23.295154    21.838605    9120.1423    1731.2985    1873.9917    2180.0447   -201.57599    69.071696    165.98014   -4383.9794 
42324000    30.907001   -4688.7841   -4635.8106   -4688.7841            0    1865.1173    17.891217    23.239121    21.910593    9109.9026    1608.6804    2365.9919    1620.6797    168.48916   -97.257174   -26.259178   -4388.0137 
42325000    29.751934   -4687.5725   -4636.5787   -4687.5725            0    2479.6765    17.865829    23.253557    21.891567    9094.7214    2412.3604    2335.5126    2691.1567    119.29194   -281.96876    85.204783   -4307.6814 
42326000    29.316149   -4686.8598   -4636.6129   -4686.8598            0    1948.8263    17.921283    23.199241    21.920404    9113.6308    2055.7222     2230.104    1560.6528   -359.79602    182.49262    13.677803   -4377.5887 
42327000     30.96848   -4690.8888   -4637.8099   -4690.8888            0    2287.3168    17.901419    23.238692    21.867479    9096.9932    2527.4811    2556.8638    1777.6055    204.59558   -168.53027    14.866379   -4334.3509 
42328000      31.2893   -4686.0072   -4632.3784   -4686.0072            0     1806.712    17.904607    23.250144    21.923543    9126.4356    1772.1889    2074.5413     1573.406   -78.006494   -104.07049    20.942011   -4391.9055 
42329000    30.137647   -4689.1868   -4637.5319   -4689.1868            0     1798.112    17.955388    23.339401    21.779633    9127.1473    1548.8594    1679.1771    2166.2995    113.12346   -150.34752   -157.90683   -4398.1851 
42330000    32.087314   -4685.7275   -4630.7309   -4685.7275            0    2284.8117    17.868143    23.256286    21.907194    9103.4611    2880.8658    1792.5761    2180.9933    212.18217   -61.029914    22.989511   -4327.3887 
42331000     30.33528   -4688.8546    -4636.861   -4688.8546            0    1971.6946    17.882116    23.304682    21.859637    9109.7205    2031.3286    1705.1389    2178.6162   -294.09666    106.79352    306.66477   -4374.9097 
42332000    30.281993   -4691.0762   -4639.1739   -4691.0762            0    1846.4154    17.954862    23.288364    21.805876    9117.8953    1630.6624    1565.2358     2343.348    146.37579   -68.756289    -4.642865   -4393.6465 
42333000    28.278899   -4687.5902   -4639.1212   -4687.5902            0    2238.9676    17.869023    23.238854    21.916127    9100.7947    2374.0023    2606.3272    1736.5732   -60.265074    59.362565   -26.267796   -4341.9525 
42334000    31.545159   -4685.5296   -4631.4622   -4685.5296            0    1617.7885    17.892322     23.31898    21.883911    9130.6395     1299.449    1269.9813    2283.9351    50.595055     236.9552     276.9803   -4416.0359 
42335000    30.666004   -4688.2126   -4635.6521   -4688.2126            0    2069.3961     17.95456    23.207257    21.851101    9104.8314    1726.9758    2106.9419    2374.2705   -319.45114     87.71183    131.49524   -4360.8681 
42336000    31.925478   -4691.5301   -4636.8109   -4691.5301            0    1974.0208    17.869675    23.321197    21.859822    9109.9103    2112.9106     1551.576    2257.5756    94.327741    -201.8673    118.03547   -4374.5451 
42337000    30.159138   -4689.4043   -4637.7125   -4689.4043            0     2115.995     17.92066    23.270155    21.840501      9107.85      1749.38    2537.2251    2061.3798   -110.58182    -44.26331    439.20324   -4356.6478 
42338000    31.104121   -4685.7185   -4632.4071   -4685.7185            0    2163.0286     17.83934    23.211505    22.005411     9111.955    2651.9168    1920.6222    1916.5468    -30.43643    198.15009   -236.13338   -4344.9654 
42339000    29.315473    -4690.513   -4640.2673    -4690.513            0    1905.0549    17.933969    23.243503    21.869514    9116.2691    1728.4142    2043.9151    1942.8354   -22.453201   -37.408757     75.39701   -4386.9875 
42340000    31.010725   -4688.5375   -4635.3862   -4688.5375            0    1812.9787    17.910871     23.24197    21.919529    9124.7478    1662.6238    2428.8406    1347.4718   -142.22266    80.804058    156.12296   -4394.1239 
42341000    29.889206   -4691.3735   -4640.1444   -4691.3735            0    2033.1061    17.854607     23.34418    21.848284    9106.3901    2483.7348      1710.22    1905.3637   -170.28158    104.46545    54.583477    -4370.133 
42342000    30.533569   -4685.8533   -4633.5198   -4685.8533            0    1967.3438    17.857212    23.280412    21.904296    9106.1252     1939.177    1988.4913    1974.3631   -185.92012    281.67829   -193.63701   -4372.2497 
42343000    28.846969   -4688.4184   -4638.9757   -4688.4184            0    1636.2813     17.91023    23.354148    21.830676    9131.2953    1230.7297     1952.739    1725.3752    278.10905    29.000409   -94.613868   -4421.0712 
42344000     29.44338   -4686.1788   -4635.7139   -4686.1788            0    2181.2324    17.907647    23.308297    21.814826    9105.4373    2076.1564    2070.7127    2396.8281   -24.809081   -44.182848    125.75679   -4346.0605 
42345000    30.550884   -4690.5826   -4638.2194   -4690.5826            0    2137.2536    17.846516    23.307679    21.881829    9101.9842    2520.9836    1920.5525    1970.2247   -29.108374   -77.092792   -288.61426   -4354.5137 
42346000    31.077976   -4687.1254   -4633.8588   -4687.1254            0    1993.4039    17.878215    23.236497    21.923288    9107.5275    2287.0086    1861.0996    1832.1037    153.81423   -89.790343    186.41899    -4369.087 
42347000    29.163505   -4686.4624   -4636.4771   -4686.4624            0    1570.7775    17.916541    23.227278    21.921006    9122.4809    1598.2636    1768.5467    1345.5223     227.3918   -126.32992   -192.70982   -4427.4977 
42348000    29.698359   -4689.2135   -4638.3115   -4689.2135            0    1838.7957    17.860163     23.27859    21.919782    9113.3558    2207.0064    1636.0163    1673.3644    343.97732   -353.50759    6.5071577   -4393.9192 
42349000    30.806728   -4688.1607    -4635.359   -4688.1607            0    1988.9297    17.911413    23.214117    21.942184    9123.5084    2270.2755    2028.9956     1667.518   -17.858917    171.86037    -113.9724    -4370.718 
42350000    28.975113   -4688.4965   -4638.8342   -4688.4965            0     2062.874    17.940848    23.230834    21.850339    9106.8033    1859.3598    2263.6237    2065.6386   -434.23345   -99.305592     278.8309   -4364.8569 
42351000    28.767693   -4689.1194   -4639.8125   -4689.1194            0    1942.2662    17.886355    23.338998    21.829534      9112.73    2463.7475    1540.3824    1822.6689    130.45913    20.998216   -45.745744   -4381.6857 
42352000    30.013724    -4684.507   -4633.0645    -4684.507            0    2475.2212     17.82003    23.338487    21.877103    9098.5238    2520.4109    2454.3698    2450.8829    426.10263    27.185292    194.84555   -4304.6209 
42353000    29.911159   -4685.8022   -4634.5355   -4685.8022            0    1927.7162    17.995071    23.147195     21.88542    9116.0524    1581.7662    2432.2157    1769.1667   -268.97287   -118.75267   -17.645425    -4378.249 
42354000    29.776166   -4687.2453     -4636.21   -4687.2453            0     1888.574     17.81676    23.312949     21.93522    9111.0399    2402.3531    1966.9689       1296.4     -240.556   -67.955151    136.74349   -4385.2654 
42355000    30.070363   -4685.7793   -4634.2397   -4685.7793            0    2350.6348    17.826764    23.301673    21.878154    9088.0415    2700.0247     2475.594    1876.2855   -31.202806    18.518869     106.0967   -4322.6872 
42356000    29.743245   -4689.7398   -4638.7609   -4689.7398            0    1910.8736    17.843414    23.300797    21.914982    9111.4994    1975.3285    2201.1464    1556.1457   -43.843127    122.71737     72.77589   -4384.8405 
42357000    29.490158    -4689.494   -4638.9489    -4689.494            0    1838.5543    17.972069    23.179445    21.878297    9114.1176    2177.7999    1748.2432    1589.6199   -44.030352   -329.65786    156.45506   -4394.5682 
42358000    29.569898    -4686.991   -4636.3092    -4686.991            0    1970.3989    17.895826    23.312687     21.84968    9115.6823    2012.6142    1924.1797    1974.4028    -210.3198    209.55816     169.7257   -4374.3587 
42359000    29.291439   -4687.8415   -4637.6369   -4687.8415            0    1834.0777    17.952694    23.249367    21.857169     9122.937    1435.8609    2349.8171    1716.5551   -469.32492   -367.60332    9.7661493   -4393.6153 
42360000    29.851672   -4687.3014   -4636.1367   -4687.3014            0    2068.4748    17.899346    23.220839    21.926062    9113.3009    2268.4886    1901.5818     2035.354    -332.3907   -25.774512    154.75351   -4361.2195 
42361000    31.619584   -4689.8993   -4635.7044   -4689.8993            0    2153.5119    17.938724    23.197184    21.867766    9099.7869     1830.036    2166.1313    2464.3684    47.328764    465.39905     92.41258   -4349.9095 
42362000    30.247752   -4685.9779   -4634.1343   -4685.9779            0     2103.106       17.903    23.080013    22.051519    9111.7199    2073.4552    2729.8823    1505.9804   -240.46819   -351.19245    319.07181   -4354.6629 
42363000     30.18775   -4689.2738    -4637.533   -4689.2738            0    2031.4844    17.865362    23.322528    21.865534    9110.6116    1603.8898    2134.2565    2356.3069   -381.42249    -64.44361    224.45113   -4367.6119 
42364000    31.396072   -4685.5432   -4631.7314   -4685.5432            0    1907.5221    17.887704    23.236986    21.915077      9109.14    2239.3661    1538.1227    1945.0776   -20.356761   -172.23011   -133.79963    -4378.322 
42365000    31.177954   -4687.6019    -4634.164   -4687.6019            0    1938.3448     17.96624    23.211356    21.868032    9119.4241    1592.9157    2088.8312    2133.2876   -190.74277   -105.31832    145.54407   -4376.3691 
42366000    28.919489   -4687.3866   -4637.8196   -4687.3866            0    1902.5739    17.889511    23.215353    21.950089    9116.1204    2101.5209    2187.2187    1418.9819    118.05476    161.22564     299.1495   -4384.8738 
42367000     28.13294   -4688.6382   -4640.4193   -4688.6382            0    1656.7565    17.917039    23.244536    21.903649     9122.284    1713.0229    1834.4503    1422.7962    11.826565   -103.42246   -10.201652   -4420.0058 
42368000    29.520954   -4688.7994   -4638.2015   -4688.7994            0    2233.1595    17.920588    23.167282    21.916688    9099.1801    2247.1285    2335.0157    2117.3342   -151.43094   -76.946847    142.92095   -4341.8563 
42369000     31.17286   -4689.5793     -4636.15   -4689.5793            0    1547.0382    17.884162    23.279049    21.935069    9132.1452    1549.9516    1978.1309    1113.0323   -5.0256112   -126.05014    212.91537   -4430.1109 
42370000     30.19776   -4688.9635   -4637.2056   -4688.9635            0    2016.6738    17.910538     23.31774    21.814686    9110.5387    1938.6291    1906.0801    2205.3122   -15.841813   -189.83545   -96.714452   -4369.2544 
42371000    29.260602   -4687.5946   -4637.4429   -4687.5946            0    2429.8547    17.937123    23.192975    21.867743    9097.3144     1682.049    3024.3484    2583.1666    268.75088    149.31247     155.8259   -4315.0619 
42372000    32.006821   -4688.2433   -4633.3847   -4688.2433            0    1937.0753    17.921519    23.297737    21.828717    9114.1622    1878.7376    1626.9732    2305.5151   -285.95597   -41.790674    119.77857   -4375.9072 
42373000    29.658165    -4691.303   -4640.4699    -4691.303            0    1848.2198    17.906083    23.299676    21.862733    9121.2618    2108.5496    1707.8149    1728.2949    183.19824   -76.748077    179.13356   -4394.6119 
42374000    30.299728   -4685.2994   -4633.3667   -4685.2994            0    1934.3375    17.856382    23.309882    21.887786    9110.3567     1983.575    1649.4287    2170.0088    -184.3432   -205.58658   -404.71988   -4376.3605 
42375000    31.413683    -4685.982     -4632.14    -4685.982            0    2230.5223    17.938704    23.253924     21.81547    9100.2197    2218.7076    2034.4974     2438.362    -330.7751    2.4413692    186.61534   -4336.1109 
42376000    29.709734   -4687.7339   -4636.8125   -4687.7339            0    1749.6676    17.842554     23.26199     21.95834    9113.8821    2123.0207    1615.7443    1510.2378    266.56774   -266.42833    8.8059968   -4404.2526 
42377000    32.452432   -4690.5247   -4634.9024   -4690.5247            0    2071.8873    17.948246    23.210454    21.858223    9105.8501    1389.6806    2229.0816    2596.8998    103.53455    156.50384   -185.10307   -4359.7568 
42378000    30.367382   -4687.5728   -4635.5242   -4687.5728            0    2116.8062     17.88245     23.31701    21.856281    9113.3097     2356.521    2129.3904    1864.5073    122.41291    91.937452    240.03814   -4354.1831 
42379000    31.035782   -4686.3376   -4633.1433   -4686.3376            0    2052.8338    17.868695    23.318451    21.840378    9100.2362    2452.8189    1762.8172    1942.8654   -506.07594   -280.26588    249.82251   -4360.6961 
42380000    28.827172   -4688.7595   -4639.3507   -4688.7595            0    1858.0413    17.944924    23.253706     21.85103    9118.1281    1981.2721    1823.3656    1769.4862    190.84459     333.3197   -218.72646   -4392.2711 
42381000    29.971462   -4690.2451   -4638.8751   -4690.2451            0     2262.023    17.839566    23.271498    21.909753    9095.9093    2513.1298    2106.9458    2165.9933    105.98606    69.569546    28.637251   -4338.8075 
42382000    30.406784   -4685.1225   -4633.0063   -4685.1225            0    1839.8715    17.776125    23.410529    21.910901    9118.1884    2415.4975    1489.1202     1614.997   -27.670995    8.5905166     349.3445   -4388.3413 
42383000    29.504658   -4688.4582   -4637.8882   -4688.4582            0    2072.8307    17.831851    23.396025    21.846662    9114.3058     2367.074    1927.6133     1923.805    33.498786   -69.234593   -31.842538   -4362.3618 
42384000     29.06275   -4689.8653   -4640.0528   -4689.8653            0    2047.5663    17.847816    23.317919    21.880062    9105.9112    2524.3766    1989.0527    1629.2695    138.73345   -98.034607    225.94853   -4368.1352 
42385000    27.834899   -4687.6715   -4639.9634   -4687.6715            0     2050.296    17.936031    23.288688    21.786233    9100.2539    2020.9468    1677.9714    2451.9699   -54.092984    153.35542    249.17503   -4367.8525 
42386000    29.888709   -4688.1679   -4636.9397   -4688.1679            0    1950.3223    17.990105     23.21674    21.811453    9110.0242    1726.3403    1940.1971    2184.4294    161.69179   -251.45981    5.4619137   -4377.8192 
42387000    28.920705   -4688.1372   -4638.5681   -4688.1372            0    1801.1147    17.844951    23.243297    21.992839    9122.0906    1839.2627    1945.1733    1618.9083    40.864331    10.113571    177.68588   -4398.9544 
42388000    31.538703   -4689.2266   -4635.1703   -4689.2266            0     2060.285    17.862719    23.240001    21.934801    9105.7856    2166.2567    2050.8767    1963.7216   -215.47469   -98.859348    94.494425   -4361.5675 
42389000    28.539652   -4690.2865   -4641.3705   -4690.2865            0    2530.3533    17.881103    23.272011    21.827323    9082.9875    2410.0739    2848.5367    2332.4493    236.79159    127.33038    84.869691   -4306.1846 
42390000    29.603772   -4688.8106   -4638.0708   -4688.8106            0    1609.4967    17.946043    23.256686    21.886048    9134.4812    1718.2675    1531.2968     1578.926   -332.14763   -317.57077    218.52203   -4423.6584 
42391000    29.933223   -4690.3593   -4639.0548   -4690.3593            0    1686.6242    17.942184    23.145421    21.976898     9126.553    1552.1847    2051.8541    1455.8338    199.70866   -31.751069    47.903848   -4414.5627 
42392000    29.477486   -4688.7798   -4638.2564   -4688.7798            0    2196.2828    17.866414    23.276982    21.882686    9100.4884    2107.6603    2297.4054    2183.7827   -98.497657    139.21202    204.03316   -4346.7629 
42393000    29.508574   -4688.8857    -4638.309   -4688.8857            0    1910.1968    17.968806     23.19184    21.857513    9108.6744    1411.8188    2224.2475     2094.524    19.959202   -21.888277      31.9171   -4384.5572 
42394000    29.841034   -4688.2847   -4637.1381   -4688.2847            0    1670.2613    17.846676    23.303767    21.931662    9121.2637    1991.8462    1468.3145     1550.623   -117.14966     13.82352    69.067614   -4414.9528 
42395000    31.106405     -4687.24   -4633.9247     -4687.24            0    2043.4881    17.918425    23.296879    21.820686    9108.9006    1920.7522    1543.9478    2665.7642   -322.78197   -184.29535     1.106675   -4362.4596 
42396000     28.53837   -4686.3444   -4637.4306   -4686.3444            0    1924.7229    17.836614     23.21881    21.976008    9101.2528    1862.1574    2050.2309    1861.7803    63.600639    265.09535   -15.514447   -4381.9575 
42397000    27.790306   -4687.6719   -4640.0403   -4687.6719            0     2046.474    17.918709    23.206157    21.897595    9105.5538    1588.6769    2196.6115    2354.1336   -525.16049   -48.896127    52.646525   -4368.2784 
42398000    28.412174   -4689.6222   -4640.9247   -4689.6222            0    1821.1068    17.883448    23.318779    21.875293    9122.4379    2169.0458    1341.7254     1952.549     45.04075   -402.26196    133.61785   -4398.6421 
42399000    30.878514   -4685.2695   -4632.3448   -4685.2695            0    2151.1196    17.889521    23.354381     21.78923    9103.5116    2386.5957    1720.9838    2345.7793   -310.12644    62.931186   -157.86809   -4346.7506 
42400000    30.538091   -4690.1973    -4637.856   -4690.1973            0    2129.4249    17.856871    23.269937    21.924144    9110.1017    1895.1519    2300.5675    2192.5554    49.270705   -123.15859    247.56382   -4354.9375 
42401000    30.703573   -4686.6392   -4634.0143   -4686.6392            0    1798.7899    17.974861    23.246944    21.818273    9116.9963     1995.391    1407.5797    1993.3991     131.2561   -51.452452     8.121234   -4394.8436 
42402000    29.486302   -4691.1856   -4640.6471   -4691.1856            0    2120.7888    17.924847    23.145448    21.948635    9106.0194    1308.4571    2855.9362    2197.9732    383.43861    262.75656    18.924106   -4359.0022 
42403000    30.846678   -4687.2362    -4634.366   -4687.2362            0    1739.9491    17.828168    23.277645    21.972827     9118.674    2069.3138    1665.1316    1485.4018   -606.06847    304.52929    277.81662   -4402.9763 
42404000    27.938768   -4686.5854   -4638.6993   -4686.5854            0    2258.7275    17.782529     23.30813    21.950994    9098.1934    2585.1371    1967.5073    2223.5381    182.33283   -363.48053   -81.488831   -4338.9937 
42405000    29.498605   -4687.3718   -4636.8122   -4687.3718            0    2046.9927    17.890346    23.247773    21.875795     9098.377    1667.5121    2538.0022    1935.4637   -61.904812    432.31759    7.1661697   -4365.1958 
42406000      29.5526   -4693.8766   -4643.2245   -4693.8766            0    1576.5842    18.034945    23.238927    21.786288    9130.9113    1061.7292    1937.6018    1730.4217   -56.930332    61.801343    86.212003   -4433.2787 
42407000    29.961116   -4689.6912   -4638.3388   -4689.6912            0    1874.8281    17.930806    23.336704    21.793899    9119.5679    1858.6411    1794.7276    1971.1157   -104.67213   -267.92596    330.79872   -4388.9875 
42408000    29.729219   -4689.4457   -4638.4908   -4689.4457            0     2150.655     17.85556    23.278026    21.901654    9103.2517    2327.4774    1985.4773    2139.0104    135.56328   -12.720851    451.13504   -4352.9664 
42409000     30.58071   -4689.4361   -4637.0218   -4689.4361            0    1943.1359    17.818404    23.280467    21.988341    9121.2204    2409.0127    1680.9715    1739.4235   -267.79815    122.46244    11.398884   -4378.5388 
42410000    31.148638   -4686.3326   -4632.9449   -4686.3326            0    2097.5146    17.928368       23.218    21.881313    9108.3342    1969.3922    2525.5819    1797.5696   -99.555832    11.653595    53.810487   -4354.3201 
42411000    28.205474   -4688.3237   -4639.9805   -4688.3237            0    1781.7092    17.848641    23.310524    21.917797    9119.1447    2016.8379    1753.7366    1574.5529    356.17479   -278.33255    346.08845    -4403.025 
42412000    29.309731   -4688.2808   -4638.0449   -4688.2808            0    2585.8942    17.935763    23.169306    21.876989    9091.1833    2505.3065    2574.5964    2677.7796   -6.2949311   -218.89712    151.25368   -4295.1926 
42413000    30.165242    -4688.463   -4636.7608    -4688.463            0     1913.321    17.978606    23.223891    21.827554    9113.7283    1464.2473    2626.6383    1649.0775    103.51761    271.61334   -30.167164    -4382.453 
42414000    29.802032   -4688.4224   -4637.3428   -4688.4224            0     2260.745    17.929776    23.254422    21.822337    9098.7486     2194.264    2016.7885    2571.1826   -175.77079   -160.18934    121.69145   -4337.3511 
42415000    28.968538   -4686.7606   -4637.1095   -4686.7606            0    2181.2263    17.838421    23.288949     21.92267    9107.5115    2421.1975    2194.9959    1927.4853   -536.73352    48.657144   -280.08186   -4347.3909 
42416000    29.852832    -4686.316   -4635.1493    -4686.316            0    1753.2313    17.924682    23.234079    21.898809    9120.0543    998.37001    2166.2492    2095.0747   -116.79115    10.251439    174.02006   -4401.9579 
42417000     29.34071   -4689.8186   -4639.5296   -4689.8186            0    2178.9439    17.882798    23.282247    21.882672     9110.888    2424.0559    1995.4991    2117.2766      208.156    276.01404    34.160326   -4350.0069 
42418000    31.557268   -4687.3859   -4633.2978   -4687.3859            0    1752.3384    17.982538    23.263232    21.816177     9126.404    1627.6754    1833.4766    1795.8631   -440.00712   -207.94649    194.90575   -4400.0629 
42419000    31.088722   -4685.6909   -4632.4059   -4685.6909            0    1667.7163    17.903643    23.197572    21.948355    9115.6136    1646.9822    2397.6926     958.4742      35.8391    -179.0836   -144.10739   -4410.6966 
42420000    31.113102   -4690.8453   -4637.5185   -4690.8453            0    2164.8436    17.868486    23.305263    21.866961    9106.0532    2465.3196    2176.6091    1852.6022    -29.65525    84.178184    260.77875    -4350.022 
42421000    29.044067   -4687.4854   -4637.7049   -4687.4854            0    1739.5537    17.857773    23.311114    21.918147    9124.1867    1887.4207    1294.0618    2037.1787    228.91125   -131.13757   -230.47753   -4406.2278 
42422000    29.658292   -4687.3948   -4636.5615   -4687.3948            0    2155.7715    17.834066      23.2538    21.972624    9112.2625    2201.7793    2206.3889    2059.1464    279.32294    36.522543   -218.84951   -4350.0745 
42423000    29.160764   -4687.3931   -4637.4126   -4687.3931            0    1984.1729     17.94283    23.207879    21.881519    9111.7933    1632.9685     2438.289    1881.2611   -254.29281   -320.80204    138.53438   -4373.7435 
42424000    29.296419   -4689.3172   -4639.1042   -4689.3172            0    1940.6138    17.912596    23.220776    21.898942    9108.7417     1648.165    2027.7112    2145.9653    82.600195    134.70493   -252.23791   -4381.3098 
42425000    31.911065    -4688.692   -4633.9975    -4688.692            0    2084.8887    17.904177    23.197315    21.933945    9109.7996    2258.6407     1841.597    2154.4282    245.74404    136.86312    47.798596   -4357.0053 
42426000    31.397229   -4691.3502   -4637.5364   -4691.3502            0    1787.5816    17.945099    23.277284    21.830345    9118.8226    1196.6707    1835.9189    2330.1552   -175.36422    -27.73118    131.08403   -4399.8083 
42427000    30.921665   -4685.9519   -4632.9532   -4685.9519            0    2272.2282    17.860853    23.358122    21.793357    9092.1011    2139.1247    2492.4946    2185.0653   -71.028234   -39.620262    35.869713   -4331.6581 
42428000     31.52365   -4689.2872   -4635.2568   -4689.2872            0    2138.9636    17.912221    23.357782    21.766289    9106.7923    2172.4249    2101.2068     2143.259    64.922643    124.70563   -44.997847   -4351.1741 
42429000    29.914857   -4688.3239   -4637.0508   -4688.3239            0    1741.7317    17.884146    23.262101    21.933665    9124.9053    2016.6128    1418.7969    1789.7853   -217.88758   -136.37476    268.21127   -4405.2657 
42430000     29.74955    -4688.675   -4637.6853    -4688.675            0    2008.0584    17.870041    23.257404    21.917112    9108.9878    1389.8222    2548.9899    2085.3631    50.462003    118.42128   -20.964066   -4370.9243 
42431000    30.729799   -4687.9918    -4635.322   -4687.9918            0    2115.9539    17.918649    23.213633    21.894607    9107.2142    1913.2414    2327.3024     2107.318   -150.90359   -224.68341   -159.27606   -4354.2823 
42432000    29.731163   -4683.4568   -4632.4986   -4683.4568            0    2084.1746    17.896026    23.303009    21.858322    9115.6033    2559.7426     1733.739    1959.0421   -265.53473   -34.219707    24.772704   -4355.4248 
42433000    29.005522   -4687.3798   -4637.6653   -4687.3798            0    2446.0184    17.967493      23.2048    21.804503     9090.997    1988.7039    2854.4012      2494.95   -204.18629    143.79527    323.62356   -4313.3652 
42434000    29.097218   -4688.7527    -4638.881   -4688.7527            0    1937.5777    17.846393    23.285075    21.923968    9110.6058    2232.2798    2119.1187    1461.3346    274.88331   -115.35786    181.47928   -4381.4373 
42435000    30.088727   -4685.1266   -4633.5555   -4685.1266            0    2186.1312    17.903088     23.26152    21.856409    9102.1677    2056.5928    2098.3256    2403.4753   -242.83712   -263.73876     37.98618   -4343.3558 
42436000    31.100323   -4687.3993   -4634.0944   -4687.3993            0    2043.7067    17.834574    23.266025    21.952599    9109.0032    1607.4383    2320.9879    2202.6939   -86.978242   -40.424577   -10.014199   -4362.5972 
42437000    29.296746   -4686.9098   -4636.6962   -4686.9098            0    2242.2817    17.883406    23.238998     21.90305    9102.7416    2492.3031    1795.1252    2439.4168    47.812915   -209.91176   -51.366837    -4339.024 
42438000      31.4207   -4686.6257   -4632.7717   -4686.6257            0    2187.5651    17.858441    23.217928    21.965227    9107.5738     2246.297    2626.4284    1689.9701   -82.207461   -66.961129    450.23124   -4342.2092 
42439000    29.597126   -4690.0759   -4639.3475   -4690.0759            0    1993.3662    17.907838    23.282482    21.862748    9115.4304    2092.0519    2115.1088    1772.9378    -186.3578   -64.222635    154.81928   -4374.3509 
42440000    33.189833   -4688.0879   -4631.2017   -4688.0879            0    1887.8383    17.840404    23.319813    21.905976    9113.6504    2056.7538    2131.7392    1475.0217   -54.028403   -162.51317   -112.15933    -4380.283 
42441000    29.929219   -4686.3731   -4635.0755   -4686.3731            0    2211.9915    17.955058      23.1826    21.872387    9104.2699    2089.5621    2682.6362    1863.7762   -223.81703    -87.30099    123.10292   -4341.3751 
42442000    30.666755    -4687.779   -4635.2172    -4687.779            0     2220.963    17.908662    23.226774    21.891227    9105.8844    2099.8056    2244.1711    2318.9122   -64.142153    139.08369   -88.014432   -4340.2733 
42443000    28.950989   -4685.8606   -4636.2396   -4685.8606            0    2090.6855     17.92134    23.269895    21.854008    9113.7266    2463.2626    1879.6549     1929.139   -71.006079   -91.979862    -9.195064   -4358.3575 
42444000    31.443328   -4685.6505   -4631.7577   -4685.6505            0    2172.7716    17.863926     23.28557    21.897574    9108.7707    2174.6434    2285.9162    2057.7553     407.7178   -18.844881    102.98503   -4343.1222 
42445000    28.441127    -4686.568   -4637.8209    -4686.568            0    2234.4711    17.951228    23.177965    21.894842    9109.8513    1851.4193    2938.9185    1913.0754    99.945592    254.43283    225.58261   -4340.9539 
42446000    30.783063   -4688.9526   -4636.1914   -4688.9526            0    1914.1479    17.807849    23.363546    21.906981    9114.4977    2357.3972    1402.8407    1982.2058   -24.840178    -75.87802    185.15319   -4381.7522 
42447000    28.409882   -4684.5808   -4635.8872   -4684.5808            0    1626.2263    17.936286    23.365174    21.790846    9132.2044    1844.0741    1193.4398    1841.1651    -130.1368    31.327946    33.271911   -4419.3002 
42448000    30.049297    -4686.615   -4635.1115    -4686.615            0    2244.3332    17.882822    23.232975    21.926373    9109.7753     2111.002    2712.6581    1909.3395   -535.74217   -169.02496     35.30353   -4336.9368 
42449000    30.786983   -4686.3715   -4633.6037   -4686.3715            0    1985.3619    17.891301    23.248643    21.882882    9102.1514    2118.4777    2167.3952    1670.2127    80.234731   -189.78569   -47.511775   -4370.0558 
42450000    30.748904   -4689.4062   -4636.7036   -4689.4062            0    1765.7989    17.823123    23.347603     21.91841    9120.8464    2383.6412    1292.8193    1620.9363   -249.39687   -70.704165    133.71946   -4401.8202 
42451000    30.318309   -4687.5014   -4635.5369   -4687.5014            0    2170.5663    17.918717    23.155287    21.948974    9106.9153    1907.3637    2196.9762     2407.359   -511.12234    -242.1528   -37.820422   -4347.2531 
42452000    30.238612   -4688.0968   -4636.2688   -4688.0968            0    1792.7412    17.866683    23.281567    21.937525    9125.2295    1760.4499    1910.9636    1706.8101   -301.33289    61.222097    77.041791   -4397.6871 
42453000    29.352674   -4688.1783   -4637.8688   -4688.1783            0    1968.1099    17.983992    23.213966    21.810309    9105.3628    1655.9869    1897.0043    2351.3386   0.17162658     27.17965    2.8415296   -4376.5188 
42454000    29.480626   -4689.2753   -4638.7465   -4689.2753            0    2067.4014    17.892605    23.281748    21.863403    9107.6621    1869.3229     1895.004    2437.8773    24.567109    -225.0815   -179.85242   -4364.1421 
42455000    28.936762   -4688.9769   -4639.3803   -4688.9769            0    1817.7899    17.940479    23.113771      21.9841    9116.1933    1404.8846    2452.4908    1595.9944   -196.70437    271.16983    7.9099023   -4397.7045 
42456000    29.357782   -4688.9369   -4638.6186   -4688.9369            0    2098.0166    17.841418    23.292163    21.909403    9104.7859    1789.8702    2190.4765    2313.7031    -286.5922    13.713409    54.153667   -4360.0357 
42457000    29.344476   -4686.8003   -4636.5049   -4686.8003            0    2205.1409    17.881822    23.297474    21.841247    9099.0913    2825.5256    1924.0757    1865.8213    196.44466   -269.36257   -83.945857   -4343.8807 
42458000    29.932057   -4686.1291   -4634.8266   -4686.1291            0    1873.9081    17.959732    23.205346    21.883438     9120.181    1550.0718    2481.9256    1589.7267    136.92108    19.119607    153.61732   -4385.5809 
42459000    30.557216   -4688.4378   -4636.0638   -4688.4378            0    2245.9574     17.95001     23.20232    21.853986    9101.7896    1964.0112    2345.5361    2428.3247   -104.94794    202.47777    36.924913   -4337.9348 
42460000    31.202765   -4687.0842   -4633.6038   -4687.0842            0    1981.5966    17.887489    23.387486    21.778097    9110.7228    1935.8035    1626.9433    2382.0428    72.979587   -352.46063    166.40842    -4370.308 
42461000    30.547338   -4689.5537   -4637.1966   -4689.5537            0    1938.0125    17.901634    23.274377    21.874056    9113.8113    1701.4188     2155.853    1956.7656    77.456218     26.21467    20.850688   -4379.6045 
42462000    30.426529   -4688.6479   -4636.4979   -4688.6479            0    1930.2441     17.88897    23.319289    21.850101    9114.9457    1504.5235    1943.7525    2342.4562    87.599521   -168.81136   -1.0632278   -4379.9064 
42463000    30.421538   -4686.9176   -4634.7762   -4686.9176            0    1961.9904    18.011153     23.19915    21.807372    9112.0672    1859.4927    1850.4751    2176.0033   -238.57249   -16.580634   -60.358973    -4374.047 
42464000     31.42345   -4691.6426   -4637.7839   -4691.6426            0    1957.3895     17.90804    23.202191    21.928198    9111.2925    1794.4088    2361.2253    1716.5344   -149.73595   -18.856004    122.11516   -4377.6882 
42465000    28.470866    -4691.144   -4642.3459    -4691.144            0    1955.0407    17.762785    23.434134    21.895045    9113.9323    2495.9681    1405.4605    1963.6935   -370.31571    72.378157    253.38879   -4382.4871 
42466000    28.716722    -4687.499   -4638.2795    -4687.499            0    2167.7339    17.908893    23.309994    21.814705    9106.6833    1921.3765     2437.719    2144.1063    72.708656   -27.678812   -389.26309   -4350.3792 
42467000    28.825327   -4688.7626    -4639.357   -4688.7626            0    1831.1656    17.888882    23.258063    21.913548    9117.3672     1988.312     2103.531    1401.6538   -94.158136    127.36176   -7.7177946   -4395.8715 
42468000    29.966272   -4687.0859   -4635.7247   -4687.0859            0    2091.3765    17.939182    23.252322    21.836239    9108.4986     1831.651    2297.2709    2145.2077   -290.80484   -99.815098    258.37997   -4357.9102 
42469000    29.807702   -4686.5416   -4635.4522   -4686.5416            0    1852.9324    17.817475    23.322446    21.948134    9120.4834    2257.8472    2254.6584    1046.2914    235.26884   -207.91248   -10.108302   -4388.9883 
42470000    29.380149   -4689.9739   -4639.6173   -4689.9739            0     1820.419    17.883431    23.268278    21.923123    9122.5764    1959.0368    1985.2728    1516.9473    54.977236    79.745915   -51.949171   -4397.4225 
42471000    29.620762   -4687.2099   -4636.4409   -4687.2099            0    2208.5284    17.892785    23.192335    21.948063    9107.9076    2405.6236    2205.7593    2014.2023    -231.5516    219.83938     342.3405   -4343.0832 
42472000    30.487969   -4690.6465   -4638.3912   -4690.6465            0    1945.9215    17.919918    23.269249    21.843552    9108.3906    1840.4117    1570.2849     2427.068    150.07315   -127.04219    110.62668   -4379.9017 
42473000    29.277094   -4688.4236   -4638.2437   -4688.4236            0    1806.3215    17.903929    23.301981    21.857867    9119.0373    1751.6705    1537.7578    2129.5362   -173.21548   -217.25363    168.01114   -4398.0177 
42474000    30.590648   -4688.5131   -4636.0817   -4688.5131            0    1985.8897    17.958986    23.194115    21.874449    9111.6438    1572.7364    2124.9711    2259.9618    99.513956   -145.22266   -126.62678   -4372.1888 
42475000    30.443683   -4689.9421   -4637.7627   -4689.9421            0    2294.6625    17.853639    23.254859    21.915494    9098.9594    2408.7416    2113.0871    2362.1587   -231.40649    188.16488    100.19533   -4333.2633 
42476000    30.125369   -4687.9485   -4636.3147   -4687.9485            0    2069.8337    17.950832    23.209963    21.850043    9103.5614    2167.8342    2058.5703    1983.0964    28.685582    67.902363    8.8183027   -4361.5109 
42477000    32.661603   -4686.2924   -4630.3116   -4686.2924            0    1805.1969    17.930516    23.211103    21.924559    9124.7172    1957.3829    1867.2463    1590.9615    110.74971   -276.14188   -82.685079   -4390.0856 
42478000    31.458773   -4687.4258   -4633.5066   -4687.4258            0    2059.3294    17.876143    23.262686    21.910256    9111.3162    2103.3997    2145.3883    1929.2001    149.09489    88.871109    333.07683   -4359.8645 
42479000    30.950051    -4688.689   -4635.6417    -4688.689            0    1807.7881    17.948327     23.31328    21.816075    9128.5953    1653.5896    1577.1554    2192.6192   -5.9075393   -178.44555   -168.80313   -4394.9687 
42480000    31.979224   -4687.1739   -4632.3626   -4687.1739            0    1935.8752      17.9033    23.268849    21.867726    9109.8583    1851.5348    1660.3046    2295.7862   -329.64236   0.74327922   -61.734099   -4375.1662 
42481000    29.584455   -4684.3672   -4633.6604   -4684.3672            0    2375.7943    17.906593    23.260382    21.849209    9100.5057    2653.1647    2095.4803     2378.738    93.519297    141.72274    230.47631   -4318.3413 
42482000    29.590164   -4686.8885    -4636.172   -4686.8885            0    2152.5281    17.836882    23.327227    21.895814    9110.5194    2193.0096     1701.347    2563.2279    194.82892    48.260681    163.72218   -4350.1708 
42483000    29.378133   -4688.3278   -4637.9747   -4688.3278            0    1431.8429    17.892108    23.295844    21.932257    9141.6228    1309.5798     1363.504    1622.4447   -162.44809    355.61167    -72.61076   -4447.0797 
42484000    31.259884   -4687.1036   -4633.5253   -4687.1036            0    2158.9661    17.828439    23.289293    21.908954    9096.8552    2411.0545    2027.4265    2038.4174    238.21619   -52.951522    213.39958   -4347.0989 
42485000    29.098948    -4690.421   -4640.5464    -4690.421            0    1714.2817     17.83568    23.347885    21.915904    9126.3389    1939.6332    1774.1207    1429.0913   -333.50553   -239.95824    28.491658   -4412.3784 
42486000    29.270817   -4687.7852    -4637.616   -4687.7852            0    1920.9729    17.893196    23.256716    21.924514    9123.6008    1843.8823    1668.6583    2250.3782   -163.69276    214.07682   -108.01954   -4382.0145 
42487000    29.395129   -4687.7772   -4637.3949   -4687.7772            0    2032.9265    17.924075    23.301383    21.817618    9112.2533    1751.5681    2068.5067    2278.7047    75.973311    24.671881    32.679225   -4367.2335 
42488000      30.0374   -4687.2471    -4635.764   -4687.2471            0    1835.3068    17.983011    23.185566     21.87604    9121.1336    1911.5709    1778.1062    1816.2434   -206.00501     134.9155    70.429175   -4391.6272 
42489000    30.207473   -4688.1295    -4636.355   -4688.1295            0    1883.4706    17.931783    23.294552    21.827361    9117.5691    1932.5644    1918.5812    1799.2662   -193.73048     233.1249   -176.08172   -4385.9091 
42490000     30.44076   -4688.2226   -4636.0482   -4688.2226            0    2147.3384    17.846071    23.285146    21.929062     9112.586    2218.1203    2267.5998    1956.2951    68.463947    48.396534    98.778704   -4350.6718 
42491000     29.81604   -4690.9467    -4639.843   -4690.9467            0    1645.4448    17.934062    23.222385    21.925475    9131.3397    1522.9927    1696.5621    1716.7796    4.7141185    96.687408   -41.495619   -4420.7171 
42492000    30.090836   -4686.7354   -4635.1607   -4686.7354            0    2381.7233    17.878452    23.235883     21.88443    9091.2654    2456.8363    2433.8849    2254.4486    206.64215   -133.90287    359.13938   -4319.3757 
42493000    30.911232   -4686.2806   -4633.2999   -4686.2806            0     2072.664     17.86128    23.250985    21.940737    9111.8205    1988.5383    2155.4744    2073.9793   -226.20079   -71.742359   -244.01833   -4357.8707 
42494000    30.919906   -4687.0614   -4634.0658   -4687.0614            0     1848.066    17.867869    23.356526     21.85364    9120.2093    2206.9363    1298.6517      2038.61    261.67904    85.252954   -143.76031   -4388.2566 
42495000    31.582196    -4686.912   -4632.7812    -4686.912            0    2131.8556    17.798659    23.426304    21.830949    9102.5625    2488.7049    1637.6163    2269.2456   -582.21721   -292.16723    223.70343   -4349.7741 
42496000    30.321062   -4689.7291   -4637.7599   -4689.7291            0    1739.7647    17.926386    23.322015    21.825573    9124.8237    1467.0657    1734.0018    2018.2268    94.762408   -312.89614   -271.31104   -4406.2386 
42497000     30.37271   -4688.6878     -4636.63   -4688.6878            0    2075.8861    17.841381    23.334315    21.870496    9105.0458    2003.0836     1965.327    2259.2478    9.5845162    234.30784    207.20633   -4360.9778 
42498000     30.58503   -4684.9014   -4632.4797   -4684.9014            0    2224.5257    17.959242    23.208746    21.840589    9103.4085    2265.0412    1768.6162    2639.9198    212.94722   -42.771504    359.68656   -4337.1431 
42499000    30.041596   -4691.0337   -4639.5434   -4691.0337            0    1734.6995    17.906897     23.23409    21.930234    9124.0837      1315.33    1950.1569    1938.6117   -98.349322   -61.347921     89.62928   -4408.7149 
42500000    32.164194   -4686.4957   -4631.3674   -4686.4957            0    2143.4322    17.837598    23.298803     21.89832    9100.8257    2731.2979     1871.999    1826.9997    134.33214    202.05896    132.92483   -4346.8778 
Loop time of 430.966 on 64 procs for 250000 steps with 864 atoms

Performance: 100.240 ns/day, 0.239 hours/ns, 580.093 timesteps/s
384.0% CPU use with 16 MPI tasks x 4 OpenMP threads

MPI task timing breakdown:
Section |  min time  |  avg time  |  max time  |%varavg| %total
---------------------------------------------------------------
Pair    | 23.601     | 27.384     | 31.849     |  43.4 |  6.35
Bond    | 1.5609     | 1.841      | 2.0223     |  11.4 |  0.43
Kspace  | 235.89     | 241.09     | 248.12     |  21.4 | 55.94
Neigh   | 0.071939   | 0.079113   | 0.087702   |   1.6 |  0.02
Comm    | 57.483     | 63.449     | 69.909     |  43.7 | 14.72
Output  | 2.0339     | 2.0343     | 2.0369     |   0.0 |  0.47
Modify  | 65.435     | 74.047     | 80.609     |  41.1 | 17.18
Other   |            | 21.04      |            |       |  4.88

Nlocal:        54.0000 ave          61 max          47 min
Histogram: 3 3 2 0 0 0 1 1 2 4
Nghost:        2586.81 ave        2610 max        2565 min
Histogram: 2 2 3 1 0 0 2 2 2 2
Neighs:        13353.8 ave       14929 max       11792 min
Histogram: 5 2 1 0 0 0 1 0 3 4

Total # of neighbors = 213660
Ave neighs/atom = 247.29167
Ave special neighs/atom = 2.0000000
Neighbor list builds = 250
Dangerous builds = 0

unfix		3
unfix		2
unfix		1

write_data	data.final.${pid} nocoeff
write_data	data.final.1 nocoeff
System init for write_data ...
PPPM initialization ...
  extracting TIP4P info from pair style
  using 12-bit tables for long-range coulomb (../kspace.cpp:340)
  G vector (1/distance) = 0.37217449
  grid = 24 27 25
  stencil order = 5
  estimated absolute RMS force accuracy = 0.0031085498
  estimated relative force accuracy = 9.3613055e-06
  using double precision FFTW3
  3d grid and FFT values/proc = 6300 1296
Last active /omp style is kspace_style pppm/tip4p/omp

write_restart   restart.lmp.${pid}
write_restart   restart.lmp.1
System init for write_restart ...
PPPM initialization ...
  extracting TIP4P info from pair style
  using 12-bit tables for long-range coulomb (../kspace.cpp:340)
  G vector (1/distance) = 0.37217449
  grid = 24 27 25
  stencil order = 5
  estimated absolute RMS force accuracy = 0.0031085498
  estimated relative force accuracy = 9.3613055e-06
  using double precision FFTW3
  3d grid and FFT values/proc = 6300 1296
Last active /omp style is kspace_style pppm/tip4p/omp
Total wall time: 0:07:11
