LAMMPS (30 Jul 2021)
Processor partition = 0
  using 2 OpenMP thread(s) per MPI task
using multi-threaded neighbor list subroutines
variable        pid world 0 1
variable        phase world IceIh IceIII

shell cd ${phase}
shell cd IceIh
include Restart.lmp
echo both
log log.lammps
#include		in.partitions
include		in.temp
variable        temperature equal 42.72
variable	tempDamp equal 100.0
include		in.pressure
variable        pressure equal 2143.7
variable        pressureDamp equal 1000.0 # This is 1 ps
include		in.seed
variable        seed equal 745823

units		real
atom_style	full
#include		in.box
read_restart	restart.lmp.${pid}
read_restart	restart.lmp.0
Reading restart file ...
  restart file = 30 Jul 2021, LAMMPS = 30 Jul 2021
  restoring atom style full from restart
  orthogonal box = (0.15954858 0.11583219 0.21631508) to (18.048024 23.513346 21.996881)
  2 by 4 by 4 MPI processor grid
  restoring pair style lj/cut/tip4p/long/omp from restart
  restoring bond style harmonic/omp from restart
  restoring angle style harmonic/omp from restart
  864 atoms
  576 bonds
  288 angles
Finding 1-2 1-3 1-4 neighbors ...
  special bond factors lj:    0        0        0       
  special bond factors coul:  0        0        0       
     2 = max # of 1-2 neighbors
     1 = max # of 1-3 neighbors
     1 = max # of 1-4 neighbors
     2 = max # of special neighbors
  special bonds CPU = 0.003 seconds
  read_restart CPU = 0.009 seconds
include 	in.setup
variable	out_freq equal 1000
variable	out_freq2 equal 10000
variable	out_freq3 equal 1000

timestep	2.0

neigh_modify    delay 7 every 1

include		in.tip4p
# This is TIP4P/Ice

# create groups ###
group ox type 2
288 atoms in group ox
group hy type 1
576 atoms in group hy

# set charges - beside manually ###
set group ox charge -1.1794
Setting atom values ...
  288 settings made for charge
set group hy charge 0.5897
Setting atom values ...
  576 settings made for charge

# ### TIP3P Potential Parameters ###
pair_style lj/cut/tip4p/long/omp 2 1 1 1 0.1577 8.5
pair_coeff 1 1*2 0.000 0.000
pair_coeff 2 2 0.21084 3.1668
bond_style  harmonic
bond_coeff  1 450 0.9572
angle_style harmonic
angle_coeff 1 55 104.52
kspace_style pppm/tip4p/omp 1.0e-5
pair_modify tail yes

thermo          ${out_freq}
thermo          1000
thermo_style    custom step temp pe etotal epair emol press lx ly lz vol pxx pyy pzz pxy pxz pyz enthalpy

restart 	${out_freq3} restart.lmp.${pid} restart2.lmp.${pid}
restart 	1000 restart.lmp.${pid} restart2.lmp.${pid}
restart 	1000 restart.lmp.0 restart2.lmp.${pid}
restart 	1000 restart.lmp.0 restart2.lmp.0


include         in.dump
dump            myDump all atom ${out_freq2} dump.water.${pid}
dump            myDump all atom 10000 dump.water.${pid}
dump            myDump all atom 10000 dump.water.0
dump            myDump2 all dcd ${out_freq2} dump.dcd
dump            myDump2 all dcd 10000 dump.dcd
dump_modify     myDump append yes
dump_modify     myDump2 append yes


variable natoms 	equal  "count(all)"                        # NUMBER ATOMS
variable H      	equal  "enthalpy/v_natoms"                 # ENTHALPY-per-atom
variable Vol      	equal  "vol/v_natoms"                 # volume-per-atom
fix AVG all 		ave/time ${out_freq} 1 ${out_freq} v_Vol v_H file vol_enthalpy.dat
fix AVG all 		ave/time 1000 1 ${out_freq} v_Vol v_H file vol_enthalpy.dat
fix AVG all 		ave/time 1000 1 1000 v_Vol v_H file vol_enthalpy.dat


timer           timeout 23:50:00 every 1000
New timer settings: style=normal  mode=nosync  timeout=23:50:00

fix 		1 all shake 1e-6 200 0 b 1 a 1
Finding SHAKE clusters ...
       0 = # of size 2 clusters
       0 = # of size 3 clusters
       0 = # of size 4 clusters
     288 = # of frozen angles
  find clusters CPU = 0.000 seconds
fix             2 all nph aniso ${pressure} ${pressure} ${pressureDamp}
fix             2 all nph aniso 2143.7 ${pressure} ${pressureDamp}
fix             2 all nph aniso 2143.7 2143.7 ${pressureDamp}
fix             2 all nph aniso 2143.7 2143.7 1000
fix             3 all temp/csvr ${temperature} ${temperature} ${tempDamp} ${seed}
fix             3 all temp/csvr 42.72 ${temperature} ${tempDamp} ${seed}
fix             3 all temp/csvr 42.72 42.72 ${tempDamp} ${seed}
fix             3 all temp/csvr 42.72 42.72 100 ${seed}
fix             3 all temp/csvr 42.72 42.72 100 745823


run             250000
PPPM initialization ...
  extracting TIP4P info from pair style
  using 12-bit tables for long-range coulomb (../kspace.cpp:340)
  G vector (1/distance) = 0.37221144
  grid = 24 27 25
  stencil order = 5
  estimated absolute RMS force accuracy = 0.0030997085
  estimated relative force accuracy = 9.33468e-06
  using double precision FFTW3
  3d grid and FFT values/proc = 4410 672
Last active /omp style is kspace_style pppm/tip4p/omp
Neighbor list info ...
  update every 1 steps, delay 7 steps, check yes
  max neighbors/atom: 2000, page size: 100000
  master list distance cutoff = 10.8154
  ghost atom cutoff = 10.8154
  binsize = 5.4077, bins = 4 5 5
  1 neighbor lists, perpetual/occasional/extra = 1 0 0
  (1) pair lj/cut/tip4p/long/omp, perpetual
      attributes: half, newton on, omp
      pair build: half/bin/newton/omp
      stencil: half/bin/3d
      bin: standard
Setting up Verlet run ...
  Unit style    : real
  Current step  : 42000000
  Time step     : 2
  Walltime left : 23:49:59.93
Per MPI rank memory allocation (min/avg/max) = 10.21 | 10.22 | 10.23 Mbytes
Step Temp PotEng TotEng E_pair E_mol Press Lx Ly Lz Volume Pxx Pyy Pzz Pxy Pxz Pyz Enthalpy 
42000000     49.22277   -4662.2362     -4577.87   -4662.2362            0    2219.2798    17.888475    23.397513    21.780566    9116.1651    2720.3675    1969.6718    1967.8002    62.155287   -107.75496    25.328396   -4282.8169 
42001000    41.971051   -4664.5212   -4592.5842   -4664.5212            0    1958.8996    17.829777    23.370157       21.875    9114.9774    2398.8168    1767.5667    1710.3152   -242.44001   -427.54815    236.85421   -4332.1826 
42002000    43.220394   -4666.4998   -4592.4215   -4666.4998            0     2197.037    17.877639    23.251261    21.931327    9116.3622    2197.5649    2384.4811    2009.0651   -424.51048   -10.530666    336.06594   -4300.3193 
42003000    43.524403   -4667.9622   -4593.3629   -4667.9622            0    2241.5492    17.892669    23.210311    21.928113    9106.6227    1957.4876    2378.8508    2388.3093    65.618896    246.86072    338.75124    -4295.661 
42004000    39.220568   -4665.4982   -4598.2754   -4665.4982            0    2468.6849    17.872964    23.271541    21.880923    9100.9635    2855.4698     2358.837    2191.7479    10.235042    64.101597    139.00541   -4270.6113 
42005000    42.618548   -4662.9256   -4589.8788   -4662.9256            0    2331.0185    17.935039    23.130531    21.959067    9109.6523    2299.5925    3325.0669    1368.3961    238.02157    216.73007    235.68142   -4280.1915 
42006000    44.985346   -4665.8129   -4588.7095   -4665.8129            0    2502.2098    17.963907     23.11551    21.916847     9100.858    2277.1047    2750.0919    2479.4328   -287.05571   -56.932334    64.070941   -4256.5995 
42007000    42.409887   -4664.2267   -4591.5376   -4664.2267            0    1850.6123    17.864827    23.305611     21.94126    9135.2593    2098.2944     1743.114    1710.4286     -253.718   -96.152881    169.24312   -4344.9835 
42008000    42.894501   -4662.1501   -4588.6303   -4662.1501            0    2405.5514    17.851596    23.296162    21.903576    9109.1206    2572.4224    2563.8674    2080.3644   -251.23823     118.4373    288.87772   -4269.0596 
42009000    44.401608   -4662.2746   -4586.1718   -4662.2746            0    2565.6165    17.970868    23.315906     21.72108    9101.2863    2391.2933    2458.5382    2847.0182   -504.29233   -128.37575    76.527663     -4245.63 
42010000    42.087313    -4661.402   -4589.2657    -4661.402            0     2790.069    17.844926    23.330712    21.830952    9088.9855    2798.0735    2720.7081    2851.4254    33.936667   -373.95767   -177.48221   -4219.4323 
42011000    44.012263   -4666.6527   -4591.2172   -4666.6527            0    2303.7434    17.878923     23.26707    21.894144    9107.7483    1958.5877    2450.2674    2502.3753    345.55163    192.19848    19.960022   -4285.2175 
42012000    46.308179   -4663.0096   -4583.6389   -4663.0096            0    2312.9088    17.846332    23.290952    21.918427    9110.5708    2382.7018    2443.8511    2112.1736   -9.2650991   -31.927117    132.29375   -4276.3266 
42013000    44.795309   -4664.1729   -4587.3952   -4664.1729            0    2392.5312    17.919293    23.157736    21.948676    9108.0479    2439.0492    2618.3043      2120.24   -601.44852    202.99753   -76.119075   -4269.5916 
42014000    43.310813   -4669.3332      -4595.1   -4669.3332            0    1903.0195    17.917195    23.345022    21.808026    9121.8024    1538.4549    1331.5182    2839.0854    116.99383   -59.132239    61.359018   -4341.9372 
42015000    42.725872   -4665.5251   -4592.2945   -4665.5251            0    1574.7742    17.960302    23.203858    21.947173    9146.4469    1367.0207    1514.6164    1842.6857    50.481597    -125.2227   -2.7067262   -4382.2329 
42016000    42.923935   -4663.9844   -4590.4143   -4663.9844            0    1636.6235    17.934121    23.098552    22.048981    9133.8396     1952.366    1981.7989    975.70569   -408.13156    184.91914    151.44237   -4372.4035 
42017000    41.540506   -4661.6277   -4590.4287   -4661.6277            0    2310.9309    17.924456    23.273456    21.808857    9097.8709    1819.1886    2727.0934    2386.5106    177.60441   -403.69424    351.73564   -4283.8072 
42018000    40.462602   -4665.9507   -4596.5992   -4665.9507            0    2128.0959    17.878743    23.323399    21.852863    9112.4918    2391.7487    1944.8104    2047.7287    218.47871   -211.40079    394.83745    -4313.783 
42019000    46.222108   -4671.5059   -4592.2828   -4671.5059            0     1942.289    17.841686    23.302472    21.950025     9125.841    2007.9617    2079.7421    1739.1631   -175.70443    92.705089    40.269449   -4333.7815 
42020000    40.756139   -4666.3229   -4596.4683   -4666.3229            0    1546.5739    17.873977    23.347273    21.912438    9144.2494    1789.8613    1462.1181    1387.7422     5.006783    164.04686     214.9531    -4390.218 
42021000    42.531724   -4667.7613   -4594.8634   -4667.7613            0    1548.6287    17.787263    23.367688    21.979941     9135.901    2176.3664     1496.616    972.90384   -246.55483   -103.63434   -20.142624   -4388.5276 
42022000    42.960134   -4663.4438   -4589.8116   -4663.4438            0    1398.1059    17.917345    23.229371    21.978645    9147.7024    1277.4697    1683.4466    1233.4014    63.906376   -183.18025    182.81336   -4403.2905 
42023000    40.548257   -4665.0073    -4595.509   -4665.0073            0     2083.241    17.921486    23.347597    21.803257    9122.9981    1399.5785    1810.3401    3039.8045    98.284711   -24.782516    265.61804   -4318.3347 
42024000    44.012791   -4656.9451   -4581.5086   -4656.9451            0     2640.434    17.952089    23.208384    21.838014    9098.5677    2320.7766    2794.4249    2806.1006   -635.01199    181.75034   -302.78971   -4231.1408 
42025000    42.176577   -4661.9402    -4589.651   -4661.9402            0    1962.3776    17.881189    23.249401    21.926028    9115.2404     1496.162    2082.0799     2308.891   -177.10064   -105.51999     3.123105   -4328.7795 
42026000    45.693306   -4664.7963   -4586.4795   -4664.7963            0     2445.764    17.860808    23.351728    21.819797    9100.6168    2684.1897    2076.3441    2576.7583   -405.33504    92.558935   -228.99841     -4261.87 
42027000    42.369037   -4660.6365   -4588.0174   -4660.6365            0    2118.4757    17.814641    23.438956    21.837021    9118.1919    2426.8105    1741.5277    2187.0889   -50.849305    496.54865    236.22706   -4306.3036 
42028000    43.249602   -4667.6914   -4593.5631   -4667.6914            0    1916.7514    17.815011    23.347843    21.917108    9116.2474    1856.0688    1667.1949    2226.9903   -164.45527   -169.26477    39.289339   -4338.7288 
42029000    41.346889   -4667.5879   -4596.7207   -4667.5879            0    2262.7921    17.911151    23.183654    21.936595    9109.0819    2218.1079    2644.5924    1925.6759    242.45943   -56.313547    43.442541   -4296.1165 
42030000    45.865936   -4667.2431   -4588.6304   -4667.2431            0    1780.0828    17.929917    23.309016    21.826786    9122.0407    2280.7841    1099.5275    1959.9367   -453.55247    110.78169   -29.139718    -4351.816 
42031000    43.786639   -4661.7753   -4586.7265   -4661.7753            0    2058.8478    17.960704    23.224477    21.861163    9118.9022    2280.2539    1501.3033    2394.9862    377.58491   -378.10468    -29.66781   -4312.9207 
42032000    43.500868   -4664.8419   -4590.2829   -4664.8419            0    1922.4929    17.977626    23.119468     21.96642    9129.9722    2081.2301    2242.5454    1443.7031   -128.68577    -204.3372   -50.621078   -4334.3006 
42033000    43.315945   -4665.2446   -4591.0025   -4665.2446            0    2019.6248     17.84446    23.327815    21.918977    9124.2621    2267.4774    1537.5026    2253.8943    213.78944    145.29383    292.92134   -4322.2551 
42034000     41.29759   -4666.0555   -4595.2729   -4666.0555            0    2004.0883    17.810023    23.327333    21.943431    9116.6255    2079.1859    1814.1011    2118.9779    40.491684   -135.40691    590.26798    -4328.816 
42035000    42.709959   -4671.3543   -4598.1509   -4671.3543            0    2220.6438    17.857067    23.309263    21.920504    9124.0825    2411.8151    2261.7433     1988.373   -271.27743    160.08517   -16.204169   -4302.6601 
42036000    42.818015   -4668.4649   -4595.0763   -4668.4649            0    2389.6654    17.855682    23.274546    21.919611    9109.4155    2897.6577    2513.3155    1758.0231   -273.15837    2.6095273    145.03293   -4277.6057 
42037000    42.275578   -4662.4228   -4589.9639   -4662.4228            0    2413.3236    17.958297    23.193743    21.866692    9107.9172    1837.7356    2508.6605    2893.5748    336.46857   -151.40467    32.235977    -4269.403 
42038000    43.430707   -4666.2203   -4591.7816   -4666.2203            0    2159.2002    17.929757    23.325294     21.80486    9119.1603    1988.9941    2153.8547    2334.7519   -68.257076   -86.358931    390.04801   -4304.6218 
42039000    41.970296   -4664.2141   -4592.2785   -4664.2141            0    1960.0892    17.853235    23.260371    21.985221     9129.866    1832.4917    2296.4621    1751.3137   -42.450082   -357.21469    226.42078   -4331.2931 
42040000    41.814588   -4662.9879   -4591.3191   -4662.9879            0    2538.5373    17.924789    23.108283    21.971261    9100.7399    1954.2616    3214.7216    2446.6288   -6.6519682   -98.022064    66.739807   -4254.3918 
42041000    41.408463   -4663.8662   -4592.8935   -4663.8662            0    2329.4045    17.986283     23.10787    21.914018    9108.0068    1681.2183    2860.4463    2446.5491    331.35217   -129.98379   -18.424908   -4283.4765 
42042000     43.10825   -4666.3263   -4592.4403   -4666.3263            0    2263.1897    17.958848    23.170248      21.8983     9112.123    2580.2319    2447.2074    1762.1297   -357.15438   -315.07894    38.757595   -4291.6828 
42043000    42.459291   -4661.5449   -4588.7711   -4661.5449            0    2436.0486    17.880502    23.294843    21.842187    9097.7838    2821.8962    2165.5517    2320.6981   -514.56509   -39.292037    373.30552   -4265.5517 
42044000     43.67183   -4662.4013   -4587.5493   -4662.4013            0    3091.2809    17.889125    23.269398    21.792614    9071.5935    3456.0703    2687.7142    3130.0581   -222.33589    63.870611    177.97456   -4178.5732 
42045000    38.647664   -4665.6151   -4599.3743   -4665.6151            0    2335.4339    17.937128    23.174605    21.893065    9100.6371    2198.1913    3234.2734     1573.837    1.8003099     56.55697   -372.29923   -4289.4074 
42046000    44.238019   -4664.7249   -4588.9024   -4664.7249            0    1974.7851    17.959912    23.207993    21.894264    9125.8251     1726.451    2545.0642      1652.84   -367.58203   -205.02821   -122.70764   -4326.0767 
42047000    40.603558   -4664.7813   -4595.1882   -4664.7813            0    1605.0984    17.839548    23.340804    21.948036    9138.9298    1959.9528    1345.5305    1509.8119    379.53169    73.968853    22.756277   -4381.2576 
42048000    41.727651   -4662.7025   -4591.1827   -4662.7025            0    2057.8826    17.879828    23.351798    21.856583    9125.6948    1869.3571    1782.4528    2521.8379    193.95732    133.16864     321.1751   -4317.3014 
42049000    43.427811   -4663.2588    -4588.825   -4663.2588            0    1588.5334     17.86573    23.260388    21.997354    9141.3044    1696.9101    1894.9488    1173.7414    118.77347   -64.485075    314.03641   -4377.0472 
42050000    41.941567   -4666.5062   -4594.6198   -4666.5062            0    1927.4998    17.890805    23.226197    21.960285    9125.2746    1916.5124    2546.7679     1319.219   -184.16374    311.72891     36.55667   -4338.1028 
42051000    42.287755   -4661.2237   -4588.7439   -4661.2237            0    2105.6689    17.880336    23.241369    21.962093     9126.644    2625.8023    2491.0304    1200.1742   -268.08505    134.64032     341.0318   -4308.4736 
42052000    42.773414   -4664.5094   -4591.1972   -4664.5094            0    2419.4258    17.811416    23.294735    21.969231    9115.3021    2303.8434    2529.6674    2424.7667   -82.652043   -236.07147   -49.021294   -4269.5652 
42053000    40.638221   -4663.4697   -4593.8172   -4663.4697            0    2907.5706    17.874771    23.240976    21.877001    9088.2993    2697.4858    2453.3728    3571.8532    66.016674    86.786942    247.24121   -4208.4376 
42054000    42.778335   -4661.4121   -4588.0915   -4661.4121            0    2494.3454     17.85613    23.350403    21.827318    9100.8532    3075.4427    1986.3625    2421.2308   -508.81859    188.98243     -27.6724   -4257.0255 
42055000    42.070081   -4662.3977    -4590.291   -4662.3977            0    2291.1832    17.817162    23.260574    21.948303    9096.1977    2249.7716    2502.5601     2121.218   -28.320055    268.60452    -78.24114   -4286.3456 
42056000    43.466444   -4661.6502   -4587.1502   -4661.6502            0    1597.4807    17.862947    23.296763    21.970575    9143.0295    1507.1937    2020.3901    1264.8584   -135.78636   -361.19366    298.04665   -4374.1394 
42057000    43.368592   -4666.8528   -4592.5205   -4666.8528            0    2026.2543    17.889845    23.265953    21.924907    9125.6789      1551.75    2361.6624    2165.3505   -334.74225   -113.04935    228.48673    -4322.849 
42058000    41.886475   -4664.0363   -4592.2443   -4664.0363            0    1905.7532    17.954195     23.33869    21.768712    9121.6871    2078.9333    1645.7702    1992.5562    300.33901    253.04659    150.49815   -4338.7211 
42059000    42.055461   -4664.4174   -4592.3358   -4664.4174            0    1561.8877    17.906419    23.386027    21.841973    9146.5446    1812.7698    1321.6106    1551.2828   -126.38899    18.281646   -42.598461   -4383.9909 
42060000     41.11109   -4668.8575   -4598.3945   -4668.8575            0    1777.2623    17.934981    23.278316    21.847608    9121.2926    1012.5805    1648.2903     2670.916   -141.87824    146.41614    -197.7186   -4361.9747 
42061000    41.097622   -4662.9804   -4592.5404   -4662.9804            0    2027.5477    17.931201    23.344296    21.771981    9113.5607    2306.2323    1865.7254    1910.6855   -77.662628   -201.03754   -118.27494   -4323.0552 
42062000    40.812395   -4660.0927   -4590.1417   -4660.0927            0    1881.5416    17.914156     23.36796     21.81305    9131.3195    2148.5391    1464.7023    2031.3835    306.26171   -289.11365    230.90275   -4339.5751 
42063000    44.666724   -4662.1514   -4585.5941   -4662.1514            0    2437.6847    17.950572    23.185891    21.867357     9101.194     2334.741    2617.0964    2361.2168    210.26982     218.4279   -86.379143   -4262.0364 
42064000     43.10261   -4664.7948   -4590.9184   -4664.7948            0    2620.3036    17.823145    23.305979    21.917123    9104.0626    2883.1248    2476.6516    2501.1345    367.66068   -2.2916535   -75.561219   -4243.0118 
42065000    40.997036   -4666.3805    -4596.113   -4666.3805            0    2196.3189    17.967866    23.193859    21.889589    9122.3579    2120.8451    2857.6375     1610.474   -80.009595    38.496305   -206.69684   -4303.9142 
42066000    43.915128   -4662.0145   -4586.7454   -4662.0145            0     2631.656    17.871663    23.249562     21.86917    9086.8222    2479.6096     3170.831    2244.5275    16.152379      168.267   -299.06366   -4237.9932 
42067000    42.971136   -4671.2364   -4597.5853   -4671.2364            0    2212.9293    17.789173    23.348724    21.935327    9110.9363    2484.0222    2398.6264    1756.1392     262.4208   -33.771152    10.050403   -4303.5453 
42068000      42.8515   -4666.3979   -4592.9519   -4666.3979            0    2338.6823    17.882111    23.287679    21.865983    9105.7137    2475.9944    2308.8919    2231.1607   -422.30489   -103.12549    285.30169   -4282.3807 
42069000     40.49037   -4667.1688   -4597.7697   -4667.1688            0    2130.1942    17.878756    23.336407    21.844791     9114.213    2285.4547    1755.5451    2349.5828   -792.05251   -17.946721     299.3451   -4314.6212 
42070000    42.618787   -4664.7115   -4591.6644   -4664.7115            0    2122.2527    17.966238     23.11366    21.969884    9123.3352    1663.2728    2404.1822    2299.3031    118.91269    4.7498749    5.4965225   -4309.2891 
42071000    40.961497   -4662.3619   -4592.1553   -4662.3619            0    2015.5779    17.923242    23.169626    21.997561    9135.0328    1857.6166    2071.4599    2117.6571   -267.38897   -51.612239   -149.77687   -4323.6297 
42072000    45.658868    -4659.811   -4581.5533    -4659.811            0    2363.0956      17.8547     23.15177     22.04134    9111.1827    2615.0758    3531.8465    942.36442    19.479035    60.235253    50.219831   -4267.5516 
42073000    40.696052   -4666.5039   -4596.7522   -4666.5039            0    2304.7968    17.892014    23.163656    21.985381    9111.7192    1882.5617    2847.5521    2184.2764   -66.008741   -251.32802    226.72635   -4290.4791 
42074000    44.114859   -4670.3675   -4594.7562   -4670.3675            0    2077.3544    17.913536    23.360408    21.816154    9129.3516    2301.6584     2334.379    1596.0258   -388.39474      14.3254    312.31476   -4318.1726 
42075000    40.783846   -4663.3368   -4593.4347   -4663.3368            0    2233.8348    17.902019       23.404    21.746202     9111.199    2453.0667    1441.0668    2807.3709    150.03279   -175.63876    178.84975   -4296.6084 
42076000     42.83667   -4667.1658   -4593.7452   -4667.1658            0    2131.8775    17.862172    23.287447    21.923319    9119.3203    2503.7103    1796.8596    2095.0626    218.75767    238.22872    -62.86208   -4310.2141 
42077000    41.869065   -4666.8655   -4595.1034   -4666.8655            0    2168.0355    17.987243    23.128586    21.907379    9113.8969    1863.1904    2881.6574    1759.2587   -190.60689   -270.24662    278.07858    -4306.935 
42078000     45.54963   -4661.8815    -4583.811   -4661.8815            0    2207.7614    18.035457    23.165319     21.81267    9113.2708    1614.7382    2206.3022    2802.2439   -318.75128   -139.13422    273.47349   -4290.3825 
42079000    43.953996   -4669.5724   -4594.2368   -4669.5724            0    2197.6664    17.879968    23.317827    21.873028    9119.3465    2206.9811    1477.0207    2908.9975    351.09291      305.863    141.92166   -4301.9553 
42080000     46.17762   -4664.0619    -4584.915   -4664.0619            0    2761.3804    17.867611    23.150013    21.976454    9090.2399    3127.4779    3055.7655    2100.8979     21.38704    172.40172   -219.62391   -4218.8338 
42081000    43.438357   -4665.9709   -4591.5191   -4665.9709            0    2351.5698    17.840729    23.283321    21.902553    9098.1326    2864.8284    2467.3636    1722.5172   -344.92504   -203.49379    298.75269   -4279.4965 
42082000    43.014929   -4669.6111    -4595.885   -4669.6111            0     2309.317    17.884757    23.330107    21.829465    9108.4161    2382.5601    1744.6039     2800.787   -67.636338   -47.679943    221.79843   -4289.1225 
42083000    40.793751   -4666.3057   -4596.3866   -4666.3057            0    2175.1577    17.925525    23.266834    21.852519    9114.0349    1561.5534    2029.6206    2934.2989    438.61547   -23.783222    257.94424   -4307.2672 
42084000    45.827188   -4664.1853   -4585.6391   -4664.1853            0    2104.5314    17.902779    23.269699    21.875425    9113.1328    2025.6323    2028.3367    2259.6254    167.65804   -313.22296   -35.494337   -4305.9349 
42085000    43.352777   -4666.5376   -4592.2325   -4666.5376            0    2056.9517    17.874342    23.320325    21.890513    9124.7422    2313.2221    2168.9066    1688.7264   -645.66119    95.929839    137.26665   -4318.5036 
42086000    41.415252   -4662.7899   -4591.8055   -4662.7899            0    2301.1384    17.877125    23.383565      21.8026    9114.1613    1801.3712    2322.1327    2779.9113    179.76479   -43.257367    331.40267   -4285.9366 
42087000    43.836082   -4668.0655    -4592.932   -4668.0655            0    2462.9181    17.748066    23.359564    21.936646      9094.65    2837.1175    2341.2747    2210.3619     159.1341    127.10694   -175.43321     -4266.26 
42088000    44.165334   -4662.9162   -4587.2184   -4662.9162            0    1718.7594     17.88231    23.281017     21.95203    9139.0335    2013.4134    1706.1757    1436.6891   -62.201117    279.04767    56.610311   -4358.1362 
42089000    40.954759    -4667.459   -4597.2639    -4667.459            0    2076.5616    17.869607    23.292979    21.907331     9118.628    1921.6956    2122.6871    2185.3022     85.73134    41.186132    64.300132   -4321.1106 
42090000    42.635629   -4664.8395   -4591.7635   -4664.8395            0    2359.5707     17.92468    23.233415     21.85487    9101.4945    2065.6368    2266.8554    2746.2199    -302.9012   -275.08833   -38.572849   -4278.5636 
42091000    41.702308   -4669.0048   -4597.5284   -4669.0048            0    2284.3243    17.919817    23.232694      21.8878    9112.4521    2000.7709    2218.3999    2633.8022     483.1061    286.59441    161.40991   -4293.9514 
42092000    42.497214   -4660.6821   -4587.8434   -4660.6821            0    2565.2876    17.896206    23.101457    22.029378    9107.5714    2513.3745    3414.0741    1768.4141    34.205223    222.37231   -72.988207   -4247.1101 
42093000     41.75861   -4666.8761   -4595.3032   -4666.8761            0    2122.2328    17.906049    23.305953    21.830491    9110.2468    1947.7333    1722.1759    2696.7891   -124.48742   -277.75541   -200.05009   -4313.3357 
42094000    44.044037   -4668.3347   -4592.8447   -4668.3347            0     2276.497    17.877125    23.361734    21.805826    9106.9991    1747.9709    2051.4707    3030.0495   -205.79878   -318.65212   -62.966308   -4290.4889 
42095000     42.54177   -4667.9554   -4595.0402   -4667.9554            0    2156.1165     17.82703    23.346722    21.891869    9111.4553    2506.5659    2380.6069    1581.1767   -392.74387    13.274806    52.904618   -4308.5328 
42096000    42.535518   -4661.9883   -4589.0839   -4661.9883            0    2158.3867      17.9075    23.299592    21.868009    9124.1522    2300.9725    1847.4144    2326.7731   -211.28342   -130.29228    379.92472   -4301.8751 
42097000     44.20184   -4667.5537   -4591.7933   -4667.5537            0    1913.9111    17.979788    23.229351    21.844011     9123.344    1860.7898      2139.46    1741.4836   -205.75461   -39.031713   -276.68226   -4337.1385 
42098000    43.104103   -4670.6066   -4596.7277   -4670.6066            0    2458.5985    17.859481    23.317144     21.85915    9102.8516    2642.6627    1973.4066    2759.7263   -98.013541    24.612485    -139.9825   -4270.3346 
42099000    42.080167   -4662.1707   -4590.0467   -4662.1707            0    2393.7327    17.792843     23.24884    22.021203    9109.3558    2376.6273    3345.6366    1458.9343    502.47046   -219.99399     301.2893   -4272.0379 
42100000    43.135829   -4666.3882   -4592.4548   -4666.3882            0    3154.4848    17.768856     23.25885    21.936296    9065.9016    3674.9272    3380.6093     2407.918    -69.73644   -142.18037    182.18654   -4175.3787 
42101000    41.424264   -4668.1939   -4597.1941   -4668.1939            0    2441.1222    17.943187    23.277938    21.781251    9097.6012    2490.1159     2325.585    2507.6657   -561.82335    131.62617    224.29425    -4273.308 
42102000    45.393173    -4667.601   -4589.7987    -4667.601            0    2469.5956    17.932782    23.206639    21.871081    9101.8602    2345.6136    2108.3733    2954.7999   -15.991862    4.9091259   -116.09313   -4261.9813 
42103000    43.620418    -4662.583   -4587.8191    -4662.583            0    2991.5502    17.831006    23.167391    21.977346    9078.7949      3205.79    3143.9413    2624.9193   -256.68492   -66.200588   -292.73128   -4191.7231 
42104000    43.246968   -4666.7856   -4592.6618   -4666.7856            0    2166.8986    17.836435    23.240266    21.965577    9105.2482    2569.9135    2336.6754    1594.1068   -123.78682    184.96814    169.27874   -4304.9178 
42105000    43.948838   -4664.1746   -4588.8478   -4664.1746            0    2259.2969     17.92928    23.343131    21.772378     9112.296    2203.1856    2106.9228    2467.7823    259.43912    15.206053    375.62783   -4288.6019 
42106000     42.03841   -4668.4287   -4596.3763   -4668.4287            0      2190.78    17.881595    23.350883    21.825895    9113.4245    2299.5555    2076.0569    2196.7277     40.87644   -270.19698    113.62812   -4305.1998 
42107000    41.683609   -4665.1675   -4593.7233   -4665.1675            0    2169.2746    17.805771    23.251408     22.01701     9115.246    1896.7003    2362.4153    2248.7082   -394.98892     188.7771    400.75229   -4305.3475 
42108000    44.668718   -4668.5427    -4591.982   -4668.5427            0    1756.8444    17.921824    23.264802    21.896776    9129.8103    1505.9143    1819.9137    1944.7051    18.017112    34.755834   -164.77357   -4358.0601 
42109000    41.946571   -4666.1556   -4594.2606   -4666.1556            0    1834.7579    17.957004    23.220874    21.881166    9123.9502    1624.9331     2096.992    1782.3487   -475.48635    597.30163   -259.65384   -4350.1214 
42110000    39.712413     -4662.99   -4594.9243     -4662.99            0    2039.7957    17.882736    23.258937    21.928106    9120.6323    2503.2512    2150.1136    1466.0222   -293.80038   -156.82433     296.4948   -4323.6008 
42111000    43.678203   -4665.6536   -4590.7907   -4665.6536            0    1941.0238    17.882098    23.343196    21.864905    9126.9648    1816.7026    1663.4482    2342.9206   -291.08231   -512.60609   -18.260164    -4332.426 
42112000     41.22446   -4663.1239   -4592.4666   -4663.1239            0    2255.2366     17.77284    23.402885    21.903008     9110.244    3093.2628    2090.9716    1581.4753    445.10113   -214.98042    49.378436   -4292.8278 
42113000    41.024575   -4663.2691   -4592.9543   -4663.2691            0    2588.1547      17.8451    23.333554    21.854553    9100.0086    2126.3571    2070.9534    3567.1535    87.955224   -47.876431    20.213511   -4249.4692 
42114000    44.038296   -4660.7246   -4585.2444   -4660.7246            0    2429.6861     17.97176    23.220284    21.824765    9107.6785    2234.2786     2650.731    2404.0487   -466.58359    248.79781    116.30746   -4262.5186 
42115000    43.733944   -4664.5704   -4589.6119   -4664.5704            0    1813.7429    17.890509    23.263904    21.937586    9130.4908    1610.3701    2287.7821    1543.0765    335.44404   -104.91084   -66.504768    -4348.096 
42116000    41.734004   -4667.0332   -4595.5026   -4667.0332            0    1963.4741    17.947771    23.263194     21.86375    9128.6074    1990.7694    2502.2526    1397.4002   -96.670968   -237.48392    374.72909   -4334.1026 
42117000    41.551125   -4669.9456   -4598.7284   -4669.9456            0    2294.5528    17.868085    23.303273    21.871287    9106.8725    2746.2167    1545.1971    2592.2446    268.20453   -57.457684   -59.810452   -4293.9787 
42118000    42.484766   -4668.1557   -4595.3383   -4668.1557            0    2249.9588    17.767948    23.320965     21.97977    9107.6631    2979.9027    1719.0745    2050.8991   -103.04524      13.9344   -163.76107   -4296.4854 
42119000    42.403755    -4662.487   -4589.8084    -4662.487            0     2135.313    17.935069    23.245706    21.888693    9125.6881    2689.5538    2272.0242    1444.3611     83.56882   -166.62532    41.016642   -4305.6222 
42120000    42.146304    -4668.414   -4596.1766    -4668.414            0    2065.9163    17.861327      23.4283    21.805507    9124.7442    2317.5634    1364.4758    2515.7097    399.33986   -157.67853    48.361417   -4321.2548 
42121000    42.895303   -4667.9875   -4594.4664   -4667.9875            0    2102.5267     17.94162    23.201087    21.888008    9111.2136    2067.9428     1985.734    2253.9033   -217.34924    47.080571    234.46351   -4315.0875 
42122000    44.924857   -4664.3641   -4587.3645   -4664.3641            0    2220.9604     17.86694    23.266734    21.945973    9123.0584    2279.5218    2280.1893    2103.1699   -478.38736   -331.30512   -22.924402   -4291.8647 
42123000    40.797612   -4667.6226   -4597.6968   -4667.6226            0    2221.6913    17.920583    23.339889    21.780406    9109.9687    1940.6104    1707.6846    3016.7788    153.11326   -433.32873    53.957238   -4302.5239 
42124000    44.662715   -4664.1578   -4587.6075   -4664.1578            0    2436.1465     17.91317    23.260068      21.8467    9102.6797     2261.443    1766.3005    3280.6961   -6.1000212   -267.69563    9.5696973   -4264.2011 
42125000    45.675707    -4662.146   -4583.8594    -4662.146            0    2260.5449    17.894447    23.291669    21.873993    9116.8956    2628.4517    1894.1509    2259.0321   -45.226099    237.32574   -82.302381   -4283.2961 
42126000    43.146439   -4665.1705    -4591.219   -4665.1705            0    2011.2122    17.920495    23.244657    21.901599    9123.2373    1755.5896    2344.7019    1933.3451   -126.16853    181.91074   -52.382378    -4323.621 
42127000     43.38605   -4663.4422     -4589.08   -4663.4422            0    2326.0412    17.818327    23.321792    21.927405    9112.0497    2153.4583    2183.2261    2641.4392   -148.04372   -128.44392    12.447225   -4279.9726 
42128000    42.768645   -4663.3346   -4590.0306   -4663.3346            0    2630.3561    17.845656    23.260043    21.915002    9096.7142    2815.8525    2592.7773    2482.4386    466.91446   -376.36585    47.037542   -4241.0712 
42129000    44.297218   -4662.4751   -4586.5512   -4662.4751            0    2617.5983    17.907013    23.233076    21.861808     9095.277    2685.5479    2661.6434    2505.6034    183.18006    358.40303    44.731857   -4239.3391 
42130000    40.526198   -4665.3383   -4595.8777   -4665.3383            0    2472.3058    17.871554    23.288282    21.868475     9101.611    2345.4071     2592.338    2479.1724   -470.83251   -135.46569   -209.54298   -4267.7097 
42131000    40.104882   -4666.6898   -4597.9514   -4666.6898            0    1996.2617    17.937898    23.241604    21.896803    9128.8978    1797.8082    2765.3567    1425.6204   -284.37799   -71.551812   -259.26636   -4332.1779 
42132000    42.873157   -4662.4035   -4588.9204   -4662.4035            0    1976.1586    17.795986    23.432643    21.889385    9128.0262     2374.673    1369.5488    2184.2539   -240.76897    28.895413    3.2381692   -4325.8484 
42133000    41.717467   -4665.9692   -4594.4669   -4665.9692            0     2124.018     17.87966    23.285695    21.887368    9112.5937    2074.0635    2159.5304    2138.4599   -51.857358    -12.30381    208.48414   -4312.1895 
42134000    42.412952   -4669.4284    -4596.734   -4669.4284            0    2038.4418    17.835964    23.287207    21.962541    9122.1368    2459.7806    1942.3608    1713.1838    544.42897    261.81928   -373.65747   -4325.5458 
42135000    40.272196   -4667.0519   -4598.0268   -4667.0519            0    2081.6192    17.839979    23.324999    21.892668    9109.9224    2797.2207     1850.778    1596.8588   -64.355413   -181.70014   -56.372514   -4321.4652 
42136000    42.348482   -4665.5948    -4593.011   -4665.5948            0    1879.5429    17.971858    23.246127    21.858646      9132.02    1672.4525    1851.2641     2114.912   -508.91953   -96.706266     163.3831   -4342.6913 
42137000    41.967661   -4667.1207   -4595.1896   -4667.1207            0    2159.6677    17.864515    23.242342    21.903333    9094.5522    2870.4579    1556.2697    2052.2754    100.56023    308.52355    129.48603   -4308.7426 
42138000    44.307228   -4668.7001    -4592.759   -4668.7001            0    2224.2096    17.859651     23.31535    21.896836    9117.9305    2561.4829    2086.4427     2024.703   -144.33354   -193.44317    342.51379   -4296.9933 
42139000     40.69536   -4669.8776   -4600.1271   -4669.8776            0    2288.9237    17.943425    23.197103    21.870771     9103.391    1857.1836    2911.5796    2098.0081    221.08252   -211.40059    71.643432   -4296.2413 
42140000    41.726196   -4664.5327   -4593.0154   -4664.5327            0    2339.2954    17.899385     23.30011    21.829256    9104.0575    2427.3842    2085.5027    2504.9991    155.02732   -272.50372   -173.44492   -4282.4194 
42141000    41.344764   -4667.8825    -4597.019   -4667.8825            0    2185.9135    17.787751    23.400649    21.866438    9101.7937    2329.2358    1924.5298    2303.9749   -107.52339   -138.65344    460.55769   -4306.8602 
42142000    42.250522   -4669.0881   -4596.6722   -4669.0881            0    1582.8669    17.804861    23.471502    21.854506    9133.1476    1815.3755    1255.7092     1677.516   -218.78722   -282.43301      352.622   -4385.8381 
42143000    40.703051   -4665.5239   -4595.7603   -4665.5239            0     1666.081    17.852301    23.423273    21.864059    9142.6602    1690.0736    1033.2974    2274.8721   -441.74837    138.71013   -66.749042   -4373.6112 
42144000    43.417701   -4667.5746   -4593.1582   -4667.5746            0     2127.069    17.945245    23.224016    21.857425    9109.3147    1901.5416    2115.5236    2364.1417    -178.9285    -390.3383   -116.51128    -4310.577 
42145000    44.561871   -4664.0509   -4587.6734   -4664.0509            0    2336.8972    17.996561    23.223519    21.806317    9113.8078    1956.0461    2615.9233    2438.7221   -430.49557    233.64305   -175.11145   -4277.0635 
42146000    40.631935    -4664.011   -4594.3692    -4664.011            0    2714.6646    17.870849    23.236182    21.902205    9094.8972    2826.8771    2561.2416    2755.8752    359.75051   -103.14136   -237.45544   -4234.2968 
42147000    40.660769   -4667.8177   -4598.1265   -4667.8177            0     2212.214     17.86948    23.334911     21.86035     9115.388    2002.7773    2405.3745    2228.4902   -230.17038   -100.65664    177.50815   -4304.0379 
42148000    41.218015   -4667.9359   -4597.2897   -4667.9359            0    2201.7586    17.904877    23.139636    22.003629    9116.3749    2373.4319    1938.8971    2292.9469    483.26542   -255.26576      23.9236   -4304.5593 
42149000    43.747737    -4661.095   -4586.1128    -4661.095            0    1729.5107    17.819724    23.311052    21.980496    9130.6212    2134.6639    1572.6971     1481.171   -715.46656   -37.551906    83.108412   -4355.8099 
42150000    40.910379   -4664.3514   -4594.2325   -4664.3514            0    2140.0061    17.877213    23.374128    21.807022    9112.3748    2013.9608    2042.8311    2363.2264    197.20776    5.9974995     71.60435   -4309.8371 
42151000    43.576084   -4663.7051   -4589.0172   -4663.7051            0    1831.8614    17.868044    23.380037    21.840226    9123.8751    1817.5556    1582.2492    2095.7792   -208.84695     180.6111   0.62165504   -4345.2654 
42152000    39.832864   -4666.6859   -4598.4137   -4666.6859            0    1668.0232    17.873642    23.346185    21.907364    9141.5344    1520.5998    1644.8035    1838.6662   -176.13212   -89.394454    93.073705    -4376.033 
42153000    42.995939   -4665.0837   -4591.3902   -4665.0837            0    1423.2737    17.857786    23.348068    21.937374    9146.6739    1437.0768    1615.7605    1216.9839    71.788105   0.71096722     92.03504   -4401.5328 
42154000     39.76014   -4663.7591   -4595.6116   -4663.7591            0    2163.3984    17.983075    23.122924    21.930661    9119.2355    2263.6372     2761.186    1465.3721   -445.04954    7.7008042    30.605076    -4307.891 
42155000    41.992104   -4665.9678   -4593.9947   -4665.9678            0    2050.4056    17.958273    23.246349    21.852792    9122.7599    2462.5632    1946.0738      1742.58    220.83302    74.195153    154.44168   -4321.1963 
42156000    39.706755   -4669.2575   -4601.2015   -4669.2575            0     2061.778    17.936659    23.159183    21.947019    9116.7559    2300.6612    1771.3025    2113.3703   -251.73473   -31.849237     128.5251   -4327.0705 
42157000    41.695959   -4667.1123   -4595.6468   -4667.1123            0    1990.1439    17.878167    23.294116    21.884175    9113.7978    1696.2384    1431.3699    2842.8234   -100.11738   -3.6873833    35.095591   -4331.1261 
42158000    42.141087    -4667.194   -4594.9656    -4667.194            0    2435.6157    17.865328     23.31261    21.850658    9100.5243    2897.5558    2639.9205    1769.3709    886.28817   -556.29837    243.82649   -4271.7062 
42159000     41.35802   -4663.3192    -4592.433   -4663.3192            0    2040.9193    17.971018    23.220763    21.839665    9113.7088    1844.8994    2905.1385      1372.72   -307.24567    127.35653    -29.21076   -4321.1661 
42160000    43.021078   -4661.6317    -4587.895   -4661.6317            0    2345.0669    17.843997    23.346708    21.873931    9112.6485    2535.8758    2022.6273    2476.6974    78.797031    360.71497    33.721036   -4276.2388 
42161000    42.718316   -4670.7687   -4597.5509   -4670.7687            0    2645.8334    17.890241    23.225275    21.900977    9099.9819    2394.6521    2758.5171     2784.331   -671.19356   -171.62037    463.99137   -4246.4121 
42162000    39.631693   -4661.4216   -4593.4943   -4661.4216            0    2655.7832    17.869909    23.263061    21.881126    9096.1765    2621.9345    2719.0574    2626.3576   -131.90564    76.966309    160.56088   -4241.1823 
42163000    43.938471   -4666.3662   -4591.0572   -4666.3662            0    2492.0404    17.860694    23.200141    21.970447    9103.9079    2703.1253     2641.311    2131.6849   -76.539021    127.80241    17.985383   -4260.1861 
42164000    43.857014   -4669.7431   -4594.5737   -4669.7431            0    2059.8321    17.927378    23.267069    21.884186     9128.278    2079.6225    1751.4127    2348.4612   -120.45732    155.24561    544.47729   -4320.3553 
42165000    41.702505     -4664.36   -4592.8833     -4664.36            0    2048.9296     17.94353    23.243723    21.871318    9121.9682    2382.4529    2376.6382    1387.6977    269.57641   -73.714156    237.90462   -4320.3049 
42166000     41.86115   -4661.7268   -4589.9783   -4661.7268            0    2086.2842    17.909264    23.187879     21.97154    9124.2935    1756.0467     2616.006    1886.7999   -289.19273    155.73815    93.871677   -4312.3596 
42167000    40.975937   -4668.3299   -4598.0985   -4668.3299            0    1866.4312    17.873674    23.344706     21.90348    9139.3512    1802.3848    1448.8704    2348.0383    47.003127   -176.56253   -70.684328   -4349.3255 
42168000    43.913991   -4660.9204   -4585.6533   -4660.9204            0    2098.4256    17.751008    23.443552    21.901062    9114.0542    2245.6388    2308.5116    1741.1265    126.15448   -196.12901    536.79504   -4306.7324 
42169000    42.990967   -4662.2116   -4588.5266   -4662.2116            0    2060.8762    17.891833    23.404954    21.801642    9129.6013    1882.5381    1560.6518    2739.4386    177.91205   -194.49782    248.41984   -4314.1294 
42170000    41.962035   -4664.2719   -4592.3504   -4664.2719            0    2071.7342    17.852676    23.321966     21.90927    9122.1329    2220.7285    1743.4649    2251.0092    60.165124    335.37949    134.93536   -4316.7332 
42171000    42.567206   -4666.4712   -4593.5125   -4666.4712            0    1936.2209    17.961812    23.237322    21.876825    9131.0458    1519.0397    2653.4602    1636.1627    -18.93722   -3.3857922   -244.94531   -4335.6719 
42172000    41.777818     -4665.31   -4593.7042     -4665.31            0    2009.2868     17.87749    23.389128    21.811596    9120.2774    2343.5451    1583.5248    2100.7904   -253.53653   -325.27725    -40.07378   -4326.4492 
42173000    40.668804   -4665.0435   -4595.3386   -4665.0435            0    1569.4437    17.831716    23.370208    21.950051    9147.2652     2407.827    1600.6762    699.82786    72.117742    27.625984    242.41283   -4385.9693 
42174000    42.820382   -4669.8574   -4596.4647   -4669.8574            0    1869.4837    17.922601     23.27689    21.874882    9125.8158    1862.3726    1579.7088    2166.3698    -333.8417    40.545517   -136.94165   -4347.6539 
42175000    44.163455   -4665.7793   -4590.0847   -4665.7793            0    2143.6328    17.867195    23.210291    21.981475    9115.7795     2746.724    2063.2731    1620.9014   -189.17245   -164.28848   -311.88401   -4305.1009 
42176000    43.037073   -4667.9293   -4594.1652   -4667.9293            0    2366.2437    17.894138    23.215172    21.904503    9099.4698    2171.8174    2840.5982    2086.3155   -42.070477   -25.115235   -187.69613   -4280.1494 
42177000    44.779995   -4665.3033   -4588.5519   -4665.3033            0     2170.029    17.915134     23.27047    21.865042    9115.3956    2169.7741    2501.1896    1839.1232   -42.900193    282.62615   -6.4140945   -4300.0711 
42178000    44.446512   -4666.1531   -4589.9733   -4666.1531            0    2209.1974    17.934034    23.204689    21.915867    9120.3684    1864.7543    2081.4016    2681.4364   -258.15929   -172.70453    302.50254   -4296.1252 
42179000    42.452105   -4666.9224    -4594.161   -4666.9224            0     2316.863    17.832921    23.375556    21.831944    9100.7427    2937.9883     1705.327    2307.2736   -671.97814   -369.79044    524.74722   -4286.6553 
42180000    42.418609   -4667.6998   -4594.9958   -4667.6998            0    1710.8705    17.832217    23.375365    21.888245    9123.7774    1996.6482    1770.3644    1365.5989   -179.76046    104.14557   -354.52242   -4367.3458 
42181000    44.776868   -4668.4225   -4591.6764   -4668.4225            0    1850.8521    17.956697    23.264353    21.843533    9125.1558     1567.399     1951.862    2033.2953    181.17257    88.579791    124.00024   -4345.3631 
42182000    45.600495   -4666.3682   -4588.2106   -4666.3682            0    1839.4624    17.992224    23.123639    21.935164    9126.0306    1143.6273    2859.3472    1515.4127    206.04731   -136.04202    160.02604   -4343.3895 
42183000    41.547294   -4667.7194   -4596.5087   -4667.7194            0    1927.7445     17.97495    23.179572     21.88167    9117.0339    1644.7073    1958.4545    2180.0718   -280.86566   -16.502278   -39.639951   -4340.1908 
42184000    39.407161    -4662.377   -4594.8345    -4662.377            0    2223.0157    17.922404    23.176456    21.904815    9098.7739    2582.3816    1949.0193    2137.6462    126.35819   -135.12559   -308.96946   -4299.8485 
42185000    44.146527   -4664.8468   -4589.1811   -4664.8468            0    2445.1103    17.940417    23.161673    21.911365    9104.8313    2154.6594    2393.8377    2786.8338   -435.78497   -351.06183   -46.655832   -4264.5081 
42186000    41.615599   -4660.7997   -4589.4719   -4660.7997            0    2296.0705    17.867527     23.28076    21.886115    9103.9588    2516.0867    2246.1424    2125.9823   -114.74475   -235.52033   -29.132128   -4284.6183 
42187000    42.840237   -4669.0522   -4595.6255   -4669.0522            0    1945.2679    17.904035    23.399035    21.775116    9122.4046    1873.6488    1424.3213    2537.8337     317.3999   -81.694633   -160.91516   -4336.8253 
42188000    44.730962   -4664.3323    -4587.665   -4664.3323            0     1907.929    17.942991    23.371054    21.767964    9128.3221     1978.125    1237.8131    2507.8488   -274.55162   -8.3527839    47.087219   -4333.6677 
42189000    41.055674    -4666.805    -4596.437    -4666.805            0    2135.0147    17.943264    23.201132    21.869771    9104.4742    1639.0205    2786.5257     1979.498   -105.42969     194.8739    289.95779    -4312.951 
42190000    44.726102   -4663.1426   -4586.4836   -4663.1426            0    1745.2416    17.986728    23.172237    21.905572    9130.0826    1625.7945     2504.141    1105.7893    92.756282    67.220965   -118.05716   -4354.0997 
42191000    43.971608   -4665.4897   -4590.1238   -4665.4897            0    2213.6376    17.989706    23.200107    21.837305    9114.0858    1943.3753    2666.1774    2031.3599   -415.86909    39.085265   -243.65155    -4295.888 
42192000    43.108581   -4665.9319   -4592.0452   -4665.9319            0    1855.9968    17.909438    23.277075    21.890901    9125.8642    1015.5161    2508.9438    2043.5306   -295.85858   -285.63776    220.07702   -4345.0281 
42193000    39.640217   -4660.4597   -4592.5177   -4660.4597            0    2267.3338    17.857916    23.215396    21.989975    9116.5728    2445.3199    2795.5743    1561.1071    301.42014    -83.77081    529.35276   -4291.0624 
42194000    43.582234   -4662.0366   -4587.3381   -4662.0366            0    2171.7142    17.873909    23.387594    21.806454    9115.7025    1729.5711    1914.2683    2871.3033     245.1448    161.02432   -131.84674   -4298.6235 
42195000    41.328253   -4663.5815   -4592.7463   -4663.5815            0       2626.4    17.796148    23.375728    21.869233    9097.5557    2955.1749    1938.7502    2985.2748     1.615863   -511.59432   -389.43571   -4244.2795 
42196000    43.664244   -4666.7582   -4591.9192   -4666.7582            0    2538.6175    17.827343    23.241767    21.959672    9098.7475    3283.6598    2896.1972    1435.9955   -633.71549   -361.23154    286.26778    -4255.055 
42197000    40.914378   -4660.4348   -4590.3089   -4660.4348            0    2331.7781    17.846261    23.316648    21.882286    9105.5472    3105.7025    2369.3844    1520.2475    269.06722   -100.87398    306.44972   -4280.6603 
42198000    42.042897   -4662.5383   -4590.4783   -4662.5383            0    2403.6609    17.949419    23.190381    21.891771    9112.5341    1776.5434    2936.2804    2498.1588   -323.30268    365.55524   -222.39012    -4271.039 
42199000    42.673652    -4661.976   -4588.8348    -4661.976            0    2132.7317     17.90336    23.262823    21.896322    9119.4396    2054.7208    2430.2888    1913.1855     100.9458    16.594329    53.503963   -4305.1865 
42200000      42.3565   -4666.2159   -4593.6183   -4666.2159            0    2083.3738    17.894199    23.259283    21.919079    9122.8577    1772.0589    2530.0967    1947.9659    206.33934    486.72761    570.34697   -4316.4306 
42201000    41.860096   -4662.5684   -4590.8216   -4662.5684            0    2304.1138    17.835154     23.22513    21.994637    9110.7014    2109.2326    2020.8812    2782.2277   -1.7173901    124.34091    473.91256   -4284.6735 
42202000    43.111459   -4664.4787   -4590.5871   -4664.4787            0    2549.2714    17.894431    23.338178    21.770421    9091.8374    1915.1476    2353.0886    3379.5781   -102.23713    131.95126   -31.111172   -4252.5662 
42203000     40.83706    -4664.141   -4594.1477    -4664.141            0    2033.0292    17.964945    23.211677    21.857452    9114.4812     1315.386    2081.0756    2702.6261   -142.58619    21.456035    160.70424   -4323.9065 
42204000    41.742591   -4666.2847   -4594.7393   -4666.2847            0    1677.7126    17.988711    23.305869    21.782717    9132.2417    1641.3943    1074.0266    2317.7168     244.2261    85.396755    -7.169035   -4371.2942 
42205000    41.592928   -4668.6612   -4597.3723   -4668.6612            0    2099.1317    17.925082    23.283395    21.858298    9122.7082    2396.1337    2339.7773    1561.4842   -90.571028   -565.10162     250.5524   -4318.0926 
42206000    42.262905   -4668.3223   -4595.8851   -4668.3223            0    2574.6035    17.913831    23.334525    21.773126    9101.4005    3008.2493    2527.6483    2187.9128   -165.85274    344.66531   -7.4294481   -4254.1462 
42207000    43.918955   -4668.9305   -4593.6549   -4668.9305            0    1914.6007     17.90682    23.347679    21.839109    9130.5534    1744.3128    1811.7105    2187.7789    288.21871    286.13122    260.00372   -4338.7072 
42208000    41.835586   -4661.1038    -4589.399   -4661.1038            0    2157.8375    17.870167    23.231458    21.969678    9120.7127    1922.0048    2616.2511    1935.2566     11.23389   -3.5920744   -87.707628   -4302.3716 
42209000    42.648129   -4665.4338   -4592.3364   -4665.4338            0    2277.5902    17.872454     23.28601    21.905066    9116.4093     2402.232    2542.5289    1888.0098    -91.06086   -66.981728    549.34684   -4289.5228 
42210000    43.749627   -4662.8221   -4587.8368   -4662.8221            0    2498.5779    17.943747    23.236288    21.844608    9108.0234    1981.2043    2564.4839    2950.0454   -80.010966   -110.69795   -3.1390289   -4255.9477 
42211000    42.882921   -4667.0875   -4593.5877   -4667.0875            0    2327.0809    17.896259    23.142651    22.010011    9115.8178    2777.9787    2109.6841    2093.5799   -252.40802    43.834814   -296.16223   -4284.2142 
42212000     42.85225   -4664.0643    -4590.617   -4664.0643            0    2573.9761    17.871569    23.142056    21.998476    9098.2365    2742.8236    2919.5381    2059.5664   -631.17055   -104.49733    -19.14901   -4249.0801 
42213000     43.45678   -4662.1494    -4587.666   -4662.1494            0    2611.4224    17.823079    23.245234    21.947051    9092.6991    2615.1924    3346.9602    1872.1145    497.44489   -65.763105   -181.98554   -4241.3713 
42214000    41.970122   -4665.9962   -4594.0608   -4665.9962            0    2390.2619    17.853116    23.335795    21.875107    9113.5338    1756.9949    2608.5259    2805.2647     -393.031    -142.4146    114.26563   -4276.3674 
42215000    39.572698   -4668.5787   -4600.7524   -4668.5787            0    1973.3754    17.819086    23.383324    21.882289    9117.6813    1910.5809     1972.354    2037.1914   -306.66366   -87.274984    344.41423   -4338.3487 
42216000     42.65777   -4668.1526   -4595.0386   -4668.1526            0    1979.1443    17.883791    23.214378    21.962482    9117.9677     2183.307    2672.4161    1081.7099    12.045877   0.95176411    210.46191   -4331.8595 
42217000    41.184317   -4668.7933   -4598.2048   -4668.7933            0    1705.3494     17.91559    23.275093    21.877506    9122.6361     2064.057    1313.0298    1738.9614   -2.4236669   -96.394917    -241.6093   -4371.3178 
42218000    42.922069   -4665.1991   -4591.6321   -4665.1991            0    1680.9714    17.950164    23.226315    21.916083    9137.1695    2019.0999    1193.0478    1830.7664    12.035572    319.21226   -151.50293   -4367.6322 
42219000    44.042191   -4665.6481   -4590.1613   -4665.6481            0    1547.3294     17.84456    23.318908    21.948597    9133.1548    1831.2788    1455.3802    1355.3292   -414.33271   -447.87898    24.222879   -4384.0606 
42220000    40.316248   -4665.0955   -4595.9948   -4665.0955            0    2053.4297     17.96122    23.259913    21.798929    9107.0785    1823.9558    1935.7796    2400.5538   -322.66064   -171.89004    332.95142   -4323.2636 
42221000    42.823116    -4665.811   -4592.4136    -4665.811            0    2049.2624    18.018196    23.207379    21.791336    9112.1587    1883.3726    2466.3684    1798.0462    19.537777    509.15535    109.16972   -4320.0841 
42222000    42.415731   -4668.2164   -4595.5173   -4668.2164            0    1940.5285    17.943648    23.187605    21.934234    9126.1818    1432.5568     2799.922    1589.1068     49.24833   -176.70695    193.85839   -4337.2407 
42223000     41.75202   -4665.7325    -4594.171   -4665.7325            0    2033.2713    17.820625    23.410503    21.852386    9116.5924    2285.0657    1810.4657    2004.2825    30.508397   -126.85986     512.1026   -4323.8351 
42224000    41.793608   -4664.6078    -4592.975   -4664.6078            0    1902.2597    17.884038    23.263715    21.918998    9119.3805    1513.8923    2323.4804    1869.4062   -43.390156   -191.46252    112.52234   -4339.9806 
42225000    42.841285   -4669.5496   -4596.1211   -4669.5496            0    1766.4354    17.934819    23.224732    21.921962    9131.1849      1738.11    2039.6671    1521.5292    18.157031    203.00289    325.31207   -4360.8867 
42226000    42.202856   -4664.5124   -4592.1781   -4664.5124            0    2047.3571    17.820378    23.271716    21.985087    9117.4523    2502.6157    1894.9005    1744.5551   -548.22852    141.60823   -26.097149   -4319.9438 
42227000    44.219314   -4659.3631   -4583.5727   -4659.3631            0    2001.4745    17.928394    23.267143    21.886829    9129.9264    2488.7804    1238.8209    2276.8222   -181.07169    214.20536    260.09502   -4317.0751 
42228000    45.611214   -4665.7771    -4587.601   -4665.7771            0    2399.8184    17.875542    23.256892    21.910106    9108.6786    2437.8469    2075.1742     2686.434   -204.82299   -298.18386    103.44567   -4268.8074 
42229000    43.878343   -4664.5459   -4589.3399   -4664.5459            0    2344.3158    17.910089    23.192845    21.914596    9103.0147    1994.0227    2345.2466     2693.678    17.119531   -184.15021   -219.62131   -4278.1129 
42230000    43.514771   -4660.4038   -4585.8209   -4660.4038            0    2263.1048     17.95819    23.223456    21.806716    9094.5175    2154.4264    2277.2553    2357.6326    18.474933    -180.1201   -287.36208   -4285.6558 
42231000    43.491504   -4662.9243   -4588.3813   -4662.9243            0    2325.8909    17.933745    23.137841    21.949185    9107.7736    2233.5322    2329.4859    2414.6546    -339.3125   -275.50976    204.10771    -4279.439 
42232000    42.208496   -4663.0343   -4590.6904   -4663.0343            0    2497.7511    17.853944    23.264787     21.91299    9101.9593    2801.4007    2313.3583    2378.4942   -76.287537   -114.66684    140.09211   -4259.1321 
42233000    41.963019   -4667.7646   -4595.8414   -4667.7646            0    2515.3731    17.840096    23.305006    21.887064    9099.8431    2411.8517    2463.6636    2670.6039   -111.19781    148.38981   -286.67577   -4262.0215 
42234000    42.909691   -4661.5774   -4588.0317   -4661.5774            0      2418.34     17.81332    23.233913    21.980837    9097.2773    2605.6191    2736.2212    1913.1797    67.612392   -117.61009    16.579248   -4267.1797 
42235000    43.052472   -4669.3789   -4595.5884   -4669.3789            0    1981.0569    17.850796    23.357203    21.882832      9123.93    1804.2316    2185.1824    1953.7566   -375.29383   -90.188913    246.73461   -4331.9827 
42236000    42.301249   -4667.0869    -4594.584   -4667.0869            0    1544.3262    17.974533    23.207679    21.902324    9136.4932     1387.203    1846.1243    1399.6512    297.72064   -17.005248    161.57318   -4388.8081 
42237000    41.813507   -4664.8778   -4593.2109   -4664.8778            0    2083.3312    18.014501    23.246349    21.771419    9117.2475    1336.5814    2138.3864    2775.0259    244.74298     63.69022    11.756896   -4316.1993 
42238000    43.605559   -4664.4466   -4589.7081   -4664.4466            0      1614.72    17.872544    23.341799    21.875357     9125.903    1636.5384    1367.8707    1839.7508    200.79873   -426.80549    328.81473   -4374.8019 
42239000    41.781058   -4663.4998   -4591.8885   -4663.4998            0    1644.3111    17.883626    23.324556    21.900042    9135.1127    2126.1738    1330.8632    1475.8963    2.7305611   -78.021848    234.21443   -4372.8231 
42240000    41.019143   -4661.5937   -4591.2883   -4661.5937            0    1718.8878    17.758148    23.434549    21.934209    9128.0129    2421.2995    1232.9782    1502.3858   -69.217547    19.350618    413.09914   -4362.4653 
42241000    41.799748   -4667.5275   -4595.8842   -4667.5275            0    2144.7548    17.919872    23.268575    21.843452    9108.0618    2215.2939     2414.693    1804.2774   -264.37462   -39.151061    527.40274   -4310.9927 
42242000    42.456913   -4665.4147    -4592.645   -4665.4147            0    1818.5544    17.894012    23.275679    21.908161    9124.6457    1454.1711    2006.7042     1994.788   -129.06726   -209.04726    33.436863   -4350.6434 
42243000    45.003112   -4666.6401   -4589.5063   -4666.6401            0    2149.5735    17.893131      23.2987    21.864241    9114.9112    2213.2357    1742.5711    2492.9136   -98.928996   -65.635772    128.39802     -4303.76 
42244000    43.685895   -4664.6723   -4589.7962   -4664.6723            0    2694.5099    17.933835    23.273621    21.789851    9094.7628    2818.2799    2064.7031    3200.5467   -88.932224   -79.619391     375.1855   -4232.4023 
42245000    45.523215   -4665.2382    -4587.213   -4665.2382            0    2917.6748    17.896595    23.140507    21.928952    9081.5741    2752.2082     3001.534    2999.2822   -54.767602    114.77062    352.57992   -4200.7802 
42246000     42.36455   -4666.7948   -4594.1834   -4666.7948            0    2508.2022    17.840603    23.253893    21.937654    9101.1314    2526.2663    2683.0893    2315.2508   -24.102792   -54.827009   -309.68393   -4261.2681 
42247000    41.602172   -4662.5329   -4591.2282   -4662.5329            0    2456.9474    17.820156    23.329482    21.853794    9085.3873     2784.186     2318.271    2268.3852    726.93124   -350.35121    16.741903   -4265.6801 
42248000    43.215366   -4660.1227   -4586.0531   -4660.1227            0    2422.9633    17.862945    23.332236    21.842149    9103.4241     2450.473    2127.3085    2691.1083    33.504199    366.68303   -77.336682   -4264.3705 
42249000    41.758072   -4666.3022   -4594.7303   -4666.3022            0    2349.2088    17.890589    23.234465    21.898066    9102.5501    2151.6422    2246.8954    2649.0888   -297.58356    176.14477    46.923366   -4282.8696 
42250000    44.988706   -4662.1435   -4585.0344   -4662.1435            0    2309.6655    17.875894    23.354397    21.826912     9112.315    1937.5265    2639.4369    2352.0331   -190.07069   -353.48634    43.611233   -4278.0943 
Loop time of 318.264 on 64 procs for 250000 steps with 864 atoms

Performance: 135.736 ns/day, 0.177 hours/ns, 785.512 timesteps/s
196.3% CPU use with 32 MPI tasks x 2 OpenMP threads

MPI task timing breakdown:
Section |  min time  |  avg time  |  max time  |%varavg| %total
---------------------------------------------------------------
Pair    | 17.689     | 24.521     | 33.018     | 110.2 |  7.70
Bond    | 1.0411     | 1.1884     | 1.5321     |   8.4 |  0.37
Kspace  | 159.6      | 169.87     | 179.26     |  43.2 | 53.38
Neigh   | 0.06323    | 0.067787   | 0.076759   |   1.4 |  0.02
Comm    | 42.989     | 48.007     | 52.135     |  29.9 | 15.08
Output  | 0.50348    | 0.50385    | 0.50533    |   0.0 |  0.16
Modify  | 59.356     | 61.017     | 63.911     |  14.5 | 19.17
Other   |            | 13.08      |            |       |  4.11

Nlocal:        27.0000 ave          39 max          19 min
Histogram: 8 3 5 0 1 5 2 2 4 2
Nghost:        2162.91 ave        2269 max        2065 min
Histogram: 12 4 0 0 0 0 0 0 10 6
Neighs:        6668.97 ave        9754 max        4461 min
Histogram: 5 8 3 0 1 6 1 2 5 1

Total # of neighbors = 213407
Ave neighs/atom = 246.99884
Ave special neighs/atom = 2.0000000
Neighbor list builds = 252
Dangerous builds = 0

unfix		3
unfix		2
unfix		1

write_data	data.final.${pid} nocoeff
write_data	data.final.0 nocoeff
System init for write_data ...
PPPM initialization ...
  extracting TIP4P info from pair style
  using 12-bit tables for long-range coulomb (../kspace.cpp:340)
  G vector (1/distance) = 0.37219715
  grid = 24 27 25
  stencil order = 5
  estimated absolute RMS force accuracy = 0.0031027682
  estimated relative force accuracy = 9.3438943e-06
  using double precision FFTW3
  3d grid and FFT values/proc = 4410 672
Last active /omp style is kspace_style pppm/tip4p/omp

write_restart   restart.lmp.${pid}
write_restart   restart.lmp.0
System init for write_restart ...
PPPM initialization ...
  extracting TIP4P info from pair style
  using 12-bit tables for long-range coulomb (../kspace.cpp:340)
  G vector (1/distance) = 0.37219715
  grid = 24 27 25
  stencil order = 5
  estimated absolute RMS force accuracy = 0.0031027682
  estimated relative force accuracy = 9.3438943e-06
  using double precision FFTW3
  3d grid and FFT values/proc = 4410 672
Last active /omp style is kspace_style pppm/tip4p/omp
Total wall time: 0:05:18
