LAMMPS data file via write_data, version 30 Jul 2021, timestep = 30000000

864 atoms
2 atom types
576 bonds
1 bond types
288 angles
1 angle types

0.11101284557754987 18.096559554421127 xlo xhi
0.15998535549892523 23.46919244451056 ylo yhi
0.15260762605070965 22.060588173943053 zlo zhi

Masses

1 1.00794
2 15.9994

Atoms # full

707 1 1 0.5897 3.0719028406754614 2.116189513871759 4.146613239858382 0 0 0
706 1 2 -1.1794 3.0989713427111867 2.084091473284256 3.190462245460839 0 0 0
30 1 1 0.5897 5.253513788976283 4.147702821335951 2.4303763161275103 0 0 0
708 1 1 0.5897 2.2625989058403713 2.4587505749367415 2.914030494791931 0 0 0
29 1 1 0.5897 4.570429680589605 2.797321490796261 2.4732576895777667 0 0 0
28 1 2 -1.1794 5.2927070976078925 3.26739093487529 2.0565964492751716 0 0 0
495 1 1 0.5897 8.272552434890342 2.4075202897412584 2.748972845173328 0 0 0
1 1 2 -1.1794 0.7696178780336644 3.065704752182766 2.162684716416547 0 0 0
494 1 1 0.5897 6.761148110085145 2.427466522894327 2.662651512402053 0 0 0
493 1 2 -1.1794 7.490523196238282 1.9506191067655994 3.0587403584744184 0 0 0
846 1 1 0.5897 7.4375713362781495 1.8426179337616242 4.869295594804801 0 0 0
3 1 1 0.5897 0.7473170788352991 3.983477402576166 2.4336156722757343 0 0 0
597 1 1 0.5897 0.936911602111473 5.81469878516298 3.786355392639191 0 0 0
136 1 2 -1.1794 5.277722728262493 5.841692699173172 2.8239604084831633 0 0 0
20 1 1 0.5897 0.5166076749462141 3.145164637151422 0.41512023264058323 0 0 0
595 1 2 -1.1794 0.9916775234757246 5.789254030566321 2.831184269612172 0 0 0
819 1 1 0.5897 7.334283431173802 0.3161314984033217 2.517463787480739 0 0 0
685 1 2 -1.1794 5.371242293326595 5.978371641043355 5.597029962820132 0 0 0
181 1 2 -1.1794 0.7543419623119054 5.747387352572583 5.571407255327743 0 0 0
188 1 1 0.5897 3.092528705407102 0.2864657161639421 2.65611934427732 0 1 0
668 1 1 0.5897 5.099580295152216 3.411114964127741 0.23871469316355132 0 0 0
176 1 1 0.5897 8.95908406723105 2.5513943768653 9.709637701762006 0 0 0
35 1 1 0.5897 0.6833658454729471 3.9392448794288413 9.849460371365828 0 0 0
419 1 1 0.5897 8.891942342163064 2.558596746654212 6.292945349322904 0 0 0
487 1 2 -1.1794 3.0036422676640986 2.2358393411504163 5.871369147176761 0 0 0
355 1 2 -1.1794 7.496815195660845 1.9298320538045606 10.433082388378535 0 0 0
785 1 1 0.5897 0.4970899016089032 3.236412009163879 7.70087971904377 0 0 0
676 1 2 -1.1794 5.283060818788735 5.85659356353856 10.464558555008267 0 0 0
784 1 2 -1.1794 0.6039972586813721 3.2671372435791453 6.750288095230023 0 0 0
844 1 2 -1.1794 7.378631905922636 1.8749430400238027 5.824003943027754 0 0 0
82 1 2 -1.1794 5.362674285558743 3.4825312270226156 6.777177918456546 0 0 0
275 1 1 0.5897 5.347612967647444 3.35166439154502 8.580180565020816 0 0 0
112 1 2 -1.1794 0.8034294967323702 5.7124471658199285 10.242317964177941 0 0 0
673 1 2 -1.1794 3.0155470934439004 1.897577697674198 10.396674718050217 0 0 0
488 1 1 0.5897 2.2384305099269417 2.6783413118286696 6.238700134304364 0 0 0
276 1 1 0.5897 6.133673718391738 2.8086312198014634 9.754416341701305 0 0 0
845 1 1 0.5897 7.357932439682926 0.9569598102331882 6.094350064115898 0 0 0
675 1 1 0.5897 3.1335328105752063 1.0380966593864192 9.992231338392347 0 0 0
83 1 1 0.5897 4.498558999208631 3.16499992645079 6.514904296162418 0 0 0
678 1 1 0.5897 5.367838658291234 4.962605218677132 10.133170876240655 0 0 0
84 1 1 0.5897 5.969684915716224 2.8104903910390164 6.467083585821399 0 0 0
183 1 1 0.5897 0.7530591941053185 4.890861814707924 5.998655827406974 0 0 0
356 1 1 0.5897 7.425339548730511 1.0286877045684513 10.118385345572696 0 0 0
34 1 2 -1.1794 0.5703349173915885 3.047814779089114 9.519636459881733 0 0 0
489 1 1 0.5897 2.953668626485057 1.3442116621954487 6.215899426354784 0 0 0
36 1 1 0.5897 1.3456505621510568 2.5780617057263133 9.827050646085938 0 0 0
274 1 2 -1.1794 5.334815010239894 3.2882262432496403 9.535061140285908 0 0 0
686 1 1 0.5897 5.441435786645569 5.0753611851157165 5.906621565341492 0 0 0
674 1 1 0.5897 3.8561064248817525 2.338525595138221 10.27281149845695 0 0 0
166 1 2 -1.1794 2.7908972246595916 1.600217199823008 13.127836208309922 0 0 0
167 1 1 0.5897 2.809252996252488 1.6831757368630167 12.174541999956913 0 0 0
457 1 2 -1.1794 5.066406279803113 3.1124490270235716 14.013680123274272 0 0 0
458 1 1 0.5897 5.879831080834689 2.695582523457747 13.729319017980249 0 0 0
459 1 1 0.5897 4.374088171219043 2.5527145729001277 13.662030439388598 0 0 0
762 1 1 0.5897 5.072022356629592 4.914533133368761 13.50874249041101 0 0 0
594 1 1 0.5897 8.094281416951628 2.3436520674281462 13.56809205327442 0 0 0
168 1 1 0.5897 2.057596741476009 2.150760065473714 13.402521203215244 0 0 0
71 1 1 0.5897 5.213867630587542 3.1353337875122334 15.781185074213823 0 0 0
592 1 2 -1.1794 7.344358351072174 1.8596748291868475 13.22217521900595 0 0 0
466 1 2 -1.1794 0.6269477757358249 3.2384725268390335 14.14683446455363 0 0 0
593 1 1 0.5897 7.492253987576322 0.9561838351021131 13.501531152463093 0 0 0
468 1 1 0.5897 0.6588955550586488 3.1339342208672427 15.097646127843744 0 0 0
365 1 1 0.5897 0.6692352223889848 4.8628360327987785 13.419372618393556 0 0 0
761 1 1 0.5897 5.037266594335852 5.868567404963757 12.333953782954193 0 0 0
357 1 1 0.5897 7.404280179812949 1.8602257659461168 11.383125233398326 0 0 0
760 1 2 -1.1794 5.035835580567963 5.845868959074439 13.290755623578102 0 0 0
113 1 1 0.5897 0.7773489118525322 5.681312372739547 11.198528932443875 0 0 0
364 1 2 -1.1794 0.6082944457463503 5.717032810326863 12.991804667388786 0 0 0
81 1 1 0.5897 3.1212172305719363 0.2837234340873458 21.129620547866562 0 1 0
133 1 2 -1.1794 0.573559080389445 2.927243280756115 16.88865079811505 0 0 0
755 1 1 0.5897 7.603928430058505 1.867327592466426 18.39515664159598 0 0 0
42 1 1 0.5897 7.22643639475039 1.0868858767183296 20.471490332374206 0 0 0
599 1 1 0.5897 9.07110155669277 2.509881719542863 16.87907721849551 0 0 0
70 1 2 -1.1794 5.387129196401245 3.1100899021440247 16.72211027745878 0 0 0
568 1 2 -1.1794 2.878893663465514 2.0366576020401252 20.575803827383467 0 0 0
669 1 1 0.5897 4.231422472422709 3.0187374500154736 20.970274973016284 0 0 0
291 1 1 0.5897 2.1874028066425093 2.3640138526876346 17.428035492289208 0 0 0
19 1 2 -1.1794 0.3690768800398457 3.172945082533328 21.377869732277777 0 0 0
360 1 1 0.5897 8.649985751572633 2.809868005000835 20.945421660199735 0 0 0
570 1 1 0.5897 2.9361760603316918 2.1723728804016846 19.630134002764432 0 0 0
648 1 1 0.5897 0.4520598555347591 5.803155716061318 19.69441283193039 0 0 0
667 1 2 -1.1794 5.059538104688908 3.445097140606224 21.19106548951764 0 0 0
289 1 2 -1.1794 3.0291845227770904 2.135132974000154 17.82211878887849 0 0 0
143 1 1 0.5897 5.491164945283455 5.29130853335978 20.70014788623101 0 0 0
646 1 2 -1.1794 0.5296153825866623 5.722806892781517 20.644949006176496 0 0 0
134 1 1 0.5897 0.5014506497913733 3.7684458012430184 17.339601598963675 0 0 0
21 1 1 0.5897 0.4068020118981134 4.1033890718318276 21.15636222147334 0 0 0
754 1 2 -1.1794 7.679266168397883 1.7219326855228998 17.452195319627936 0 0 0
569 1 1 0.5897 2.062674722260521 2.4667653308376436 20.83093872963476 0 0 0
571 1 2 -1.1794 0.4465212193997849 5.620256253148782 17.94411287106123 0 0 0
290 1 1 0.5897 3.138271411115016 1.2035668898527667 17.63104906976893 0 0 0
40 1 2 -1.1794 7.30222168548147 1.9810172410416953 20.13834723024851 0 0 0
756 1 1 0.5897 6.902779545074541 2.14174255730855 17.081924278765054 0 0 0
278 1 1 0.5897 5.282024421814256 4.8397926310717185 17.272373328042388 0 0 0
72 1 1 0.5897 4.58341548074475 2.7580066274083976 17.10467379107314 0 0 0
41 1 1 0.5897 6.58826404194263 2.4566723881247534 20.5629351123663 0 0 0
572 1 1 0.5897 1.2648384140618776 5.943227117412066 17.566851967061762 0 0 0
144 1 1 0.5897 5.454797447205696 5.939961524122191 19.332917847838253 0 0 0
279 1 1 0.5897 4.289409550296973 5.980256251555318 17.35045628118672 0 0 0
277 1 2 -1.1794 5.183698674426116 5.737276336440664 17.590306915036678 0 0 0
123 1 1 0.5897 3.0742041999414926 8.866357484306867 2.797520848812193 0 0 0
121 1 2 -1.1794 3.11272930814791 9.745740504603427 3.173555290414836 0 0 0
122 1 1 0.5897 3.1098391048980774 9.602350319518711 4.119821755734093 0 0 0
44 1 1 0.5897 1.5695086800185547 10.387449741972278 2.5730729002915975 0 0 0
218 1 1 0.5897 6.113844514915429 10.658823168793203 2.203500317837739 0 0 0
417 1 1 0.5897 8.320969949144983 7.099437827754162 2.4165348058998126 0 0 0
219 1 1 0.5897 4.625375580396569 10.513278851932183 2.4390814659673596 0 0 0
254 1 1 0.5897 3.0485999999411324 7.263487350936972 0.9007884246034055 0 0 0
415 1 2 -1.1794 7.54370291725466 7.433232282976128 1.9685499562005402 0 0 0
217 1 2 -1.1794 5.272231871489692 11.069399555770822 2.00486417500892 0 0 0
66 1 1 0.5897 7.669937703299441 9.930318314591887 3.968926987134876 0 0 0
65 1 1 0.5897 7.483379596506116 9.07427226894405 2.7344754435333765 0 0 0
64 1 2 -1.1794 7.628503777739709 9.978176978092327 3.0139499785492916 0 0 0
253 1 2 -1.1794 3.068312738488089 7.308391144662272 1.8566034726414888 0 0 0
255 1 1 0.5897 2.3702950671656975 6.717383401578803 2.1390214504277596 0 0 0
416 1 1 0.5897 6.845007383158771 6.827827950585397 2.216718208135727 0 0 0
43 1 2 -1.1794 0.7627464975233323 10.757152760715488 2.2142702912836953 0 0 0
396 1 1 0.5897 0.7742458537129224 10.77278102180353 0.48546721413059374 0 0 0
162 1 1 0.5897 7.649471221403926 7.332822548196498 0.2796474859286124 0 0 1
138 1 1 0.5897 4.52100954884526 6.333445824617441 2.504832302699863 0 0 0
596 1 1 0.5897 0.20063508315787004 6.238582182632784 2.533447510533653 1 0 0
45 1 1 0.5897 0.7022103040669684 11.627857096313416 2.6072076640411277 0 0 0
137 1 1 0.5897 5.283453957120053 5.9964700011186025 3.768429021586327 0 0 0
713 1 1 0.5897 8.353978309221048 10.14625470445655 6.156653852961507 0 0 0
12 1 1 0.5897 2.963050381538386 7.702928556365622 6.523864659269534 0 0 0
677 1 1 0.5897 6.023757691549469 6.326067716604079 10.080851662386804 0 0 0
822 1 1 0.5897 8.209568009440837 10.100744708118643 10.11053609014331 0 0 0
712 1 2 -1.1794 7.571215518596745 9.768003873425984 5.756057992004881 0 0 0
793 1 2 -1.1794 2.9657323389120727 9.325748634265162 5.879043078085037 0 0 0
581 1 1 0.5897 5.934365187932215 10.374781290110958 9.808476791078819 0 0 0
551 1 1 0.5897 0.6982787460599329 10.849558036063078 7.853687342515665 0 0 0
114 1 1 0.5897 1.5332083076024272 6.298313223735078 10.041123016875403 0 0 0
15 1 1 0.5897 1.472279243218635 10.518365803636053 9.97626785296787 0 0 0
13 1 2 -1.1794 0.6153028774701678 10.877338855655301 9.745930950282974 0 0 0
687 1 1 0.5897 4.5706761573045505 6.310000371251185 6.003706269191501 0 0 0
820 1 2 -1.1794 7.45933190441171 9.611882706896608 10.448812026082292 0 0 0
147 1 1 0.5897 7.490560398713317 7.052932929452346 7.4769429967926895 0 0 0
527 1 1 0.5897 7.568684305646148 7.950863151393802 9.673129605966944 0 0 0
795 1 1 0.5897 3.711283327727729 9.837527461192535 6.1929066116316225 0 0 0
650 1 1 0.5897 2.9768735020203003 7.199738824093867 8.574617318326151 0 0 0
651 1 1 0.5897 3.7451149437252913 6.730979524367709 9.791845307275842 0 0 0
146 1 1 0.5897 6.847918824476825 6.719461597404677 6.147528172351007 0 0 0
11 1 1 0.5897 2.2029093273396194 6.39656232476166 6.436956530251901 0 0 0
256 1 2 -1.1794 3.001634850963888 9.757968662436044 10.498001283593638 0 0 0
580 1 2 -1.1794 5.207220354261912 10.877615789961196 9.441478287625934 0 0 0
10 1 2 -1.1794 2.969604964540367 6.800656634165011 6.843338411939971 0 0 0
794 1 1 0.5897 2.1997162996820365 9.768692940332116 6.244147976035179 0 0 0
145 1 2 -1.1794 7.648799996866754 7.074546543640277 6.533278478048242 0 0 0
526 1 2 -1.1794 7.501283791055953 7.0654308147677245 9.315806763838857 0 0 0
550 1 2 -1.1794 0.798894606391404 10.772784703966867 6.905018433057091 0 0 0
714 1 1 0.5897 7.624888969311305 8.83420477167796 5.959420308657137 0 0 0
578 1 1 0.5897 6.0111933513058275 10.44403939458536 6.380649217975942 0 0 0
577 1 2 -1.1794 5.149025672752116 10.732413634125695 6.680334046860789 0 0 0
528 1 1 0.5897 8.30703023915689 6.631426847434409 9.59635802456518 0 0 0
582 1 1 0.5897 5.29427374946097 10.76904277175602 8.494575763695773 0 0 0
649 1 2 -1.1794 2.9727941194073217 7.232803176221365 9.531110925866413 0 0 0
257 1 1 0.5897 3.025805046304679 8.85783831412377 10.17336254283055 0 0 0
258 1 1 0.5897 3.8075792002555695 10.154279809309728 10.166815550638528 0 0 0
552 1 1 0.5897 0.834334590616418 11.677174454867842 6.59352364866255 0 0 0
579 1 1 0.5897 5.075576822261936 11.634200338865694 6.3679252313618475 0 0 0
828 1 1 0.5897 7.341878542062338 7.152514785119327 14.782090971009035 0 0 0
261 1 1 0.5897 0.8789914738670184 10.836844220058559 14.900413958723536 0 0 0
332 1 1 0.5897 2.866042317919013 7.97277849451289 13.901859609130636 0 0 0
797 1 1 0.5897 2.9828253429849516 9.596468243107909 12.257264820688652 0 0 0
796 1 2 -1.1794 3.01155168032322 9.618006502150434 13.21366234837406 0 0 0
798 1 1 0.5897 2.164210523225525 9.981444386051884 13.47104185595741 0 0 0
722 1 1 0.5897 4.519625537508046 10.537741540770751 13.63827741628942 0 0 0
259 1 2 -1.1794 0.760876967211372 10.971559799017989 13.96024883151322 0 0 0
721 1 2 -1.1794 5.3466131956465865 10.91972142966566 13.932362920624598 0 0 0
723 1 1 0.5897 5.30323201815787 10.879393322011715 14.887601911999335 0 0 0
331 1 2 -1.1794 2.7565329531070946 7.070415546738408 14.201790729421235 0 0 0
225 1 1 0.5897 2.7306628348607886 6.865987882188651 15.953001154755738 0 0 0
826 1 2 -1.1794 7.325645462591086 7.092818496348796 13.827014961535948 0 0 0
475 1 2 -1.1794 7.851153438247701 9.67052664455474 13.108260171826506 0 0 0
476 1 1 0.5897 7.054165477561209 10.127681177851427 13.376808395621726 0 0 0
477 1 1 0.5897 7.697022251447391 8.757293030653996 13.350056714418717 0 0 0
827 1 1 0.5897 6.479756597980333 6.692362632103406 13.625957733154515 0 0 0
333 1 1 0.5897 3.5788019751004976 6.638852445003007 13.969523975141483 0 0 0
851 1 1 0.5897 8.699368443067359 6.048658775054472 13.314636734717539 0 0 0
366 1 1 0.5897 1.3443864632590505 6.215891118178557 13.346169944664755 0 0 0
520 1 2 -1.1794 7.397976872032872 6.921751681551132 16.56876961745611 0 0 0
821 1 1 0.5897 7.6073137933772825 9.568707121328082 11.393393012857889 0 0 0
246 1 1 0.5897 8.944055254931307 10.364243186291745 17.282997063740517 0 0 0
446 1 1 0.5897 0.9975704223838702 11.810746276263979 16.872623030991196 0 0 0
711 1 1 0.5897 8.757131305173196 6.0797233756291424 17.20608929224552 0 0 0
679 1 2 -1.1794 5.298576236313819 10.80372556188643 16.710702413829196 0 0 0
139 1 2 -1.1794 7.618545935109577 9.935992564489236 20.564288032465928 0 0 0
161 1 1 0.5897 6.932069390683494 6.971428373828928 20.904559805274612 0 0 0
447 1 1 0.5897 0.26294254802734673 10.48810407838363 16.926418419631066 1 0 0
8 1 1 0.5897 7.348197747960226 9.61717151190336 18.710222326028994 0 0 0
522 1 1 0.5897 7.511831267479852 7.768667482397708 16.9999886908936 0 0 0
647 1 1 0.5897 1.3677942503245912 6.135662780627448 20.85307898530359 0 0 0
7 1 2 -1.1794 7.364257324347125 9.37381151963552 17.784736474459304 0 0 0
625 1 2 -1.1794 3.139084292700551 9.375280554029011 17.677373348202185 0 0 0
223 1 2 -1.1794 2.7205108888499185 6.727641414738139 16.899975732030317 0 0 0
224 1 1 0.5897 2.8512020925267163 7.600119732342637 17.271320564464776 0 0 0
141 1 1 0.5897 7.508452218716419 9.006848614205719 20.766259691813744 0 0 0
140 1 1 0.5897 6.756611667508626 10.320236126524176 20.724802098288293 0 0 0
627 1 1 0.5897 2.3417043685866186 9.808872391385908 17.373275481429314 0 0 0
5 1 1 0.5897 3.9332782627021685 6.766767631707725 20.77318726832269 0 0 0
690 1 1 0.5897 2.2746000828723583 10.191429158016797 20.775056727143024 0 0 0
160 1 2 -1.1794 7.7635268722299875 7.309097636267269 21.237668452438328 0 0 0
680 1 1 0.5897 4.476938412130072 10.451946541303162 17.053418224051306 0 0 0
4 1 2 -1.1794 3.062151613802724 7.052885236634222 21.048132647880355 0 0 0
626 1 1 0.5897 3.0838398547802224 9.413660038912584 18.63207871790138 0 0 0
521 1 1 0.5897 6.5548694062650315 6.600814720384525 16.888872703114345 0 0 0
445 1 2 -1.1794 1.08675268764976 10.885519681440194 16.644113259161188 0 0 0
361 1 2 -1.1794 5.302855813724348 11.12828147315505 21.06994692535063 0 0 0
688 1 2 -1.1794 2.991781453561244 9.668081421314712 20.417186991809366 0 0 0
394 1 2 -1.1794 0.8540761842408137 10.957512252114162 21.45775222979287 0 0 0
689 1 1 0.5897 3.784389589240513 10.138826731919657 20.674993575323967 0 0 0
9 1 1 0.5897 6.659450628906325 9.886912007980861 17.389482075798334 0 0 0
6 1 1 0.5897 3.002446923565836 7.9605158509126985 20.75004953053072 0 0 0
681 1 1 0.5897 5.328994321372923 11.70324045837519 17.036535958189113 0 0 0
142 1 2 -1.1794 5.529750562790621 6.143070931858619 20.265186868948756 0 0 0
363 1 1 0.5897 5.238182729867594 11.183767036097697 22.023218799036975 0 0 0
200 1 1 0.5897 5.074214095686083 13.472909883800938 4.8483837819280655 0 0 0
173 1 1 0.5897 4.504111331669114 14.196893252329863 2.7560157709479407 0 0 0
172 1 2 -1.1794 5.2623743469997155 13.692134555715617 3.0501927961825497 0 0 0
293 1 1 0.5897 2.747433559067141 16.776993770211472 2.682547404337811 0 0 0
558 1 1 0.5897 2.8748306937051376 14.923064541930138 1.380975161279371 0 0 0
556 1 2 -1.1794 2.971377942605717 14.983327424540317 2.3312579466008296 0 0 0
557 1 1 0.5897 2.2223838478239286 14.499684736166342 2.679651129533324 0 0 0
478 1 2 -1.1794 7.680072597046837 14.950538912045516 2.124910714935181 0 0 0
174 1 1 0.5897 5.123767826437173 12.817304908294595 2.6873156587686124 0 0 0
479 1 1 0.5897 8.433184172635379 14.467430103959085 2.4650598509864325 0 0 0
449 1 1 0.5897 7.76556900103455 16.717389386448385 2.799223515908989 0 0 0
480 1 1 0.5897 6.920756722252468 14.438092140122796 2.4026290313094614 0 0 0
373 1 2 -1.1794 0.8066766542235985 13.332142902307456 3.0569526934908 0 0 0
374 1 1 0.5897 0.6968221861673711 13.31064012330953 4.007460222548772 0 0 0
308 1 1 0.5897 7.572593024523807 17.5963955887546 4.751423781589287 0 0 0
294 1 1 0.5897 2.9316093418716886 17.61003889546732 3.9330001923221034 0 0 0
317 1 1 0.5897 7.509135644604379 15.188111395890909 0.2955208570986072 0 0 0
448 1 2 -1.1794 7.805824444812806 17.636714625636632 3.0627333284175764 0 0 0
238 1 2 -1.1794 3.1760669554390306 17.55648071026667 5.670073112111293 0 0 0
656 1 1 0.5897 1.3505096997582702 14.015232336730405 6.103182556125952 0 0 0
655 1 2 -1.1794 0.6369474481382997 13.441386020582328 5.824244281740018 0 0 0
377 1 1 0.5897 6.958772860347668 14.362532743061994 9.632252046044588 0 0 0
59 1 1 0.5897 9.047368432614585 13.875539343256495 10.020536928978585 0 0 0
184 1 2 -1.1794 7.259017646696872 17.44149968213331 10.375288787775615 0 0 0
813 1 1 0.5897 2.4545998671958738 14.354802272078055 9.738789393314969 0 0 0
812 1 1 0.5897 3.952753305008646 14.245876299360402 9.549466936158291 0 0 0
201 1 1 0.5897 5.704952417327917 13.796864781344581 6.18580746167247 0 0 0
199 1 2 -1.1794 4.980230835430848 13.31470712202353 5.787604184202507 0 0 0
454 1 2 -1.1794 5.461431765835503 13.52960177269433 10.17172639636445 0 0 0
376 1 2 -1.1794 7.700171568462437 14.880405411215369 9.318537963040681 0 0 0
307 1 2 -1.1794 7.355788245896238 17.50303401880325 5.67893939261921 0 0 0
519 1 1 0.5897 8.142706475569979 14.468348343723317 6.576849597806049 0 0 0
811 1 2 -1.1794 3.1942588208290723 14.772823473464728 9.297868164208666 0 0 0
17 1 1 0.5897 2.979650657551196 14.887606472096186 7.601356441191201 0 0 0
517 1 2 -1.1794 7.268361505776517 14.836445830716949 6.704760267397283 0 0 0
16 1 2 -1.1794 2.8699601693652212 14.981172013015499 6.6552034378231895 0 0 0
456 1 1 0.5897 5.422532637351538 12.608917481710426 9.912804308786345 0 0 0
384 1 1 0.5897 3.1133172816536274 16.44286248602932 9.953071028052033 0 0 0
378 1 1 0.5897 7.6568417153730985 14.80833441360407 8.365164783797013 0 0 0
186 1 1 0.5897 7.426042109143235 16.66021390875462 9.848162393211132 0 0 0
766 1 2 -1.1794 0.8536334943142405 13.59175471668961 10.405711672255359 0 0 0
239 1 1 0.5897 3.1674734155924114 16.640326872067664 5.947195995791396 0 0 0
18 1 1 0.5897 3.5610412887518796 14.43639573219322 6.278530827621786 0 0 0
518 1 1 0.5897 7.305667185893837 15.695381539432168 6.284009388918867 0 0 0
382 1 2 -1.1794 3.002862115628785 17.342753971987925 10.25999444292047 0 0 0
14 1 1 0.5897 0.699642873532533 11.818117765507866 9.900995619501172 0 0 0
429 1 1 0.5897 5.934984139907106 13.987348433340124 13.29581347876385 0 0 0
232 1 2 -1.1794 3.0539394643726916 14.856816825397383 14.080056287318767 0 0 0
234 1 1 0.5897 3.228183039072731 14.905868576556129 15.01986084975687 0 0 0
606 1 1 0.5897 3.105419166485689 16.52104707238807 13.40563041891285 0 0 0
427 1 2 -1.1794 5.165494679000799 13.57411472328339 12.904149350932455 0 0 0
233 1 1 0.5897 3.790510946631848 14.359044010792333 13.725152322890281 0 0 0
639 1 1 0.5897 1.5365080959592061 14.175419114661691 13.464969569617748 0 0 0
428 1 1 0.5897 5.196496410887914 12.668405075811574 13.212283314677238 0 0 0
297 1 1 0.5897 8.197263024584183 14.254249844422073 13.587238444228648 0 0 0
296 1 1 0.5897 7.397062978680062 14.661060464945175 14.80616898554474 0 0 0
295 1 2 -1.1794 7.42034720318494 14.74617169019005 13.853172833638839 0 0 0
270 1 1 0.5897 7.606608075840304 16.396132733338746 13.37981845260481 0 0 0
638 1 1 0.5897 0.8737711783345751 12.81664215386757 13.545294888116636 0 0 0
637 1 2 -1.1794 0.7698477469390475 13.688098288219452 13.163252887552929 0 0 0
455 1 1 0.5897 5.371142188747073 13.514929839034135 11.124419008890264 0 0 0
767 1 1 0.5897 0.765151912614367 13.64672454079959 11.357099147126155 0 0 0
268 1 2 -1.1794 7.681630376613344 17.299048268750937 13.07107993563992 0 0 0
269 1 1 0.5897 7.48762785279417 17.24947783515041 12.135181665294676 0 0 0
49 1 2 -1.1794 7.329151906976902 14.805360938066219 16.578120101901646 0 0 0
604 1 2 -1.1794 3.055673167964203 17.40349756092255 13.038187647258887 0 0 0
605 1 1 0.5897 3.1479281252925366 17.275825493203804 12.094162234081336 0 0 0
124 1 2 -1.1794 5.170878620030768 13.410153056262608 17.514635781678013 0 0 0
53 1 1 0.5897 1.0430630214385894 13.601323762579755 18.469956212418747 0 0 0
117 1 1 0.5897 8.79897360084682 14.314927977140579 20.60448319761062 0 0 0
54 1 1 0.5897 0.2441766586089713 14.146463607307153 17.30539225147107 0 0 0
716 1 1 0.5897 2.9551973270092673 17.402911187343836 19.69773804084874 0 0 0
51 1 1 0.5897 8.170351985176596 14.464094913217618 16.881792478030953 0 0 0
52 1 2 -1.1794 1.0103712330928156 13.611731190652602 17.51349424968698 0 0 0
318 1 1 0.5897 7.3902584000627325 16.019886086651063 20.94434199263618 0 0 0
665 1 1 0.5897 2.1238008899083294 14.339229027591077 20.90460711418559 0 0 0
823 1 2 -1.1794 3.1515707445427945 15.099594074809392 16.817244344873842 0 0 0
584 1 1 0.5897 2.984080486359031 16.750905886337843 17.615458624362944 0 0 0
126 1 1 0.5897 5.972942318779139 13.857231664123145 17.24424050762132 0 0 0
451 1 2 -1.1794 0.7560766984501476 13.484907731272207 20.326750156743408 0 0 0
452 1 1 0.5897 0.8574038447525704 12.613685042683258 20.71002585750246 0 0 0
715 1 2 -1.1794 2.883090470618381 17.43634282671175 20.65150633554569 0 0 0
666 1 1 0.5897 2.7267133146111338 15.714421803528893 21.09772161803797 0 0 0
825 1 1 0.5897 2.3590335501512354 14.627839412736991 17.07344332168662 0 0 0
610 1 2 -1.1794 7.312915476268999 17.44782941116479 17.74103532209676 0 0 0
125 1 1 0.5897 5.16664925608621 13.48131850562136 18.469050503346708 0 0 0
824 1 1 0.5897 3.8673774364989773 14.502614649793921 17.035265590103975 0 0 0
50 1 1 0.5897 7.287284810457134 15.692667450431697 16.934675477432517 0 0 0
684 1 1 0.5897 4.408379521866341 14.206790401220202 20.79394437696712 0 0 0
664 1 2 -1.1794 2.7600451087891846 14.819151993627987 21.434769608987157 0 0 0
316 1 2 -1.1794 7.396930680770326 15.114835350902727 21.255854956166075 0 0 0
682 1 2 -1.1794 5.1402150310239145 13.8432990275556 20.295419163121093 0 0 0
683 1 1 0.5897 5.914155625710818 14.278135498897365 20.65347748432005 0 0 0
362 1 1 0.5897 5.227467763651837 12.034519365288721 20.771186722766902 0 0 0
267 1 1 0.5897 5.914048932821012 21.700700461119624 2.8478151435095773 0 0 0
696 1 1 0.5897 1.4098218769836763 21.94300210780813 2.7394459484799745 0 0 0
266 1 1 0.5897 4.417208287184205 21.802035201328174 3.051211517165258 0 0 0
265 1 2 -1.1794 5.176810187441308 21.264036603477102 3.2744968975199544 0 0 0
228 1 1 0.5897 5.286929144452721 19.629404190647403 2.53453793959828 0 0 0
343 1 2 -1.1794 0.6895727026755292 19.008354066343973 2.035654231126195 0 0 0
249 1 1 0.5897 5.049460860175131 21.312746379001165 5.0096633786219416 0 0 0
226 1 2 -1.1794 5.361363566948729 18.71382639854129 2.2654647452115606 0 0 0
187 1 2 -1.1794 3.0471818511583444 22.694632854792538 2.3363218266014067 0 0 0
818 1 1 0.5897 8.085470183168848 22.310992517756326 2.530790434951424 0 0 0
189 1 1 0.5897 3.1776764618225384 22.76869815980807 1.39108154531684 0 0 0
344 1 1 0.5897 1.5037044673794107 18.547253800872838 2.237856997664404 0 0 0
817 1 2 -1.1794 7.2549658938166655 22.705573285277485 2.264575096924926 0 0 0
345 1 1 0.5897 0.6417532090731514 19.002848464882238 1.0797938645909508 0 0 0
413 1 1 0.5897 0.6106672560576669 21.306514785915 4.7786446333184305 0 0 0
695 1 1 0.5897 0.784742230333594 20.564491062340753 2.7085636502769224 0 0 0
227 1 1 0.5897 4.53857022711347 18.31342849254426 2.5465136508173454 0 0 0
694 1 2 -1.1794 0.6590013323444808 21.44485569515711 3.0626012728127887 0 0 0
321 1 1 0.5897 9.033077309334857 18.50275862441191 2.3624961032194447 0 0 0
498 1 1 0.5897 7.297059862127913 22.834333390572233 0.4679921133136794 0 0 0
602 1 1 0.5897 5.225888965321107 18.59193395396331 0.5329763233681133 0 0 0
292 1 2 -1.1794 2.823347672984578 17.68203670783652 2.984791820241839 0 0 0
450 1 1 0.5897 6.968087127813185 18.004113964108925 2.7807532264179597 0 0 0
386 1 1 0.5897 6.043775676648014 18.391122965294958 6.436307413803569 0 0 0
101 1 1 0.5897 5.930799981550046 18.40524763270091 9.859321168440692 0 0 0
38 1 1 0.5897 2.267348934700461 22.23669049270829 9.609025229793243 0 0 0
87 1 1 0.5897 8.294913569416032 22.264708615321407 9.819598311906896 0 0 0
383 1 1 0.5897 3.80533809415131 17.78887688194547 9.989243307991483 0 0 0
248 1 1 0.5897 4.302318335878447 21.887381399312286 6.19422433218972 0 0 0
553 1 2 -1.1794 5.275339628992198 21.52933535846049 10.384833742927066 0 0 0
39 1 1 0.5897 3.780543442064864 22.283229612778193 9.625613179610196 0 0 0
341 1 1 0.5897 1.667182386817628 18.284816453950413 6.181807589633564 0 0 0
555 1 1 0.5897 5.236732523662915 20.625304811278408 10.072680117061507 0 0 0
185 1 1 0.5897 8.045258019676961 17.976674386891098 10.266995370672724 0 0 0
385 1 2 -1.1794 5.307034889816216 18.812403197741894 6.879008849994778 0 0 0
340 1 2 -1.1794 0.8220318854977724 18.669787543163867 6.4138139815237585 0 0 0
247 1 2 -1.1794 5.076074181369793 21.372767934421187 5.964487072224111 0 0 0
309 1 1 0.5897 8.124118890776598 17.83981934144476 6.139965241046873 0 0 0
31 1 2 -1.1794 7.472947990279646 22.526931081378343 6.754126447721422 0 0 0
403 1 2 -1.1794 0.8643687421949678 18.640045146476933 9.161098194449371 0 0 0
405 1 1 0.5897 0.8950878334465582 19.550907446404228 9.45365895489153 0 0 0
412 1 2 -1.1794 0.6119918915116848 21.32239660416651 5.7355833230299265 0 0 0
94 1 2 -1.1794 0.8535413371500665 21.240007608440997 9.929170093307636 0 0 0
387 1 1 0.5897 5.235878821229171 19.671201732941142 6.462368970224356 0 0 0
86 1 1 0.5897 7.576519689284006 22.606842997267215 8.53181559993271 0 0 0
100 1 2 -1.1794 5.163306309316556 18.900535452978477 9.573076427560471 0 0 0
701 1 1 0.5897 2.8264524672210776 22.71310248721811 7.603020496231408 0 0 0
33 1 1 0.5897 6.660788598151357 22.09641978514588 6.486981082296272 0 0 0
342 1 1 0.5897 0.8177823467178129 18.680265851403313 7.370820229312395 0 0 0
700 1 2 -1.1794 2.8319027457254347 22.888369139101048 6.662143576592961 0 0 0
414 1 1 0.5897 0.6854150014492398 20.402765410718178 5.990730562335053 0 0 0
102 1 1 0.5897 5.180768187166078 18.839329168887847 8.618116393514407 0 0 0
554 1 1 0.5897 6.098111115866003 21.86968062450611 10.033410138017437 0 0 0
85 1 2 -1.1794 7.538955507251436 22.742651841507687 9.478464209352707 0 0 0
702 1 1 0.5897 2.0634401336626853 22.426020949514736 6.3275120986922495 0 0 0
37 1 2 -1.1794 3.011663068192036 22.765066257653913 9.32075372819156 0 0 0
32 1 1 0.5897 8.16662142661511 21.98909322846186 6.372283658647374 0 0 0
404 1 1 0.5897 1.600237779571177 18.219973780569436 9.606387754995286 0 0 0
95 1 1 0.5897 0.11249712085973584 21.8101228513376 9.723939669784352 1 0 0
240 1 1 0.5897 3.909627652692902 17.944640483860994 6.146998239342968 0 0 0
96 1 1 0.5897 0.8982484488141199 21.239441871612655 10.885198766797334 0 0 0
88 1 2 -1.1794 5.271329766333752 21.68555167337456 13.145100019134457 0 0 0
381 1 1 0.5897 1.5564567939507516 21.650494595091317 13.11196294764124 0 0 0
90 1 1 0.5897 5.292980817547807 20.761967286670203 13.395568766039261 0 0 0
763 1 2 -1.1794 5.249569477522429 18.93114507121265 13.91233687265943 0 0 0
738 1 1 0.5897 3.7467506656529945 22.08752603909514 13.892497057110493 0 0 0
89 1 1 0.5897 5.3078727618861175 21.67571210990087 12.188767309773372 0 0 0
736 1 2 -1.1794 2.8874064746963146 22.420966061277188 14.150673230171126 0 0 0
789 1 1 0.5897 6.78296905619316 22.29295537332748 13.725269573347989 0 0 0
765 1 1 0.5897 6.014561955857005 18.406490824837103 13.676061400621673 0 0 0
787 1 2 -1.1794 7.648294551133936 22.56240496014914 14.033348916694534 0 0 0
503 1 1 0.5897 1.4779872884266443 18.34707770391008 13.482845749205037 0 0 0
764 1 1 0.5897 4.500895581649307 18.397756197884394 13.645379655083614 0 0 0
474 1 1 0.5897 5.125375538403087 18.897706040508844 15.790564387766297 0 0 0
350 1 1 0.5897 2.8976936689717854 22.910746121904115 15.879071704341 0 0 0
788 1 1 0.5897 7.605783996840553 22.46377986050199 14.984379121288743 0 0 0
380 1 1 0.5897 0.6578847108809016 20.44464067035982 12.937384204421695 0 0 0
379 1 2 -1.1794 0.77281953880761 21.350771999449332 12.651161685086919 0 0 0