LAMMPS data file via write_data, version 30 Jul 2021, timestep = 750000

1296 atoms
2 atom types
864 bonds
1 bond types
432 angles
1 angle types

-10.732192291967966 12.712192291967966 xlo xhi
-9.407944150772906 12.397942150772906 ylo yhi
-0.05899796273619984 21.918996962736394 zlo zhi
-9.49527682725602 2.1429941047616126 2.8679248723513115 xy xz yz

Masses

1 1.008
2 15.999

Pair Coeffs # lj/cut/tip4p/long/omp

1 0 0
2 0.21084 3.1668

Bond Coeffs # harmonic/omp

1 450 0.9572

Angle Coeffs # harmonic/omp

1 55 104.52

Atoms # full

313 105 2 -1.1794 -8.84924742682534 -6.7411985555683405 5.250304032744207 1 1 0
270 90 1 0.5897 -8.548680654482242 -7.5754851367745974 1.7095685282528639 1 1 0
269 90 1 0.5897 -9.592135411057775 -6.479459764107634 1.7503540582696424 1 1 0
268 90 2 -1.1794 -9.259994343240162 -7.227268993229461 2.2470502690054115 1 1 0
163 55 2 -1.1794 -7.2323974475093795 -8.091160222050473 0.4035467428371075 1 1 0
164 55 1 0.5897 -6.617631151806499 -8.662506023732229 0.8637934926201493 1 1 0
315 105 1 0.5897 -8.68519859342754 -5.798240818113792 5.239697230061428 1 1 0
299 100 1 0.5897 -6.488771991188766 -7.94584849662488 4.139635737590366 1 1 0
324 108 1 0.5897 -7.147981147543858 -4.471671691465518 3.4734017768612575 1 1 0
314 105 1 0.5897 -8.888813153944632 -6.988263180730453 4.326429239141185 1 1 0
280 94 2 -1.1794 -9.79420758035055 -4.498720364479953 1.1397685342429913 1 1 0
281 94 1 0.5897 -9.148615639914475 -3.8208355092285498 1.3392446942492626 1 1 0
298 100 2 -1.1794 -5.850986049007739 -7.270067812849602 3.9101391702629678 1 1 0
282 94 1 0.5897 -10.639095001477356 -4.084089854599796 1.313961464918807 1 1 0
73 25 2 -1.1794 -8.534019359026114 -3.7152221184948955 4.742415851069859 1 0 0
275 92 1 0.5897 -10.459191092203817 -8.573577497071446 3.1438511933757 1 1 0
323 108 1 0.5897 -6.211253381819515 -5.613802126234878 3.142039998001503 1 1 0
300 100 1 0.5897 -5.025276771759633 -7.743629084926084 3.809838659881185 1 1 0
261 87 1 0.5897 -6.598356307533842 -5.1878207672547685 0.6693294702805213 1 1 0
75 25 1 0.5897 -9.375604222798525 -3.3985276778622078 4.414435552289977 1 0 0
419 140 1 0.5897 -8.91913379077456 -5.651193079952963 8.696672833416974 1 0 0
418 140 2 -1.1794 -9.543586376179169 -6.242687653217152 9.11656818499244 1 0 0
349 117 2 -1.1794 -6.911681058075136 -3.902229608581255 10.808373855039369 0 0 0
429 143 1 0.5897 -6.099210560373583 -7.2284141412534755 8.592540353731545 1 0 0
427 143 2 -1.1794 -5.6608986451083965 -6.843375899804331 9.351316682987424 1 0 0
420 140 1 0.5897 -9.03712001064036 -6.679973802541653 9.801018223555923 1 0 0
414 138 1 0.5897 -7.007475248050003 -4.986979010623545 7.341395432050423 1 0 0
413 138 1 0.5897 -7.649561013130439 -3.681726561909633 7.760647357633892 1 0 0
412 138 2 -1.1794 -7.56381425339406 -4.599894482963823 8.017243468271266 1 0 0
428 143 1 0.5897 -6.322100431536272 -6.8575323107843476 10.043219509890474 1 0 0
350 117 1 0.5897 -6.970084384592366 -4.129843195061417 9.880506563498374 0 0 0
618 206 1 0.5897 -7.80833862981914 -7.6684096444970375 6.688561982145358 1 1 0
627 209 1 0.5897 -10.338632360219826 -7.1581880344493065 6.397632559685443 1 1 0
616 206 2 -1.1794 -7.2374333861130165 -8.060997736676178 7.348967074920569 1 1 0
408 136 1 0.5897 -11.08932933719735 -5.173267656712681 9.486278527494404 1 0 0
351 117 1 0.5897 -6.947636219993544 -2.945841403253482 10.823542484238816 0 0 0
327 109 1 0.5897 -4.164040760118824 -8.013471552469396 9.75074952395429 0 0 0
633 211 1 0.5897 -5.708894535181445 -6.139212669163473 5.480529347543088 1 1 0
727 243 2 -1.1794 -7.90674883057841 -7.729619184814649 10.88193528363351 1 0 0
661 221 2 -1.1794 -9.362544951952602 -4.213335528069696 12.142561542216374 0 0 0
740 247 1 0.5897 -10.944944823010545 -3.2061145977100693 11.913548477674505 1 0 0
780 260 1 0.5897 -7.388019000259579 -4.22678530218645 15.262457549551222 0 0 0
779 260 1 0.5897 -6.903152246339982 -3.2336151757680422 14.227890655757973 0 0 0
778 260 2 -1.1794 -7.700200649484466 -3.615208528248817 14.59556302490659 0 0 0
768 256 1 0.5897 -9.305764915773562 -2.686371286456488 14.767834875720927 0 0 0
662 221 1 0.5897 -9.001594575018848 -4.233107505855902 13.02884387332624 0 0 0
652 218 2 -1.1794 -5.610562341028437 -5.639747683804622 12.59611596910273 0 0 0
654 218 1 0.5897 -6.015729982293124 -5.029594171921344 11.979850481318984 0 0 0
653 218 1 0.5897 -6.317299792978117 -6.236057627600207 12.843204919181545 0 0 0
766 256 2 -1.1794 -10.185440032898912 -2.3142306477793513 14.82941853714585 0 0 0
682 228 2 -1.1794 -7.577034895722167 -7.209403255549767 13.63224291424817 0 0 0
684 228 1 0.5897 -8.28147272032722 -6.81313709510051 14.144934039810456 0 0 0
758 253 1 0.5897 -9.105375406716943 -5.550882283741063 16.10548310324118 0 0 0
663 221 1 0.5897 -8.611621186661178 -4.018827862756014 11.581862793367186 0 0 0
729 243 1 0.5897 -7.976547887252286 -7.506054170007282 11.810001764707469 1 0 0
767 256 1 0.5897 -10.75712988515739 -3.070442916634472 14.961527146358938 0 0 0
788 263 1 0.5897 -4.849165404874499 -4.522358131027298 15.530560010480881 0 0 0
757 253 2 -1.1794 -9.453949492607734 -6.0967305882900575 15.40073209227103 0 0 0
1089 363 1 0.5897 -6.578227514519686 -4.860531666055309 17.501277929050858 0 0 0
1088 363 1 0.5897 -6.606942269760363 -6.196057696521576 16.789060450692368 0 0 0
1227 409 1 0.5897 -8.863896340636915 -3.2795817455234495 20.878719262023008 0 0 0
1087 363 2 -1.1794 -6.515449973536519 -5.25628004850015 16.63203039988597 0 0 0
1129 377 2 -1.1794 -7.842166638547352 -2.0535472354272954 17.762062097304938 0 0 0
1225 409 2 -1.1794 -7.998356254650107 -3.5485024853718548 21.186352240520154 0 0 0
1152 384 1 0.5897 -6.750191017888987 -4.296512233331517 20.124180127190503 0 0 0
1248 416 1 0.5897 -5.891894087415597 -1.5612785925333856 20.5889990939143 0 0 0
1151 384 1 0.5897 -6.02979359979172 -5.482675027307199 19.519401400621273 0 0 0
1150 384 2 -1.1794 -6.2973345164208885 -4.583114617377287 19.331144102014687 0 0 0
1109 370 1 0.5897 -8.664075729209088 -3.6862004425493247 18.050129847056084 0 0 0
1108 370 2 -1.1794 -9.20598149417115 -4.434245536060033 17.799366273409767 0 0 0
1219 407 2 -1.1794 -10.269568239401805 -2.2791582531597125 20.35931881972617 0 0 0
1097 366 1 0.5897 -8.87987672474727 -5.889176025718795 18.940336431714982 0 0 0
1141 381 2 -1.1794 -8.275921518185482 -6.279936754064696 21.905485114557013 0 0 0
1130 377 1 0.5897 -7.361520298167186 -1.8181951503274423 18.555611931321625 0 0 0
1121 374 1 0.5897 -4.790947277633258 -3.4024124412299965 18.472462329421685 0 0 0
1110 370 1 0.5897 -10.081656744838181 -4.066783667467048 17.67985554123416 0 0 0
259 87 2 -1.1794 -4.4714153891700175 -2.6819761089399847 21.76143987267739 1 1 -1
1143 381 1 0.5897 -8.30254064279302 -5.334160839098762 21.760507191240368 0 0 0
260 87 1 0.5897 -4.690542264721451 -3.6056823191424314 21.883696434869925 1 1 -1
1131 377 1 0.5897 -7.259128141891702 -1.8036430143926054 17.045296254812108 0 0 0
1096 366 2 -1.1794 -8.834170494407065 -6.79221465005325 19.254416348116102 0 0 0
165 55 1 0.5897 -5.38930316889849 -5.744020674355762 21.63657607810526 1 1 -1
1226 409 1 0.5897 -7.6686620546075535 -2.7900664519304996 21.66823278488741 0 0 0
59 20 1 0.5897 -13.548071216326713 -1.0243633081529122 3.0973408933823476 1 0 0
82 28 2 -1.1794 -9.09190652776978 0.03148217793346575 4.075674042335993 1 0 0
272 91 1 0.5897 -9.63713219083971 -1.2975353011208064 0.7684469233798278 1 1 0
271 91 2 -1.1794 -10.433219776656362 -0.828676891214517 0.5183140896900628 1 1 0
44 15 1 0.5897 -10.130607444729682 0.9616984647636091 0.07334858005244616 1 0 0
83 28 1 0.5897 -9.72906036156455 -0.6690822260157141 3.93655377416812 1 0 0
301 101 2 -1.1794 -8.067679992025361 -2.3027571657930856 1.175592618614695 1 1 0
258 86 1 0.5897 -12.454526535257147 -2.6460691854971046 0.9787948034428153 1 1 0
98 33 1 0.5897 -12.20129447202725 0.39347081461114364 4.335616359689684 1 0 0
54 18 1 0.5897 -11.779605347673112 0.07798589842050063 1.7550649390581181 1 0 0
53 18 1 0.5897 -12.67773267736284 1.1749311674677365 2.2858805419104087 1 0 0
52 18 2 -1.1794 -12.378560813399535 0.28501534690351527 2.472358085053844 1 0 0
67 23 2 -1.1794 -10.766915652413266 -2.1166065829582914 3.856624453226034 1 0 0
68 23 1 0.5897 -11.403588323415265 -2.327091935487524 4.539611951011873 1 0 0
97 33 2 -1.1794 -12.100320961741446 0.6301801321875988 5.257534809683764 1 0 0
69 23 1 0.5897 -11.240762919415475 -2.2535113549250037 3.0363330153882337 1 0 0
107 36 1 0.5897 -9.812742740021468 1.583580549965193 3.0925932729630916 1 0 0
99 33 1 0.5897 -11.975476525175164 1.5791483768787629 5.249314663607239 1 0 0
256 86 2 -1.1794 -12.137671975875454 -3.3345998745931675 1.5634013484542983 1 1 0
84 28 1 0.5897 -8.24463218662185 -0.37545068974678486 3.8950213528577793 1 0 0
74 25 1 0.5897 -8.297421655375057 -3.0963368217180847 5.433160739239919 1 0 0
426 142 1 0.5897 -8.994557129007179 -1.6752077866053634 6.939798794391442 1 0 0
435 145 1 0.5897 -7.523612722349862 -0.6689855381190739 9.696346611328007 0 0 0
528 176 1 0.5897 -12.156728700230124 0.8401466067035166 10.013165065771034 1 0 0
402 134 1 0.5897 -10.886828670023233 -0.07171628534607422 6.508135465990148 1 0 0
401 134 1 0.5897 -11.267908165148455 -1.1933177597609337 7.4508075311635364 1 0 0
400 134 2 -1.1794 -10.524498614881251 -0.6591159264100899 7.171395798165543 1 0 0
527 176 1 0.5897 -11.915763025616751 1.784303061396173 8.854552479870652 1 0 0
526 176 2 -1.1794 -12.59402403331709 1.2489788548375316 9.266274957664004 1 0 0
424 142 2 -1.1794 -8.119574505902861 -2.055665912838207 6.863929187066229 1 0 0
537 179 1 0.5897 -9.522666483461428 0.04743576791936022 8.477972189985945 1 0 0
536 179 1 0.5897 -9.585296933128648 0.1649544006918653 9.98595653551329 1 0 0
535 179 2 -1.1794 -9.019939960634774 0.34699877418055536 9.235375317696246 1 0 0
411 137 1 0.5897 -13.552607684964318 -0.09833076628054904 6.326036305220984 1 0 0
425 142 1 0.5897 -7.559265408385777 -1.3208637161706633 6.6144146421105985 1 0 0
410 137 1 0.5897 -13.726346024237282 0.6679943681212563 7.61996286477869 1 0 0
430 144 2 -1.1794 -12.508615649122337 -2.292201807863158 8.332092559610347 1 0 0
516 172 1 0.5897 -14.091574515067565 2.175580709246118 9.47519820392537 1 0 0
417 139 1 0.5897 -8.98552987123345 1.2865420453750396 5.502374005446735 1 0 0
760 254 2 -1.1794 -8.780024663905305 1.8185531849739096 12.607283470434325 0 0 0
790 264 2 -1.1794 -10.792992445418687 0.2072980764901633 13.887524115835369 0 0 0
791 264 1 0.5897 -10.509661672594595 -0.632436844150039 14.24919036946752 0 0 0
770 257 1 0.5897 -12.149537533603295 2.8313199778355944 13.249517233723495 0 0 0
762 254 1 0.5897 -9.249384214181958 2.3320717327727447 11.94985050607292 0 0 0
761 254 1 0.5897 -9.468991111649357 1.4437372005836462 13.155882530204282 0 0 0
1101 367 1 0.5897 -10.203095157706091 -1.1573796426229048 16.22918287647708 0 0 0
792 264 1 0.5897 -11.249516283278968 0.6380162303670183 14.61015303994591 0 0 0
837 279 1 0.5897 -11.068193081280581 0.08050346428659338 12.103640031074782 1 0 0
865 289 2 -1.1794 -12.564285044717797 1.220807004664147 15.89717747482571 0 0 0
769 257 2 -1.1794 -12.50303438252939 2.451681699241936 12.44512013455112 0 0 0
888 296 1 0.5897 -10.508234964251841 3.1856124776249466 15.175716629558629 0 0 0
896 299 1 0.5897 -7.7224551117689035 2.4162560066557024 15.391024713938139 0 0 0
771 257 1 0.5897 -11.902167686473728 2.741430851957226 11.758723436685605 0 0 0
1196 399 1 0.5897 -9.44873420071549 1.0458028828777906 16.262160326940034 0 0 0
1195 399 2 -1.1794 -9.278512773150768 1.9864617229493486 16.213477824038407 0 0 0
836 279 1 0.5897 -11.251440621467385 -1.2096125784068743 11.333132508904798 1 0 0
835 279 2 -1.1794 -11.118233648392025 -0.26925012010478966 11.214083102785986 1 0 0
866 289 1 0.5897 -12.24716944442579 1.9751902773511851 16.39364122870417 0 0 0
1218 406 1 0.5897 -12.858788806536676 3.2140132106425856 18.16994142947572 0 0 0
1260 420 1 0.5897 -9.9938755687415 2.9136424857240257 19.222835380822172 0 0 0
1205 402 1 0.5897 -11.811247205619768 1.20165483809253 18.700424038556438 0 0 0
1259 420 1 0.5897 -8.982012860958971 1.7928041683854499 19.330410068610366 0 0 0
1258 420 2 -1.1794 -9.09209148620045 2.684006046162068 18.998944644820007 0 0 0
1236 412 1 0.5897 -7.798055826705464 0.000895060292446459 20.394105090756717 0 0 0
1009 337 2 -1.1794 -11.21714089338357 3.7389099971441127 21.265148746626018 0 -1 0
1251 417 1 0.5897 -11.418100204707223 2.0780933558393304 21.660759305492682 0 0 0
1234 412 2 -1.1794 -8.69669778341502 0.3273444544763464 20.438517215515386 0 0 0
1099 367 2 -1.1794 -9.92631267211637 -0.6483626366571436 16.991042436155507 0 0 0
1100 367 1 0.5897 -9.179285606113705 -1.1316164457807325 17.34400219446891 0 0 0
1216 406 2 -1.1794 -11.955666936816264 3.0526274885824307 17.897161906671887 0 0 0
1206 402 1 0.5897 -11.293076314930035 -0.15590979274366212 18.275826728683235 0 0 0
1204 402 2 -1.1794 -11.7671506990539 0.2870969184881318 18.979479627758483 0 0 0
1197 399 1 0.5897 -9.117923475560954 2.248457397925911 17.11996944404005 0 0 0
1249 417 2 -1.1794 -11.479875492585428 1.1269424327598347 21.57316048390343 0 0 0
1235 412 1 0.5897 -9.240090178499514 -0.4595379888738229 20.397671563915377 0 0 0
1246 416 2 -1.1794 -6.1716001114500365 -0.9571835491536724 19.901199729450465 0 0 0
1250 417 1 0.5897 -11.477522368724063 0.9723321614652907 20.628568540631427 0 0 0
273 91 1 0.5897 -8.600001479442241 1.585133022521287 21.712758123984422 1 1 -1
1011 337 1 0.5897 -11.987918692555915 4.13555913820999 20.859276653405807 0 -1 0
40 14 2 -1.1794 -15.529277364676286 3.866220540662562 1.7578756039340275 1 0 0
66 22 1 0.5897 -13.929200937884119 3.063815853368915 1.1794653485070712 1 0 0
42 14 1 0.5897 -15.965375049112435 4.339613170064725 1.0494024444471854 1 0 0
85 29 2 -1.1794 -11.358492790572523 5.190722526732944 1.4953401647009492 1 0 0
65 22 1 0.5897 -12.48533842984396 3.5137037944812306 1.2454111441731328 1 0 0
64 22 2 -1.1794 -13.035275667931272 2.7303845359233723 1.2558190680893035 1 0 0
177 59 1 0.5897 -14.505359227321792 4.549947550884282 3.1620885386108273 1 0 0
108 36 1 0.5897 -10.63881110928219 2.8305142908872423 3.32603244625459 1 0 0
56 19 1 0.5897 -13.082642902573761 6.308252929127452 1.2413552907403334 1 0 0
45 15 1 0.5897 -10.162440546201134 2.270472139060562 0.8334774193076664 1 0 0
176 59 1 0.5897 -14.850298407918665 4.5692660568050965 4.635988431914483 1 0 0
191 64 1 0.5897 -13.053810969333117 6.330201333314244 3.899970071369745 1 0 0
190 64 2 -1.1794 -12.50945184927018 7.113527085229567 3.9786480279449457 1 0 0
181 61 2 -1.1794 -11.950850592883643 3.426083745107796 4.965738339345944 1 0 0
55 19 2 -1.1794 -13.98357836006415 6.383440939027645 0.9270967669806803 1 0 0
175 59 2 -1.1794 -14.16088304071658 4.808819171460797 4.01676537025246 1 0 0
183 61 1 0.5897 -12.697509334060896 3.8365289583013134 4.5296171629900455 1 0 0
57 19 1 0.5897 -14.066245340004766 5.694025099558889 0.26830237281446195 1 0 0
106 36 2 -1.1794 -9.882737192518489 2.5037764345199527 2.8385078463977433 1 0 0
192 64 1 0.5897 -11.619124821980321 6.7776116933564765 4.081528765008738 1 0 0
162 54 1 0.5897 -15.395989543561338 6.866942761856873 2.167850389947232 1 0 0
1033 345 2 -1.1794 -16.99787740906432 5.375269926664993 0.0630965380153311 0 -1 1
1010 337 1 0.5897 -13.081802889866225 1.5070206826982009 -0.053967746287676366 0 -1 1
1035 345 1 0.5897 -16.66820092587622 6.273480165037228 0.03656008011445322 0 -1 1
43 15 2 -1.1794 -10.224221867081962 1.9063391946262396 -0.049544665357351074 1 0 0
508 170 2 -1.1794 -13.750688096925295 6.299662848240743 7.274691365396463 1 0 0
458 153 1 0.5897 -10.136050846365778 2.9308759657654733 9.81116355387678 0 0 0
510 170 1 0.5897 -14.13304819807232 6.864017315229734 6.602726087731299 1 0 0
509 170 1 0.5897 -14.49645851985266 5.826586616445757 7.643657372973407 1 0 0
645 215 1 0.5897 -12.686666152575985 7.360183116752378 8.599129681184555 1 0 0
644 215 1 0.5897 -12.796527355674973 7.677477840404858 10.075265503878803 1 0 0
643 215 2 -1.1794 -12.166136009439688 7.62678571919129 9.356827807018579 1 0 0
521 174 1 0.5897 -11.009864850001733 3.633909727357203 7.344349107077656 1 0 0
636 212 1 0.5897 -15.298192952036484 8.078332906529447 9.932465841057144 1 0 0
532 178 2 -1.1794 -11.166977834015258 5.290417320979657 6.794985729948714 1 0 0
534 178 1 0.5897 -12.050627766921417 5.643087900200879 6.8993441257315595 1 0 0
533 178 1 0.5897 -10.590564975090691 6.040624289801359 6.940095721571496 1 0 0
543 181 1 0.5897 -10.938797221057175 6.3849112746357495 9.71963641050309 0 0 0
519 173 1 0.5897 -16.64630668773288 7.347733690517369 6.265996416587405 1 0 0
459 153 1 0.5897 -10.353991181417687 4.1736319029993805 10.647681627288671 0 0 0
457 153 2 -1.1794 -10.357965247712668 3.217723462339663 10.696947120170158 0 0 0
520 174 2 -1.1794 -10.772623019501165 2.824621511044901 7.7971059403835055 1 0 0
522 174 1 0.5897 -9.968787773428035 2.5350996234744194 7.36569700853265 1 0 0
541 181 2 -1.1794 -10.182279769039742 5.991111062524993 10.154096824063586 0 0 0
182 61 1 0.5897 -11.679473284768667 4.062735582784153 5.626910843898933 1 0 0
875 292 1 0.5897 -13.94062004564339 4.120837591409117 14.90157353881044 0 0 0
898 300 2 -1.1794 -14.131173258669307 7.3457182378091375 13.88481941760796 0 0 0
943 315 2 -1.1794 -14.476151128975166 7.029617972828717 11.129715755791683 1 0 0
887 296 1 0.5897 -10.482075394143807 4.18503692707265 14.038889129274466 0 0 0
899 300 1 0.5897 -13.88119105456237 6.5033074093762036 14.264419998765462 0 0 0
848 283 1 0.5897 -14.271447727668411 3.51366961838648 12.065980848143273 1 0 0
874 292 2 -1.1794 -13.457073883780843 4.942290657144628 14.988407379655733 0 0 0
876 292 1 0.5897 -12.538145599102267 4.677066244526358 15.02469032241778 0 0 0
945 315 1 0.5897 -14.743108881619502 7.3470723187192455 11.992321818869891 1 0 0
900 300 1 0.5897 -14.743730007889134 7.721488268212752 14.517031319042896 0 0 0
944 315 1 0.5897 -14.687616295973669 6.096166212913246 11.141528470566362 1 0 0
886 296 2 -1.1794 -11.080536774664628 3.70747468415561 14.613275065708311 0 0 0
869 290 1 0.5897 -12.665260988768155 8.577882407627687 12.450732557876922 0 0 0
989 330 1 0.5897 -15.311560326442606 8.467303882004831 18.929350649752067 0 -1 0
1208 403 1 0.5897 -12.512259152082484 6.308841557206826 17.74868086642322 0 0 0
1207 403 2 -1.1794 -13.4142937768823 6.582932775478913 17.583398183682068 0 0 0
1032 344 1 0.5897 -8.90334770321033 6.037382151956985 20.74004540263479 0 -1 0
1018 340 2 -1.1794 -12.02464499492207 7.639593277595164 20.558002179466467 0 -1 0
1019 340 1 0.5897 -12.660667723632095 6.925508072382836 20.517254779821528 0 -1 0
1020 340 1 0.5897 -11.185887575164264 7.22570967732733 20.35481185506719 0 -1 0
1030 344 2 -1.1794 -9.372815514798164 6.505012293696382 20.04930746602405 0 -1 0
990 330 1 0.5897 -14.354900841322603 7.294090654559959 18.91776814476295 0 -1 0
1003 335 2 -1.1794 -13.508686251468939 5.14220960643417 20.290025695163788 0 -1 0
1043 348 1 0.5897 -11.957753093635006 9.326560455564081 19.373301811009906 0 -1 0
1238 413 1 0.5897 -10.299647092015878 5.7556870345355815 18.66033650697072 0 0 0
1239 413 1 0.5897 -10.207877172119924 5.484780639892275 17.17375858821304 0 0 0
1237 413 2 -1.1794 -10.828189076789856 5.5061552000792275 17.902370303345066 0 0 0
1034 345 1 0.5897 -14.863904408398078 7.963765058652314 21.125674517432916 0 -1 0
980 327 1 0.5897 -12.930709957351716 8.370103681407805 16.588882933510735 0 -1 0
988 330 2 -1.1794 -15.05841981895287 7.692008805588429 19.43043506395387 0 -1 0
1217 406 1 0.5897 -11.585293679176836 3.925318658394895 17.765212029583203 0 0 0
1209 403 1 0.5897 -13.728243405823852 5.980846130483194 16.908818100968414 0 0 0
1005 335 1 0.5897 -13.93530063666294 4.949032752228991 19.45526122630907 0 -1 0
174 58 1 0.5897 -16.911889808996765 10.100161103043025 1.4063088052294785 1 0 0
173 58 1 0.5897 -15.411333353438668 10.291099360745335 1.4641714233954255 1 0 0
172 58 2 -1.1794 -16.08453971761433 9.65159774548733 1.2319549072826022 1 0 0
161 54 1 0.5897 -15.983910654887605 8.217021472157509 2.519140471124062 1 0 0
216 72 1 0.5897 -13.82314759512477 10.072634331118614 3.166846562859873 1 0 0
153 51 1 0.5897 -13.373194862389983 9.135117294735192 0.7155849456074739 1 0 0
148 50 2 -1.1794 -18.36054765037563 11.191768720664637 1.9304863240558503 1 0 0
285 95 1 0.5897 -17.585986518017176 11.845032398833247 3.343498831265561 1 0 0
207 69 1 0.5897 -14.937202585877209 8.7973095283004 5.387827072506627 1 0 0
291 97 1 0.5897 -15.80706128622015 11.117147284690795 4.259124762851715 1 0 0
150 50 1 0.5897 -18.57151894210852 11.565843170630323 1.0750538394424187 1 0 0
193 65 2 -1.1794 -14.633585118113057 12.297182753872097 1.515482228235755 1 0 0
284 95 1 0.5897 -17.699810578598477 11.95670332636529 4.848930803522091 1 0 0
283 95 2 -1.1794 -17.147106094439458 12.212615410622742 4.110571439934396 1 0 0
289 97 2 -1.1794 -15.013098353117702 10.6416439729175 4.503394702381682 1 0 0
205 69 2 -1.1794 -14.95097059650713 7.840736555765776 5.419255236327023 1 0 0
214 72 2 -1.1794 -13.13531733878647 9.673420394483749 2.634296386822725 1 0 0
290 97 1 0.5897 -14.546974598306408 11.237938788852055 5.089291493593639 1 0 0
215 72 1 0.5897 -12.859784728309414 8.905309145853398 3.1346253870161873 1 0 0
206 69 1 0.5897 -15.021434895767328 7.571572482678288 4.50342561720041 1 0 0
160 54 2 -1.1794 -15.841341060502977 7.338586536686812 2.871658005265934 1 0 0
525 175 1 0.5897 -12.075891290962055 8.324235648569552 5.3354129761218765 1 0 0
635 212 1 0.5897 -15.236593609613859 9.180738729999234 8.896694096310934 1 0 0
565 189 2 -1.1794 -13.5457670345593 10.70981798311033 10.751236694106014 0 0 0
566 189 1 0.5897 -13.36833874813441 10.376195217230002 9.871826890992418 0 0 0
630 210 1 0.5897 -13.258489537290544 9.539389487967789 7.340648011932957 1 0 0
629 210 1 0.5897 -14.003543879360285 10.837706904909755 7.566553040098428 1 0 0
628 210 2 -1.1794 -13.796676556245124 10.001247818954823 7.983430050407927 1 0 0
617 206 1 0.5897 -17.302482185830552 13.149026715171903 7.835240215589277 1 0 0
640 214 2 -1.1794 -14.379317513835485 12.340084131184476 6.639838951150622 1 0 0
642 214 1 0.5897 -15.158250470317832 12.849663841202517 6.862789234213452 1 0 0
646 216 2 -1.1794 -18.642719138236412 12.029823477042115 8.447357787606125 1 0 0
567 189 1 0.5897 -13.37600826226561 11.649836730800615 10.69004360021338 0 0 0
634 212 2 -1.1794 -15.80028336081888 8.479389244217394 9.223056262020876 1 0 0
641 214 1 0.5897 -13.661460501035634 12.972290958985322 6.672916512383655 1 0 0
585 195 1 0.5897 -18.919444952686483 11.887136409836977 6.647307011659245 1 0 0
728 243 1 0.5897 -17.42028953448513 13.119435409065343 10.863592101281409 1 -1 0
956 319 1 0.5897 -17.124476309313586 11.189842370862195 12.026026043539598 1 0 0
870 290 1 0.5897 -12.1620828677064 9.69913715339538 11.566753823992196 0 0 0
877 293 2 -1.1794 -15.663641666011184 9.938737901804966 12.38197906116372 0 0 0
658 220 2 -1.1794 -16.58810555440968 12.237484490082487 14.905864106959621 0 -1 0
672 224 1 0.5897 -13.889896431633844 10.246136596617607 15.36023191522715 0 -1 0
671 224 1 0.5897 -13.508044659166856 11.25456285290095 14.297633540356124 0 -1 0
670 224 2 -1.1794 -14.259225754620026 10.786117675413905 14.661490239532867 0 -1 0
660 220 1 0.5897 -15.761000838736113 11.765251570081514 15.000885388665951 0 -1 0
868 290 2 -1.1794 -11.883531992218256 9.09393646049022 12.25405291124835 0 0 0
878 293 1 0.5897 -15.230448004126092 10.067430172965079 13.22574390073967 0 0 0
659 220 1 0.5897 -17.2611773916178 11.580656157299565 15.083827548460041 0 -1 0
879 293 1 0.5897 -15.061419458763993 10.318942357375786 11.742513302931084 0 0 0
683 228 1 0.5897 -16.93977932237642 13.736455666081742 14.031025151549668 0 -1 0
680 227 1 0.5897 -11.243599874593277 9.69385320145447 15.308171540033706 0 -1 0
955 319 2 -1.1794 -17.76877760525721 11.454825426317928 11.369647453331904 1 0 0
1022 341 1 0.5897 -13.554302606493007 12.692651372267825 18.624065867163726 0 -1 0
993 331 1 0.5897 -16.762827254504217 13.344441316025623 16.459028241770337 0 -1 0
992 331 1 0.5897 -15.639195044858988 13.612937522872624 17.437275172812065 0 -1 0
1117 373 2 -1.1794 -14.111898518799752 10.779973684267176 21.008731535356013 0 -1 0
1119 373 1 0.5897 -14.931864035167507 11.17216979606184 20.70876368386465 0 -1 0
1138 380 2 -1.1794 -12.432815020824043 13.63975404535896 20.025185362747063 0 -1 0
1128 376 1 0.5897 -14.177902657629051 14.301196578653318 20.194357320791493 0 -1 0
991 331 2 -1.1794 -16.508670948503017 13.919829038502296 17.1804648846431 0 -1 0
1127 376 1 0.5897 -15.63670708197602 13.897216057185158 20.205704092019868 0 -1 0
1126 376 2 -1.1794 -15.062759392483645 14.658349263837355 20.119767463391835 0 -1 0
1023 341 1 0.5897 -13.232620359664326 12.485253802302239 17.15940853046474 0 -1 0
1042 348 2 -1.1794 -12.30815583816113 10.176730379898927 19.10750115480491 0 -1 0
1140 380 1 0.5897 -11.926095665203048 13.084119602818824 20.61740357173172 0 -1 0
1044 348 1 0.5897 -12.981029291323544 10.37330678018236 19.759197496228957 0 -1 0
981 327 1 0.5897 -12.55718023196009 9.645339089678018 17.314093250229284 0 -1 0
1021 341 2 -1.1794 -13.964899436423634 12.53712228476195 17.77355146474336 0 -1 0
979 327 2 -1.1794 -12.6779495474256 9.280789273361062 16.437355130877126 0 -1 0
1001 334 1 0.5897 -14.909949288923272 10.71334983954036 17.529815104679958 0 -1 0
1000 334 2 -1.1794 -15.619637435448249 10.116242042819579 17.76627429639056 0 -1 0
1111 371 2 -1.1794 -16.435509694459732 12.247353483339658 20.27919812387291 0 -1 0
1098 366 1 0.5897 -17.857721605733772 14.543997344689593 18.566678624534465 0 -1 0
1113 371 1 0.5897 -17.018838778116844 12.133415231622212 19.528941208227607 0 -1 0
1002 334 1 0.5897 -16.349773256900775 10.690687251118433 17.996594720172613 0 -1 0
151 51 2 -1.1794 -11.212155066537573 11.724820491500534 21.777931061155964 1 0 -1
1118 373 1 0.5897 -13.856162418456051 11.307622323372094 21.76524959242653 0 -1 0
152 51 1 0.5897 -11.6119139021347 10.855154269405354 21.783469936485407 1 0 -1
1013 338 1 0.5897 -10.986930465796409 11.123483142379623 18.604843840820568 0 -1 0
1142 381 1 0.5897 -17.811111848862087 15.14736924758516 21.027289758553668 0 -1 0
311 104 1 0.5897 -2.995535722838868 -7.765893118232589 3.3040968469742302 1 1 0
3 1 1 0.5897 -1.280229393000612 -3.392620794243107 4.7236390367305 0 0 0
305 102 1 0.5897 -1.585444919687891 -6.019427495926802 2.215372274435433 1 1 0
304 102 2 -1.1794 -1.6125126122407423 -6.925927781101508 2.521559210456946 1 1 0
243 81 1 0.5897 -1.0096984535979434 -5.903456331532461 5.236042808226707 0 1 0
318 106 1 0.5897 -2.76005538693218 -3.9210581368860637 1.4294375236094043 1 1 0
306 102 1 0.5897 -1.0192722537057382 -7.3951576658295295 1.935036832970248 1 1 0
242 81 1 0.5897 -1.2611101203962924 -7.098453456634411 4.341375055492281 0 1 0
316 106 2 -1.1794 -2.023342906980181 -4.518742042233544 1.3023874355038871 1 1 0
317 106 1 0.5897 -1.2485785985295674 -3.9593068641876794 1.3558519426011284 1 1 0
310 104 2 -1.1794 -3.4433563918628707 -8.59459423358804 3.4739986351644268 1 1 0
201 67 1 0.5897 0.5164385378561285 -8.646999263429224 0.2602695234995338 1 1 0
241 81 2 -1.1794 -1.295976426547357 -6.8166074117493025 5.2554285810901495 0 1 0
1 1 2 -1.1794 -0.6393605018868858 -4.018608597439901 5.060718399905122 0 0 0
322 108 2 -1.1794 -6.417428238208429 -4.710185564243686 2.9028686746350325 1 1 0
348 116 1 0.5897 -1.5672775939342785 -6.772875463206129 9.740222533656302 0 0 0
347 116 1 0.5897 -1.1365735876958016 -5.800304422047406 8.662990878936446 0 0 0
346 116 2 -1.1794 -1.9084711456027854 -6.234187929704284 9.02633910013855 0 0 0
336 112 1 0.5897 -3.0994418243273207 -5.159937450651519 9.798866696756061 0 0 0
555 185 1 0.5897 -2.580835829360945 -7.070976640636658 6.366826170342732 0 1 0
334 112 2 -1.1794 -3.9259408671431233 -4.678233526568938 9.830234624090954 0 0 0
632 211 1 0.5897 -4.596677881725041 -5.74533148333785 6.428908107688522 1 1 0
546 182 1 0.5897 -0.32819688558276994 -7.704340683413113 6.510599647712263 0 1 0
554 185 1 0.5897 -3.0433641057151384 -6.9225947356956805 7.800619917047456 0 1 0
359 120 1 0.5897 -4.597421154895619 -3.131381074195806 8.833014722331164 0 0 0
553 185 2 -1.1794 -3.2991446762904157 -7.296941798159591 6.957659042882329 0 1 0
544 182 2 -1.1794 0.2835793031373903 -8.132900738626843 7.10913991888405 0 1 0
356 119 1 0.5897 1.1989875704537187 -7.534627383619055 9.941811136210076 0 0 0
404 135 1 0.5897 -5.202040860884062 -3.663378977665376 5.560633831528312 1 0 0
631 211 2 -1.1794 -5.4901651882246645 -5.5161589623309055 6.1734216463303175 1 1 0
335 112 1 0.5897 -4.597652129817742 -5.344661040878034 9.686084256926149 0 0 0
667 223 2 -1.1794 -3.6025279966875043 -2.8903802575372017 11.999451689082699 0 0 0
669 223 1 0.5897 -3.9325510327598643 -3.4842716813774786 11.325283139884284 0 0 0
657 219 1 0.5897 -0.18907353236898672 -6.946951751109089 11.883982833314649 0 0 0
795 265 1 0.5897 -3.085442399805096 -5.657701542176173 15.355756905791242 0 0 0
794 265 1 0.5897 -1.9365479391257576 -5.535656570508386 16.33390421232488 0 0 0
668 223 1 0.5897 -2.809868066352827 -3.315560981625299 12.326648308708876 0 0 0
699 233 1 0.5897 -0.6099467797560418 -4.715851990788877 12.17646679309997 0 0 0
697 233 2 -1.1794 -1.181694534662336 -4.778024174868644 12.941559108794518 0 0 0
816 272 1 0.5897 0.597945179775687 -4.241544911484915 15.475539732546375 0 0 0
677 226 1 0.5897 -2.654398647716672 -5.988708696207459 12.769113108676912 0 0 0
676 226 2 -1.1794 -3.188084238632909 -6.782289075738744 12.80841381523032 0 0 0
804 268 1 0.5897 -1.6420353280807998 -2.7071239547614905 14.913626235710908 0 0 0
793 265 2 -1.1794 -2.391457002171032 -6.166017922693715 15.775493903783977 0 0 0
720 240 1 0.5897 -0.6636676346638986 -6.905360681725288 14.28214785775156 0 0 0
718 240 2 -1.1794 0.19437314270880535 -7.124045040963322 13.918785818925077 0 0 0
803 268 1 0.5897 -3.1422340953695294 -2.909330024082097 14.913757088543608 0 0 0