LAMMPS data file via write_data, version 30 Jul 2021, timestep = 1000000

1008 atoms
2 atom types
672 bonds
1 bond types
336 angles
1 angle types

-3.1557677475466974 14.765766747097246 xlo xhi
-0.2000605841723786 22.780059584172207 ylo yhi
-0.05805523506183441 19.28805323506134 zlo zhi
-0.15020243763330832 -6.453534278954153 -0.11997790656782437 xy xz yz

Masses

1 1.008
2 15.999

Pair Coeffs # lj/cut/tip4p/long/omp

1 0 0
2 0.21084 3.1668

Bond Coeffs # harmonic/omp

1 450 0.9572

Angle Coeffs # harmonic/omp

1 55 104.52

Atoms # full

21 7 1 0.5897 0.9516116865013258 2.162020546108047 0.9055640457194197 0 0 0
31 11 2 -1.1794 1.4747159903591491 0.9558620544977725 2.4234711929175488 0 0 0
32 11 1 0.5897 1.3925932014346625 1.4465360829804779 3.2412190224867365 0 0 0
55 19 2 -1.1794 -0.6666929373757324 4.20320448842925 3.4407271874444 0 0 0
56 19 1 0.5897 -1.1320029476551237 3.5716077004788236 2.892115034600175 0 0 0
57 19 1 0.5897 0.10104561814312962 4.449566306879061 2.9248968273220752 0 0 0
86 29 1 0.5897 -2.4629746010646714 1.2717580286391423 4.268806321173966 1 0 0
121 41 2 -1.1794 -2.450246231986792 2.2385412176849284 2.6159165561351023 1 0 0
122 41 1 0.5897 -2.473531549747684 1.8484073629288047 1.7421482484097541 1 0 0
46 16 2 -1.1794 1.719103484227416 4.688737319120193 2.2953602732022604 0 0 0
123 41 1 0.5897 -3.1966934629898094 2.837497334869289 2.6312915962956938 1 0 0
526 176 2 -1.1794 3.936696916114016 2.6321988230240048 0.24626726177192348 0 0 1
101 34 1 0.5897 -2.5259959317516003 4.4757141590879375 0.05586477607631543 1 0 0
52 18 2 -1.1794 4.3354554000116785 3.353875684858576 3.33581647546257 0 0 0
33 11 1 0.5897 0.7047729746873168 0.38725842671993205 2.406224847181833 0 0 0
602 201 1 0.5897 -0.5597642051709717 5.192253487212069 0.4836927672124216 1 0 1
527 176 1 0.5897 4.114475198241889 1.7524979384250858 0.5790892565537208 0 0 1
70 24 2 -1.1794 3.8904127538112494 0.21967071408284528 1.4031903253038454 0 0 0
6 2 1 0.5897 3.5946552272465864 1.4880984068456016 4.451736229642606 0 0 0
54 18 1 0.5897 3.668220335859198 3.602422761989917 2.6961695637349545 0 0 0
482 161 1 0.5897 -1.300981654404082 -0.05765278518745112 1.073886422593429 1 1 0
78 26 1 0.5897 0.2111697730183293 2.7832936652569304 4.475990841976858 0 0 0
71 24 1 0.5897 3.133961735854186 0.38630135435285406 1.9654652321635226 0 0 0
19 7 2 -1.1794 1.2056237702014574 2.5005103356128173 0.04707536103201669 0 0 0
47 16 1 0.5897 1.7063291302507384 5.247073823924753 1.5180679454365644 0 0 0
76 26 2 -1.1794 0.9561493407626376 2.2600369852083166 4.771523462260148 0 0 0
48 16 1 0.5897 2.131993899359915 5.227113312762253 2.970671104028624 0 0 0
18 6 1 0.5897 5.2586605327374585 3.8924663358720224 0.2591739149027811 0 0 0
163 55 2 -1.1794 -2.3021620381091727 0.8140294827207053 -0.013484682701912713 1 0 0
158 53 1 0.5897 -3.864763651357037 4.3276730569286626 4.721197480998478 1 0 0
528 176 1 0.5897 2.987116724925264 2.728635726193332 0.31844487914249703 0 0 1
68 23 1 0.5897 -3.0596350421282397 -0.05199243731192993 8.074828709453165 0 0 0
669 223 1 0.5897 -4.8325117921931335 1.4217225494152346 8.930540313304544 1 0 0
97 33 2 -1.1794 -4.254071052690702 4.654453083406506 9.395154837756321 1 0 0
34 12 2 -1.1794 0.19250896013079322 1.3599740583661262 7.401777609081992 0 0 0
35 12 1 0.5897 0.3069267948916896 1.8903385467441276 8.190378199951553 0 0 0
36 12 1 0.5897 -0.6679477681119503 0.9541652628382038 7.508020651597937 0 0 0
43 15 2 -1.1794 0.004040892614050051 5.056145389477097 7.019045087131651 0 0 0
157 53 2 -1.1794 -3.2874477433196647 4.893917385042555 5.2335326775291895 1 0 0
124 42 2 -1.1794 -4.603818968079455 1.948462608980389 7.1974717190654305 1 0 0
58 20 2 -1.1794 2.2974135710153263 4.2231118857256735 6.124536704674739 0 0 0
59 20 1 0.5897 2.002938065700069 3.582670869682836 5.4768650074183265 0 0 0
159 53 1 0.5897 -2.9496359136865813 4.327464847744581 5.92715388367139 1 0 0
69 23 1 0.5897 -2.5150447824562705 1.08023679200512 8.919667941176455 0 0 0
126 42 1 0.5897 -3.7011452002636327 2.1918619288837924 6.992014556029065 1 0 0
67 23 2 -1.1794 -2.2446048768013034 0.30464612674662306 8.428143377743968 0 0 0
134 45 1 0.5897 -1.7046974227994882 2.5316660301094593 6.151219582172476 1 0 0
125 42 1 0.5897 -5.118812940262208 2.722379369445013 6.969392516439329 1 0 0
401 134 1 0.5897 2.5083376018510792 -0.03437896430521947 9.040760119070418 0 1 0
135 45 1 0.5897 -1.4154110610457655 3.9030885104623616 6.723874764556081 1 0 0
60 20 1 0.5897 2.9840667601003226 3.7706724303462233 6.61435289191371 0 0 0
45 15 1 0.5897 0.8616696983277619 4.63400588475441 6.969750991358964 0 0 0
133 45 2 -1.1794 -1.9806891803406979 3.1389367841846414 6.837721600140511 1 0 0
77 26 1 0.5897 0.7462401613081342 2.0340004016067867 5.677565502594839 0 0 0
98 33 1 0.5897 -4.2639924105588864 5.093693967760562 8.54483509650441 1 0 0
44 15 1 0.5897 -0.10850888703830819 5.2632578836989055 7.946709410202688 0 0 0
4 2 2 -1.1794 4.05548852396038 0.7727408299484331 4.88995853111648 0 0 0
522 174 1 0.5897 2.125473934719622 5.377665098077396 9.163456898940591 0 0 0
87 29 1 0.5897 -3.0964166816922813 0.3510365479750325 5.290006967497507 1 0 0
402 134 1 0.5897 1.425061988743761 -0.2101947352533292 7.997946741138904 0 1 0
85 29 2 -1.1794 -2.2782880278057602 0.8025722757122138 5.0823413636446455 1 0 0
606 202 1 0.5897 -6.113492036526862 4.606243201852457 9.578697519371774 1 0 0
5 2 1 0.5897 3.4399584580297233 0.03996038958910958 4.865350225414621 0 0 0
23 8 1 0.5897 0.5501042428650971 2.1338759232365323 10.524246600972571 0 0 0
626 209 1 0.5897 -5.552348017956897 1.3492929988442897 13.170229433456255 1 0 0
668 223 1 0.5897 -5.3852178825850014 1.5733301968319229 10.331640255821561 1 0 0
557 186 1 0.5897 -0.2336894512969332 2.6679922412340686 13.491423704587874 0 0 0
986 329 1 0.5897 -4.162815671466355 -0.2613466871101926 10.602839787682155 1 1 0
627 209 1 0.5897 -6.365731919694661 2.4289516848501784 12.488755842720428 1 0 0
574 192 2 -1.1794 0.595950036559513 0.628661308425693 11.576621583809484 0 0 0
552 184 1 0.5897 -2.429992362798898 4.638704201844799 12.29534695211357 0 0 0
535 179 2 -1.1794 -1.9803226388976443 0.8409682918423338 12.453522491434795 0 0 0
536 179 1 0.5897 -2.082925994756536 1.290627518752893 13.29223606245288 0 0 0
537 179 1 0.5897 -2.077265668700103 1.5313945425102653 11.797739115018532 0 0 0
99 33 1 0.5897 -3.7457107339639357 5.236599011637923 9.960003913479973 1 0 0
550 184 2 -1.1794 -1.5474295157581333 4.921073103253519 12.055275693805777 0 0 0
561 187 1 0.5897 -3.2901535511686157 3.56036795744669 13.593348804772598 0 0 0
556 186 2 -1.1794 0.4258183740789532 3.3262548205662887 13.27204579305232 0 0 0
576 192 1 0.5897 -0.2824974552237931 0.5608280389520998 11.950693249307262 0 0 0
558 186 1 0.5897 -0.026467650381126973 3.933088720899093 12.68611209075328 0 0 0
559 187 2 -1.1794 -3.9403086844437936 4.105255562666686 13.150026897112987 0 0 0
560 187 1 0.5897 -4.604327762185784 3.486613162088035 12.845377616176672 0 0 0
667 223 2 -1.1794 -5.100026762050587 0.9154609324137173 9.6975248798948 1 0 0
625 209 2 -1.1794 -5.519440423671956 1.9831705343598043 12.453808820556993 1 0 0
587 196 1 0.5897 -0.9589917049105448 5.4367666318467816 10.26528343278424 0 0 0
523 175 2 -1.1794 -2.5732477295567686 2.5142103294342113 10.16190088385819 0 0 0
551 184 1 0.5897 -1.2404565062456436 5.419625909944735 12.812595161942264 0 0 0
662 221 1 0.5897 -7.4992501980167745 4.424531636883796 14.203807038739418 1 0 0
575 192 1 0.5897 1.130571543215579 0.04209209943513714 12.111641464925873 0 0 0
525 175 1 0.5897 -1.697898457130326 2.5400058309305673 9.775531071893292 0 0 0
524 175 1 0.5897 -3.050537660536453 3.2176530096632607 9.722006326137477 0 0 0
24 8 1 0.5897 1.0815272607009696 3.3375277888550996 9.775393411489258 0 0 0
22 8 2 -1.1794 0.3548256923021591 2.714549800499886 9.788855392044947 0 0 0
520 174 2 -1.1794 2.2941544840214174 4.619644955186389 9.723038298439912 0 0 0
563 188 1 0.5897 -0.7284635253419225 4.959674344699898 15.77235610707882 0 0 0
547 183 2 -1.1794 -3.623221686538723 4.747927716548873 17.232472470162563 0 0 0
20 7 1 0.5897 -5.395964291883851 1.6491743500283602 18.793551685063356 0 0 -1
628 210 2 -1.1794 -8.044291679705992 2.1598320006266385 17.074358413739347 1 0 0
639 213 1 0.5897 -5.846327705022732 3.7699912222540326 15.52145921126601 1 0 0
581 194 1 0.5897 -2.9210730588582816 2.0052811949829077 15.175062182867062 0 0 0
661 221 2 -1.1794 -7.059564053681903 5.191997157970686 14.570062947519054 1 0 0
164 55 1 0.5897 -8.652608470804669 1.2380164019545334 18.551857902445803 1 0 -1
538 180 2 -1.1794 -2.792801665884566 1.0914096652945098 17.067062853192567 0 0 0
539 180 1 0.5897 -2.7573607973348 1.7720942441833538 17.739167251872573 0 0 0
540 180 1 0.5897 -3.5240091124776516 0.5322668614728201 17.329799552199106 0 0 0
629 210 1 0.5897 -8.570947315421215 2.95841431267232 17.041154039536558 1 0 0
638 213 1 0.5897 -6.3888423271535215 2.718972452739783 16.466404371976495 1 0 0
549 183 1 0.5897 -4.24232476271155 4.048728696549446 17.02214407027443 0 0 0
562 188 2 -1.1794 -0.9053236327619469 4.1481770831371 16.2482291993435 0 0 0
630 210 1 0.5897 -8.26383075000339 1.6937475222375271 16.26759992466451 1 0 0
564 188 1 0.5897 -1.6839952821388309 4.3410252379088865 16.770348989038126 0 0 0
548 183 1 0.5897 -3.7249229051946378 5.380536881758002 16.521422740105216 0 0 0
571 191 2 -1.1794 -5.33385502762615 0.0830754085054739 17.935693566200968 0 0 0
603 201 1 0.5897 -6.431998985476021 3.8654026259480103 19.124453869933177 1 0 0
582 194 1 0.5897 -1.7423670330314414 2.9552920322513785 15.154036225818786 0 0 0
637 213 2 -1.1794 -5.579392637721362 3.0210216567516164 16.05432669767236 1 0 0
601 201 2 -1.1794 -7.127535839277536 4.519469991961928 19.05671889083908 1 0 0
580 194 2 -1.1794 -2.3566953163190103 2.4982052250413282 14.579527689478557 0 0 0
589 197 2 -1.1794 -5.805029367112375 0.2759277282870431 14.69463397258063 1 0 0
590 197 1 0.5897 -5.567154958977444 0.8994044867409299 15.380963924192564 1 0 0
165 55 1 0.5897 -9.36131874093525 0.0025497057648829757 19.065211693885033 1 0 -1
593 198 1 0.5897 -7.718671524627764 0.30141406107173674 14.868120236834011 1 0 0
289 97 2 -1.1794 -2.4022915771704314 10.167810071434396 2.3654823969700156 1 0 0
145 49 2 -1.1794 -0.8338645122603592 7.210777839135651 1.5211137755506057 1 0 0
147 49 1 0.5897 -1.1483539325148437 7.762001778827108 0.8046239541164415 1 0 0
255 85 1 0.5897 -2.0099219643660318 8.967406093543774 3.740101581172318 1 0 0
146 49 1 0.5897 -1.6165361107288572 7.019034248091103 2.0376902009771656 1 0 0
332 111 1 0.5897 -2.3112796659054538 9.51444640298121 0.6835599017049144 1 0 0
221 74 1 0.5897 4.527519347665305 10.238179399888498 2.9240691203475353 0 0 0
112 38 2 -1.1794 -3.1138140143472057 6.435271217227319 2.6568180341804806 1 0 0
113 38 1 0.5897 -2.969772848773526 6.1133936514896945 3.546609597804503 1 0 0
239 80 1 0.5897 3.911407323838313 8.742274526227934 1.2342641615571033 0 0 0
290 97 1 0.5897 -1.8555256564252005 10.88895196218618 2.67767492776394 1 0 0
188 63 1 0.5897 0.6234060644167472 9.863576188191807 0.8341184438708431 0 0 0
200 67 1 0.5897 0.5189191929869597 8.10842809447646 2.0040942693903308 0 0 0
245 82 1 0.5897 0.9596099670867879 9.809071360169662 3.8899734169623197 0 0 0
201 67 1 0.5897 1.9783518729039056 8.44950447038503 2.2181616990740736 0 0 0
199 67 2 -1.1794 1.1082416331985403 8.845052605305433 2.1670442087715935 0 0 0
174 58 1 0.5897 3.776729858596564 9.114356447187728 4.642012060766817 0 0 0
238 80 2 -1.1794 3.7184740553415 7.922890460095456 1.6899661090731455 0 0 0
291 97 1 0.5897 -3.26544726631019 10.340992816868484 2.7411541735102523 1 0 0
82 28 2 -1.1794 2.0356750929101013 6.403423968890735 0.11043293165264487 0 0 0
694 232 2 -1.1794 3.49592407986806 10.391396206078419 0.01050936519674732 0 0 1
12 4 1 0.5897 1.509707487544663 6.561018854593125 4.512629990449181 0 0 0
7 3 2 -1.1794 -0.26200541831439317 6.650925115088904 4.774478423722862 0 0 0
240 80 1 0.5897 3.1629968280275387 7.434922539886574 1.0819192125303507 0 0 0
10 4 2 -1.1794 2.43622531440246 6.42080994381973 4.31746538234888 0 0 0
220 74 2 -1.1794 3.7023341467416158 10.424403711559492 3.3718844369850243 0 0 0
9 3 1 0.5897 -0.4624286385242402 5.82787265260381 4.328566258890891 0 0 0
696 232 1 0.5897 4.202564653246134 11.019608710072216 0.1603734026528668 0 0 1
222 74 1 0.5897 3.2066044410984 10.956924466616597 2.7499648097082767 0 0 0
114 38 1 0.5897 -3.3153257322806686 5.650263072975014 2.147334698592183 1 0 0
253 85 2 -1.1794 -2.139628246714774 8.565797724410771 4.59916174841429 1 0 0
244 82 2 -1.1794 0.6858060459965656 10.370366647902676 4.615369167974018 0 0 0
254 85 1 0.5897 -1.520072416109234 7.836453640759743 4.619133619848758 1 0 0
187 63 2 -1.1794 0.5217001416199767 10.401316201788534 0.048908819971516956 0 0 0
66 22 1 0.5897 3.1414228642238076 6.6826775232225915 7.555984312349758 0 0 0
692 231 1 0.5897 -1.4012464066927124 10.336674053584336 9.36160154894867 0 0 0
191 64 1 0.5897 0.4354407727922047 9.749533353506886 8.537826653046352 0 0 0
111 37 1 0.5897 -5.056977409544965 6.53974745682349 7.1289916938944495 1 0 0
8 3 1 0.5897 -0.22843089111091608 6.419055148044108 5.702483437579759 0 0 0
301 101 2 -1.1794 -2.5878648499448627 10.70923590571813 6.316131811918826 1 0 0
246 82 1 0.5897 0.6301490559963523 9.780627083979166 5.367197754414864 0 0 0
11 4 1 0.5897 2.6826071604095176 5.666289821797973 4.852379210881225 0 0 0
65 22 1 0.5897 2.6816670611864364 7.613635269835827 8.657717341706462 0 0 0
109 37 2 -1.1794 -4.101750095091359 6.595204148462744 7.155796115016948 1 0 0
64 22 2 -1.1794 2.3724233919326307 6.921206663465642 8.07350535744449 0 0 0
294 98 1 0.5897 -5.0846815861243515 9.672145946058347 8.122722931353078 1 0 0
293 98 1 0.5897 -4.026854869926114 10.277190122045846 7.224510057273242 1 0 0
202 68 2 -1.1794 0.4029317188287953 8.730403568196527 7.027072020559545 0 0 0
203 68 1 0.5897 -0.3914491909920592 8.259281785501692 7.278615031124729 0 0 0
204 68 1 0.5897 1.090494630167255 8.064612830722135 7.038464089221523 0 0 0
190 64 2 -1.1794 0.34264166262671836 10.073138521510337 9.433841218796701 0 0 0
235 79 2 -1.1794 -1.8737258700973731 7.754596387995797 8.31857311172793 0 0 0
236 79 1 0.5897 -2.6111627287913204 7.462676675360688 7.782556595303441 0 0 0
237 79 1 0.5897 -2.153344266910042 8.599023132267623 8.672208154177879 0 0 0
302 101 1 0.5897 -2.18013385594181 10.115463665655376 5.685765838131242 1 0 0
303 101 1 0.5897 -1.8520049574547213 11.146175669736989 6.745034606310536 1 0 0
292 98 2 -1.1794 -4.974697932837169 10.188081322436279 7.3240755843836585 1 0 0
588 196 1 0.5897 -1.0916679039976924 6.551868794251129 9.250104976291363 0 0 0
258 86 1 0.5897 -4.82015729343528 9.373723848397798 5.7807062877035715 1 0 0
837 279 1 0.5897 -6.009698692168213 8.08548415348767 9.522918246688903 1 0 0
110 37 1 0.5897 -3.8124421028730726 6.132450623380075 6.3694474727367965 1 0 0
257 86 1 0.5897 -3.7871541418347108 8.632257065559976 4.959257492994499 1 0 0
228 76 1 0.5897 1.9805027241769713 11.104862977586517 5.665768346742062 0 0 0
192 64 1 0.5897 0.8743938561872024 10.868821093947721 9.458075645006307 0 0 0
256 86 2 -1.1794 -4.7127822606127605 8.875698831760456 4.970367380879095 1 0 0
691 231 2 -1.1794 -2.3196138379005213 10.144881935204328 9.551577067154067 0 0 0
586 196 2 -1.1794 -0.4796095793189621 5.89003489554918 9.571817978545994 0 0 0
173 58 1 0.5897 3.516613919704647 7.672573946582602 5.0237458427302135 0 0 0
618 206 1 0.5897 -6.399420631375659 5.7137220334783985 11.712644620375249 1 0 0
693 231 1 0.5897 -2.3138811525621654 9.806762327404957 10.446965301804818 0 0 0
678 226 1 0.5897 0.802033040618892 8.84440094357931 13.737543394272352 0 0 0
616 206 2 -1.1794 -6.386622059318579 6.488957693463489 12.274075783827936 1 0 0
514 172 2 -1.1794 -0.7913027499755731 6.238770586731296 14.336208848101567 0 0 0
724 242 2 -1.1794 0.39740725524591536 10.431296685832958 12.991129056500439 0 0 0
795 265 1 0.5897 -6.2069646777419045 9.456139390418159 11.376017262783042 1 0 0
836 279 1 0.5897 -4.695399999524479 8.477334254338068 10.164179840610817 1 0 0
649 217 2 -1.1794 -3.9383649715753495 6.861963710536213 10.970730662522124 1 0 0
650 217 1 0.5897 -3.1768937421665515 7.362581656209159 11.26393122111628 1 0 0
651 217 1 0.5897 -4.51407054540177 6.831243281945783 11.734753863601622 1 0 0
793 265 2 -1.1794 -6.407698441056397 9.648994567037132 12.291787434283485 1 0 0
743 248 1 0.5897 0.4905840098753744 8.529917074314021 10.784027499473638 0 0 0
744 248 1 0.5897 0.2669317480076585 7.032661143437812 10.761252165120988 0 0 0
794 265 1 0.5897 -5.799109104265344 10.348970546560793 12.52870095940971 1 0 0
663 221 1 0.5897 -6.6576275407786625 5.621521369231748 13.81501359873187 1 0 0
703 235 2 -1.1794 -2.108773071614429 8.666152526544703 11.844132854370542 0 0 0
704 235 1 0.5897 -1.178208502704984 8.466375627558822 11.7426073171267 0 0 0
705 235 1 0.5897 -2.1811973258783253 9.029893448722907 12.726536549072458 0 0 0
759 253 1 0.5897 -5.973014895862233 8.739975206996856 13.757139960787999 1 0 0
742 248 2 -1.1794 0.5621346867050541 7.745513289113205 11.32788691606245 0 0 0
750 250 1 0.5897 -3.1745288947326715 10.212559994164582 14.091565804966844 0 0 0
835 279 2 -1.1794 -5.456687675501016 8.843219819310223 9.713942401467845 1 0 0
725 242 1 0.5897 0.6761900440317499 11.095872757181986 13.62121711241767 0 0 0
513 171 1 0.5897 -3.9751209039871083 5.793596080676231 14.129787145839137 0 0 0
516 172 1 0.5897 -0.04455698672964736 6.830160448865646 14.241156274953413 0 0 0
748 250 2 -1.1794 -2.416914926822069 9.673332730150866 14.3183024719416 0 0 0
617 206 1 0.5897 -7.206931921991013 6.941201977794414 12.077447382220958 1 0 0
726 242 1 0.5897 -0.2840132517467522 10.861293847010655 12.474526166496574 0 0 0
515 172 1 0.5897 -1.5543570597204006 6.816407154849117 14.351690374946491 0 0 0
333 111 1 0.5897 -8.401479340687501 9.538301156036173 18.5671980738315 1 0 -1
613 205 2 -1.1794 -7.225824087676128 6.333083508075092 16.99008417169472 1 0 0
615 205 1 0.5897 -6.868162150504784 5.900161739016142 16.214965507120816 1 0 0
741 247 1 0.5897 -5.7748299012476 8.874248740874386 18.384623435620597 0 0 0
569 190 1 0.5897 -0.7646966956400565 6.163427189223633 18.737318043285782 0 0 0
695 232 1 0.5897 -2.8366508410327 9.985511941286052 18.45120659184051 0 0 0
568 190 2 -1.1794 -0.7361500996155685 6.944378992418892 18.184583140599933 0 0 0
805 269 2 -1.1794 -5.421399527029169 10.88649972480036 15.85660656625055 1 0 0
757 253 2 -1.1794 -5.659687006740597 8.471275824653956 14.620687802621378 1 0 0
797 266 1 0.5897 -7.022178482386791 10.314356829434587 16.689507492697878 1 0 0
758 253 1 0.5897 -5.484691752440608 9.293319914258392 15.078991355647094 1 0 0
740 247 1 0.5897 -6.190453067120231 7.579359437143925 17.71909949207342 0 0 0
762 254 1 0.5897 -7.53162547029096 7.913455158166924 15.134900473380345 1 0 0
798 266 1 0.5897 -8.159888563698608 9.413550148978887 16.25759044762337 1 0 0
570 190 1 0.5897 -0.1727729292865119 6.698550109124317 17.45089628307869 0 0 0
706 236 2 -1.1794 -2.6021937804550452 8.819167173793732 17.094955140535887 0 0 0
707 236 1 0.5897 -3.4921125968989317 8.539340819442419 17.3094452130848 0 0 0
708 236 1 0.5897 -2.0426049601120475 8.121306808415964 17.435532657496566 0 0 0
796 266 2 -1.1794 -7.940375168085419 10.114373911743389 16.871635948619648 1 0 0
749 250 1 0.5897 -2.7117246441367584 9.145029676932445 15.059980235366627 0 0 0
739 247 2 -1.1794 -5.434464274946112 8.149465884437852 17.860145528647394 0 0 0
83 28 1 0.5897 -4.889493919954395 6.960694160593542 18.97173005376255 0 0 -1
512 171 1 0.5897 -4.521082321434919 7.135089579100378 14.570634336533592 0 0 0
511 171 2 -1.1794 -3.7837063791662287 6.538609094476755 14.699625782639519 0 0 0
84 28 1 0.5897 -4.045063158935828 5.719010295277971 18.779314453053736 0 0 -1
614 205 1 0.5897 -7.07046372154808 5.714310218829287 17.703597694168884 1 0 0
731 244 1 0.5897 -1.3947785841991216 11.020993697082009 15.289044550840822 0 0 0
331 111 2 -1.1794 -8.635719568614078 8.887028382886585 19.228381795865232 1 0 -1
189 63 1 0.5897 -5.035959254222769 10.467871449510598 19.11418452717333 0 0 -1
280 94 2 -1.1794 -3.4985479889318984 13.767835945413774 2.371834035882826 1 0 0
281 94 1 0.5897 -3.4560741911443724 13.452590543620015 3.274538058785985 1 0 0
282 94 1 0.5897 -2.7512378626733898 14.360367957303687 2.289173674872486 1 0 0
223 75 2 -1.1794 -0.8191818704932006 11.98483906963078 3.110555864649623 0 0 0
771 257 1 0.5897 -0.749548534178103 11.743177493010526 0.01134321633101798 1 0 1
367 123 2 -1.1794 1.2134725139765088 16.645410873596425 3.0096597619224585 0 0 0
500 167 1 0.5897 -1.92819262723414 16.154380421643104 0.18111947038498602 1 0 0
180 60 1 0.5897 2.2896690198454603 13.53464043481509 3.7924723198016084 0 0 0
423 141 1 0.5897 -2.1378754810130163 16.55575662229967 4.1976630978504375 1 0 0
315 105 1 0.5897 -0.9370748529055808 14.19152479521282 1.2385049987613739 1 0 0
216 72 1 0.5897 1.0838680327313703 12.19481687318876 2.5160901329510836 0 0 0
313 105 2 -1.1794 -0.9522570464320448 15.056517745345646 1.648297927572832 1 0 0
225 75 1 0.5897 -1.0269330177519516 12.76072171691659 3.6312587517106736 0 0 0
215 72 1 0.5897 2.161875957953483 12.807455052648999 1.647525707978514 0 0 0
214 72 2 -1.1794 2.023050066878964 12.378110397075693 2.4916200007862903 0 0 0
314 105 1 0.5897 -0.08604014701998475 15.149576844377016 2.0449007283664793 1 0 0
250 84 2 -1.1794 1.9798013741245803 13.726324284477375 0.19164962707969452 0 0 0
407 136 1 0.5897 4.39713726627586 15.015903260833229 1.9254440121910081 0 0 0
406 136 2 -1.1794 3.535681824733139 15.395533563075455 1.7524014850556504 0 0 0
408 136 1 0.5897 3.7119493614804195 16.135768959720714 1.171710319960807 0 0 0
368 123 1 0.5897 2.102464812892906 16.363142724774825 2.794769762542527 0 0 0
178 60 2 -1.1794 2.2072551824089572 14.129585763594406 4.5378048377617795 0 0 0
252 84 1 0.5897 2.5687418234907273 14.360718226393184 0.6004852332676465 0 0 0
369 123 1 0.5897 1.278575840398278 16.984388967519017 3.9024352441649386 0 0 0
224 75 1 0.5897 -0.21762258237059573 11.481704977707526 3.65920142414625 0 0 0
184 62 2 -1.1794 5.474043912221235 12.414792976327854 0.3221493569145743 0 0 0
341 114 1 0.5897 3.012203812283153 15.654837474169346 4.749580808513464 0 0 0
425 142 1 0.5897 -4.296669292584397 16.106456322620183 4.55694763033543 1 0 0
176 59 1 0.5897 -0.9431160061268153 14.796112129075633 5.065004929696137 0 0 0
462 154 1 0.5897 -5.176535524465521 16.844585479948954 6.6948510117977245 1 0 0
421 141 2 -1.1794 -2.315270935290724 16.104405263607703 5.022842746346422 1 0 0
327 109 1 0.5897 -4.050067731447545 13.17019424245133 5.580141728202209 1 0 0
1004 335 1 0.5897 -5.703725047963262 16.523853860088636 9.07941150761725 1 0 0
211 71 2 -1.1794 -0.29926287440273436 12.343346652572093 7.11348064542277 0 0 0
212 71 1 0.5897 -0.6275337882080971 12.867527198437111 7.844008053821678 0 0 0
213 71 1 0.5897 -0.4730538495833714 12.876981268801845 6.338153127549776 0 0 0
179 60 1 0.5897 2.555575218294555 13.634793834246068 5.279388993215802 0 0 0
325 109 2 -1.1794 -3.6277517516359445 12.660771849895383 4.888534939628391 1 0 0
232 78 2 -1.1794 1.8497150171428904 14.688928543496639 8.676150011980821 0 0 0
405 135 1 0.5897 -2.837081852460847 16.251227332229313 9.107876441748719 0 0 0
234 78 1 0.5897 1.2048265213064484 14.891862612168515 7.998606413963184 0 0 0
266 89 1 0.5897 -3.273661165892958 11.577833561806873 9.386303977809858 1 0 0
267 89 1 0.5897 -3.91863914598971 12.453155427029271 8.33301688100278 1 0 0
277 93 2 -1.1794 -4.560891494795848 13.918248132188648 7.157379668994111 1 0 0
278 93 1 0.5897 -4.001023663956877 14.504018762247583 7.667136630372821 1 0 0
403 135 2 -1.1794 -2.6451109852905823 15.670835464160946 8.371311271786878 0 0 0
175 59 2 -1.1794 -0.5619333145549192 13.9244840748439 4.9592195519567515 0 0 0
370 124 2 -1.1794 -0.1318122656005829 16.460912592135394 7.405324224210423 0 0 0
233 78 1 0.5897 2.6943674937778876 14.753312478034081 8.230591938953573 0 0 0
404 135 1 0.5897 -2.009116301148758 16.154545853573232 7.84427835777144 0 0 0
227 76 1 0.5897 1.774834034110354 11.736882346204633 7.025904916945993 0 0 0
177 59 1 0.5897 0.3672847268383528 14.087152558794799 4.796859060535336 0 0 0
226 76 2 -1.1794 2.4397893811753946 11.585874842405794 6.3542530118619505 0 0 0
279 93 1 0.5897 -5.451148290760052 14.138184023346955 7.431675861874403 1 0 0
756 252 1 0.5897 -1.5695241720743782 14.533307826043595 9.15593038417273 0 0 0
326 109 1 0.5897 -3.2063418556752508 11.934758866003975 5.348405799705114 1 0 0
265 89 2 -1.1794 -3.8973023274147196 12.29565537548506 9.276851029831688 1 0 0
690 230 1 0.5897 1.956864034578695 13.016355690428476 9.312215332054045 0 0 0
422 141 1 0.5897 -2.0572281878609884 16.730803099328163 5.699165196230829 1 0 0
340 114 2 -1.1794 3.50402146508827 16.343155993029775 5.197677155764865 0 0 0
754 252 2 -1.1794 -1.132730576708128 13.794894622581323 9.580328442642685 0 0 0
910 304 2 -1.1794 0.18691326776569683 15.608797139397474 11.2994627945142 0 0 0
962 321 1 0.5897 -6.168501157167162 16.815048160663594 12.768439737811407 1 0 0
872 291 1 0.5897 -2.6509004736429658 16.87876964264899 11.586018772027542 0 0 0
718 240 2 -1.1794 -1.640910596110528 12.206582192227424 11.820245391118043 0 0 0
719 240 1 0.5897 -1.6548490615421878 12.604204108674754 10.949733464511386 0 0 0
720 240 1 0.5897 -1.4012192195289606 12.923428465151407 12.407641475805313 0 0 0
911 304 1 0.5897 -0.6174874383712394 15.724721184193582 11.805084112038577 0 0 0
873 291 1 0.5897 -2.8375772098592416 15.400717354125355 11.855749118526552 0 0 0
772 258 2 -1.1794 -6.630478680990781 12.007471292703231 10.165804465492789 1 0 0
871 291 2 -1.1794 -2.4774015977648283 16.20067800635421 12.238886026292104 0 0 0
729 243 1 0.5897 -4.0814191000940845 12.251726044056682 13.516410918517568 0 0 0
773 258 1 0.5897 -6.6286179605619555 12.617945840519015 10.903101186084445 1 0 0
680 227 1 0.5897 -2.9698305501795277 14.129818940995653 14.409482052429356 0 0 0
755 252 1 0.5897 -0.49568108012702883 14.19929866357883 10.169343735034785 0 0 0
784 262 2 -1.1794 -6.440770655464018 13.675118021259442 12.029984610925215 1 0 0
1005 335 1 0.5897 -5.009816132988693 15.736665654419316 10.170458304087298 1 0 0
786 262 1 0.5897 -6.547167067200274 13.359640490246905 12.927333352121202 1 0 0
817 273 2 -1.1794 -3.9394946478181887 14.415669944609133 10.968287326782468 1 0 0
818 273 1 0.5897 -4.710865116455407 14.104672925517596 11.442076236607072 1 0 0
819 273 1 0.5897 -3.77603141067596 13.742282682305506 10.30789945354259 1 0 0
684 228 1 0.5897 -0.3866463492206007 14.594507688962107 14.032680050893704 0 0 0
912 304 1 0.5897 0.6575125059110616 14.91017865030929 11.753998982359807 0 0 0
728 243 1 0.5897 -3.3539555073947533 11.628660239928902 12.344127484705421 0 0 0
727 243 2 -1.1794 -4.128091591516763 11.523329206282916 12.897068654542926 0 0 0
831 277 1 0.5897 -7.586823702572597 11.864299098085299 14.264460003369189 1 0 0
682 228 2 -1.1794 -1.0146075331073234 13.90199483510029 13.826419900603234 0 0 0
785 262 1 0.5897 -7.058600527599708 14.402486278062831 11.956483897136232 1 0 0
846 282 1 0.5897 -0.09631578269847019 16.703732828139145 14.302450817359903 0 0 0
1003 335 2 -1.1794 -5.846178535665526 16.144785603035295 9.94663401759772 1 0 0
683 228 1 0.5897 -0.8074932271160167 13.198970899241647 14.44205569948582 0 0 0
925 309 2 -1.1794 -5.660655255284789 15.991352686842431 14.431988962303079 1 0 0
774 258 1 0.5897 -5.719442490990421 11.981883752636667 9.873296002825157 1 0 0
688 230 2 -1.1794 2.0568305018943702 12.218130821605847 9.830902785788071 0 0 0
876 292 1 0.5897 -2.7421303583337506 15.389595466416784 16.953864909922927 0 0 0
681 227 1 0.5897 -3.694196991629286 13.459883128694678 15.5576049018114 0 0 0
907 303 2 -1.1794 -5.9647033690947415 15.35475381267072 17.96676262476192 0 0 0
874 292 2 -1.1794 -3.474025023414412 16.004159507286495 17.00687722008503 0 0 0
737 246 1 0.5897 -0.8077657698859495 14.908055696001524 18.274186360875333 0 0 0
730 244 2 -1.1794 -0.9424070943289431 11.663283297436584 15.83601873157492 0 0 0
908 303 1 0.5897 -6.44146127857274 14.82072627733627 17.33124384588239 0 0 0
783 261 1 0.5897 -8.710764251137975 13.767793043521339 16.810913137378115 1 0 0
715 239 2 -1.1794 -3.526878465777708 12.482562073846196 17.001453368731177 0 0 0
716 239 1 0.5897 -3.608718060467991 12.787797274694816 17.90494259917407 0 0 0
357 119 1 0.5897 -5.942789758595803 16.715775635123123 19.222515337862895 0 0 -1
875 292 1 0.5897 -3.309049194048515 16.634876121753592 16.30606097599322 0 0 0
930 310 1 0.5897 -7.500574724084951 15.801658155982865 14.457018954796993 1 0 0
732 244 1 0.5897 -0.17235307586202886 11.199128462193428 16.164212213321925 0 0 0
830 277 1 0.5897 -7.242587362734866 12.963015129803143 15.247624311473079 1 0 0
909 303 1 0.5897 -5.097673969283745 15.472832022588687 17.578777914907334 0 0 0
781 261 2 -1.1794 -7.761136674649164 13.777737012351096 16.691315607456794 1 0 0
782 261 1 0.5897 -7.417227880496354 13.330061114287243 17.464207486777752 1 0 0
736 246 2 -1.1794 -1.307177192741877 14.419708397107625 17.61962709931076 0 0 0
717 239 1 0.5897 -2.667729472776224 12.06203031180649 16.967124262891986 0 0 0
927 309 1 0.5897 -5.415092657453155 16.702457377253864 15.023948349098617 1 0 0
251 84 1 0.5897 -5.164459128745583 14.139269982019325 19.144024049264736 0 0 -1
806 269 1 0.5897 -5.895696078369886 11.55059356032526 15.356443814285099 1 0 0
185 62 1 0.5897 -1.0654753137764743 12.90487130065142 18.9357575952614 0 0 -1
807 269 1 0.5897 -4.667315597468222 11.351975762522136 16.218675203778467 1 0 0
844 282 2 -1.1794 0.18568789966829868 15.954966879179912 14.827793836271027 0 0 0
738 246 1 0.5897 -0.6820826762034295 14.256835988653007 16.91334034846477 0 0 0
499 167 2 -1.1794 -8.901104009122063 16.71318898257963 19.096362617131142 1 0 -1
965 322 1 0.5897 -8.002579029944217 16.81268429070459 16.17962161055908 1 0 0