LAMMPS data file via write_data, version 30 Jul 2021, timestep = 18750000

864 atoms
2 atom types
576 bonds
1 bond types
288 angles
1 angle types

0.6727001760509985 17.534872223947914 xlo xhi
1.8838832209722298 21.7452945790261 ylo yhi
0.8206926435385284 21.39250315646038 zlo zhi

Masses

1 1.00794
2 15.9994

Pair Coeffs # lj/cut/tip4p/long/omp

1 0 0
2 0.21084 3.1668

Bond Coeffs # harmonic/omp

1 450 0.9572

Angle Coeffs # harmonic/omp

1 55 104.52

Atoms # full

89 1 1 0.5897 2.029864286393215 4.492416013900524 1.5815927141915465 9 -4 0
514 1 2 -1.1794 2.024435963227597 2.478705605622389 4.779801184541195 -4 -3 2
90 1 1 0.5897 2.8508373687719026 4.515911165767588 2.8534257380006904 9 -4 0
648 1 1 0.5897 1.9959156978812083 2.252347312529074 1.5465413672104944 -3 -3 -3
814 1 2 -1.1794 2.714444896792518 5.28715320944059 4.422858740361347 -4 9 -7
88 1 2 -1.1794 2.848957647551956 4.172551501324461 1.9598915983487109 9 -4 0
515 1 1 0.5897 2.0465905998265344 3.184678439643076 4.133697885011177 -4 -3 2
816 1 1 0.5897 2.243751138157974 5.507538179311581 5.226706680977248 -4 9 -7
815 1 1 0.5897 3.6386155971234726 5.313457860096463 4.671000487897373 -4 9 -7
101 1 1 0.5897 4.68467661234946 6.542809906603362 2.749448382733219 10 -7 -4
642 1 1 0.5897 1.2242634144701916 5.992843688445692 7.688329070693942 5 3 -7
279 1 1 0.5897 3.1583164483039443 3.110306585264425 9.869783107437067 0 6 0
295 1 2 -1.1794 2.9086863756070738 3.630389107037545 7.113592682873628 1 3 2
630 1 1 0.5897 1.566635879795849 6.124359927779662 10.013611023911539 -4 -1 2
277 1 2 -1.1794 3.445479570571382 3.834823627182221 10.425580264101535 0 6 0
278 1 1 0.5897 4.200399515720404 4.204198587248891 9.967373689342303 0 6 0
641 1 1 0.5897 2.1025953516128846 4.825552868515202 8.08589304670123 5 3 -7
628 1 2 -1.1794 1.5869563769621087 6.4351399312799655 10.91877443961787 -4 -1 2
678 1 1 0.5897 1.509681591725534 3.9741250548392135 10.964095609639395 2 1 -3
297 1 1 0.5897 2.5319827054058113 3.3251858827906835 6.288203053121375 1 3 2
296 1 1 0.5897 3.8162560392194886 3.8454397490612546 6.898190199079674 1 3 2
521 1 1 0.5897 4.635275485425268 6.261807182100713 8.341733902867212 -5 1 -6
640 1 2 -1.1794 1.3468162901655227 5.337057535612942 8.37479436113468 5 3 -7
123 1 1 0.5897 3.256744387476659 1.9886191149827508 8.034406572812465 0 -3 -2
433 1 2 -1.1794 0.818517553545004 6.678935830736062 5.967329122913297 0 -2 0
202 1 2 -1.1794 2.4353216349647218 2.846558441491517 14.520548108848178 -1 0 5
204 1 1 0.5897 2.106246291589511 3.7391142372084922 14.413640057137732 -1 0 5
370 1 2 -1.1794 4.738966174130626 5.431029877833225 15.881565428033111 5 9 -2
311 1 1 0.5897 3.8811711802938547 4.752368297146834 13.460361727609572 4 3 5
667 1 2 -1.1794 2.2775311501022433 5.696784107314102 13.67068196805507 -7 -2 0
203 1 1 0.5897 3.034587154308338 2.7219698857500547 13.784556029390117 -1 0 5
312 1 1 0.5897 3.9524885254364137 4.064450682414566 12.113607747078593 4 3 5
310 1 2 -1.1794 4.442234192809796 4.189823897913659 12.926457654205807 4 3 5
669 1 1 0.5897 2.01261352032141 5.795194484564698 12.756113748013634 -7 -2 0
676 1 2 -1.1794 0.914357801886409 3.5854319809179387 11.605033049236512 2 1 -3
668 1 1 0.5897 2.2465918308088186 6.584933864373591 14.026395682865306 -7 -2 -1
677 1 1 0.5897 1.3815878993711947 2.816091989738716 11.930885549628734 2 1 -3
780 1 1 0.5897 4.586064815579447 2.085000215552142 15.037951865242324 -2 -1 1
629 1 1 0.5897 0.7138537674669188 6.2398331331785775 11.259210728902532 -4 -1 2
426 1 1 0.5897 2.3605070424423142 4.163237033497278 17.440026488954995 6 -5 6
519 1 1 0.5897 4.119730477951912 2.8160188578789684 17.851103544280296 -2 2 -8
424 1 2 -1.1794 2.202867961484035 3.2442179669094315 17.22354644377362 6 -4 6
4 1 2 -1.1794 2.1409564003698542 5.917980763272729 17.652665727332653 3 -3 -3
459 1 1 0.5897 3.6598252903157906 5.084718593042645 21.20363078348542 0 3 -6
24 1 1 0.5897 1.3313126505325459 2.076957852714152 18.223632057354017 -3 3 3
517 1 2 -1.1794 4.6164424042095575 3.004920082516738 18.647304645689555 -2 2 -8
518 1 1 0.5897 4.572457033068453 2.1948509490965944 19.15542730815496 -2 2 -8
6 1 1 0.5897 1.2187937078785254 5.952082518158134 17.39817187324288 3 -3 -3
457 1 2 -1.1794 4.061075778811978 5.304920107201296 20.36291500043425 0 3 -6
458 1 1 0.5897 4.10023544944422 4.473289194751037 19.89052661916459 0 3 -6
425 1 1 0.5897 2.3055678335759 3.2005796250354823 16.272836837422446 6 -4 6
5 1 1 0.5897 2.161221628511969 6.294657276668474 18.532452710497946 3 -3 -3
581 1 1 0.5897 1.57035091903947 6.760452509515129 20.328541148593 -9 -2 3
372 1 1 0.5897 4.851616162173351 5.776613379606241 16.767114414573385 5 9 -2
226 1 2 -1.1794 0.7479672694828849 5.552945063747669 21.25583785734172 1 -2 3
206 1 1 0.5897 4.260595569540541 8.62848680039123 5.172779111189013 -4 -2 0
178 1 2 -1.1794 3.802457532085539 7.844310695599812 1.39640114324858 -8 3 3
387 1 1 0.5897 2.37568806245878 10.343865616182867 2.3827784459478982 -6 -1 -3
844 1 2 -1.1794 2.7751546579018975 11.628010407507777 1.3079902849532172 1 -3 4
292 1 2 -1.1794 2.607426121348187 9.018034517760391 5.484903824043637 3 0 2
385 1 2 -1.1794 2.1183897556165707 9.540312964513205 2.8348950496221534 -6 -1 -3
386 1 1 0.5897 2.6466342983704703 8.854968370422416 2.4255525120594434 -6 -1 -3
293 1 1 0.5897 2.5676338768998064 9.447191662067905 4.630186220686854 3 0 2
332 1 1 0.5897 1.0973716520208203 11.344858495446381 5.719791014378154 2 3 1
179 1 1 0.5897 4.581090073530957 8.229393937706789 0.9942233640773485 -8 3 3
331 1 2 -1.1794 1.624048790794784 11.766580347073145 5.0407739594784 2 3 1
435 1 1 0.5897 1.4071290284411893 7.431458318707218 5.907762138176892 0 -2 0
465 1 1 0.5897 0.9795889403449316 9.614094589978658 1.1446492300286022 5 -5 -1
333 1 1 0.5897 1.0627402428047192 11.763873078133063 4.265381017442898 2 3 1
755 1 1 0.5897 3.4164285422985143 8.068464280547307 8.438665244252448 -4 -2 -7
756 1 1 0.5897 1.979932316994347 8.386477170556809 8.79560084900484 -4 -2 -7
754 1 2 -1.1794 2.848520477379849 8.782940068637203 8.727286237018983 -4 -2 -7
619 1 2 -1.1794 3.8962659996610913 10.719895482787702 7.058861268421163 4 -3 6
621 1 1 0.5897 3.659609402479407 10.153751655770527 7.793553882290725 4 -3 6
753 1 1 0.5897 3.199573856542667 9.863469952822925 10.004118560421869 6 -1 1
620 1 1 0.5897 4.812375992645203 10.508791593163345 6.878574098036154 4 -3 6
751 1 2 -1.1794 3.4195838093021482 10.568076732769825 10.613580721276199 6 -1 1
683 1 1 0.5897 1.7604700047416797 11.490846083942285 10.999603713053098 9 4 -2
520 1 2 -1.1794 4.3318930103029665 6.887761596106078 7.684110916407763 -5 1 -6
306 1 1 0.5897 4.664170571082392 7.739682330318587 11.068769117976876 -4 -3 -5
294 1 1 0.5897 2.8466021521298646 9.717069702944896 6.0935472734048375 3 0 2
265 1 2 -1.1794 3.086281266152366 7.996783473660262 15.881346407239835 -2 0 -1
344 1 1 0.5897 2.3652609731655163 10.582499272897076 13.286801287058166 -3 0 0
305 1 1 0.5897 3.3762368561604545 7.0411003499034805 11.449981060455434 -4 -3 -5
752 1 1 0.5897 4.005013372261077 10.15963984824611 11.25135744837848 6 -1 1
345 1 1 0.5897 3.535163679030927 10.781492179716036 14.226901367932916 -3 0 0
199 1 2 -1.1794 1.5550707024304065 8.894723301751593 12.994966118390508 3 -7 -2
200 1 1 0.5897 2.3429997153602073 8.516345658167776 12.60462185707495 3 -7 -2
343 1 2 -1.1794 2.9356289648280884 11.258436010445424 13.652985482661627 -3 0 0
266 1 1 0.5897 3.4872271317065007 7.1360346108524775 15.760266868057453 -2 0 -1
201 1 1 0.5897 0.8633493062660579 8.719780140923707 12.356821609104896 3 -7 -2
304 1 2 -1.1794 4.020121064337768 7.671177294612074 11.77363051975291 -4 -3 -5
270 1 1 0.5897 4.382440158391377 9.08068945058043 15.258208746553795 7 5 6
580 1 2 -1.1794 2.08893442984227 7.452743608448425 19.918529369330816 -9 -2 3
384 1 1 0.5897 4.397828565209899 9.164405539787797 19.125619913273 -9 -1 -2
382 1 2 -1.1794 4.211326749879048 9.33267751498017 18.201926226356168 -9 -1 -2
582 1 1 0.5897 1.6129856303357664 8.259044599062019 20.117651784768796 -9 -2 3
819 1 1 0.5897 2.5959707406402615 10.089543343225099 18.34564294017383 2 -1 0
464 1 1 0.5897 0.7817295018452478 10.355057246330686 20.411120731628817 5 -5 -2
818 1 1 0.5897 1.842818504509899 11.071296571562842 17.473169294055975 2 0 0
817 1 2 -1.1794 1.8263787091891466 10.658808004424579 18.3368302835371 2 0 0
463 1 2 -1.1794 0.7220600361802539 9.484047868705307 20.80373518976854 5 -5 -2
267 1 1 0.5897 2.7165365678963425 7.967320404992717 16.763797845561115 -2 0 -1
383 1 1 0.5897 4.833926714437639 10.01544757166988 17.951893338151777 -9 -1 -2
180 1 1 0.5897 3.277609989990464 7.536975265991895 21.229035315628316 -8 3 2
845 1 1 0.5897 3.5060721140922775 11.739108474889596 21.271761698972615 1 -3 3
790 1 2 -1.1794 2.3422584939966358 15.841439059566888 2.8481605240289536 5 1 -3
791 1 1 0.5897 2.265127639427982 15.505791943822535 3.741322325466543 5 1 -3
259 1 2 -1.1794 0.8941322966670994 13.526419469690817 1.1879482996699255 0 -6 8
688 1 2 -1.1794 3.9121617996023548 14.80856341245055 0.9845722892308213 0 -6 4
846 1 1 0.5897 2.225736211551911 12.39894255252795 1.1662252322792255 1 -3 4
410 1 1 0.5897 1.8205725834607376 13.579094616067147 5.283322586197928 6 -1 -4
689 1 1 0.5897 3.278043721164971 15.215010677641224 1.5753378242611642 0 -6 4
260 1 1 0.5897 0.8694733331453166 14.481143693497529 1.2526759656571897 0 -6 8
409 1 2 -1.1794 2.18088556651557 14.45173074949203 5.441365799906276 6 -1 -4
484 1 2 -1.1794 4.062164968758854 12.136419256545794 3.860642991982505 -5 6 5
486 1 1 0.5897 3.24329638521859 11.956527455744299 4.3226105416068465 -5 6 5
485 1 1 0.5897 3.789459383204844 12.391325037485053 2.9791805244084273 -5 6 5
411 1 1 0.5897 3.0451887583558084 14.289634345605906 5.819532177193511 6 -1 -4
193 1 2 -1.1794 2.336159745423264 14.701589465976328 9.620817454536837 3 -1 3
735 1 1 0.5897 1.2780827369586523 15.174996859386454 6.635619391741635 -2 0 -4
499 1 2 -1.1794 1.5181496264208665 12.33512149591422 8.378965310210804 4 -2 -5
501 1 1 0.5897 1.390900366093295 12.198402068086713 9.317804685870087 4 -2 -5
195 1 1 0.5897 1.7823381563842375 15.07624027030059 8.935794150287473 3 -1 3
272 1 1 0.5897 4.4966024062949295 13.404949819361711 9.759686380532901 -4 -1 8
194 1 1 0.5897 3.031288558226554 15.347440002723356 9.747412032306173 3 -1 3
625 1 2 -1.1794 4.20745116636737 13.504551167926971 7.161510878953391 -6 -3 3
500 1 1 0.5897 2.3207645246981237 12.853260298296016 8.318501918371812 4 -2 -5
273 1 1 0.5897 4.455666015441091 12.005223497281053 10.335147117288143 -4 -1 8
627 1 1 0.5897 4.116738144138676 12.551772934765644 7.179364185236759 -6 -3 3
682 1 2 -1.1794 1.1057100409424616 12.188350767485414 11.03254338236922 9 4 -2
837 1 1 0.5897 4.671464603766632 15.49990992856964 8.105730191196617 -3 2 -4
733 1 2 -1.1794 0.7253649598803628 15.465883002182926 7.3610077579960995 -2 0 -4
684 1 1 0.5897 1.6171301078641367 12.994504892307672 11.102262246415124 9 4 -2
497 1 1 0.5897 3.0654553803956777 13.980909352545554 12.803683397173492 -1 0 -3
498 1 1 0.5897 2.7955020392318124 15.21274421053843 11.965965395480605 -1 0 -4
496 1 2 -1.1794 2.366247912113052 14.444610701581263 12.342831208655376 -1 0 -3
243 1 1 0.5897 3.4555984368058463 15.380285200709416 15.46871573157374 -5 2 2
842 1 1 0.5897 1.2885735127135725 14.873903544288938 13.795942275213443 -5 1 0
8 1 1 0.5897 4.061621605956496 12.532053184697261 13.37424374282856 4 -1 -5
820 1 2 -1.1794 4.490944941508077 16.635760473036136 14.20737187286879 3 3 5
242 1 1 0.5897 2.0359601605036666 14.971228301620085 15.79939690042426 -5 2 2
9 1 1 0.5897 4.753671912064735 13.206718555903022 12.208921082875271 4 -1 -5
327 1 1 0.5897 2.2142043093317305 12.070388074692818 15.27373133876777 -2 0 1
821 1 1 0.5897 3.9859714414119822 16.740495532261683 13.400936764105936 3 3 5
241 1 2 -1.1794 2.946448117393112 14.816491095713793 16.051124581926523 -5 2 2
7 1 2 -1.1794 4.687485041724165 13.22507475809035 13.16369198793256 4 -1 -5
325 1 2 -1.1794 1.9643276726295813 12.379161762715459 16.144661807782025 -2 0 1
326 1 1 0.5897 2.3264008862029053 13.263639324367196 16.198728968033613 -2 0 1
769 1 2 -1.1794 3.380930927031602 16.739505864856838 11.422718013176121 3 -2 -2
10 1 2 -1.1794 2.173443269761005 13.284097314067676 19.292882716656894 -11 0 0
240 1 1 0.5897 3.8114414195568296 12.963353784191145 18.665265165701857 -5 -3 -3
11 1 1 0.5897 1.9752407158925651 12.472827710509248 18.825066875511613 -11 0 0
12 1 1 0.5897 1.4114660262413246 13.430103648357289 19.85358554905547 -11 0 0
42 1 1 0.5897 3.3455481173147974 15.884327891984437 17.375213983668502 3 -3 9
211 1 2 -1.1794 0.9961759299677829 16.123046554749642 20.766275096621392 5 -1 -3
238 1 2 -1.1794 4.740404243420596 12.877000383678396 18.451104956374646 -5 -3 -3
213 1 1 0.5897 1.6910264051305608 16.762285566964813 20.923922004382923 5 -1 -3
690 1 1 0.5897 3.377127384519983 14.375195120521658 20.891377821433046 0 -6 3
40 1 2 -1.1794 3.6624756850263167 16.481943423143257 18.05250188888369 3 -3 9
351 1 1 0.5897 1.0957683615706797 14.316926858295366 18.186224011652197 -11 4 -4
41 1 1 0.5897 4.590975040673053 16.268538394224016 18.145518163467493 3 -3 9
212 1 1 0.5897 0.7797573173200861 16.227419801398952 19.83968183598209 5 -1 -3
762 1 1 0.5897 3.82017473754663 18.65009355150935 5.540603480125197 0 -8 5
772 1 2 -1.1794 3.092381099544987 18.46031056360058 2.708049182227562 1 -4 1
181 1 2 -1.1794 3.8189615073083787 20.497814942691555 5.801783732264858 -7 0 -5
160 1 2 -1.1794 0.9917755048821488 20.202139623647884 3.396031659234739 0 8 -1
594 1 1 0.5897 3.7140709650017496 21.379753485131932 2.1536387118270803 2 1 -2
161 1 1 0.5897 1.4881434259752364 19.384244710001045 3.3649184328736337 0 8 -1
183 1 1 0.5897 3.1558568823759305 21.146354868232407 5.565165791092234 -7 0 -5
647 1 1 0.5897 1.8443310796094154 20.67316460785569 1.9867488354855616 -3 -4 -3
774 1 1 0.5897 4.000058542410294 18.29510583290602 2.9632855995929956 1 -4 1
773 1 1 0.5897 3.0752826910379554 18.299300201368254 1.7646079800526002 1 -4 1
646 1 2 -1.1794 2.1466508625622636 21.213894471660645 1.2570149180697348 -3 -4 -3
592 1 2 -1.1794 4.649140240616447 21.47174652952168 2.336682982188404 2 1 -2
760 1 2 -1.1794 3.555716750796891 17.79968096165088 5.891555710440176 0 -8 5
516 1 1 0.5897 1.63775046194264 21.599395121219615 4.312727463629657 -4 -4 2
792 1 1 0.5897 2.4805632606884127 16.782434842805586 2.9564958234706102 5 1 -3
761 1 1 0.5897 3.896463436694945 17.16389584488779 5.262291174828755 0 -8 5
483 1 1 0.5897 3.8595338819542735 19.58583432883086 8.272369847232435 5 5 3
481 1 2 -1.1794 3.836382282516609 18.643522049003558 8.439250412440412 5 5 3
121 1 2 -1.1794 3.006524959051191 21.29817325527868 8.775476274232815 0 -4 -2
20 1 1 0.5897 1.6242239228012756 18.310723041483616 6.38038264042375 -2 -7 2
379 1 2 -1.1794 1.853974632929276 18.949873456248053 10.433701085434022 5 4 -1
482 1 1 0.5897 3.713735473255087 18.249742699763047 7.575402616589174 5 5 3
381 1 1 0.5897 2.5273580837631218 19.03303548647522 9.758473121398545 5 4 -1
122 1 1 0.5897 2.09003499388701 21.076296028727523 8.610815437414963 0 -4 -2
836 1 1 0.5897 4.859436132927388 16.911221434737897 8.620518988188488 -3 2 -4
182 1 1 0.5897 4.507453686186996 21.00463388889715 6.232376376892931 -6 0 -5
19 1 2 -1.1794 0.7031907998184295 18.254163317562078 6.634954960268431 -2 -7 3
362 1 1 0.5897 4.720421769612983 21.389587959458975 10.110867215306719 4 -4 -1
380 1 1 0.5897 1.8042341694904267 19.819175099935997 10.831383201620877 5 4 -1
388 1 2 -1.1794 1.8523274883204666 17.896621685718575 13.743294483901343 3 1 2
714 1 1 0.5897 0.9979389678298896 20.921977627330246 12.85731404007786 -5 -2 -1
796 1 2 -1.1794 1.8852335799618762 20.058441495639073 15.657282195246871 -4 -6 -1
797 1 1 0.5897 2.1637424832483454 20.968904287406847 15.558352373131784 -4 -6 -1
389 1 1 0.5897 1.8601365663133251 18.65827004304079 14.3230578014563 3 1 1
390 1 1 0.5897 1.2612340014347723 18.142712811386506 13.031705736315669 3 1 2
770 1 1 0.5897 4.292673822651704 16.993706371699226 11.279742850301458 3 -2 -2
145 1 2 -1.1794 4.363562062685039 20.848427572777773 13.342907335057783 -1 0 1
713 1 1 0.5897 2.4993671265798314 20.79051936679037 12.714049856442234 -5 -2 -1
712 1 2 -1.1794 1.7043607839081072 20.974019816823482 12.213448797954538 -5 -2 -1
146 1 1 0.5897 4.70472327354479 20.09249619539703 13.820899300340818 -1 0 1
771 1 1 0.5897 2.8729980197509715 17.50272429426027 11.147295751752242 3 -2 -2
167 1 1 0.5897 3.8927908353543934 18.140608240152204 17.50825711536923 -7 0 3
23 1 1 0.5897 1.2439214774205924 20.625736936039186 18.97293061824256 -3 2 3
137 1 1 0.5897 2.159701587951142 18.27381620804928 20.10862421137768 7 -8 2
141 1 1 0.5897 3.2731865817394383 20.93366112977043 20.448224342063202 3 -4 2
138 1 1 0.5897 3.3335970984018175 17.318004310942932 20.13070061501334 7 -8 2
140 1 1 0.5897 4.360059724913844 19.904927513102745 20.218591352027676 3 -4 2
136 1 2 -1.1794 2.872039460418391 17.96256460322092 20.66719810365002 7 -8 2
166 1 2 -1.1794 3.8668996306509746 19.065947317915384 17.26458393517888 -7 0 3
168 1 1 0.5897 3.8528178788415643 19.533718512073335 18.099627544797297 -7 0 3
139 1 2 -1.1794 3.872340620094537 20.60182049659115 19.779456772117605 3 -4 2
445 1 2 -1.1794 0.863421218216214 18.415318665878804 18.846215171548618 3 -2 -1
22 1 2 -1.1794 0.8100303349607931 21.47374109753963 18.878372379468836 -3 2 3
446 1 1 0.5897 0.9070304719428799 17.990565561231676 17.9894838165047 3 -2 -1
798 1 1 0.5897 2.513807705965414 19.68068180257443 16.272499196752094 -4 -6 -1
413 1 1 0.5897 6.808401127218753 4.9020003507376595 3.298055796357456 2 -2 1
414 1 1 0.5897 7.123409681171072 3.920375334900934 2.1893336501550165 2 -2 1
412 1 2 -1.1794 7.488220688252557 4.304323240702754 2.986712322600439 2 -2 1
436 1 2 -1.1794 6.237144598065755 3.4456566611413244 0.8725537326348641 0 7 0
377 1 1 0.5897 7.386546746883317 6.464922802019675 5.451791875674281 4 1 6
596 1 1 0.5897 8.574711559001353 2.6321938784428007 5.511533124202997 7 -4 1
365 1 1 0.5897 5.6710887440532085 3.0387293128285027 5.631205576317 1 9 0
100 1 2 -1.1794 5.284147135156793 6.183733477060578 3.403714120884786 10 -7 -4
595 1 2 -1.1794 8.812383909875793 3.53456232755274 5.298085177255713 6 -4 1
597 1 1 0.5897 8.320307049103967 3.730108667269037 4.5006340946590395 6 -4 1
438 1 1 0.5897 5.570023657690807 3.0514847145541366 1.4345832266011709 0 7 0
510 1 1 0.5897 6.9101046991429556 6.754227871757035 2.0854441625255573 4 0 4
102 1 1 0.5897 5.172597703457441 6.749697355523471 4.167619096707128 10 -7 -4
550 1 2 -1.1794 6.900773758474549 3.1757422778113265 8.647712033072235 -3 5 -6
552 1 1 0.5897 6.569651226555554 3.725507742402772 7.937480519206104 -3 5 -6
235 1 2 -1.1794 5.7108514583451555 5.471519666808431 9.666865200810948 -1 0 -5
551 1 1 0.5897 7.708446506167104 3.606414645326036 8.927984769513337 -3 5 -6
364 1 2 -1.1794 5.362379430613661 3.7393099107476826 6.205819450844712 1 9 0
236 1 1 0.5897 6.33411451667362 4.764007265580699 9.501736232212222 -1 0 -5
237 1 1 0.5897 5.936190828908692 5.790785125890638 10.54070461901482 -1 0 -5
378 1 1 0.5897 7.284447936985778 6.279827795052633 6.950924357106929 4 1 6
366 1 1 0.5897 5.903544588315986 4.4945686865188 5.9755407003999395 1 9 0
376 1 2 -1.1794 6.817237056598815 6.107665691314228 6.133383976204917 4 1 6
251 1 1 0.5897 7.419845989903532 2.320912133268865 10.921615957275316 4 -4 1
231 1 1 0.5897 7.304045575026256 4.811651190305426 13.14533472271516 5 1 -2
229 1 2 -1.1794 7.0493577966995025 4.021333845113782 13.621612143371626 5 1 -2
861 1 1 0.5897 7.772860832386277 4.761582894709302 15.150152926802837 -1 0 -1
778 1 2 -1.1794 5.059853260592312 2.556833777660275 15.722932175781928 -2 -1 1
27 1 1 0.5897 6.945550588516674 6.8223307760665195 12.985369262549401 -3 5 3
230 1 1 0.5897 6.112056523525173 3.929495933999024 13.450359595571873 5 1 -2
252 1 1 0.5897 7.871786622190656 2.8724448450879554 12.257146271759229 4 -4 1
250 1 2 -1.1794 8.168608878410716 2.3420600040307815 11.517616092165841 4 -4 1
860 1 1 0.5897 8.991132085235302 5.288860136759115 15.878070324802104 -1 0 -1
859 1 2 -1.1794 8.073635267683883 5.050828250533707 16.01164942465581 -1 0 -1
25 1 2 -1.1794 7.570361815487524 6.393412501358335 12.400614924907108 -3 5 3
26 1 1 0.5897 8.426981648246947 6.58528978299984 12.782302363032636 -3 5 3
779 1 1 0.5897 4.920771851495608 3.4814100329131676 15.517649765866015 -2 -1 1
371 1 1 0.5897 5.341304116196596 5.9459564390509385 15.344584008844201 5 9 -2
824 1 1 0.5897 7.805542696199071 1.9061276752016134 14.623520714924227 -5 5 6
125 1 1 0.5897 7.195521888551803 4.4220970380581885 17.5000914794632 1 3 3
529 1 2 -1.1794 5.386998854381596 6.747892955268676 18.18736803268238 -7 3 -7
126 1 1 0.5897 6.2887161344900795 3.6580482648636545 18.441383482840234 1 3 3
59 1 1 0.5897 8.055297414496065 5.018481269021163 19.609891647824917 4 -2 -9
468 1 1 0.5897 8.834446987994058 3.338621912549221 17.316277006491212 11 -1 11
124 1 2 -1.1794 7.085338152231393 4.188444181056653 18.421818696748193 1 3 3
531 1 1 0.5897 5.039576651298749 6.327804989639329 18.974211838508985 -7 3 -7
58 1 2 -1.1794 8.501307190653169 5.580206047672222 20.243804398320112 4 -2 -9
437 1 1 0.5897 5.76059756533436 4.091810729476784 20.92312632119694 0 7 -1
509 1 1 0.5897 7.353314287429851 6.498045699374805 21.232449678342967 4 0 3
287 1 1 0.5897 7.298574083199718 2.0216333361312695 20.42220306290266 8 3 -2
508 1 2 -1.1794 6.8614538151374 7.1166204674208995 1.2007868534236374 4 0 4
57 1 1 0.5897 5.664343974525304 10.55993477460811 3.0353891685777556 -4 0 0
55 1 2 -1.1794 6.2579283103536785 9.813779831448405 3.120428380453914 -4 0 0
586 1 2 -1.1794 8.479915310963626 7.377741513768171 4.201810002514137 0 4 4
587 1 1 0.5897 8.381399127702856 7.998595974529241 3.479906561877634 0 4 4
205 1 2 -1.1794 5.173436029640461 8.34806175775945 5.106214207126706 -4 -2 0
313 1 2 -1.1794 8.722158183732693 10.794020924634617 3.6189331954235904 0 -3 1
105 1 1 0.5897 8.31205142048514 8.000462532408735 1.5251844020131617 5 -3 4
314 1 1 0.5897 7.817746052638288 10.480513026558276 3.626076756246931 0 -3 1
56 1 1 0.5897 5.839239932068657 9.246612222586313 3.767991542401738 -4 0 0
207 1 1 0.5897 5.6515219840823665 8.949679120208017 5.676994060162727 -4 -2 0
315 1 1 0.5897 8.95226449832511 10.841836050844167 2.6910008253765216 0 -3 1
624 1 1 0.5897 6.743948841523782 10.903215051112731 5.718523839553927 1 -3 4
622 1 2 -1.1794 6.729126703559529 10.111224802523271 6.255971582857307 1 -3 4
623 1 1 0.5897 6.964051606980018 10.412380152740145 7.13371375603799 1 -3 4
280 1 2 -1.1794 6.354091324060357 8.24991829455104 10.39056790354803 -6 1 1
282 1 1 0.5897 7.101051230642451 7.77325013129226 10.752690961725923 -6 1 1
15 1 1 0.5897 7.394549902463699 7.320505477340989 8.841967260302773 2 -3 -7
13 1 2 -1.1794 8.197490219583651 6.991962330512233 8.43736439040544 2 -3 -7
281 1 1 0.5897 6.305190572115449 9.051265246341798 10.911870195725252 -6 1 1
14 1 1 0.5897 8.758378209746018 7.763428738629375 8.356192369151051 2 -3 -7
188 1 1 0.5897 8.926313951038503 11.625863330619547 10.403275173021653 -6 2 2
692 1 1 0.5897 7.4918545656420275 11.030048353680815 9.283374833852589 4 2 7
691 1 2 -1.1794 6.851847324990191 11.377605576860104 8.662160548539134 4 2 7
522 1 1 0.5897 5.037686466425845 6.918240207025824 7.038174637760727 -5 1 -6
348 1 1 0.5897 8.422114218440619 11.009102814838625 14.375030396537843 -1 1 -6
504 1 1 0.5897 5.755282035185596 10.177277507641273 13.172995885964411 -7 1 3
269 1 1 0.5897 5.558455308909866 10.010419706942551 15.469595417091936 7 5 6
73 1 2 -1.1794 5.5819560867086615 7.240555820723263 13.888568363965039 -2 -3 -1
585 1 1 0.5897 8.221638947637036 8.706415254954182 14.63920516101461 0 -2 2
503 1 1 0.5897 6.42501376865904 11.070870342352016 12.150660747260622 -7 1 3
583 1 2 -1.1794 8.711998576065179 9.29699498798648 14.067315489095526 0 -2 2
502 1 2 -1.1794 5.992540229273382 10.222282503787579 12.246683462975273 -7 1 3
268 1 2 -1.1794 4.899995981590333 9.757797317424059 14.822354135002751 7 5 6
39 1 1 0.5897 7.421537215333 7.007874469134775 15.869083243944628 -2 9 -6
74 1 1 0.5897 5.7247123751864875 8.043944941612637 14.38905797037798 -2 -3 -1
37 1 2 -1.1794 7.3828176652326905 7.957373606922973 15.98428903146834 -2 9 -6
617 1 1 0.5897 9.055227774771767 9.33480801453792 12.297756976982015 -5 1 -1
75 1 1 0.5897 4.9566731789986145 7.489712671785281 13.20794933740917 -2 -3 -1
399 1 1 0.5897 8.74732705630494 11.098458175528569 20.543731684213498 8 -3 -5
699 1 1 0.5897 7.0157654821971995 7.551585072044341 18.6026896285112 -4 6 -5
833 1 1 0.5897 8.066764096524254 9.735821455303439 18.94521979768172 1 -3 -1
452 1 1 0.5897 6.18553497320724 8.737117566136437 21.05545495011459 -3 -2 4
826 1 2 -1.1794 6.289063141401542 10.89888596435616 17.029998289902966 4 0 2
832 1 2 -1.1794 8.289963551926927 10.665195347087913 18.89287522286629 1 -3 -1
697 1 2 -1.1794 7.958725186517083 7.714721573634285 18.625257349545286 -4 6 -5
828 1 1 0.5897 7.173099618976329 10.922631876512675 17.396349070643325 4 0 2
451 1 2 -1.1794 5.712963486815809 9.169910560407866 20.344344615787968 -3 -2 4
827 1 1 0.5897 5.898444341134539 11.732766317122255 17.291468664731358 4 0 2
38 1 1 0.5897 7.639757861425374 8.09922094836876 16.895432222906194 -2 9 -6
698 1 1 0.5897 8.33412208017075 6.905146553723741 18.971610234018858 -4 6 -5
453 1 1 0.5897 5.748293295300131 10.100852869818027 20.564387068524464 -3 -2 4
530 1 1 0.5897 4.961291471441267 7.604962121468238 18.165018777104827 -7 3 -7
341 1 1 0.5897 6.608844611821714 14.500721306758454 2.725454065996799 0 3 -2
128 1 1 0.5897 7.1982252107500555 13.205146738727285 5.022511982592355 -2 1 -2
264 1 1 0.5897 8.750842493220578 14.15935962330577 5.81454999172679 1 -1 1
129 1 1 0.5897 5.764148319704848 12.811930938266482 4.7380441769412975 -2 1 -2
127 1 2 -1.1794 6.536890204740417 12.54723095934202 5.237183113809594 -2 1 -2
340 1 2 -1.1794 5.789934793431495 14.844420526089742 3.08262550225806 0 3 -2
342 1 1 0.5897 5.186689417304231 14.847841166886012 2.3394015863581172 0 3 -2
262 1 2 -1.1794 8.602501400365776 14.525669750361557 4.942701033973802 1 -1 1
608 1 1 0.5897 5.775073834690503 15.235644521066524 4.766331214739481 4 2 -1
782 1 1 0.5897 8.304433286616893 12.70668769128974 1.4359753439630605 -4 2 2
781 1 2 -1.1794 7.679306258710061 13.427324905733702 1.357224060659811 -4 2 2
731 1 1 0.5897 8.043578651889636 16.390168107766765 1.135276418448436 5 6 -2
730 1 2 -1.1794 8.846827089232011 16.640071208187937 1.592042958026747 5 6 -2
607 1 2 -1.1794 5.569821107324851 15.40664724393042 5.685530555845264 4 2 -1
177 1 1 0.5897 8.874670542586326 16.59904475001408 4.653245066022212 -1 -4 9
320 1 1 0.5897 7.978408438932915 12.665915580631664 7.573966481098415 4 -1 5
527 1 1 0.5897 7.900217846964646 15.09104231342088 10.2721142857821 3 -10 -3
528 1 1 0.5897 6.49046101974336 15.47051347260965 9.87123160650897 3 -10 -3
319 1 2 -1.1794 8.823338876664984 12.962440978492344 7.235639647651769 4 -1 5
863 1 1 0.5897 8.439573074720183 16.51230222460181 6.949276310396178 3 0 2
526 1 2 -1.1794 7.033092398743485 15.272720324069395 10.634626901645154 3 -10 -3
609 1 1 0.5897 6.375529923855709 15.776493606956024 6.046563811918549 4 2 -1
835 1 2 -1.1794 5.005838747163075 15.994495496013215 8.853994651240518 -3 2 -4
813 1 1 0.5897 7.299306221664527 13.239653019529833 11.0266724243603 -2 4 -4
271 1 2 -1.1794 4.912447621478067 12.842795511188747 10.41342026021813 -4 -1 8
693 1 1 0.5897 6.241692391528068 11.880092977691667 9.202092267000728 4 2 7
862 1 2 -1.1794 7.555163000257369 16.64978483612233 7.288844325916772 3 0 2
626 1 1 0.5897 4.890992496751255 13.668401255124992 6.511703427763926 -6 -3 3
741 1 1 0.5897 6.852493085080453 15.2505821910005 12.46133593243684 0 1 3
210 1 1 0.5897 6.879912989030374 12.959108130368639 15.274807451854663 4 -2 5
739 1 2 -1.1794 6.792863645538054 15.368986114419831 13.40934767179184 0 1 3
822 1 1 0.5897 5.304333403842536 16.215250456615443 13.928280611240734 3 3 5
740 1 1 0.5897 6.518204243306872 14.514144586267893 13.741165921016911 0 1 3
208 1 2 -1.1794 6.136830079780754 13.439653336541406 15.63977952265479 4 -2 5
811 1 2 -1.1794 7.795406154432581 12.49218278250877 11.360588791894072 -2 4 -4
209 1 1 0.5897 5.443432469362604 13.341081365184065 14.987251867566581 4 -2 5
495 1 1 0.5897 8.441636124282102 15.613612021493813 15.177877219113807 -1 3 1
711 1 1 0.5897 8.161938704331673 16.448003926880613 12.924086938844715 -9 -5 -2
812 1 1 0.5897 8.557579748298846 12.882006696564973 11.788895742927224 -2 4 -4
347 1 1 0.5897 8.820776735240285 12.128474417590143 15.313223593144599 -1 1 -6
346 1 2 -1.1794 8.2703014940108 11.937172928765557 14.553820838083562 -1 1 -6
96 1 1 0.5897 5.57602167128441 15.813818196244249 20.98640514976356 -8 3 -2
28 1 2 -1.1794 8.048245607240755 13.874147038353186 19.255993650911932 -8 0 6
783 1 1 0.5897 7.696184164921463 13.659286088591609 21.00048013114986 -4 2 1
29 1 1 0.5897 8.274327915145683 13.171247266511426 18.64675353109961 -8 0 6
406 1 2 -1.1794 6.721126783321338 15.469417906728673 17.664737712830583 -1 -4 2
30 1 1 0.5897 7.466029716428601 14.44668844587866 18.756456931429504 -8 0 6
353 1 1 0.5897 5.296059059046107 12.330710144929414 20.03094334259092 8 1 -4
352 1 2 -1.1794 5.487906883008717 11.819165183599932 20.816967569342633 8 1 -4
94 1 2 -1.1794 6.457102415399883 16.118106637227378 20.768650805772232 -8 3 -2
95 1 1 0.5897 6.324526438386296 16.753560792953095 20.065139618925045 -7 3 -2
408 1 1 0.5897 6.832080485891739 14.866169228955748 16.92982606579673 -1 -4 2
354 1 1 0.5897 6.110278103737433 12.356535102274497 21.30707099774514 8 1 -4
407 1 1 0.5897 6.897768466642763 16.33416138089597 17.29415516994398 -1 -4 2
239 1 1 0.5897 4.900844167770499 13.559340704699775 17.799205013379787 -5 -3 -3
554 1 1 0.5897 7.676741068463036 18.619462664655533 5.129744490238476 -2 -4 7
157 1 2 -1.1794 8.29157455455744 21.377182514285654 2.3175785008734775 0 -1 4
590 1 1 0.5897 6.127429056593626 17.93177854167966 4.07850451797506 2 3 3