LAMMPS data file via write_data, version 30 Jul 2021, timestep = 1250000

1008 atoms
2 atom types
672 bonds
1 bond types
336 angles
1 angle types

-3.147176273674713 14.75717527323016 xlo xhi
-0.10999427583741372 22.68999327583921 ylo yhi
-0.16817262910881148 19.398170629111185 zlo zhi
-0.013549643822384334 -6.457552661801307 0.21234817146635426 xy xz yz

Masses

1 1.008
2 15.999

Pair Coeffs # lj/cut/tip4p/long/omp

1 0 0
2 0.21084 3.1668

Bond Coeffs # harmonic/omp

1 450 0.9572

Angle Coeffs # harmonic/omp

1 55 104.52

Atoms # full

122 41 1 0.5897 -2.0479704377153576 1.748903082411821 1.1074102673611113 1 0 0
55 19 2 -1.1794 -0.6113913746160673 4.0207791213874335 3.283304490074314 0 0 0
56 19 1 0.5897 -1.049275124739462 3.3498035902004766 2.7594198729244686 0 0 0
123 41 1 0.5897 -2.996449618631352 2.491676897889526 2.024230896920946 1 0 0
114 38 1 0.5897 -3.1654547378225177 5.579254283861723 1.4695192140149569 1 0 0
86 29 1 0.5897 -2.0139717994417836 1.5568624287041846 3.8309207272936345 1 0 0
121 41 2 -1.1794 -2.1071949939117927 2.1403115461181863 1.9789563183468668 1 0 0
113 38 1 0.5897 -3.3278871825573457 5.590532720570645 2.974671460176557 1 0 0
158 53 1 0.5897 -4.451000326040308 4.450960306424193 4.155842932269023 1 0 0
602 201 1 0.5897 -0.11304414291972753 5.2536858576190815 0.46941300171591493 1 0 1
57 19 1 0.5897 0.22408583951438743 4.164955200549032 2.8389609507433113 0 0 0
87 29 1 0.5897 -3.237473778307846 1.352105167504633 4.6986787898237665 1 0 0
85 29 2 -1.1794 -2.28103575767563 1.3183230480005557 4.718629288637206 1 0 0
603 201 1 0.5897 0.12103110195502209 3.8461952412161726 -0.03688506618171747 1 0 1
101 34 1 0.5897 -2.5404743567409485 4.536533037992932 -0.1443594645319833 1 0 0
601 201 2 -1.1794 -0.5067791344765236 4.568022368030167 -0.0702550130524616 1 0 1
90 30 1 0.5897 -5.147912737228353 1.8022124134781432 5.925231545485778 1 0 0
135 45 1 0.5897 -1.6652560486958934 4.075351823144135 6.867482564703669 1 0 0
69 23 1 0.5897 -2.3803240623806756 1.3526669325587337 8.582154087926593 0 0 0
157 53 2 -1.1794 -4.04486067361257 4.935375159009421 4.874722786694477 1 0 0
134 45 1 0.5897 -2.1393582266566353 2.7382622236429413 6.338713496922351 1 0 0
159 53 1 0.5897 -3.367588694239597 4.346854978864828 5.208300732886137 1 0 0
133 45 2 -1.1794 -2.458720170481955 3.5787046492621575 6.6672649363153 1 0 0
126 42 1 0.5897 -4.001931166791849 2.831468153724323 7.39841966427728 1 0 0
124 42 2 -1.1794 -4.890031272454836 2.62315006642171 7.688530991895412 1 0 0
669 223 1 0.5897 -5.089129438935393 1.7477100567085313 9.258794264166486 1 0 0
67 23 2 -1.1794 -2.2210400936907497 0.8099054351637625 7.80992670154643 0 0 0
98 33 1 0.5897 -4.065658352723677 5.3310575739263175 9.139262743744407 1 0 0
68 23 1 0.5897 -3.086065786722756 0.4810579224959647 7.565014742179189 0 0 0
125 42 1 0.5897 -5.432558331274253 3.320668253864142 7.320472280164974 1 0 0
606 202 1 0.5897 -6.144624343161491 4.786237679679313 9.93889522219404 1 0 0
627 209 1 0.5897 -6.9020873152627225 2.9742231701840103 12.422327118131872 1 0 0
625 209 2 -1.1794 -5.965019716657396 2.8467852101414164 12.27419260382411 1 0 0
523 175 2 -1.1794 -2.14503906394601 2.6714400142217722 9.747366949556904 0 0 0
559 187 2 -1.1794 -4.023194053392196 4.326706672825307 13.411504672338399 0 0 0
560 187 1 0.5897 -4.814452794593471 3.8784761561545738 13.112527751793587 0 0 0
626 209 1 0.5897 -5.764606680232877 2.0160941105765993 12.70553988791516 1 0 0
663 221 1 0.5897 -6.66826871796618 5.683247396527596 13.934742420106472 1 0 0
668 223 1 0.5897 -5.759267431614971 2.0379843246477476 10.584857615545038 1 0 0
667 223 2 -1.1794 -5.535655353551995 1.321735373265001 9.99049001548183 1 0 0
662 221 1 0.5897 -7.661278276893174 4.612812906627905 14.335066662010883 1 0 0
561 187 1 0.5897 -3.5056538330330413 3.6424548291217014 13.836094844881506 0 0 0
524 175 1 0.5897 -2.5873854074360176 3.5197297244315187 9.77948038616608 0 0 0
97 33 2 -1.1794 -4.104584305084982 4.930348593783679 10.007688640165426 1 0 0
99 33 1 0.5897 -4.117141500812448 5.671355247201539 10.613570577761887 1 0 0
589 197 2 -1.1794 -5.8690137599775 1.2346399165614788 14.492646090724206 1 0 0
630 210 1 0.5897 -8.194863211061175 2.1422670502328742 16.142334551648574 1 0 0
164 55 1 0.5897 -8.46341998501892 2.1040395755873944 18.318317343703022 1 0 -1
637 213 2 -1.1794 -5.459988125810225 3.5280863392670576 16.289055631559762 1 0 0
571 191 2 -1.1794 -5.335012210866086 0.38571562713017554 18.020142969448912 0 0 0
639 213 1 0.5897 -5.7957546200927545 4.115551959108416 15.611963358465468 1 0 0
661 221 2 -1.1794 -7.043452664358556 5.246730925053208 14.69956225082162 1 0 0
638 213 1 0.5897 -6.241336092469105 3.2187906079250967 16.74741728602706 1 0 0
628 210 2 -1.1794 -8.12588948383959 2.8769330577959606 16.752135053374353 1 0 0
593 198 1 0.5897 -7.753732185443867 0.919188011517005 14.519100981888574 1 0 0
20 7 1 0.5897 -5.389330369182013 2.1472206550321182 18.851700547662915 0 0 -1
590 197 1 0.5897 -5.446389500085842 1.977393908034804 14.924053418476346 1 0 0
591 197 1 0.5897 -5.262103539759616 0.5055753473029814 14.620819250316481 1 0 0
165 55 1 0.5897 -8.866231853565463 0.6617246589098335 18.541162029356755 1 0 -1
163 55 2 -1.1794 -8.39708625739475 1.3886624118057074 18.95088658915936 1 0 -1
255 85 1 0.5897 -2.6517099333377665 8.97525429757546 3.9355453978318753 1 0 0
146 49 1 0.5897 -1.3012666499198158 6.556300778231235 1.8991821293270585 1 0 0
112 38 2 -1.1794 -2.936106043827859 6.080843705125964 2.251931318515864 1 0 0
289 97 2 -1.1794 -2.783281391551811 10.281989204835254 2.528459251316062 1 0 0
145 49 2 -1.1794 -0.5627923890335298 7.061555426975903 1.5590731681170067 1 0 0
291 97 1 0.5897 -3.68124733749804 10.572119716011711 2.688949291489549 1 0 0
147 49 1 0.5897 -0.9662228608342533 7.810532729694072 1.120242926638488 1 0 0
332 111 1 0.5897 -2.416089184250716 9.5400768552725 0.9523901951795755 1 0 0
290 97 1 0.5897 -2.246558111326982 11.055551876311142 2.7014581183409856 1 0 0
188 63 1 0.5897 0.9435639349079494 10.041139776760343 0.9582622090806798 0 0 0
224 75 1 0.5897 -0.11879678329873222 11.17950589047555 3.864159220956907 0 0 0
331 111 2 -1.1794 -2.0661796891643687 9.021667898723134 0.22779848099720762 1 0 0
253 85 2 -1.1794 -2.5958707293384977 8.409750904914727 4.70586397362696 1 0 0
254 85 1 0.5897 -1.7783135604452303 7.925671862793141 4.5895249373978375 1 0 0
9 3 1 0.5897 -0.4630087646679475 6.142119822907168 4.258743954336449 0 0 0
187 63 2 -1.1794 1.1261650842848088 10.612082175749805 0.21196947311276232 0 0 0
111 37 1 0.5897 -5.357111641087268 6.367887835939544 7.464616605154266 1 0 0
292 98 2 -1.1794 -4.775768910489737 10.455998019628572 7.163415057995887 1 0 0
257 86 1 0.5897 -4.487599679954876 8.500052607924255 4.84073496228536 1 0 0
294 98 1 0.5897 -4.873158396227672 9.994510830006332 7.996361428540885 1 0 0
109 37 2 -1.1794 -4.4099141102565715 6.282390798031287 7.356019084553486 1 0 0
236 79 1 0.5897 -2.984675316856726 7.314129429137465 7.999706708913367 0 0 0
110 37 1 0.5897 -4.300018005075861 5.941373841670762 6.4683731071959 1 0 0
302 101 1 0.5897 -1.9698831455247603 9.92375279999275 5.690458247941588 1 0 0
301 101 2 -1.1794 -2.1430413600976217 10.705005982042481 6.215783660086109 1 0 0
235 79 2 -1.1794 -2.1622767232195086 7.585768686244498 8.407475707643785 0 0 0
293 98 1 0.5897 -3.829642277876928 10.540113233445815 7.044903618816491 1 0 0
237 79 1 0.5897 -2.411876144060874 8.29104100187971 9.004626033969192 0 0 0
303 101 1 0.5897 -1.2964062530197218 10.92555825231173 6.604311136747451 1 0 0
837 279 1 0.5897 -5.949066789440289 8.480385275800336 9.204751496621077 1 0 0
617 206 1 0.5897 -6.99533921438519 7.2631839190990135 12.173783230114575 1 0 0
794 265 1 0.5897 -5.380733459229684 10.536850280044327 12.521151869875847 1 0 0
759 253 1 0.5897 -5.96440384824259 8.876247597023449 14.035027984889421 1 0 0
691 231 2 -1.1794 -2.3049374501235182 9.940525675293486 10.067475784237866 0 0 0
649 217 2 -1.1794 -4.152128614935723 7.342377995709204 11.313383908990401 1 0 0
650 217 1 0.5897 -3.505023149207677 7.643940795594073 11.95113748583411 1 0 0
651 217 1 0.5897 -4.920786531780026 7.119440254401876 11.838444365038686 1 0 0
795 265 1 0.5897 -5.913856460546052 9.617830778716337 11.442504240598945 1 0 0
793 265 2 -1.1794 -5.956555860549464 9.784485380365679 12.384147892561296 1 0 0
616 206 2 -1.1794 -6.474373154745434 6.4843876283123 12.369721508409464 1 0 0
618 206 1 0.5897 -6.709375253284142 5.859586754790439 11.683598460052112 1 0 0
836 279 1 0.5897 -4.7518093015257215 8.674371964747326 10.110976293191284 1 0 0
835 279 2 -1.1794 -5.4337087065162475 9.157164647196609 9.643787397483955 1 0 0
615 205 1 0.5897 -6.72664868253098 5.924452519031168 16.391948328699918 1 0 0
797 266 1 0.5897 -7.230146056638665 11.02367202262357 17.25409676741954 1 0 0
798 266 1 0.5897 -8.377005930868151 10.050072981020667 17.083544409870484 1 0 0
739 247 2 -1.1794 -5.230586124327457 8.456305993555377 18.156395946142418 0 0 0
796 266 2 -1.1794 -8.104638556829844 10.818651784894334 17.5850122445444 1 0 0
613 205 2 -1.1794 -6.730905034718585 6.464751698560302 17.182107325626298 1 0 0
741 247 1 0.5897 -5.816921337057785 9.083989536228739 18.57886105653067 0 0 0
740 247 1 0.5897 -5.8124245447526715 7.778789804705126 17.81165294278773 0 0 0
758 253 1 0.5897 -5.463656953818292 9.320097108054911 15.393109935546939 1 0 0
333 111 1 0.5897 -8.338661820620928 9.875123953006925 19.10787238387629 1 0 -1
805 269 2 -1.1794 -5.598848373759075 11.031752572880027 16.069871599996247 1 0 0
512 171 1 0.5897 -4.348168162424333 7.352352636839048 14.928068844317828 0 0 0
654 218 1 0.5897 -9.212531378392004 7.669780489256031 18.689982949954647 1 0 0
757 253 2 -1.1794 -5.664075035460998 8.538076567255448 14.878667203120102 1 0 0
762 254 1 0.5897 -7.573141789173775 8.452286587532184 15.786989062987214 1 0 0
614 205 1 0.5897 -6.820833560073263 5.838578356658788 17.90051307277951 1 0 0
513 171 1 0.5897 -3.942102798433101 5.9506901315887815 14.524911281020199 0 0 0
500 167 1 0.5897 -1.5135664599421295 16.054120019450075 0.3198802447192482 1 0 0
223 75 2 -1.1794 -0.6306310888998734 11.798458556704054 3.343387463134454 0 0 0
225 75 1 0.5897 -0.7352353158752405 12.561423527838375 3.9119454473334354 0 0 0
770 257 1 0.5897 -1.4187575945735578 12.666666591329964 0.20524600247666624 1 0 1
281 94 1 0.5897 -3.570674372099747 13.804471433874308 3.473470489502622 1 0 0
282 94 1 0.5897 -2.6029895627336384 14.279182182390024 2.4104016003954074 1 0 0
313 105 2 -1.1794 -1.0391667536232658 14.7147562548582 1.8734156966282125 1 0 0
280 94 2 -1.1794 -3.5356566725952256 14.241314658184669 2.6224556569775177 1 0 0
315 105 1 0.5897 -0.8147370210920388 13.994324899114508 1.2844395434575637 1 0 0
314 105 1 0.5897 -0.19484343489133638 15.076992592960735 2.142281920293509 1 0 0
423 141 1 0.5897 -2.1548559667866183 16.363954991199343 3.54566607503437 1 0 0
769 257 2 -1.1794 -0.5181832016386001 12.925769051479381 0.010020001246887567 1 0 1
771 257 1 0.5897 -0.0003966831044466268 12.138039107957013 0.17644581689125516 1 0 1
268 90 2 -1.1794 -3.1700948248314904 12.619802659668212 0.3694389418190205 1 0 0
421 141 2 -1.1794 -2.0452114956643213 16.114594850504098 4.4633257154473425 1 0 0
425 142 1 0.5897 -3.9763657405395674 15.831236718852876 4.607378282760556 1 0 0
499 167 2 -1.1794 -2.1692081353753943 16.561858070503597 -0.15830600220942384 1 0 0
279 93 1 0.5897 -5.194963469616587 13.998216841701884 7.604198274891224 1 0 0
327 109 1 0.5897 -4.018735228249755 13.11683787634108 5.736788101109057 1 0 0
403 135 2 -1.1794 -2.2930784994147504 15.876002727084558 7.835099738227038 0 0 0
267 89 1 0.5897 -3.920134688356036 12.584005558198834 8.875070169581058 1 0 0
277 93 2 -1.1794 -4.295181067711488 13.684516303607843 7.513305344603827 1 0 0
278 93 1 0.5897 -3.756147111854042 14.469271340757512 7.61324309293965 1 0 0
405 135 1 0.5897 -2.288819051457444 16.700187641138342 8.32197186006867 0 0 0
326 109 1 0.5897 -3.0092681238370877 12.091740021543787 5.265483737015295 1 0 0
325 109 2 -1.1794 -3.5762353784414618 12.795985529721008 4.950988463204069 1 0 0
422 141 1 0.5897 -2.0202491101798348 16.94625264216024 4.936691013114414 1 0 0
404 135 1 0.5897 -1.4765137842478309 15.888067631783105 7.335811900690942 0 0 0
175 59 2 -1.1794 -0.5727024672006609 13.939407084327913 5.106779677073148 0 0 0
1004 335 1 0.5897 -4.666243638883751 16.860382200781174 8.966443995124262 1 0 0
176 59 1 0.5897 -1.0909244740063708 14.684362935282154 4.8021242746980075 0 0 0
1005 335 1 0.5897 -4.508525208565349 15.830529579850959 10.064913823172095 1 0 0
819 273 1 0.5897 -3.483414797085584 13.838163435103116 11.04351761260366 1 0 0
729 243 1 0.5897 -4.199327100067487 12.626507044761652 13.71259010577364 0 0 0
784 262 2 -1.1794 -6.384930986509886 14.080941446400924 12.149180813025906 1 0 0
818 273 1 0.5897 -4.3316533671081885 14.692046342036619 11.961825244223865 1 0 0
774 258 1 0.5897 -5.5300000562961475 12.156804835393078 9.981241453321575 1 0 0
1003 335 2 -1.1794 -5.134895454634523 16.452521799553516 9.69462416089262 1 0 0
786 262 1 0.5897 -6.572971616909955 13.89356116549679 13.068838176311242 1 0 0
817 273 2 -1.1794 -3.4981311058160003 14.684115136949568 11.491285232874205 1 0 0
772 258 2 -1.1794 -6.470134344424004 12.266760395965486 10.123863031471481 1 0 0
727 243 2 -1.1794 -4.242818434816494 11.772714520900683 13.281883108305744 0 0 0
728 243 1 0.5897 -3.418880419680387 11.705134675981927 12.799402089521168 0 0 0
962 321 1 0.5897 -5.745864115802213 17.06487279354213 12.624161058561285 1 0 0
925 309 2 -1.1794 -5.645135402009097 16.22492823241184 14.309224602511048 1 0 0
266 89 1 0.5897 -3.377059631703907 11.432778953259703 9.6947592689592 1 0 0
785 262 1 0.5897 -7.097163256531163 14.656853509906927 11.87103613037359 1 0 0
265 89 2 -1.1794 -3.7733951394673815 12.30018901564331 9.777413694683773 1 0 0
773 258 1 0.5897 -6.532413638182556 12.768558375952308 10.936649996876833 1 0 0
908 303 1 0.5897 -6.133724418884727 15.204236579419547 17.591313533371917 0 0 0
830 277 1 0.5897 -7.515366876629126 13.332886037686624 15.462912503512968 1 0 0
679 227 2 -1.1794 -4.060703204368194 14.074954284407365 14.808896867131903 0 0 0
807 269 1 0.5897 -4.869172455340415 11.584833681628313 16.34925267068479 1 0 0
781 261 2 -1.1794 -7.511381321712032 14.231194449470337 16.943856989203375 1 0 0
782 261 1 0.5897 -7.104544696256829 13.671211703010917 17.605098387052422 1 0 0
907 303 2 -1.1794 -5.498492321023094 15.773600367101626 18.025743625182322 0 0 0
909 303 1 0.5897 -4.90127293756199 16.043215875405657 17.327985164740035 0 0 0
783 261 1 0.5897 -8.428465344697084 14.291228010152864 17.21144479043585 1 0 0
806 269 1 0.5897 -5.971399269188103 11.48871925100482 15.315730932158045 1 0 0
501 167 1 0.5897 -8.183580765107724 17.040264865673628 18.6024066190003 1 0 -1
927 309 1 0.5897 -5.424723120620982 16.948223893984704 14.896265111936211 1 0 0
681 227 1 0.5897 -4.001784910679723 13.654043945960721 15.66657978747924 0 0 0
930 310 1 0.5897 -7.648329233722991 16.0103371693775 14.80019487742346 1 0 0
829 277 2 -1.1794 -7.269835581851838 12.877978885800532 14.657297866995219 1 0 0
926 309 1 0.5897 -5.000982179071022 15.546505125737868 14.511968096138935 1 0 0
483 161 1 0.5897 -1.397897262814604 21.914411143970547 1.4081911712668285 1 0 0
391 131 2 -1.1794 -0.5547679671317409 19.3394559305071 3.0255522178255463 0 0 0
448 150 2 -1.1794 -3.2020267631493 21.21321211335001 2.0843320265382843 1 0 0
449 150 1 0.5897 -3.3044321239766754 20.589977503549697 1.365004255548909 1 0 0
392 131 1 0.5897 -0.16292612901370784 18.807468949007955 3.718205936872746 0 0 0
457 153 2 -1.1794 -2.709128198179969 17.597575094348414 2.2603456388849406 1 0 0
393 131 1 0.5897 -0.7836129282573072 20.16322888652215 3.4560312403497413 0 0 0
458 153 1 0.5897 -2.7564166533868995 17.3078386577777 1.3492475039902496 1 0 0
495 165 1 0.5897 -3.3275939375681496 20.746202064504658 4.031507296982687 1 0 0
459 153 1 0.5897 -2.0229283814598373 18.265024036692765 2.26471481492111 1 0 0
481 161 2 -1.1794 -0.5141356022472934 22.096958419138403 1.0890140666556105 1 0 0
938 313 1 0.5897 -0.3571840981911363 20.480742068782412 0.06114583866501497 1 0 1
437 146 1 0.5897 -2.5213141706684894 19.370343632908614 0.19932573613963073 1 0 0
450 150 1 0.5897 -3.8029254132896018 21.92706941471223 1.8706986014326281 1 0 0
482 161 1 0.5897 -0.6446002389121621 22.682340237616067 0.34294762394262746 1 0 0
343 115 2 -1.1794 -0.9930283303837517 21.432172118088914 4.632871718056749 0 0 0
345 115 1 0.5897 -1.3447414926624133 22.32151731293424 4.673800285948697 0 0 0
462 154 1 0.5897 -4.660985844918395 17.133941838431127 6.302577815721319 1 0 0
494 165 1 0.5897 -3.7914557561569024 20.823686793430745 5.470514548880937 1 0 0
471 157 1 0.5897 -3.0576768749340535 18.205963586913278 6.697469792056868 1 0 0
470 157 1 0.5897 -2.57023543392496 19.08207055152034 5.563100880465367 1 0 0
445 149 2 -1.1794 -4.229441513226522 21.8184970324006 7.154243167393493 1 0 0
446 149 1 0.5897 -4.083746401340928 21.172939252080063 7.845865016280005 1 0 0
461 154 1 0.5897 -5.245401885317319 18.383409609461808 6.9265493652830035 1 0 0
469 157 2 -1.1794 -2.2594146440601737 18.539593997193435 6.287963154738451 1 0 0
447 149 1 0.5897 -5.161887337855605 22.026826668707535 7.212890800818941 1 0 0
460 154 2 -1.1794 -4.578589152721037 17.71021464751925 7.062491383295482 1 0 0
344 115 1 0.5897 -1.1876202227920147 21.057323885385905 5.491851130079715 0 0 0
435 145 1 0.5897 -4.902089824336922 19.664354026649697 9.330820047891615 1 0 0
924 308 1 0.5897 -1.7860861770048526 22.110397053113296 8.881108814260283 0 0 0
433 145 2 -1.1794 -4.025349540961196 19.976516506932278 9.106813367874562 1 0 0
860 287 1 0.5897 -2.7337664679034366 18.684204390644766 9.385202739598732 0 0 0
380 127 1 0.5897 -1.0971579406990442 19.5127895999549 7.069788494864385 0 0 0
493 165 2 -1.1794 -3.7033424932955885 20.21718159364167 4.7352104999856435 1 0 0
998 333 1 0.5897 -6.851342161016425 20.70782196591213 13.848483165184652 1 0 0
954 318 1 0.5897 -5.800576015823282 21.807337666743038 11.896653684127688 1 0 0
895 299 2 -1.1794 -3.9674284204340187 19.541334951578293 12.877029002230902 0 0 0
848 283 1 0.5897 -4.153271442522991 21.10740850195974 13.942931385726295 0 0 0
859 287 2 -1.1794 -2.1242286632746596 18.015600904425632 9.697875728451141 0 0 0
896 299 1 0.5897 -4.6809934281162775 19.077094670893345 12.439173180837093 0 0 0
961 321 2 -1.1794 -5.765480011382444 17.82304748561063 12.040137765305134 1 0 0
434 145 1 0.5897 -3.8585948750262458 20.688091779367895 9.72505815787497 1 0 0
952 318 2 -1.1794 -6.633955239040432 21.46772289830035 12.222883835375736 1 0 0
985 329 2 -1.1794 -4.113215249859408 22.019621229796435 10.820512595270184 1 0 0
897 299 1 0.5897 -3.5687122804085902 18.884718552608085 13.448185199205517 0 0 0
963 321 1 0.5897 -5.8403649646002656 17.448080079506376 11.162584454297868 1 0 0
987 329 1 0.5897 -3.3658523379764764 22.41232920025616 11.27178848795276 1 0 0
986 329 1 0.5897 -4.592412587842841 22.764292771509105 10.456984261527083 1 0 0
999 333 1 0.5897 -6.429701155853211 19.61126494337981 14.803365806428246 1 0 0
975 325 1 0.5897 -4.876100344133401 19.035693179454405 16.436525661201273 1 0 0
847 283 2 -1.1794 -4.0454010749721885 21.868746842739604 14.513031351699547 0 0 0
974 325 1 0.5897 -6.213415759035001 18.33563060834208 16.5533980011422 1 0 0
973 325 2 -1.1794 -5.471986321363598 18.45725851540888 15.960343940392134 1 0 0
949 317 2 -1.1794 -7.35030206905228 21.543098175724886 16.890741364181736 1 0 0
950 317 1 0.5897 -7.229374247051617 21.10952326139573 16.04595332389883 1 0 0
951 317 1 0.5897 -7.456878034540608 20.825754059230356 17.51552515783606 1 0 0
356 119 1 0.5897 -5.268669258888408 17.49346340642031 19.128957805779315 0 0 -1
964 322 2 -1.1794 -7.883513731799321 17.876444497138102 17.023992754606496 1 0 0
937 313 2 -1.1794 -7.025332536011307 19.87850502872262 19.17088720538125 1 0 0
997 333 2 -1.1794 -7.1800818559710615 20.150759010726276 14.554088704516825 1 0 0
939 313 1 0.5897 -6.289763495173371 19.297512748743117 19.365049333982114 1 0 0
966 322 1 0.5897 -8.452957803771596 18.607544798027384 16.784135434243034 1 0 0
572 191 1 0.5897 -5.960382233489749 22.56919414220134 17.61763798048515 0 -1 0
965 322 1 0.5897 -8.024109776282415 17.226769821494933 16.335152484726557 1 0 0
47 16 1 0.5897 2.1694848728119602 4.699731620525351 1.3238133366343554 0 0 0
54 18 1 0.5897 3.513447301347983 3.2818721596621265 3.022982604656976 0 0 0
18 6 1 0.5897 4.847223840351059 3.7446135176217767 0.0569404069314767 0 0 0
31 11 2 -1.1794 1.7356077430486891 0.648428681696683 2.295492081666862 0 0 0
52 18 2 -1.1794 4.123578270089171 2.9044392301243147 3.6567389517815343 0 0 0
32 11 1 0.5897 1.5435983665570943 1.0127424498391393 3.15958954240609 0 0 0
70 24 2 -1.1794 4.30448241263607 0.5953081998649609 1.5252646865184114 0 0 0
46 16 2 -1.1794 2.045852458216471 4.319830937306664 2.193672509580681 0 0 0
71 24 1 0.5897 3.4077548504194084 0.7021181643206218 1.8424851447004031 0 0 0
48 16 1 0.5897 2.2660141452307982 5.0283967237107055 2.7984885440498752 0 0 0
528 176 1 0.5897 4.5196537164214465 1.8685509175217225 0.14273870632453128 0 0 1
21 7 1 0.5897 1.2263785279356751 2.1687167164850005 0.7727707021186623 0 0 0
33 11 1 0.5897 0.9558756563449426 0.14082356003555324 2.070268531252229 0 0 0
76 26 2 -1.1794 0.9110708022272327 1.94388455672577 4.425918097317671 0 0 0
78 26 1 0.5897 0.33213610567428464 2.6864998440702164 4.253659647404745 0 0 0
16 6 2 -1.1794 5.36016080634624 4.469628147271425 0.41424016886124027 0 0 0
19 7 2 -1.1794 1.432533070331476 2.5518788493644693 -0.07984165492305824 0 0 0
72 24 1 0.5897 4.6794582852193605 -0.08161462330149702 2.088703134889436 0 0 0
5 2 1 0.5897 2.970716706758834 0.23769513021992505 5.321761790979419 0 0 0
60 20 1 0.5897 2.527713193121051 3.7708579369326163 6.718643796104497 0 0 0
59 20 1 0.5897 1.815736516363737 3.380498186128748 5.440761448535634 0 0 0
34 12 2 -1.1794 0.5833231714505627 1.2444995535315526 7.008495947983386 0 0 0
35 12 1 0.5897 0.7885085379724401 1.750545840996865 7.794735272673931 0 0 0
44 15 1 0.5897 -0.29860950773322026 5.389953988453236 8.046379438232979 0 0 0
45 15 1 0.5897 0.446794379480866 4.9708380897606315 6.797146191250784 0 0 0
77 26 1 0.5897 0.6330301664063134 1.6160872053397484 5.28118242193042 0 0 0
43 15 2 -1.1794 -0.3873527458030317 5.333853334749563 7.0949172097105 0 0 0
58 20 2 -1.1794 1.9497176365657634 4.116311471693147 6.038253422455239 0 0 0
22 8 2 -1.1794 0.599536121252799 2.651769158043039 9.276995233773292 0 0 0
522 174 1 0.5897 2.099506223230488 5.425736918239901 9.298898539539799 0 0 0
36 12 1 0.5897 -0.32748176409814045 0.9750045019621021 7.127310816632803 0 0 0
6 2 1 0.5897 3.6836406871028498 1.494530918704668 4.869839860144253 0 0 0
4 2 2 -1.1794 3.628612156969628 0.8757881842072005 5.598145540330268 0 0 0
41 14 1 0.5897 3.3447485665327683 1.8434096028108726 7.131915542355483 0 0 0
11 4 1 0.5897 2.5702333350370186 5.629008952589171 4.86743814003236 0 0 0
24 8 1 0.5897 1.0911385986957525 3.4246973228527566 9.555009610135599 0 0 0
525 175 1 0.5897 -1.225837474263039 2.8860154456927978 9.588285643781656 0 0 0
576 192 1 0.5897 -0.16463133607824254 0.648346042584325 11.515514439226333 0 0 0
536 179 1 0.5897 -2.033589579117482 1.5002240903626285 12.894222229224658 0 0 0
574 192 2 -1.1794 0.4009139622281461 0.34280372211407545 10.806275856539441 0 0 0
558 186 1 0.5897 -0.07939868206104617 4.010973411821465 13.021423918653449 0 0 0
550 184 2 -1.1794 -1.4903314091098299 5.001134706585265 12.119474871974944 0 0 0
557 186 1 0.5897 0.13754733469357205 2.84569320542062 13.96332676317412 0 0 0
535 179 2 -1.1794 -2.1117376551505167 1.054011041700948 12.050948317960406 0 0 0
23 8 1 0.5897 0.7595227104876856 2.0054271852481955 9.964722604715096 0 0 0
556 186 2 -1.1794 0.5941903312496848 3.574537974340935 13.54310830948032 0 0 0
552 184 1 0.5897 -2.4281850051921605 4.992144630479688 12.310836204680944 0 0 0
587 196 1 0.5897 -0.7641790115735776 5.442861867118197 10.433556079109398 0 0 0
520 174 2 -1.1794 2.310753227307261 4.637661689013442 9.799509799525875 0 0 0
537 179 1 0.5897 -2.369927678862676 1.7425526289320854 11.438124392658093 0 0 0
539 180 1 0.5897 -2.8537301371424695 1.761684292062856 17.54536620275286 0 0 0
581 194 1 0.5897 -2.710346235951268 1.9391783705436927 15.158232604263054 0 0 0
563 188 1 0.5897 -0.9868514130635422 4.991189962661262 15.865290708265016 0 0 0
564 188 1 0.5897 -1.9382072342422632 4.517702730604618 16.94351896119204 0 0 0
562 188 2 -1.1794 -1.1700649973386348 4.248025624153711 16.440114605858398 0 0 0
538 180 2 -1.1794 -3.2233704104507908 1.2468769920027722 16.827950255089547 0 0 0
582 194 1 0.5897 -1.889237596926363 3.20980130302096 15.098686364323704 0 0 0
508 170 2 -1.1794 0.37562832794581613 1.1520716470769128 14.893587502797914 0 0 0
547 183 2 -1.1794 -3.6137247443435756 5.190852330675397 17.315829976945807 0 0 0
527 176 1 0.5897 -3.2602872404476715 2.7364843652955555 19.37198257297044 0 0 0
549 183 1 0.5897 -4.2997751481399344 4.572570623016833 17.06389022768365 0 0 0
540 180 1 0.5897 -4.1430520817091265 1.1292197926353962 17.065882757212144 0 0 0
526 176 2 -1.1794 -2.3530941267447227 2.665555273827751 19.07494520051886 0 0 0
546 182 1 0.5897 0.11470607126966303 3.2912502986943375 16.88198866387981 0 0 0
510 170 1 0.5897 0.3429059522474214 1.4804964460601118 15.792119818079362 0 0 0
905 302 1 0.5897 -1.679234957399447 0.16232402035799703 17.007039464080485 0 1 0
580 194 2 -1.1794 -2.3365889509521685 2.5708117539611965 14.543724099561762 0 0 0
245 82 1 0.5897 1.2094722368613802 9.534419804343559 4.030860346332704 0 0 0
221 74 1 0.5897 4.396862958232845 10.434589706992828 2.4733103969762684 0 0 0
240 80 1 0.5897 3.446818905718411 7.253368221765567 1.1763459439104582 0 0 0
220 74 2 -1.1794 3.7708436032512918 10.638984831254797 3.167957137641888 0 0 0
238 80 2 -1.1794 3.8895669527859686 7.986031652416818 1.6048211957611445 0 0 0
200 67 1 0.5897 0.7257827214828385 8.076743630331702 2.3014280237062965 0 0 0
239 80 1 0.5897 4.001513567206887 8.637090664720564 0.9120819832777227 0 0 0
201 67 1 0.5897 2.1792653428201456 8.490584487905885 2.21108356199855 0 0 0
199 67 2 -1.1794 1.3131190951111593 8.816846183323259 2.4551639503562237 0 0 0
174 58 1 0.5897 3.786970637878051 9.078144857979412 4.354790844465882 0 0 0
10 4 2 -1.1794 2.3449210960670275 6.175754809585313 4.114702568259523 0 0 0
12 4 1 0.5897 1.5489566400672778 6.635527796060808 4.381655721037109 0 0 0
696 232 1 0.5897 4.567556489011279 11.137653176930204 0.1486852583541025 0 0 1
222 74 1 0.5897 3.073042012698691 11.12384120464779 2.7271331159873164 0 0 0
189 63 1 0.5897 2.047890558195647 10.850348362559672 0.3119871786150424 0 0 0
82 28 2 -1.1794 2.3520850455002975 6.259475224584365 0.13684435325745214 0 0 0
173 58 1 0.5897 3.578131629294231 7.60140447717433 4.615204207057168 0 0 0
83 28 1 0.5897 1.8185783940966118 7.037727950466179 -0.024335609854782475 0 0 0
694 232 2 -1.1794 4.021549270560508 10.364291706925156 0.006673491851147184 0 0 1
191 64 1 0.5897 0.4331463230367958 9.651487308512872 8.776766931286911 0 0 0
246 82 1 0.5897 0.6378163712077907 9.372192833664343 5.423244000517748 0 0 0
172 58 2 -1.1794 4.017036329718228 8.377074004425298 4.964625877329629 0 0 0
202 68 2 -1.1794 0.08374964354347947 8.717947539960717 7.220140776951054 0 0 0
203 68 1 0.5897 -0.6943835063925801 8.257907389638877 7.535066319713094 0 0 0
64 22 2 -1.1794 2.110107173274086 7.111109142452277 8.394607630965854 0 0 0
204 68 1 0.5897 0.8159779757736558 8.163635451128957 7.490159497743671 0 0 0
66 22 1 0.5897 2.856279915506633 6.726336868270639 7.934848746236604 0 0 0
65 22 1 0.5897 2.5011242167931815 7.733404264120519 9.007989118422264 0 0 0
8 3 1 0.5897 -0.37056203859413905 6.655223730991946 5.680103906316732 0 0 0
588 196 1 0.5897 -1.1509799133669034 6.489137483995276 9.409942819909817 0 0 0
209 70 1 0.5897 3.3026551610105646 10.734824067996444 7.116987118637429 0 0 0
7 3 2 -1.1794 -0.21934952768377158 6.913331809991003 4.770832882648242 0 0 0
244 82 2 -1.1794 0.9140496254967214 10.035654201259906 4.790948161397874 0 0 0
228 76 1 0.5897 1.9363497341698492 11.309013056009121 5.654698658806637 0 0 0
190 64 2 -1.1794 0.3770368263802122 10.115460162988692 9.612142963885024 0 0 0
192 64 1 0.5897 1.0522852985821665 10.791740877864793 9.556979220962166 0 0 0
678 226 1 0.5897 0.3512497923585478 9.216391521301997 14.307712255940976 0 0 0
744 248 1 0.5897 0.4128577020408679 7.367022555340908 10.664772987497107 0 0 0
705 235 1 0.5897 -1.904889609676201 8.786772325796207 13.303384920022388 0 0 0
742 248 2 -1.1794 0.474006637242673 7.973026446924017 11.403256804209429 0 0 0
724 242 2 -1.1794 0.605487754599765 10.767920814219616 13.386759135519423 0 0 0
743 248 1 0.5897 0.5492322783029246 8.837402308854516 10.99887386868477 0 0 0
703 235 2 -1.1794 -1.9852673692942249 8.280215313474734 12.49517196861965 0 0 0
704 235 1 0.5897 -1.0890299860500345 8.208820688573574 12.166667061464155 0 0 0
586 196 2 -1.1794 -0.4030249728394453 5.98721360920824 9.733917594023024 0 0 0
551 184 1 0.5897 -1.1519190448744299 5.748826258813464 12.612258277150751 0 0 0
726 242 1 0.5897 -0.180235357926942 11.09983508850958 12.952274535901783 0 0 0
692 231 1 0.5897 -1.3964626400507871 10.080127315013836 9.800163737302228 0 0 0
725 242 1 0.5897 0.8125710195669225 11.429651359309146 14.046752359010748 0 0 0
693 231 1 0.5897 -2.2407259844028125 9.508604489377829 10.91931183774318 0 0 0
534 178 1 0.5897 1.7152245304816702 6.883301248768976 12.206727641114997 0 0 0
516 172 1 0.5897 -0.341203202572828 7.034419446739515 14.764310338053118 0 0 0
707 236 1 0.5897 -3.590695899043568 8.758313782909687 17.61753837996332 0 0 0
706 236 2 -1.1794 -2.7028340420459465 8.903973002438379 17.290873625282963 0 0 0
568 190 2 -1.1794 -1.1421997697507544 6.874306538358476 18.32046837962144 0 0 0
748 250 2 -1.1794 -2.4334041557528394 10.191061067364084 14.828235079959681 0 0 0