LAMMPS data file via write_data, version 30 Jul 2021, timestep = 25000000

1296 atoms
2 atom types
864 bonds
1 bond types
432 angles
1 angle types

-10.771362218296845 12.751362218296846 xlo xhi
-9.185830130434152 12.175828130434152 ylo yhi
0.09027109282561696 21.769727907186017 zlo zhi
-9.376714732885558 1.6753985552284008 2.6969236228003686 xy xz yz

Masses

1 1.008
2 15.999

Pair Coeffs # lj/cut/tip4p/long/omp

1 0 0
2 0.21084 3.1668

Bond Coeffs # harmonic/omp

1 450 0.9572

Angle Coeffs # harmonic/omp

1 55 104.52

Atoms # full

299 100 1 0.5897 -6.746300474500089 -8.150655293227722 4.4246875574466555 1 1 0
270 90 1 0.5897 -8.422260602923439 -7.385167680111494 2.264739327946442 1 1 0
269 90 1 0.5897 -9.401411925203204 -6.239208563087715 2.405270613922639 1 1 0
268 90 2 -1.1794 -9.133922232343993 -7.060963995791694 2.8167302295304038 1 1 0
323 108 1 0.5897 -6.17728562813862 -5.71380087645125 3.1682851946026225 1 1 0
324 108 1 0.5897 -7.122764334711052 -4.617736417632489 3.611611452710014 1 1 0
163 55 2 -1.1794 -7.24052899088543 -7.961969483661148 1.0116474072582489 1 1 0
164 55 1 0.5897 -6.541400063088172 -8.461987391172908 1.432835981038747 1 1 0
1226 409 1 0.5897 -9.528853654482818 -5.861354890049958 0.29567944838061533 0 0 1
260 87 1 0.5897 -6.6001626290435995 -6.268233626310883 0.2479297045220021 1 1 0
280 94 2 -1.1794 -9.66809249131569 -4.598111777240743 1.5386247566844586 1 1 0
314 105 1 0.5897 -8.913821126449564 -6.657454784706989 4.701422797303109 1 1 0
281 94 1 0.5897 -9.003028813405626 -3.913312794848167 1.6094580094794673 1 1 0
298 100 2 -1.1794 -6.191355404244407 -7.383986316062733 4.2814757411637565 1 1 0
73 25 2 -1.1794 -8.255580808064547 -3.8260598742958525 4.89480883492833 1 0 0
322 108 2 -1.1794 -6.505933315019016 -4.850498822515706 2.91761332983229 1 1 0
259 87 2 -1.1794 -6.814677142825408 -5.335464041542012 0.24163028215456778 1 1 0
282 94 1 0.5897 -10.501245863301076 -4.128144963154487 1.573505456825721 1 1 0
261 87 1 0.5897 -7.053031202862012 -5.1379136004243495 1.1474012657118866 1 1 0
300 100 1 0.5897 -5.312185550423537 -7.74303748170879 4.16148639306061 1 1 0
165 55 1 0.5897 -7.45740048354198 -8.466249885489669 0.22745677085181773 1 1 0
75 25 1 0.5897 -9.120906911329762 -3.5420993727010925 4.600168832253114 1 0 0
275 92 1 0.5897 -10.549778523827554 -8.058646707509057 3.3932087052170807 1 1 0
1143 381 1 0.5897 -10.269167682616434 -8.315850142388317 0.11146668355826603 0 0 1
419 140 1 0.5897 -9.191174124006164 -5.0557988681848745 8.676179909755799 1 0 0
418 140 2 -1.1794 -9.824133340269803 -5.538988245301362 9.207383589597791 1 0 0
428 143 1 0.5897 -6.568734818033792 -6.99551254833765 10.049527975753472 1 0 0
429 143 1 0.5897 -6.405510017124532 -6.824887566812338 8.554114688413032 1 0 0
618 206 1 0.5897 -8.069491827881533 -7.441204855979535 6.850054307936219 1 1 0
420 140 1 0.5897 -9.288020523977476 -6.09409759773029 9.773615361289707 1 0 0
414 138 1 0.5897 -7.082256149976897 -4.895229558752437 7.567913127097394 1 0 0
413 138 1 0.5897 -7.840412429140558 -3.5955842599247125 7.401243598973635 1 0 0
412 138 2 -1.1794 -7.791446647260567 -4.378264611725325 7.950035774727146 1 0 0
627 209 1 0.5897 -10.419501758135118 -7.064519118320749 6.308515730795137 1 1 0
350 117 1 0.5897 -7.488253899777812 -3.6736674441548693 9.670693673187614 0 0 0
427 143 2 -1.1794 -5.910694439830711 -7.000989355512351 9.354362085300439 1 0 0
616 206 2 -1.1794 -7.620300758837638 -8.034701637612295 7.451857577239073 1 1 0
631 211 2 -1.1794 -5.82845971307754 -5.611660774340866 6.592620929693221 1 1 0
626 209 1 0.5897 -10.874807702233037 -6.637144289321945 7.687665418718529 1 1 0
727 243 2 -1.1794 -8.483394773733407 -7.258997985404127 10.819520588507178 1 0 0
633 211 1 0.5897 -6.256588022185366 -6.146211410746915 5.923850581811109 1 1 0
351 117 1 0.5897 -7.385515158227606 -2.609575599009254 10.742670462829853 0 0 0
349 117 2 -1.1794 -7.43836234960982 -3.557322911564385 10.619517234527013 0 0 0
313 105 2 -1.1794 -8.968069858034575 -6.362740397233884 5.610538721735835 1 1 0
315 105 1 0.5897 -8.689358996462621 -5.447439714518005 5.583143628168299 1 1 0
661 221 2 -1.1794 -9.639867114566275 -4.398448209990348 12.215080005322235 0 0 0
767 256 1 0.5897 -11.396381018932264 -2.8486290959624476 14.651436543861283 0 0 0
780 260 1 0.5897 -7.909192444110144 -3.892450859129596 15.13194445117011 0 0 0
779 260 1 0.5897 -7.600214436081698 -2.9462029231180242 13.991321861579227 0 0 0
778 260 2 -1.1794 -8.326149305796115 -3.3045007366914287 14.502151110399302 0 0 0
740 247 1 0.5897 -11.237370661539911 -3.3317022081651757 11.935110675101935 1 0 0
662 221 1 0.5897 -9.354368920069172 -4.067271223951068 13.066595787124283 0 0 0
652 218 2 -1.1794 -5.919560405986241 -5.689982043580024 12.513118798891218 0 0 0
654 218 1 0.5897 -6.2922665378435925 -4.900473088650925 12.120801966339378 0 0 0
653 218 1 0.5897 -6.677979351046155 -6.184637549057519 12.823616751146677 0 0 0
768 256 1 0.5897 -9.934271629202854 -2.475699530804481 14.775011344284302 0 0 0
663 221 1 0.5897 -9.067892566943186 -3.9619267304289387 11.583784627257899 0 0 0
684 228 1 0.5897 -8.640242650016896 -6.483473379438912 14.211558058934063 0 0 0
757 253 2 -1.1794 -9.794163397984699 -5.8218935883313145 15.487220611758481 0 0 0
682 228 2 -1.1794 -8.065100029298836 -6.993418087451249 13.641103677831444 0 0 0
729 243 1 0.5897 -8.489506000854531 -7.100308097749604 11.763486103628267 1 0 0
766 256 2 -1.1794 -10.808514441324263 -2.0943984888801426 14.694121173317788 0 0 0
788 263 1 0.5897 -5.359133241720494 -4.677464295859213 15.566318892034706 0 0 0
789 263 1 0.5897 -5.048263497023813 -4.661989815992277 14.084713809767752 0 0 0
758 253 1 0.5897 -9.809517027367894 -5.385680435813958 16.339141752764636 0 0 0
1248 416 1 0.5897 -6.1066720115249105 -1.893726608574502 20.412964233552227 0 0 0
1089 363 1 0.5897 -6.746422803888009 -4.603970843919111 17.32369153177701 0 0 0
1227 409 1 0.5897 -8.756675361122975 -3.3897681402689406 20.78122028723178 0 0 0
1219 407 2 -1.1794 -10.425093328381255 -2.5141892295116124 20.183369440825686 0 0 0
1088 363 1 0.5897 -6.814476419686706 -5.953540673326415 16.641133422152492 0 0 0
1087 363 2 -1.1794 -6.91433029399671 -5.016012766930755 16.47615674286306 0 0 0
1152 384 1 0.5897 -6.850626366735832 -4.072592055539857 19.955581483303593 0 0 0
1131 377 1 0.5897 -7.501185740952135 -1.9728673387227964 16.910051269681265 0 0 0
1151 384 1 0.5897 -6.224799495174841 -5.349261602346108 19.43572210613862 0 0 0
1150 384 2 -1.1794 -6.358941859045596 -4.427618904391663 19.214982809091538 0 0 0
1109 370 1 0.5897 -8.924191042162416 -4.267542009528442 17.630343895421042 0 0 0
1108 370 2 -1.1794 -9.710272407556987 -4.711807839438345 17.948143105863224 0 0 0
1130 377 1 0.5897 -7.800317822683157 -2.148610597637367 18.383696541942403 0 0 0
1129 377 2 -1.1794 -8.204261553078759 -2.2028583698841038 17.517583723860458 0 0 0
1225 409 2 -1.1794 -8.076908208966131 -3.8119199878217085 21.306479082035214 0 0 0
1121 374 1 0.5897 -5.162121953688998 -3.4151008184924354 18.50250634858657 0 0 0
1221 407 1 0.5897 -10.848597969461531 -2.6125146500403407 19.33057931950373 0 0 0
1110 370 1 0.5897 -10.413788008661104 -4.075409254359516 17.82067643123233 0 0 0
1097 366 1 0.5897 -9.394745643736016 -6.316510757860897 18.817960238922744 0 0 0
59 20 1 0.5897 -13.708821097746025 -0.927121907047729 3.2891804758073064 1 0 0
67 23 2 -1.1794 -10.651967193615237 -2.6803142502010067 4.275627271380398 1 0 0
272 91 1 0.5897 -9.563708386517803 -1.6362551257247162 0.9132426542252268 1 1 0
271 91 2 -1.1794 -10.282041783794089 -1.0467780742778192 0.6836706420037181 1 1 0
69 23 1 0.5897 -11.062672019137356 -3.0612750685801116 3.4994236789314224 1 0 0
83 28 1 0.5897 -9.640849586096273 -1.1016552263818529 4.119485082306462 1 0 0
68 23 1 0.5897 -11.305316145087493 -2.782952593645713 4.967658814819773 1 0 0
107 36 1 0.5897 -9.695451632512919 1.3038883462280602 3.3130252654113175 1 0 0
98 33 1 0.5897 -12.358790007834019 0.17233290941028478 4.2678492163994015 1 0 0
54 18 1 0.5897 -11.597815211857547 -0.47019092099027837 2.10576291390028 1 0 0
53 18 1 0.5897 -12.464019306430933 0.7668567660653931 2.2113205650211083 1 0 0
52 18 2 -1.1794 -12.260005567731124 -0.05466150427310268 2.658125682469414 1 0 0
82 28 2 -1.1794 -9.262609945377502 -0.22315748455349294 4.156889110976952 1 0 0
256 86 2 -1.1794 -12.205321515538461 -3.407295854133361 1.8630802493025482 1 1 0
258 86 1 0.5897 -12.665862403941095 -2.784747755430179 1.300496426057319 1 1 0
74 25 1 0.5897 -7.943766113928793 -3.1103398948094814 5.448680711925373 1 0 0
301 101 2 -1.1794 -8.027285871241183 -2.381454865339953 1.55761360185914 1 1 0
97 33 2 -1.1794 -12.309332373779286 0.5923932846042792 5.126563480769056 1 0 0
84 28 1 0.5897 -8.321079647278431 -0.3626371031249267 4.055209019127849 1 0 0
99 33 1 0.5897 -12.20203862943863 1.5235035260029548 4.932414360853087 1 0 0
426 142 1 0.5897 -8.815738045818971 -1.488482821172866 6.887078202359174 1 0 0
522 174 1 0.5897 -10.174114696150685 2.151771586812057 7.193600242995186 1 0 0
528 176 1 0.5897 -12.788782527452682 0.5765496699611017 9.75824412059697 1 0 0
402 134 1 0.5897 -11.108773274068824 -0.3683951209495415 6.279070096144396 1 0 0
401 134 1 0.5897 -11.215616737616255 -1.3462200222241867 7.429836649473589 1 0 0
400 134 2 -1.1794 -10.58667301635367 -0.8059336755764583 6.9515077979759985 1 0 0
527 176 1 0.5897 -12.210002398245745 1.5447832387850866 8.748571400765156 1 0 0
526 176 2 -1.1794 -13.04040350002053 1.1995673663617126 9.076545874665387 1 0 0
424 142 2 -1.1794 -7.960636576797032 -1.918065734025575 6.908961282145651 1 0 0
537 179 1 0.5897 -9.54336375109097 -0.6284921699411932 8.69502190580475 1 0 0
536 179 1 0.5897 -10.08491572921464 -0.1692691910046875 10.032131007438895 1 0 0
535 179 2 -1.1794 -9.290844398470007 -0.17195805540400855 9.497581874064725 1 0 0
443 148 1 0.5897 -8.581899973888401 1.7289140963296106 9.613994874120154 0 0 0
435 145 1 0.5897 -7.717576235164847 -0.6618531543036195 10.032185847900084 0 0 0
411 137 1 0.5897 -13.977925322392789 0.2971872032600693 6.437537891137603 1 0 0
430 144 2 -1.1794 -12.372675864351267 -2.3359087909541323 8.362682644681588 1 0 0
458 153 1 0.5897 -10.660219712978606 2.5810286377628646 9.742235734747176 0 0 0
417 139 1 0.5897 -9.004117286049286 0.7315067836178617 5.727809505283856 1 0 0
760 254 2 -1.1794 -9.262059401941276 1.5092979167799427 13.02882589403188 0 0 0
790 264 2 -1.1794 -11.845433116198304 0.37607451564866246 13.84210818463493 0 0 0
791 264 1 0.5897 -11.718102380560854 -0.5065849189542089 14.189733110285369 0 0 0
769 257 2 -1.1794 -12.925280347290538 2.779586479969394 12.593142014785077 0 0 0
762 254 1 0.5897 -9.826918720615534 1.7739074001107014 12.302775204075912 0 0 0
761 254 1 0.5897 -9.85298544578348 1.0828208920691118 13.6494787527978 0 0 0
837 279 1 0.5897 -11.69506019951243 -0.02077970285356301 11.909829382366977 1 0 0
792 264 1 0.5897 -12.597680612739177 0.7180305290565361 14.32527318654036 0 0 0
888 296 1 0.5897 -10.973575207970399 3.2445242962791685 15.272193227983774 0 0 0
896 299 1 0.5897 -8.074657042668399 2.5952165311408812 15.841843321535002 0 0 0
897 299 1 0.5897 -8.320034513757356 2.3974823689844875 14.361058142313002 0 0 0
835 279 2 -1.1794 -11.78046792356553 -0.3698286022209416 11.022612604938587 1 0 0
771 257 1 0.5897 -12.309563277289737 2.6288538819247638 11.875881519640783 0 0 0
836 279 1 0.5897 -11.825755362856661 -1.3185275161417955 11.141287839549873 1 0 0
1101 367 1 0.5897 -10.656165905343713 -1.2468535404124843 16.25580840827239 0 0 0
1100 367 1 0.5897 -9.59694048722807 -1.0310481816339667 17.315774055783486 0 0 0
1251 417 1 0.5897 -11.84436894142901 2.029232815732529 21.52370286282331 0 0 0
1009 337 2 -1.1794 -11.533524330649465 3.81389813159981 20.47652788769687 0 -1 0
1259 420 1 0.5897 -9.298330986128677 1.7086894392555134 19.6356061586587 0 0 0
1258 420 2 -1.1794 -9.266170903945088 2.6336173607025817 19.3914126395623 0 0 0
1236 412 1 0.5897 -8.304807483409476 -0.5014698238227027 20.435995263723807 0 0 0
1217 406 1 0.5897 -11.937204776633724 3.510707211610706 17.87833196954576 0 0 0
1206 402 1 0.5897 -11.681508111902215 -0.3121310907075596 18.37025633866487 0 0 0
1234 412 2 -1.1794 -9.106793641503817 -0.0277750617622452 20.215439964917106 0 0 0
1250 417 1 0.5897 -12.146712760417245 0.7748056240948493 20.73191158924554 0 0 0
1216 406 2 -1.1794 -12.598163491976118 2.8185731274770873 17.85930184285045 0 0 0
1204 402 2 -1.1794 -12.153919080858111 0.26091353711692733 18.974152189646116 0 0 0
1218 406 1 0.5897 -13.434163333265278 3.2847094735111284 17.86634366421304 0 0 0
1260 420 1 0.5897 -10.001173860561487 3.0308171266625568 19.85860215869202 0 0 0
1197 399 1 0.5897 -9.526930179333533 2.495184773891305 17.363412578890557 0 0 0
1099 367 2 -1.1794 -10.338630690696508 -0.6025772313636164 16.888546150586834 0 0 0
1235 412 1 0.5897 -9.672661754870019 -0.6874767390087122 19.81434076769727 0 0 0
1246 416 2 -1.1794 -6.511426555474706 -1.327234774556552 19.756121152738082 0 0 0
1205 402 1 0.5897 -12.377083000514137 1.0300683907514863 18.449987274481863 0 0 0
1229 410 1 0.5897 -8.14385489435655 3.683506881796797 18.425266433788874 0 0 0
866 289 1 0.5897 -13.039336153179857 1.701782952705237 16.61701242830202 0 0 0
1195 399 2 -1.1794 -9.973309609289824 2.1656842369244558 16.5833754177022 0 0 0
1249 417 2 -1.1794 -11.940236215451485 1.0812569837229127 21.614944493303714 0 0 0
44 15 1 0.5897 -8.245469145728656 3.397024143648446 21.584092614473434 1 0 -1
273 91 1 0.5897 -9.086583582499445 1.1875150429434242 21.67615698138092 1 1 -1
1196 399 1 0.5897 -10.186174069057333 1.2567021770653373 16.794629531310665 0 0 0
167 56 1 0.5897 -17.098510625566334 6.415111407201339 3.396385873907503 1 0 0
66 22 1 0.5897 -13.854360294521069 2.718180994666408 1.6787813744860989 1 0 0
191 64 1 0.5897 -13.071828277694214 6.417889326400163 4.384592254712892 1 0 0
56 19 1 0.5897 -13.09648471232014 5.805918545247852 1.2415476709505116 1 0 0
65 22 1 0.5897 -12.360132185083831 2.8315743427291657 1.463086115478195 1 0 0
64 22 2 -1.1794 -13.10413934855192 2.2476616546394244 1.3154216477985579 1 0 0
177 59 1 0.5897 -14.505984573607408 4.857551358766438 3.170895674824107 1 0 0
45 15 1 0.5897 -9.977757180528082 1.7218364098287875 1.0203298711240945 1 0 0
40 14 2 -1.1794 -15.412330898722992 3.7327486524258937 1.9050705388334672 1 0 0
183 61 1 0.5897 -12.469651593617076 3.7607502757503894 4.14342489114147 1 0 0
55 19 2 -1.1794 -13.842447211158227 6.313281190660987 0.9216679019352464 1 0 0
108 36 1 0.5897 -10.291710350023262 2.6953179697563474 3.3226688909075928 1 0 0
85 29 2 -1.1794 -11.426754730675047 4.454232989133882 1.4851171515892574 1 0 0
175 59 2 -1.1794 -13.948404493601185 4.818747161748027 3.9479878692602073 1 0 0
176 59 1 0.5897 -14.561666391236237 4.7623048390922875 4.680809831396316 1 0 0
181 61 2 -1.1794 -11.65153872772632 3.2871430621096813 4.293782053873352 1 0 0
42 14 1 0.5897 -15.926831124438088 4.138034853861225 1.207040701685061 1 0 0
190 64 2 -1.1794 -12.324457708621653 7.008503558700031 4.290213044197047 1 0 0
182 61 1 0.5897 -11.2342745399274 3.7528954036378916 5.0185330973201925 1 0 0
192 64 1 0.5897 -11.559047595523653 6.434967950132364 4.327528696341058 1 0 0
162 54 1 0.5897 -14.868943727196495 6.76051770114938 2.0893363569991967 1 0 0
86 29 1 0.5897 -10.991139298613282 4.732086961225223 2.2909251080332016 1 0 0
106 36 2 -1.1794 -9.725225268786463 2.118088548332997 2.8106889624196656 1 0 0
57 19 1 0.5897 -14.330301018669495 5.701357176653763 0.3704487139423909 1 0 0
160 54 2 -1.1794 -15.44189688816179 7.110971447578848 2.7713618818746495 1 0 0
508 170 2 -1.1794 -13.722358883710609 6.265290963122332 7.364716954750001 1 0 0
543 181 1 0.5897 -10.812592523349238 6.228529796430376 9.729108148963322 0 0 0
510 170 1 0.5897 -14.102425112846511 6.9886039914480165 6.866200384503271 1 0 0
509 170 1 0.5897 -14.464918858493288 5.875781160238898 7.82644219219167 1 0 0
644 215 1 0.5897 -13.084456796511613 6.9254219632193355 10.349756938289309 1 0 0
643 215 2 -1.1794 -12.398126551281038 7.122181234208224 9.712150128601206 1 0 0
457 153 2 -1.1794 -10.800713795012648 2.8668229793358577 10.644934439259554 0 0 0
521 174 1 0.5897 -10.974144707340477 3.374336524307461 7.589899766860495 1 0 0
534 178 1 0.5897 -12.035780337291191 5.494068004418223 6.861508031938199 1 0 0
532 178 2 -1.1794 -11.24826457313336 5.008359655625634 6.616305559555408 1 0 0
645 215 1 0.5897 -12.795114971925488 6.925066038152227 8.863715644799697 1 0 0
533 178 1 0.5897 -10.538791112674508 5.646203223836283 6.694374766761544 1 0 0
459 153 1 0.5897 -10.453877653229275 3.758585885346802 10.671062992397138 0 0 0
636 212 1 0.5897 -15.710204872026711 7.8454377675487414 9.782625175805038 1 0 0
520 174 2 -1.1794 -10.819045277556825 2.4608250990813065 7.8298629795205885 1 0 0
900 300 1 0.5897 -15.488986544669526 7.396080195004696 14.512675241195632 0 0 0
898 300 2 -1.1794 -14.812769076458595 7.107732000630623 13.899603545973763 0 0 0
875 292 1 0.5897 -14.390053762552249 4.094533624110818 14.930469331436589 0 0 0
887 296 1 0.5897 -10.464001175674806 4.12838748600819 14.153698191378897 0 0 0
899 300 1 0.5897 -14.595865518980222 6.219306606488908 14.182078304913306 0 0 0
945 315 1 0.5897 -14.976372310004987 7.093435253201182 11.911207750624195 1 0 0
874 292 2 -1.1794 -13.781658302261265 4.821665105526149 14.79855516044422 0 0 0
876 292 1 0.5897 -12.916643848101248 4.411947950726011 14.787550553832608 0 0 0
943 315 2 -1.1794 -14.99912167014512 6.678229744592862 11.04902074305082 1 0 0
848 283 1 0.5897 -14.500803803750468 3.554639391816746 12.338942136014674 1 0 0
869 290 1 0.5897 -13.343657390999041 8.227978385952241 13.189277541394668 0 0 0
886 296 2 -1.1794 -11.26901777852397 3.8421239566843006 14.58533812999439 0 0 0
894 298 1 0.5897 -10.753526414673923 7.816754520229853 12.606263275154236 0 0 0
770 257 1 0.5897 -12.405644450768296 3.217188722151576 13.267521197024745 0 0 0
1209 403 1 0.5897 -13.467956955917503 6.096300993980625 16.27839645486535 0 0 0
944 315 1 0.5897 -15.244527826180846 5.770197295458706 11.226344570004377 1 0 0
1043 348 1 0.5897 -12.502085699467306 8.82547264755457 19.543708039427756 0 -1 0
1208 403 1 0.5897 -12.610984241210685 6.197387998249486 17.522346842911567 0 0 0
1032 344 1 0.5897 -9.077954966217854 5.7805665147474485 20.726101910764005 0 -1 0
1207 403 2 -1.1794 -13.423076952358208 6.522972948779843 17.134099710710334 0 0 0
1018 340 2 -1.1794 -12.304571116702006 7.262278492315065 20.33834984248019 0 -1 0
1019 340 1 0.5897 -12.829572246310413 6.462531806789027 20.370518542397473 0 -1 0
1020 340 1 0.5897 -11.419483033602232 6.9777669051362885 20.566202851429782 0 -1 0
1030 344 2 -1.1794 -9.56934160343403 6.413903661464504 20.203051838076334 0 -1 0
1237 413 2 -1.1794 -11.046964121842993 5.118927650711406 17.939258519456324 0 0 0
1034 345 1 0.5897 -14.967653866516667 7.6078040660126085 20.818521481301175 0 -1 0
1239 413 1 0.5897 -10.435535720187003 5.237860384213487 17.212408220768584 0 0 0
1238 413 1 0.5897 -10.65447628655819 5.604385830444837 18.664908091224948 0 0 0
990 330 1 0.5897 -14.730117177359368 7.020619472138478 18.482553868859156 0 -1 0
980 327 1 0.5897 -13.427104734584528 8.235038811562926 16.762093805684643 0 -1 0
989 330 1 0.5897 -15.67314428266451 8.111541405978013 18.943436917903714 0 -1 0
1003 335 2 -1.1794 -14.115489989973902 5.070854170200045 20.397359770441206 0 -1 0
1035 345 1 0.5897 -14.803131256987122 9.003428924209889 21.381567324776146 0 -1 0
1033 345 2 -1.1794 -15.008494369315727 8.103875180193505 21.63615530939948 0 -1 0
43 15 2 -1.1794 -8.307023246013847 4.33839324762307 21.74594872183884 1 0 -1
1010 337 1 0.5897 -11.390544309557908 4.325132620189187 21.27307281139074 0 -1 0
650 217 1 0.5897 -16.231709144644945 8.610776133863382 16.4874643610779 0 -1 0
1011 337 1 0.5897 -12.436815085133269 4.0076023957184805 20.225901683560853 0 -1 0
174 58 1 0.5897 -16.68927073278769 9.931347816615055 1.6801266653241973 1 0 0
173 58 1 0.5897 -15.224277425981029 10.243190619866517 1.9006565511994171 1 0 0
172 58 2 -1.1794 -15.83836162157171 9.514003543720186 1.8142943603993325 1 0 0
161 54 1 0.5897 -15.689235146876882 7.979469533029665 2.4540663068536457 1 0 0
214 72 2 -1.1794 -12.86420170395277 9.444108141130219 3.068018910671046 1 0 0
1141 381 2 -1.1794 -19.96241725123965 12.143288578793907 0.14964077604909656 0 -1 1
148 50 2 -1.1794 -18.31321859416688 10.593140937193407 1.7476262385384755 1 0 0
152 51 1 0.5897 -13.614296920670453 8.052917399465422 0.48001444136038857 1 0 0
283 95 2 -1.1794 -17.08659753911672 11.67240359528381 4.117098964445799 1 0 0
291 97 1 0.5897 -15.617505936266507 10.809824858200656 4.5498845210973355 1 0 0
289 97 2 -1.1794 -14.720720629866713 10.559193766042345 4.771740874542794 1 0 0
284 95 1 0.5897 -17.727077642328474 11.552368883911953 4.81829116332747 1 0 0
150 50 1 0.5897 -18.624140615622295 11.285129662113949 1.1639862305531807 1 0 0
285 95 1 0.5897 -17.533827091088174 11.365390117356668 3.328411669802834 1 0 0
194 65 1 0.5897 -14.069338480077377 12.077555053846385 2.5238792842088325 1 0 0
216 72 1 0.5897 -13.529928860501037 9.873489877060994 3.605321095265798 1 0 0
193 65 2 -1.1794 -14.505422605571642 11.818349452377966 1.712133098642717 1 0 0
215 72 1 0.5897 -12.8105449833564 8.55476454883308 3.4177624124360415 1 0 0
1118 373 1 0.5897 -15.972765391478767 8.604955908043138 0.12360677598088789 0 -1 1
151 51 2 -1.1794 -13.230084757046125 8.923795664253177 0.37914703956258505 1 0 0
153 51 1 0.5897 -13.191675303857602 9.273732123951092 1.2692944565102882 1 0 0
206 69 1 0.5897 -14.938634926285658 7.50730086860537 4.561665737597487 1 0 0
207 69 1 0.5897 -14.897140073760077 8.720932319371315 5.465715162226749 1 0 0
205 69 2 -1.1794 -15.150511124610404 7.798045503688389 5.448722180553118 1 0 0
635 212 1 0.5897 -15.410002545823364 8.830413726629736 8.672875519580382 1 0 0
640 214 2 -1.1794 -14.529187561014533 11.940627329000197 7.345831911962952 1 0 0
566 189 1 0.5897 -13.633269547692999 9.785377877013286 9.866404517897168 0 0 0
630 210 1 0.5897 -13.05877241044023 9.119731598349993 7.728946534647197 1 0 0
629 210 1 0.5897 -14.050031237766568 10.263865848865553 7.71861461387138 1 0 0
628 210 2 -1.1794 -13.883311028322423 9.410458299405672 8.118673654984502 1 0 0
641 214 1 0.5897 -13.910611322291555 12.669433852850982 7.395665809525962 1 0 0
642 214 1 0.5897 -15.381671985602464 12.336493025829366 7.526930578022035 1 0 0
525 175 1 0.5897 -12.118222347935529 8.16286003895775 5.621712555178351 1 0 0
634 212 2 -1.1794 -16.119270837194573 8.313152651615763 9.05454893979255 1 0 0
565 189 2 -1.1794 -13.643158272851824 10.118112848041736 10.763891445407221 0 0 0
617 206 1 0.5897 -17.701542846222218 12.838251904835488 7.877417991472386 1 0 0
327 109 1 0.5897 -13.793963241228331 13.226990433774592 9.698856829129562 0 -1 0
290 97 1 0.5897 -14.500796376820409 11.100526724581929 5.529948901837666 1 0 0
567 189 1 0.5897 -13.386068052502344 11.036492229824809 10.682200794297824 0 0 0
519 173 1 0.5897 -16.865267058275627 7.6249266976536845 6.002602982329024 1 0 0
728 243 1 0.5897 -17.91063359128377 13.150491220912532 10.73588410405488 1 -1 0
868 290 2 -1.1794 -12.539339090848237 8.659090951048587 12.900279753525787 0 0 0
680 227 1 0.5897 -11.307066362818029 9.600669967223102 15.763205945196376 0 -1 0
877 293 2 -1.1794 -15.96164292568551 10.033960468204814 12.442546548599571 0 0 0
658 220 2 -1.1794 -16.694118893934736 12.159184016857974 15.138520808255215 0 -1 0
672 224 1 0.5897 -14.06970954669486 10.232789487885121 15.27466529503545 0 -1 0
671 224 1 0.5897 -13.501041316619162 11.132543928441397 14.198103183094299 0 -1 0
670 224 2 -1.1794 -14.325825764151237 10.866622966718339 14.604710883110187 0 -1 0
660 220 1 0.5897 -15.791951944010522 11.867720501099509 15.006560598082588 0 -1 0
879 293 1 0.5897 -15.342764436019504 9.97252332640375 11.71486965159003 0 0 0
878 293 1 0.5897 -15.435451792199038 10.344170181784559 13.179566228507813 0 0 0
683 228 1 0.5897 -17.259362341366682 13.56971648718617 14.136304954175415 0 -1 0
870 290 1 0.5897 -12.794937824002945 9.14187046705424 12.11427641611721 0 0 0
956 319 1 0.5897 -17.309481464975306 11.24828434042304 12.12473459409704 1 0 0
659 220 1 0.5897 -17.223680415215174 11.375794155168727 14.989768599173258 0 -1 0
681 227 1 0.5897 -11.299799985636458 9.070957181592451 14.344970151434344 0 -1 0
955 319 2 -1.1794 -18.086332016059387 11.564283434877908 11.663338929723885 1 0 0
1022 341 1 0.5897 -13.663777946735255 12.322968577568734 18.395461853366523 0 -1 0
1112 371 1 0.5897 -17.25705938622841 12.22732178243351 21.156380016315403 0 -1 0
992 331 1 0.5897 -15.395736089099572 13.408118754219604 17.652596337240823 0 -1 0
991 331 2 -1.1794 -16.265320072634786 13.790683438088504 17.53556138230151 0 -1 0
1119 373 1 0.5897 -15.36593969247571 11.26937149523605 20.731092798994016 0 -1 0
1044 348 1 0.5897 -13.168040016364248 10.13486736541692 19.90943264062151 0 -1 0
1117 373 2 -1.1794 -14.509234365466627 10.907156615488791 20.957131319109575 0 -1 0
1138 380 2 -1.1794 -12.865903925092951 13.20646153761535 19.979850955884764 0 -1 0
1127 376 1 0.5897 -15.788916981009189 13.800927179022764 20.2401518089442 0 -1 0
981 327 1 0.5897 -13.20652754208275 9.609552427008278 17.35701411031321 0 -1 0
1000 334 2 -1.1794 -16.11182344189106 9.86586826092163 17.905757142422253 0 -1 0
1140 380 1 0.5897 -12.343636404099113 12.62190623106643 20.52911674817597 0 -1 0
1111 371 2 -1.1794 -16.729184891822683 12.161999584022197 20.360526674285868 0 -1 0
1023 341 1 0.5897 -13.504269242423138 12.034593211288765 16.91783127568198 0 -1 0
1001 334 1 0.5897 -15.4817549698547 10.582358827640462 17.982788175518014 0 -1 0
1021 341 2 -1.1794 -14.131143471709938 11.969941416788672 17.638351417068325 0 -1 0
1128 376 1 0.5897 -14.304394041485569 14.097549683490236 20.256861509678266 0 -1 0
1126 376 2 -1.1794 -15.160073828706594 14.50983118651391 20.375403331902973 0 -1 0
1042 348 2 -1.1794 -12.56758879315711 9.742048730914842 19.275848910951773 0 -1 0
1098 366 1 0.5897 -17.898267638883112 13.810871852194861 18.741588970355032 0 -1 0
979 327 2 -1.1794 -13.298069071766745 9.152319198154629 16.521042769296464 0 -1 0
1113 371 1 0.5897 -17.341088273563518 11.855694606720146 19.691158597938124 0 -1 0
993 331 1 0.5897 -16.600741150820234 13.384327407702717 16.736403003666272 0 -1 0
1013 338 1 0.5897 -11.262784674439478 10.659974851100817 18.444917264857597 0 -1 0
1142 381 1 0.5897 -18.430549948360095 14.597303754628342 20.914392944002607 0 -1 0
311 104 1 0.5897 -2.8885340902166066 -7.942537203260848 3.2158374388234927 1 1 0
310 104 2 -1.1794 -3.5067110713342933 -8.388312766007001 3.7949921989294815 1 1 0
305 102 1 0.5897 -1.7082563760987206 -6.1055968603461395 2.174549109712412 1 1 0
304 102 2 -1.1794 -1.54232469004193 -6.908546153056525 2.668386869093516 1 1 0
316 106 2 -1.1794 -2.2585667426753435 -4.605558278787482 1.1398570888353239 1 1 0
242 81 1 0.5897 -1.4578036587533223 -6.754052292397165 4.63281413011027 0 1 0
306 102 1 0.5897 -0.7936667889324784 -7.3107533750673115 2.227930068619889 1 1 0
1 1 2 -1.1794 -1.0123196317449814 -3.641622852819726 4.556607634454086 0 0 0
201 67 1 0.5897 0.32441860259174327 -8.501353996834785 0.4081651931905592 1 1 0
293 98 1 0.5897 -5.25638854975111 -3.7971656307735033 2.1523496244543026 1 1 0
318 106 1 0.5897 -3.1725255291337167 -4.322633388396184 1.1100962789298152 1 1 0
1177 393 2 -1.1794 -2.927040307472307 -8.81921937818506 0.23156725208308251 0 0 1
317 106 1 0.5897 -1.803964267485668 -3.9006782497006585 1.6011155494691167 1 1 0
199 67 2 -1.1794 0.517146511542613 -7.922616581702445 1.1458595504976319 1 1 0
227 76 1 0.5897 1.0041238628114115 -8.067253942157699 4.24582945727502 0 1 0
348 116 1 0.5897 -1.3622290952803677 -6.707837417692609 9.875942523759022 0 0 0
347 116 1 0.5897 -1.2779423661012963 -5.635555759317079 8.81062019253823 0 0 0
346 116 2 -1.1794 -1.899860317472335 -6.09376310702187 9.375909450220359 0 0 0
336 112 1 0.5897 -3.484550800908287 -5.237222026794202 9.697774124112165 0 0 0
546 182 1 0.5897 -0.06450449900366984 -7.559297850942916 6.668485344927716 0 1 0
334 112 2 -1.1794 -4.318001870671963 -4.773109360844681 9.776423995874547 0 0 0
404 135 1 0.5897 -5.619386773139286 -3.859760010527973 5.597779710181904 1 0 0
335 112 1 0.5897 -4.980855136728927 -5.434904153892644 9.579084004073927 0 0 0
554 185 1 0.5897 -3.187405626527503 -6.74770429334232 8.070778079323393 0 1 0
555 185 1 0.5897 -2.7803685752543537 -6.8951269451854404 6.620040684580653 0 1 0
553 185 2 -1.1794 -3.504374644752472 -7.061384200722672 7.223763715403912 0 1 0
359 120 1 0.5897 -4.814443720556556 -3.105306439209686 8.935696295092304 0 0 0
632 211 1 0.5897 -4.985842109049242 -6.041162147209921 6.740067928116923 1 1 0
544 182 2 -1.1794 0.4856191348050647 -8.06152694462954 7.269587982774931 0 1 0
243 81 1 0.5897 -1.4450416133651949 -5.561379695489035 5.565175373487425 0 1 0
241 81 2 -1.1794 -1.500942493672536 -6.516895608011407 5.559198783537152 0 1 0
340 114 2 -1.1794 -0.10398466283177932 -4.815279016981502 7.6008918987238205 0 0 0
356 119 1 0.5897 1.3033910792878967 -7.3241882593911605 9.824374551901625 0 0 0
326 109 1 0.5897 -3.223848011290446 -7.8006365850273625 10.568514420083714 0 0 0
655 219 2 -1.1794 -0.14671863214155323 -7.77825518715113 10.82499056133194 0 0 0
787 263 2 -1.1794 -4.635467955157004 -4.592310269711399 14.945544941825741 0 0 0
669 223 1 0.5897 -4.318838403132348 -3.777975001835866 11.296019562772194 0 0 0
793 265 2 -1.1794 -2.276407435556239 -6.233146426268651 15.217454224092643 0 0 0
795 265 1 0.5897 -3.0910366400340727 -5.943471752388095 14.806752945126393 0 0 0
657 219 1 0.5897 -0.3419062455517121 -7.431250482035068 11.695482120369489 0 0 0
699 233 1 0.5897 -0.8998799211900206 -4.484911335690695 11.592459382984657 0 0 0
667 223 2 -1.1794 -3.9426148294027517 -3.217970021704356 11.975089364971511 0 0 0
697 233 2 -1.1794 -1.562800884858186 -4.518891728170489 12.282159034229752 0 0 0
720 240 1 0.5897 -1.0150987641349882 -6.872403338368407 14.10350465352602 0 0 0