LAMMPS data file via write_data, version 30 Jul 2021, timestep = 3250000

1296 atoms
2 atom types
864 bonds
1 bond types
432 angles
1 angle types

-10.533820854586386 12.513820854586386 xlo xhi
-9.057702277869783 12.047700277869783 ylo yhi
0.17737595917923876 21.68262304082171 zlo zhi
-9.066803016589123 1.6187315830640576 2.6660906884427473 xy xz yz

Masses

1 1.008
2 15.999

Pair Coeffs # lj/cut/tip4p/long/omp

1 0 0
2 0.21084 3.1668

Bond Coeffs # harmonic/omp

1 450 0.9572

Angle Coeffs # harmonic/omp

1 55 104.52

Atoms # full

282 94 1 0.5897 -10.272109649063959 -4.137220681582413 1.6553932296729479 1 1 0
280 94 2 -1.1794 -9.409761251528218 -4.525370913999758 1.5078494532787874 1 1 0
270 90 1 0.5897 -8.288022692701709 -7.2521805032219895 2.1433029489525772 1 1 0
163 55 2 -1.1794 -7.208291929528875 -7.885666963750179 0.9257383665640246 1 1 0
164 55 1 0.5897 -6.355853792053661 -8.177545423214399 1.2486041494023776 1 1 0
269 90 1 0.5897 -9.105895853211877 -6.0360613060061405 2.522343803468469 1 1 0
268 90 2 -1.1794 -8.826940917210369 -6.891928012612251 2.8475603347517917 1 1 0
299 100 1 0.5897 -6.329848129151216 -7.721280646096657 3.877090492976619 1 1 0
324 108 1 0.5897 -7.247760027184251 -4.323003364993013 3.578290346678876 1 1 0
73 25 2 -1.1794 -8.330279625229942 -3.556284286396802 4.959328127902051 1 0 0
314 105 1 0.5897 -8.60840242138494 -6.56560207585134 4.617261748787705 1 1 0
298 100 2 -1.1794 -5.725503035526633 -6.9792086419375625 3.8989449583077693 1 1 0
107 36 1 0.5897 -9.185294380973861 1.5557731659730845 3.3023831705661904 1 0 0
59 20 1 0.5897 -13.24308559748496 -0.7567915000661731 3.5583705166292527 1 0 0
275 92 1 0.5897 -10.249063328573932 -7.83746797816675 3.43133529469274 1 1 0
84 28 1 0.5897 -8.045669953825549 -0.5533833635712178 3.8990672286388635 1 0 0
281 94 1 0.5897 -8.801532750342993 -3.7885251597476133 1.5670714663191092 1 1 0
322 108 2 -1.1794 -6.604756360309815 -4.622663145786158 2.935701343092686 1 1 0
259 87 2 -1.1794 -6.845095320232357 -5.242955069899818 0.30046745270569286 1 1 0
97 33 2 -1.1794 -11.649835595628957 0.7377281302293319 5.291721134931625 1 0 0
75 25 1 0.5897 -9.079886117167751 -3.066624941336997 4.621131850434631 1 0 0
271 91 2 -1.1794 -10.197118381673562 -0.8917790111710158 0.7201868964238914 1 1 0
82 28 2 -1.1794 -8.819097102629891 -0.0539180503813661 4.160641858194644 1 0 0
260 87 1 0.5897 -7.01833195376067 -6.1805055435308685 0.3856307163778432 1 1 0
258 86 1 0.5897 -12.128793010544783 -2.7413555088611155 1.3326102656776164 1 1 0
256 86 2 -1.1794 -11.760563318757452 -3.4011890441409625 1.9200775609881955 1 1 0
323 108 1 0.5897 -6.3276367974342085 -5.480996308947279 3.2559472820823836 1 1 0
83 28 1 0.5897 -9.53155631608143 -0.6932366557481462 4.152962040705573 1 0 0
315 105 1 0.5897 -8.685431158506766 -5.354382553314156 5.522294102438146 1 1 0
261 87 1 0.5897 -6.780127142734507 -4.927952103763391 1.2020700711950028 1 1 0
52 18 2 -1.1794 -11.946760344557529 0.13874442266498122 2.6022258208192377 1 0 0
98 33 1 0.5897 -11.789457751423821 0.4766015032226125 4.381416205072068 1 0 0
301 101 2 -1.1794 -7.924639977457316 -2.1159078911380806 1.6512048262702297 1 1 0
53 18 1 0.5897 -12.003209267189547 1.0258213637555684 2.2471724877466266 1 0 0
54 18 1 0.5897 -11.342177821339282 -0.3162598996454449 2.0160440803547868 1 0 0
68 23 1 0.5897 -11.265255054875004 -2.248750938283246 4.7720678941650085 1 0 0
67 23 2 -1.1794 -10.553980126775617 -2.160858059588463 4.137570369295142 1 0 0
69 23 1 0.5897 -10.921177506324135 -2.492298056400994 3.318004652030795 1 0 0
272 91 1 0.5897 -9.440405513746338 -1.3195702920388444 1.1207597754842993 1 1 0
44 15 1 0.5897 -9.61792753193664 0.8280020709357423 0.2748090795726197 1 0 0
313 105 2 -1.1794 -8.775073688355484 -6.307382154383446 5.523810369254478 1 1 0
165 55 1 0.5897 -7.48741381220802 -8.577250454886274 0.32557149941046093 1 1 0
99 33 1 0.5897 -11.575707742516087 1.6915051930925529 5.259215929113981 1 0 0
633 211 1 0.5897 -5.712698945294336 -6.084108235829662 5.485766065840333 1 1 0
417 139 1 0.5897 -8.83723460746829 1.1762559273998257 5.51099193057421 1 0 0
1010 337 1 0.5897 -12.428667094963682 1.3945778658072392 0.22851243445941677 0 -1 1
429 143 1 0.5897 -6.463864126764012 -7.264973243729435 8.478210610439728 1 0 0
428 143 1 0.5897 -6.701971368147449 -7.053593451100815 9.95828982173139 1 0 0
427 143 2 -1.1794 -6.018337100316369 -7.019635505821734 9.289178956130955 1 0 0
618 206 1 0.5897 -7.746428055803902 -7.325384787795129 6.533229242276708 1 1 0
420 140 1 0.5897 -9.064959058319232 -6.584401875961848 9.75285864103321 1 0 0
414 138 1 0.5897 -6.908821175535506 -4.92408323126246 7.5077316898739666 1 0 0
413 138 1 0.5897 -7.5855800195077 -3.5890851869722145 7.734249496180668 1 0 0
412 138 2 -1.1794 -7.55743224704659 -4.488452394119756 8.060600162932396 1 0 0
350 117 1 0.5897 -7.293419068339377 -4.190446044545144 9.819104331566074 0 0 0
419 140 1 0.5897 -8.903438471266114 -5.471697349683027 8.739153408784702 1 0 0
418 140 2 -1.1794 -9.566184736590161 -5.964975017670479 9.22261817099706 1 0 0
627 209 1 0.5897 -10.335617994595378 -6.535123077052017 6.364910523140623 1 1 0
458 153 1 0.5897 -10.639762349705075 2.630423840887264 9.712934714589334 0 0 0
522 174 1 0.5897 -9.854891146855516 2.1158986339941066 7.36525898232356 1 0 0
351 117 1 0.5897 -7.122020203461464 -2.9891480688363083 10.724476884201641 0 0 0
520 174 2 -1.1794 -10.539322411378008 2.4481100405218896 7.94607449267032 1 0 0
435 145 1 0.5897 -7.636119610705995 -0.9603098410851842 9.879104922638096 0 0 0
402 134 1 0.5897 -10.749299680346436 -0.3033981990510206 6.605746422382083 1 0 0
401 134 1 0.5897 -11.08380446349959 -1.364660235276233 7.632238845019016 1 0 0
411 137 1 0.5897 -13.28159056820219 0.36257666707171055 6.061531704171185 1 0 0
400 134 2 -1.1794 -10.345583792297628 -0.9112609049403115 7.2251120332811825 1 0 0
537 179 1 0.5897 -9.511303568996258 -0.07328469330674281 8.719426168381261 1 0 0
536 179 1 0.5897 -9.882861776861148 -0.12592493031069196 10.18610618495994 1 0 0
535 179 2 -1.1794 -9.151980431431442 0.05993492576553905 9.596615274777216 1 0 0
528 176 1 0.5897 -12.266104831583837 0.4832113782005134 9.61524386958171 1 0 0
424 142 2 -1.1794 -7.892854280030637 -1.9095975257463458 7.147003375154209 1 0 0
527 176 1 0.5897 -11.950489871255936 1.5252577556512996 8.563402301601757 1 0 0
526 176 2 -1.1794 -12.68098119037235 1.103678075467144 9.016087272654136 1 0 0
426 142 1 0.5897 -8.770881526820837 -1.5308306957696125 7.1879323593135105 1 0 0
616 206 2 -1.1794 -7.268650990533294 -7.941502748246437 7.088393830791861 1 1 0
74 25 1 0.5897 -7.976854220464251 -3.003203362757933 5.656174324974429 1 0 0
410 137 1 0.5897 -13.512467674897856 0.6051333957624969 7.537978631072726 1 0 0
631 211 2 -1.1794 -5.6068570645339 -5.548226740013267 6.271885248494087 1 1 0
443 148 1 0.5897 -8.19424308001831 1.6272196632299654 9.720913292454364 0 0 0
349 117 2 -1.1794 -7.384064008681243 -3.909807543190686 10.729779693560921 0 0 0
425 142 1 0.5897 -7.303843531288596 -1.1618255027106459 7.248476644756013 1 0 0
652 218 2 -1.1794 -5.777105743439514 -5.396685947130643 12.571939989963733 0 0 0
780 260 1 0.5897 -7.543739075232789 -4.050268522583478 15.164077649004078 0 0 0
779 260 1 0.5897 -7.279810140546115 -3.090450181041536 14.02349416648019 0 0 0
778 260 2 -1.1794 -7.986703429588712 -3.5419793950567717 14.484709127011609 0 0 0
768 256 1 0.5897 -9.6193248846623 -2.8668066149131866 14.870433298227207 0 0 0
654 218 1 0.5897 -6.154238761041934 -4.922384630087853 11.831028798545766 0 0 0
653 218 1 0.5897 -6.523809283360327 -5.831753654266548 12.983563755304644 0 0 0
661 221 2 -1.1794 -9.494363338310967 -4.391224529812108 12.290575164492852 0 0 0
682 228 2 -1.1794 -7.899759318321074 -6.800373205397296 13.653655542751219 0 0 0
684 228 1 0.5897 -8.471652038048397 -6.402717605255895 14.310152630542294 0 0 0
729 243 1 0.5897 -8.087484966251203 -7.081741768203473 11.957924700765217 1 0 0
662 221 1 0.5897 -9.092338394314586 -4.196875524773629 13.137301507312964 0 0 0
663 221 1 0.5897 -8.778812692363667 -4.307538472504423 11.660326411203961 0 0 0
740 247 1 0.5897 -10.951537964124139 -3.4294618900374187 12.04346965966361 1 0 0
766 256 2 -1.1794 -10.47537141052971 -2.439023187865944 14.886346436759977 0 0 0
771 257 1 0.5897 -11.931333152932924 2.638810543278865 11.69824854219192 0 0 0
836 279 1 0.5897 -11.412705763695051 -1.3708947498658546 11.034670463492011 1 0 0
762 254 1 0.5897 -9.35210089509622 1.9586976394306443 11.844869545425187 0 0 0
757 253 2 -1.1794 -9.728637314668596 -5.772929096959154 15.628520062340382 0 0 0
788 263 1 0.5897 -5.133250247905361 -4.776763186634806 15.431824374814669 0 0 0
865 289 2 -1.1794 -12.753828439812093 1.163953780234026 15.597991320292627 0 0 0
835 279 2 -1.1794 -11.357862472291792 -0.41551248153863085 11.056541716304798 1 0 0
761 254 1 0.5897 -9.658845037278889 1.0089096328502372 12.983143395762829 0 0 0
888 296 1 0.5897 -10.58991270618257 3.130538810102399 15.093120756060088 0 0 0
760 254 2 -1.1794 -8.951490767407575 1.5274367453222872 12.599635512815716 0 0 0
896 299 1 0.5897 -8.009416353096384 2.344341757909179 15.45918573542074 0 0 0
769 257 2 -1.1794 -12.498503225524692 2.5795057747646446 12.467032921261628 0 0 0
791 264 1 0.5897 -10.822506297335165 -0.7190789087087559 14.210896761710913 0 0 0
790 264 2 -1.1794 -10.964683649798785 0.11726663043611829 13.767685622367678 0 0 0
837 279 1 0.5897 -11.32229890387594 -0.19834762073227985 11.988150879607261 1 0 0
792 264 1 0.5897 -11.647121294028574 0.5483607166063891 14.282049539542948 0 0 0
767 256 1 0.5897 -11.093023221919736 -3.145000414906111 15.077271054758876 0 0 0
789 263 1 0.5897 -4.894980150821833 -5.004554238878896 13.954204431954505 0 0 0
727 243 2 -1.1794 -8.133736499016074 -7.405196231856384 11.058163017552864 1 0 0
770 257 1 0.5897 -11.927740894357498 2.798006577470476 13.203806889207288 0 0 0
897 299 1 0.5897 -7.907263857774389 2.3042730831353264 13.949234610034512 0 0 0
1151 384 1 0.5897 -6.153796681951074 -5.570431076355374 19.47816387074368 0 0 0
1152 384 1 0.5897 -6.970113884092744 -4.30903063447694 19.6624882945844 0 0 0
1225 409 2 -1.1794 -8.094893045238585 -3.4946476888429956 20.830418672222827 0 0 0
1227 409 1 0.5897 -8.919907336155484 -3.1658786230274156 20.473543681315192 0 0 0
1109 370 1 0.5897 -8.858420507818874 -3.4582936963889015 17.73922059442053 0 0 0
1108 370 2 -1.1794 -9.44633536199076 -4.20542377448289 17.851096598146356 0 0 0
1089 363 1 0.5897 -6.659096190618527 -4.818964179644317 17.412716307833527 0 0 0
1150 384 2 -1.1794 -6.23389626739002 -4.66858163033571 19.16768020519129 0 0 0
758 253 1 0.5897 -9.459407449797002 -5.207216760823023 16.352311641538577 0 0 0
1087 363 2 -1.1794 -6.688308621577064 -5.053581308134297 16.48513633675242 0 0 0
1248 416 1 0.5897 -6.083498426813024 -1.6302815692497417 20.47481790574431 0 0 0
1219 407 2 -1.1794 -10.407305195146058 -2.0748334840641967 20.235774377987184 0 0 0
1218 406 1 0.5897 -13.367712064300914 3.1056982044604027 17.774118339438765 0 0 0
1204 402 2 -1.1794 -12.081212176715042 0.3087578313342121 18.82790339731926 0 0 0
1110 370 1 0.5897 -10.320283559184572 -3.8181159246771728 17.898856932759244 0 0 0
1205 402 1 0.5897 -12.308390733089494 1.1782126287857473 18.498447686495382 0 0 0
1129 377 2 -1.1794 -7.820394373791756 -2.104829862391922 17.70261852641117 0 0 0
1143 381 1 0.5897 -8.56147281294413 -5.1933993884636305 21.530814810587124 0 0 0
1131 377 1 0.5897 -7.1348977676961285 -1.9282914123040351 17.05828849251037 0 0 0
1130 377 1 0.5897 -7.407151238537231 -1.926823221823068 18.54753594171852 0 0 0
1141 381 2 -1.1794 -8.644723333711644 -6.145798396760207 21.578206248753794 0 0 0
1246 416 2 -1.1794 -6.319502471052308 -1.0692147165525885 19.736138554649273 0 0 0
1216 406 2 -1.1794 -12.482657606971724 2.7445601882385002 17.725820817350353 0 0 0
1206 402 1 0.5897 -11.347861030754034 0.028774183703562883 18.280219239503502 0 0 0
1100 367 1 0.5897 -9.151465828300603 -0.9339013955067266 17.219961114561237 0 0 0
1234 412 2 -1.1794 -8.808206890730789 0.178717194562088 19.97964051554702 0 0 0
1009 337 2 -1.1794 -11.134513431432135 3.4886581360823534 21.03816257391223 0 -1 0
1260 420 1 0.5897 -9.933270500966419 2.9512420644168103 19.722654039059854 0 0 0
1259 420 1 0.5897 -9.008771074804002 1.8540996211336562 19.239835834269506 0 0 0
1258 420 2 -1.1794 -9.232523731575494 2.7734337962004147 19.095343136440768 0 0 0
1099 367 2 -1.1794 -10.033666122939973 -0.6425261411392675 16.989953792086304 0 0 0
1197 399 1 0.5897 -9.522512035773952 2.4102787812162934 17.279371939957322 0 0 0
1236 412 1 0.5897 -7.960225980015981 -0.249471802721132 19.86282945311961 0 0 0
1235 412 1 0.5897 -9.41981027104772 -0.5398517432131875 20.140741763365675 0 0 0
1226 409 1 0.5897 -7.917047530892303 -2.9304493693815736 21.583020124950067 0 0 0
1196 399 1 0.5897 -9.721006149153894 1.191844239396481 16.40288794423325 0 0 0
1088 363 1 0.5897 -6.780554228690091 -6.006328665404997 16.48128027446534 0 0 0
1250 417 1 0.5897 -11.698061438619975 0.5403585717676584 20.744576912692523 0 0 0
1011 337 1 0.5897 -11.963773763575054 3.884006324351221 20.769655985669374 0 -1 0
1097 366 1 0.5897 -9.255302203487876 -5.878133230392194 18.512112727887867 0 0 0
1121 374 1 0.5897 -5.02368555873633 -3.615771690384582 18.42989273015759 0 0 0
1221 407 1 0.5897 -10.832400571562708 -2.298213777704813 19.40767465191371 0 0 0
1195 399 2 -1.1794 -9.564867333566752 2.1354180130711296 16.363410596717223 0 0 0
1142 381 1 0.5897 -8.607432962931707 -6.435683790547394 20.66667250339971 0 0 0
1249 417 2 -1.1794 -11.575327388746931 0.8615670491401772 21.637944399142143 0 0 0
1217 406 1 0.5897 -11.916738086418725 3.509347739057066 17.620008475155572 0 0 0
273 91 1 0.5897 -8.741675264864552 1.2739537266003254 21.425844528008575 1 1 -1
1251 417 1 0.5897 -11.378571162996284 1.7924951726647542 21.533440135196876 0 0 0
866 289 1 0.5897 -12.522109577498838 1.7478135546276583 16.320349676612103 0 0 0
1101 367 1 0.5897 -10.340558156070307 -1.2867040381894883 16.351788000652526 0 0 0
1096 366 2 -1.1794 -8.97497839814034 -6.732888001415644 18.839069244831876 0 0 0
40 14 2 -1.1794 -15.014251315309327 3.6126303147423435 1.9946604524368503 1 0 0
177 59 1 0.5897 -13.921628045408692 4.492660566143691 3.2632871431111004 1 0 0
42 14 1 0.5897 -15.43181695737255 4.019436167307239 1.2355126354508303 1 0 0
55 19 2 -1.1794 -13.318788675969973 6.064775396633026 0.9857651306225936 1 0 0
56 19 1 0.5897 -12.457512811076656 5.763131398888849 1.2744154297389954 1 0 0
66 22 1 0.5897 -13.316925901473422 3.023925421034795 1.5889540855263191 1 0 0
65 22 1 0.5897 -11.863567076559844 3.440241560465953 1.5085625012982171 1 0 0
64 22 2 -1.1794 -12.432878698466931 2.6708964644574014 1.4893835254027976 1 0 0
191 64 1 0.5897 -12.321011980148551 6.212499717152475 4.173725076211198 1 0 0
183 61 1 0.5897 -12.101040481998986 3.6718822895297354 4.286946687097162 1 0 0
181 61 2 -1.1794 -11.276987241235101 3.324667979984085 4.628233016465722 1 0 0
176 59 1 0.5897 -14.249951019748478 4.595887281424501 4.737583897033771 1 0 0
175 59 2 -1.1794 -13.559687512013843 4.781771413398255 4.1010093998796435 1 0 0
108 36 1 0.5897 -10.03369686603401 2.7595964697861657 3.6524071790058605 1 0 0
85 29 2 -1.1794 -10.903567932016212 4.968226610429571 1.5414262782502122 1 0 0
162 54 1 0.5897 -14.615078977817781 6.716188007354987 2.171257809645569 1 0 0
151 51 2 -1.1794 -12.820426455242863 8.658591252626291 0.4178164556117731 1 0 0
207 69 1 0.5897 -14.638852704185119 8.659866993946881 5.298547440147517 1 0 0
206 69 1 0.5897 -14.997144953273153 7.403512258178669 4.533396002065342 1 0 0
190 64 2 -1.1794 -11.721514747596105 6.9575323019186115 4.217241796741786 1 0 0
45 15 1 0.5897 -9.538939368604717 2.105654107664897 1.083199675350314 1 0 0
194 65 1 0.5897 -13.650994625434773 12.134798186619182 2.5346226294678513 1 0 0
160 54 2 -1.1794 -15.219268918936946 7.104284908244967 2.8041122382327974 1 0 0
43 15 2 -1.1794 -9.419435533796616 1.7612704974834816 0.19808713555697285 1 0 0
152 51 1 0.5897 -13.0824881554655 7.74327994768413 0.5169069853986389 1 0 0
148 50 2 -1.1794 -18.029936108977004 10.824951487875246 2.041464401131668 1 0 0
150 50 1 0.5897 -18.42126302124835 11.30499712955789 1.311702458397231 1 0 0
174 58 1 0.5897 -16.52581836156989 9.964435422815058 1.6493406857121404 1 0 0
173 58 1 0.5897 -15.061355186986498 10.340020642196418 1.5702268786381064 1 0 0
172 58 2 -1.1794 -15.652557851866323 9.587657829883955 1.5419794267092466 1 0 0
161 54 1 0.5897 -15.371392255117092 7.991153067061795 2.4778450264247236 1 0 0
289 97 2 -1.1794 -14.19415442524032 10.384270440460725 4.718149589731703 1 0 0
216 72 1 0.5897 -13.009780461672142 9.661241114130693 3.562972294053323 1 0 0
291 97 1 0.5897 -14.990071085073776 10.811170644837532 4.401366163851303 1 0 0
283 95 2 -1.1794 -16.449220928247996 11.840355719031429 4.109023893589136 1 0 0
284 95 1 0.5897 -17.03477670854337 11.715819328210955 4.8559194234055685 1 0 0
285 95 1 0.5897 -16.963898007990668 11.561726859798739 3.3514986315404953 1 0 0
205 69 2 -1.1794 -14.858021836883097 7.73604825220799 5.420195660820874 1 0 0
193 65 2 -1.1794 -14.024420386554453 11.877134170179232 1.6917058374973446 1 0 0
153 51 1 0.5897 -12.646766624986476 8.956630839476201 1.3107693712842858 1 0 0
215 72 1 0.5897 -12.066100021036513 8.486178149461178 3.421185944045742 1 0 0
106 36 2 -1.1794 -9.436852082935582 2.4227159129643994 2.9842312579449994 1 0 0
167 56 1 0.5897 -16.536400798381877 6.077516835384175 3.428254694392183 1 0 0
290 97 1 0.5897 -13.748340089455944 11.058122296411103 5.23156391817489 1 0 0
182 61 1 0.5897 -11.014320912088472 3.9500833514348273 5.303701784101399 1 0 0
57 19 1 0.5897 -13.518527239319173 5.52462639385929 0.22109467947099998 1 0 0
1118 373 1 0.5897 -15.660629667389852 8.408278160244166 0.20371829420093882 0 -1 1
508 170 2 -1.1794 -13.548290971910276 6.146828646097221 7.346553767823439 1 0 0
645 215 1 0.5897 -12.334625679641885 6.792857431938325 8.547240296925066 1 0 0
644 215 1 0.5897 -12.512003563685385 6.9803246949318485 10.03902739727002 1 0 0
643 215 2 -1.1794 -11.869201234805784 7.072137527197938 9.335749400041683 1 0 0
509 170 1 0.5897 -14.271109876315201 5.7126831592274865 7.799693754708268 1 0 0
543 181 1 0.5897 -10.461365639123299 6.078022257461894 9.879117366485323 0 0 0
532 178 2 -1.1794 -10.974880157240428 4.9503089243019005 6.781866995723568 1 0 0
521 174 1 0.5897 -10.662922456718798 3.3578383261061386 7.675412645192927 1 0 0
510 170 1 0.5897 -13.973091351960383 6.692739319893429 6.685011121132834 1 0 0
534 178 1 0.5897 -11.824863508698707 5.379174379351534 6.880168428344088 1 0 0
518 173 1 0.5897 -16.57237964329815 7.534428688127164 7.751949292511006 1 0 0
630 210 1 0.5897 -12.71244223385587 9.203818200137029 7.524465348556161 1 0 0
617 206 1 0.5897 -17.017407759335192 12.699842353039035 7.574070083122095 1 0 0
327 109 1 0.5897 -13.58049550237585 13.037205340296811 9.804248556719585 0 -1 0
629 210 1 0.5897 -13.49364256377341 10.498362236342558 7.5975637467424875 1 0 0
636 212 1 0.5897 -15.192572763255306 7.553255313086268 9.69444594028072 1 0 0
519 173 1 0.5897 -16.741757598737912 7.448590133638643 6.249951541967916 1 0 0
565 189 2 -1.1794 -13.494214778704734 10.106059739989153 10.671227759285685 0 0 0
566 189 1 0.5897 -13.486429531282493 9.832889404598653 9.753824048945065 0 0 0
533 178 1 0.5897 -10.335779517204271 5.648998176963714 6.922538829155569 1 0 0
628 210 2 -1.1794 -13.38509385429414 9.65410363644575 8.035257851983584 1 0 0
634 212 2 -1.1794 -15.624890257370682 8.141214645562378 9.075173820724007 1 0 0
457 153 2 -1.1794 -10.53840125464486 2.9572673781648735 10.606928964300284 0 0 0
640 214 2 -1.1794 -13.730164059307702 12.15205028381742 6.866764012500666 1 0 0
642 214 1 0.5897 -14.603169747499033 12.527838864692384 6.979518681642962 1 0 0
635 212 1 0.5897 -14.90658651158244 8.580816197458766 8.620123094789992 1 0 0
567 189 1 0.5897 -13.258118637712192 11.033418182247406 10.647582572268151 0 0 0
585 195 1 0.5897 -18.546602321375445 11.573725904917517 6.6220699863812715 1 0 0
459 153 1 0.5897 -10.257473564808855 3.866067829288724 10.499881682277495 0 0 0
525 175 1 0.5897 -11.665016250769437 8.00619005670315 5.727982787451891 1 0 0
943 315 2 -1.1794 -14.122825766219353 6.526631244561425 10.827711596839045 1 0 0
646 216 2 -1.1794 -18.462084246392557 12.022367670513006 8.354925694156412 1 0 0
945 315 1 0.5897 -14.042167746465356 6.924405182490661 11.694670776378338 1 0 0
900 300 1 0.5897 -14.521831224421469 7.541960782876263 14.145078489924213 0 0 0
899 300 1 0.5897 -13.675403543604954 6.298684833885311 13.97391140385126 0 0 0
898 300 2 -1.1794 -13.867262193087983 7.145147588169401 13.570422204791882 0 0 0
874 292 2 -1.1794 -13.4482922074379 4.818747318950045 14.873318274565175 0 0 0
848 283 1 0.5897 -14.066292207597925 3.426474693874276 12.132186797715049 1 0 0
887 296 1 0.5897 -10.243667140374768 4.197965001314264 14.076959938797014 0 0 0
876 292 1 0.5897 -12.587394556634244 4.42303322407907 14.737873444136177 0 0 0
869 290 1 0.5897 -12.52461271855636 8.111342450678443 12.984857674355222 0 0 0
886 296 2 -1.1794 -10.985906737608907 3.7345152962439396 14.465027571796735 0 0 0
868 290 2 -1.1794 -11.901091987494706 8.665425414301382 12.515274778266136 0 0 0
875 292 1 0.5897 -14.061634662001719 4.0864260031145765 14.810786571775576 0 0 0
681 227 1 0.5897 -11.0163846702354 9.372142965001146 13.955115416945247 0 -1 0
728 243 1 0.5897 -17.34128115245047 12.757750107658723 11.148804409923725 1 -1 0
877 293 2 -1.1794 -15.573126397864396 9.574332320510646 12.344688760006736 0 0 0
660 220 1 0.5897 -15.586163431815823 11.311464523316033 14.72857618891385 0 -1 0
658 220 2 -1.1794 -16.448543142640172 11.726173191331224 14.709074182403503 0 -1 0
680 227 1 0.5897 -11.325187148940262 9.351950954065504 15.437076189463815 0 -1 0
670 224 2 -1.1794 -13.939713401496345 10.663915355346617 14.539986731048055 0 -1 0
671 224 1 0.5897 -13.198659092013106 11.204917323545711 14.26707577754243 0 -1 0
672 224 1 0.5897 -13.620319194312334 10.188773207458105 15.307045476569629 0 -1 0
956 319 1 0.5897 -16.939669288103957 10.709603649809157 11.882667477196824 1 0 0
879 293 1 0.5897 -14.938429194232471 9.684834240078978 11.636745424386818 0 0 0
878 293 1 0.5897 -15.102323566489154 9.843986942699818 13.133357563826785 0 0 0
683 228 1 0.5897 -16.744510353377006 13.447684536347555 14.016636853921415 0 -1 0
870 290 1 0.5897 -12.447723354891108 9.27289596366095 12.017057258600303 0 0 0
650 217 1 0.5897 -15.456100609950948 8.613129146030925 16.04862538249671 0 -1 0
659 220 1 0.5897 -17.066406398182252 10.995033450297711 14.70131724695361 0 -1 0
649 217 2 -1.1794 -15.744500680523377 8.116692324872329 15.282620132733392 0 -1 0
993 331 1 0.5897 -16.671891539250176 12.82232691409338 16.21935692919795 0 -1 0
944 315 1 0.5897 -14.29537496935534 5.601589227989237 11.003130178473658 1 0 0
1018 340 2 -1.1794 -11.79361072133716 7.136522992671587 20.270162899544964 0 -1 0
1019 340 1 0.5897 -12.361993693997466 6.3759745858936245 20.3920526176599 0 -1 0
1020 340 1 0.5897 -10.909117696280072 6.772338269037501 20.237124151474106 0 -1 0
1043 348 1 0.5897 -12.32158871063147 8.709158080155401 19.475521275986367 0 -1 0
1030 344 2 -1.1794 -9.397427113576272 5.914741842410503 19.775753719398793 0 -1 0
1032 344 1 0.5897 -8.996008154799375 5.3553702416723645 20.440643984690162 0 -1 0
1208 403 1 0.5897 -12.427136337489106 6.084961601054548 17.465680691806106 0 0 0
1238 413 1 0.5897 -10.439769397074878 5.057966065456798 18.416700785222766 0 0 0
1237 413 2 -1.1794 -10.882512819607092 5.003950281362561 17.569725015971095 0 0 0
1207 403 2 -1.1794 -13.237705988027113 6.437206738877604 17.098274108045793 0 0 0
990 330 1 0.5897 -14.45011127392915 6.979369979217385 18.324759241289044 0 -1 0
1239 413 1 0.5897 -10.198993298940602 5.19939265725499 16.928748892017687 0 0 0
1003 335 2 -1.1794 -13.498190344487607 4.93273686883003 20.383719878614798 0 -1 0
980 327 1 0.5897 -12.958348112516688 8.197482283837989 16.657986222354864 0 -1 0
989 330 1 0.5897 -15.17463457672682 8.27046909678631 18.6404757171835 0 -1 0
991 331 2 -1.1794 -16.33193164590887 13.436146045878445 16.870550959616985 0 -1 0
988 330 2 -1.1794 -15.065205924565266 7.369850844327313 18.945520801889423 0 -1 0
1023 341 1 0.5897 -13.311227242755393 12.202531058790765 17.05853653427959 0 -1 0
1002 334 1 0.5897 -16.393642860445066 10.040812843248574 17.596798206168152 0 -1 0
1005 335 1 0.5897 -13.913221175345797 4.7140975929908215 19.549275735639384 0 -1 0
1035 345 1 0.5897 -14.64631206450665 8.644110707243449 21.565532476889217 0 -1 0
1111 371 2 -1.1794 -16.672600750879965 11.785363120260268 20.16322862911406 0 -1 0
1098 366 1 0.5897 -17.59927972780102 13.964321439897649 18.09490105146854 0 -1 0
992 331 1 0.5897 -15.495625326619392 13.058567934628233 17.142771904531564 0 -1 0
1000 334 2 -1.1794 -15.487478644027338 9.734680510090755 17.561502980979256 0 -1 0
1001 334 1 0.5897 -14.962411097336055 10.52088875677147 17.711747168313288 0 -1 0
1126 376 2 -1.1794 -15.042848609693653 13.962126068133514 20.468244763733118 0 -1 0
1021 341 2 -1.1794 -14.029456993797847 12.120008502489693 17.685878457009068 0 -1 0
1140 380 1 0.5897 -12.080711776866298 12.261542748450378 20.607309769561247 0 -1 0
1138 380 2 -1.1794 -12.523000659644802 12.892025887904634 20.039028562177442 0 -1 0
1128 376 1 0.5897 -14.184434009189221 13.54632474564237 20.388842022886962 0 -1 0
1127 376 1 0.5897 -15.666769884704271 13.238983475589645 20.403571746979942 0 -1 0
1022 341 1 0.5897 -13.612477715299775 12.216389195985371 18.542123834637636 0 -1 0
1119 373 1 0.5897 -15.127660770471557 10.824589102677002 20.68386360575608 0 -1 0
1117 373 2 -1.1794 -14.396302137208753 10.398669249831595 21.13083651929395 0 -1 0
1044 348 1 0.5897 -13.138540743407468 9.930005701493961 19.841078609489408 0 -1 0
1042 348 2 -1.1794 -12.500171412107237 9.609432426586576 19.203991939809697 0 -1 0
981 327 1 0.5897 -12.652721141556274 9.468176532379214 17.422274792257085 0 -1 0
1209 403 1 0.5897 -13.434374667319643 5.864081135802998 16.357173923672413 0 0 0
979 327 2 -1.1794 -12.750898756084933 9.123756408989319 16.53454105096879 0 -1 0
1034 345 1 0.5897 -14.593617075976843 7.481110766354572 20.597682349138708 0 -1 0
1033 345 2 -1.1794 -14.629874079196037 7.687662903277516 21.531667903193096 0 -1 0
1013 338 1 0.5897 -11.163626214265138 10.47587583287618 18.423426045241776 0 -1 0
318 106 1 0.5897 -2.803406743006353 -3.9200855076273067 1.7185615907026188 1 1 0
25 9 2 -1.1794 -4.13675377605447 0.783186584060962 5.334757128690556 0 0 0
302 101 1 0.5897 -7.405807489180828 -1.9276624066821944 2.4333236544535746 1 1 0
89 30 1 0.5897 -4.635738902613214 1.0672031124345498 2.4030360722125756 1 0 0
303 101 1 0.5897 -7.305589146721788 -2.0301426720954847 0.9261842660467621 1 1 0
316 106 2 -1.1794 -1.9877544965814042 -4.306359205476459 1.399865908629942 1 1 0
305 102 1 0.5897 -1.6151995402167891 -5.913801921472983 2.223396933806276 1 1 0
311 104 1 0.5897 -2.6950940358860427 -7.8800774365140125 3.2195176706278943 1 1 0
242 81 1 0.5897 -1.1083900786247263 -6.656462863725242 4.380947472518571 0 1 0
306 102 1 0.5897 -0.7196334916495637 -7.119898145216256 2.0370223960774236 1 1 0
304 102 2 -1.1794 -1.4284629684417869 -6.780724209153977 2.5835184013258554 1 1 0
293 98 1 0.5897 -5.208552820107735 -3.6662084105689097 2.424361177052168 1 1 0
103 35 2 -1.1794 -2.8895823670746568 -2.2764006143425926 4.158823151408187 1 0 0
241 81 2 -1.1794 -0.9641481873390045 -6.359488243913688 5.279471471873627 0 1 0
3 1 1 0.5897 -1.299344330238874 -3.2687504732622195 4.304736342588078 0 0 0
88 30 2 -1.1794 -4.495387598516453 0.14619418317459676 2.622543676043277 1 0 0
310 104 2 -1.1794 -3.3594250863132444 -8.348963793211304 3.7245761140557248 1 1 0
90 30 1 0.5897 -3.8402424523461267 -0.15348504569679022 1.9923437174492384 1 0 0
292 98 2 -1.1794 -4.463981990871688 -3.232805457113022 2.0071404687396175 1 1 0
96 32 1 0.5897 -6.0718873991833995 -1.8939126737093686 4.411105511921052 1 0 0
95 32 1 0.5897 -5.765164154932497 -0.8659265717220617 3.3429229662399282 1 0 0
26 9 1 0.5897 -4.278172154354608 0.5246249377659833 4.423996951388826 0 0 0
105 35 1 0.5897 -3.2935827335562706 -2.3879527525799595 3.2982094016655448 1 0 0
104 35 1 0.5897 -3.5570809426614627 -2.572915223959569 4.777505591921703 1 0 0
294 98 1 0.5897 -4.844267752288019 -2.765319971664532 1.263511144248099 1 1 0
94 32 2 -1.1794 -6.492140198940238 -1.3058692307729878 3.7836646763957447 1 0 0
317 106 1 0.5897 -1.3357255762045153 -3.6139498780252053 1.5085495384666583 1 1 0
243 81 1 0.5897 -0.9162447251326071 -5.4058501296648425 5.212354982322014 0 1 0
199 67 2 -1.1794 0.5611463307609554 -7.859944518003058 0.9100450730088584 1 1 0
300 100 1 0.5897 -4.857095899639819 -7.374607231881804 3.82416817831832 1 1 0
307 103 2 -1.1794 -2.5112588299791945 -0.7076359668634868 0.9335900690159312 1 1 0
27 9 1 0.5897 -4.022263065640026 1.7328741868065105 5.299699500303433 0 0 0
201 67 1 0.5897 0.27701080383359233 -8.483042009093094 0.24115375851201204 1 1 0
1046 349 1 0.5897 -5.0408518872251316 1.419959124157712 0.21871373336109082 0 -1 1
641 214 1 0.5897 -4.076989012937356 -8.196923264080256 6.84793124696336 1 1 0
632 211 1 0.5897 -4.769417647487359 -5.827444825051847 6.641836944737514 1 1 0
544 182 2 -1.1794 0.4055000076723516 -7.8250241417974316 7.216437402443748 0 1 0
404 135 1 0.5897 -5.293429475906111 -3.8398689436405684 5.74052252964477 1 0 0
554 185 1 0.5897 -2.647611143324559 -6.3708591092844085 7.6484681523250035 0 1 0
555 185 1 0.5897 -2.4588443642741513 -6.457235800867936 6.1488277317643805 0 1 0
553 185 2 -1.1794 -3.1313116901321854 -6.479790470530264 6.8296384722924595 0 1 0
359 120 1 0.5897 -4.758721578427281 -3.04298959830753 8.669475357584476 0 0 0
546 182 1 0.5897 -0.016853576862857267 -7.130848462584933 6.710666573961991 0 1 0
334 112 2 -1.1794 -4.450661672257608 -4.698137395779157 9.461341768741217 0 0 0
348 116 1 0.5897 -1.4420937318608882 -6.503964100778328 9.787154625607302 0 0 0