LAMMPS data file via write_data, version 30 Jul 2021, timestep = 500000

2016 atoms
2 atom types
1344 bonds
1 bond types
672 angles
1 angle types

-3.2170425461593046 14.827041545267953 xlo xhi
-0.2804737795207046 45.43086177951848 ylo yhi
-0.042180234172562336 19.272178234173396 zlo zhi
0.12454860652722853 -6.720563731347002 0.0347580005337231 xy xz yz

Masses

1 1.008
2 15.999

Atoms # full

122 41 1 0.5897 -2.193843973034616 1.69849198640927 1.4487052115655124 1 0 0
157 53 2 -1.1794 -3.824699636158501 4.879705492080884 4.932869226684856 1 0 0
121 41 2 -1.1794 -2.340520124506985 1.9552605905394422 2.359095690724311 1 0 0
87 29 1 0.5897 -3.4144356793619455 0.9304368429363001 4.987927743565464 1 0 0
159 53 1 0.5897 -3.3595653564119257 4.38875894110371 5.6102720287911305 1 0 0
123 41 1 0.5897 -3.1437446538129166 2.475325221621094 2.335326922288664 1 0 0
86 29 1 0.5897 -2.264032749898166 0.9949385586416188 4.005945581118344 1 0 0
85 29 2 -1.1794 -2.461470447707684 0.8598136172095292 4.932786055603375 1 0 0
158 53 1 0.5897 -4.369392470693205 4.226208705672516 4.494186243521102 1 0 0
113 38 1 0.5897 -3.3500153454146924 5.757954005177123 3.446377801662067 1 0 0
56 19 1 0.5897 -1.4385297556595433 3.2099829761323933 3.0111829556480245 0 0 0
1490 497 1 0.5897 -1.1553579096084707 -0.15478094482862884 0.8744277446605286 1 1 0
134 45 1 0.5897 -2.2306753063984774 2.4472686837514965 6.057814070928547 1 0 0
114 38 1 0.5897 -3.5028399649449677 5.677162716490201 1.9423595450299618 1 0 0
112 38 2 -1.1794 -3.161101999551589 6.237021152432684 2.6394831210321597 1 0 0
602 201 1 0.5897 -0.17610809421439066 4.941718395648684 0.5039546679099702 1 0 1
59 20 1 0.5897 1.735655827057653 3.1434449323128555 5.363038617767278 0 0 0
55 19 2 -1.1794 -0.8780901453839944 3.8355136454981036 3.4703220801242414 0 0 0
9 3 1 0.5897 -0.9393131458634452 5.553796999976272 4.3446632706499235 0 0 0
70 24 2 -1.1794 3.93776790009957 -0.07135340175006225 1.1781780877220918 0 0 0
12 4 1 0.5897 1.1163827720481558 6.043817660790468 4.8214321404485325 0 0 0
52 18 2 -1.1794 3.8696806913885196 2.4588545309128964 3.6390150057289947 0 0 0
58 20 2 -1.1794 1.970837426112399 3.74830902999486 6.066630868196925 0 0 0
54 18 1 0.5897 3.0967812136899244 2.727094400647584 3.142149937359327 0 0 0
8 3 1 0.5897 -0.6919172201853083 5.889369758717425 5.800039448010609 0 0 0
18 6 1 0.5897 4.9666504706467896 3.525381288098604 0.10306959045712213 0 0 0
6 2 1 0.5897 3.902645761970775 1.2713196135977207 5.020484379779871 0 0 0
11 4 1 0.5897 2.3473549370696096 5.179748906815258 4.994415004263228 0 0 0
47 16 1 0.5897 1.971719279534815 4.635477968584996 1.339571468594194 0 0 0
77 26 1 0.5897 0.10889875794824189 1.383099899641776 5.105389889079778 0 0 0
10 4 2 -1.1794 2.0328838703836416 5.9700871174200145 4.555400761796843 0 0 0
57 19 1 0.5897 -0.11889813252196113 3.94304157712042 2.897364517183489 0 0 0
21 7 1 0.5897 1.3661029200399328 1.8452187237065227 0.6421476955665391 0 0 0
53 18 1 0.5897 4.53534814027821 2.2869939032069473 2.972996758207114 0 0 0
31 11 2 -1.1794 1.4699422501786952 0.6499502092260316 2.205346737486523 0 0 0
78 26 1 0.5897 -0.0013804490461111207 2.6207414306655856 4.240469929416809 0 0 0
33 11 1 0.5897 0.7455550751301017 0.07059265986210261 1.9691610203444307 0 0 0
71 24 1 0.5897 3.1371514456162783 0.17726751515691758 1.6401378201989105 0 0 0
48 16 1 0.5897 1.6734750245491474 5.031490700900952 2.770019283507382 0 0 0
32 11 1 0.5897 1.1681173328712804 1.102824555090967 2.992780119743481 0 0 0
76 26 2 -1.1794 0.569503429432352 1.8750577575569918 4.425625080565491 0 0 0
46 16 2 -1.1794 1.5982690861210669 4.3016567549221785 2.1552725150369274 0 0 0
5 2 1 0.5897 3.0652297669859623 0.044440761788135164 5.312665052026585 0 0 0
16 6 2 -1.1794 5.489737554611023 4.296430864438306 0.3222973807365315 0 0 0
22 8 2 -1.1794 0.3982425144172921 2.593170178158739 9.627736246615758 0 0 0
23 8 1 0.5897 0.7077841740367843 1.8910726592987874 10.200021736953776 0 0 0
24 8 1 0.5897 1.0793957313463212 3.263582709274003 9.680333444220341 0 0 0
34 12 2 -1.1794 0.2920425358791503 0.9853590653109909 7.063699228933954 0 0 0
35 12 1 0.5897 0.3307476751921903 1.7342217638518758 7.658624499329864 0 0 0
36 12 1 0.5897 -0.5181043455271697 0.5333232861911194 7.299317702159487 0 0 0
43 15 2 -1.1794 -0.4432023922636614 4.753902633263542 7.225735962877531 0 0 0
44 15 1 0.5897 -0.5320067142654397 5.1874002392001985 8.074522827491023 0 0 0
627 209 1 0.5897 -6.312917769052326 2.902443336915133 12.477139440604546 1 0 0
60 20 1 0.5897 2.62388037210566 3.274765183947152 6.581914785016586 0 0 0
68 23 1 0.5897 -2.917523343862848 -0.10240850816530139 7.835641981441318 0 0 0
1409 470 1 0.5897 2.493415228767275 -0.11529689072147972 9.03019981520137 0 1 0
45 15 1 0.5897 0.47409961109240184 4.482941349267741 7.189445231198598 0 0 0
69 23 1 0.5897 -2.3216092787054725 1.103775510274762 8.529788579549246 0 0 0
97 33 2 -1.1794 -4.263904528864241 4.376446103673716 9.581653238473246 1 0 0
98 33 1 0.5897 -4.0634529160465656 4.913112723900085 8.81478633482938 1 0 0
99 33 1 0.5897 -4.043674911142565 4.933235489834791 10.328451854790417 1 0 0
669 223 1 0.5897 -5.1861577538078265 1.4327678411363653 9.229965581690909 1 0 0
586 196 2 -1.1794 -1.1015509894227042 5.997510893768181 9.72681204949135 0 0 0
535 179 2 -1.1794 -2.0739207933549366 0.6085562966910409 12.25635318774163 0 0 0
668 223 1 0.5897 -5.359619442546801 1.5065800635985545 10.732112164598199 1 0 0
126 42 1 0.5897 -4.058519316544311 2.3127910272162704 7.359798219336821 1 0 0
124 42 2 -1.1794 -4.9717364464266804 2.036354917929483 7.435861598176637 1 0 0
110 37 1 0.5897 -4.462344044690827 6.0577278509502435 6.449896692478926 1 0 0
550 184 2 -1.1794 -1.3476157931832287 4.953515826574383 12.272587828125236 0 0 0
574 192 2 -1.1794 0.6294540489460396 0.29620201877369623 11.37248402891128 0 0 0
523 175 2 -1.1794 -2.453611664307958 2.4188931154300124 9.772868318894355 0 0 0
524 175 1 0.5897 -3.103590715011888 3.099361293831361 9.597604827371848 0 0 0
525 175 1 0.5897 -1.6104966546554076 2.8551678334155386 9.650391056087134 0 0 0
618 206 1 0.5897 -6.78835257476371 5.821742253202029 11.570207164996773 1 0 0
537 179 1 0.5897 -2.2559182535234346 1.274134473318729 11.592908333091085 0 0 0
576 192 1 0.5897 -0.1897195351912071 0.36012516398441563 11.863477813677099 0 0 0
625 209 2 -1.1794 -5.495597654475377 2.475458607608754 12.220493880676642 1 0 0
67 23 2 -1.1794 -2.08169936026127 0.286216011019368 8.093582027346677 0 0 0
667 223 2 -1.1794 -5.284326940666472 0.8845424551830203 10.00848494420619 1 0 0
133 45 2 -1.1794 -2.5075919573473637 3.1052813923089206 6.695445819767499 1 0 0
552 184 1 0.5897 -2.2568468938362747 4.675789052013512 12.383658085700446 0 0 0
520 174 2 -1.1794 2.142440258157925 4.830719806789825 9.760304591646904 0 0 0
587 196 1 0.5897 -1.4218871334966399 5.675916143745998 10.569565381366646 0 0 0
558 186 1 0.5897 -0.13966453058396766 3.714921451740801 12.589445809655501 0 0 0
522 174 1 0.5897 1.9464746201926673 5.57068466698085 9.185566739715778 0 0 0
125 42 1 0.5897 -5.476733048188585 2.789210257421285 7.128563823012268 1 0 0
135 45 1 0.5897 -1.6927289925835405 3.512254760250125 6.9896161139942175 1 0 0
606 202 1 0.5897 -6.030755764580663 4.441322618304567 10.129639906434685 1 0 0
109 37 2 -1.1794 -4.349095374964184 6.256565868478149 7.379352885624337 1 0 0
1410 470 1 0.5897 1.600144906928758 -0.2067307976154403 7.811363732213933 0 1 0
556 186 2 -1.1794 0.7158932652438121 3.350917174506475 12.81685239909056 0 0 0
560 187 1 0.5897 -4.505400115720931 3.6930650923089208 12.753759596942773 0 0 0
662 221 1 0.5897 -7.333290162505972 4.480298009018982 14.349888352198715 1 0 0
20 7 1 0.5897 -5.829389296148934 1.620257020542972 18.54268221583536 0 0 -1
164 55 1 0.5897 -8.634336221932198 1.9800403760405656 18.35480613858621 1 0 -1
629 210 1 0.5897 -8.60533236471549 3.1452049367304884 16.42333936909399 1 0 0
571 191 2 -1.1794 -5.664604312507197 -0.14946647171342747 17.44371242273858 0 0 0
513 171 1 0.5897 -4.100403736312914 6.033970620608301 14.32951189403541 0 0 0
626 209 1 0.5897 -5.3773693768958 1.77689386658983 12.864160972650204 1 0 0
551 184 1 0.5897 -1.1672095677784462 5.496723845327266 13.039794244549809 0 0 0
639 213 1 0.5897 -5.482837533321268 3.3272625320301725 14.76424118789216 1 0 0
638 213 1 0.5897 -6.243713750478131 2.772615369281791 15.949736171176726 1 0 0
528 176 1 0.5897 -3.5487973160729043 2.1700955620619333 19.13979571198713 0 0 0
538 180 2 -1.1794 -3.2907519483417413 0.7153465014541877 16.492009121214952 0 0 0
539 180 1 0.5897 -2.9970824970083223 1.2785071786897904 17.20812721434881 0 0 0
540 180 1 0.5897 -4.184387398035677 0.4695045829395734 16.73108635312537 0 0 0
547 183 2 -1.1794 -3.4952878520952293 4.701481811891033 16.849313760982113 0 0 0
548 183 1 0.5897 -3.7512675514215212 5.41302899172053 16.262418242337294 0 0 0
549 183 1 0.5897 -4.232328835754987 4.091371603641038 16.82255032931419 0 0 0
526 176 2 -1.1794 -2.7011617882937564 2.1252067307909708 18.69742337890236 0 0 0
559 187 2 -1.1794 -3.9176693664634583 4.258585745539626 13.254705085825929 0 0 0
663 221 1 0.5897 -6.688959696378332 5.793681809177655 13.960319683502133 1 0 0
593 198 1 0.5897 -7.554354154043904 0.3731095339561725 14.150352117459922 1 0 0
561 187 1 0.5897 -3.346618499493018 3.6528006064941496 13.727107075356464 0 0 0
562 188 2 -1.1794 -0.9881641583772902 4.069518298445054 15.91707240777431 0 0 0
563 188 1 0.5897 -0.7219280928958565 4.905242626130364 15.533744424751601 0 0 0
564 188 1 0.5897 -1.8522716559460664 4.241516787558047 16.291145520761024 0 0 0
661 221 2 -1.1794 -6.729406754865035 5.151060360269298 14.668615686349062 1 0 0
601 201 2 -1.1794 -7.274780321416764 4.399849822356357 19.154428877237795 1 0 0
580 194 2 -1.1794 -2.305717334097988 2.25139398409995 14.374419876952864 0 0 0
581 194 1 0.5897 -2.6700036312110527 1.6752819391282103 15.046474286963278 0 0 0
582 194 1 0.5897 -1.7011800788298697 2.8217169286048116 14.84923803618815 0 0 0
589 197 2 -1.1794 -5.470677322090928 0.3253993607483159 14.019116535179883 1 0 0
590 197 1 0.5897 -5.36476783212176 1.0342588440335676 14.653567578668113 1 0 0
84 28 1 0.5897 -3.7260870877863157 5.416321274513918 18.38475517972743 0 0 -1
628 210 2 -1.1794 -8.061159109403349 2.3753117831140806 16.588802921612928 1 0 0
536 179 1 0.5897 -2.1092592767496816 1.082146813182356 13.087438371924826 0 0 0
637 213 2 -1.1794 -5.381295010034483 2.768109928460567 15.534512557165565 1 0 0
614 205 1 0.5897 -7.2221438849437645 5.453236912586632 17.7169067259136 1 0 0
615 205 1 0.5897 -6.960875826410174 5.8308914197920565 16.274296097563838 1 0 0
557 186 1 0.5897 0.5501259716704299 2.418958907752971 12.959049096474011 0 0 0
165 55 1 0.5897 -9.458194668587023 0.749275080186331 18.66840413622451 1 0 -1
19 7 2 -1.1794 -5.447821413207606 2.2980846565972866 19.100499609946624 0 0 -1
569 190 1 0.5897 -1.2121490128934633 6.12745966745883 18.677799059825993 0 0 0
630 210 1 0.5897 -8.206640476789612 1.810918014319424 15.829511506218452 1 0 0
613 205 2 -1.1794 -7.210877875076012 6.201890778433493 17.120527959093284 1 0 0
163 55 2 -1.1794 -8.829455332801675 1.358164541926413 19.055860094947306 1 0 -1
527 176 1 0.5897 -2.229545355406634 1.4276547149518275 19.152670676824368 0 0 0
101 34 1 0.5897 -9.168963829058278 4.584028225292984 19.260347918039862 1 0 -1
603 201 1 0.5897 -6.633435394081695 3.6964064257095277 19.054093867328692 1 0 0
82 28 2 -1.1794 -3.945841353557217 5.8026646773440245 19.232514480293503 0 0 -1
257 86 1 0.5897 -4.295932956805192 8.308152309369271 4.724560008512126 1 0 0
332 111 1 0.5897 -2.2072475448689923 9.194202302566122 0.7931702630563109 1 0 0
291 97 1 0.5897 -3.784700720545862 10.116726223339551 2.4810548084339015 1 0 0
289 97 2 -1.1794 -2.859650103835161 9.991129856403576 2.2696691996551785 1 0 0
255 85 1 0.5897 -2.532511792556266 8.944173200167542 3.9167719634051754 1 0 0
326 109 1 0.5897 -3.334594226585379 11.792300137848716 4.896006433101605 1 0 0
290 97 1 0.5897 -2.4252529230875757 10.767507284808715 2.6228518085264607 1 0 0
253 85 2 -1.1794 -2.3515154986323186 8.604990008547043 4.793394881669046 1 0 0
331 111 2 -1.1794 -1.9064971852176231 8.659584101635398 0.05834175880062355 1 0 0
147 49 1 0.5897 -1.0565534439696616 7.316142517081258 0.8521606406848731 1 0 0
771 257 1 0.5897 0.13278305607395247 11.727430342792292 0.008563065486631778 1 0 1
325 109 2 -1.1794 -4.155652939735826 12.239633461228767 4.691177392149559 1 0 0
269 90 1 0.5897 -3.4693188834308426 12.67590570949587 1.009263449974074 1 0 0
254 85 1 0.5897 -1.8054868028884596 7.833120668054164 4.644058871229612 1 0 0
145 49 2 -1.1794 -0.7008444706850736 6.62600746890539 1.4120249266763996 1 0 0
223 75 2 -1.1794 -0.8872974247762202 11.71013549566177 3.306100109238798 0 0 0
302 101 1 0.5897 -2.3300002500641437 10.021871540882621 6.2704366077835525 1 0 0
268 90 2 -1.1794 -3.2518468406131276 12.226499838055526 0.19257107600310186 1 0 0
146 49 1 0.5897 -1.4287222390456389 6.3815877410322015 1.983577728658279 1 0 0
770 257 1 0.5897 -1.2993452746441443 12.217247047657734 0.03788096670352728 1 0 1
239 80 1 0.5897 3.8179663442984832 8.366741245883869 1.4298989258655477 0 0 0
225 75 1 0.5897 -0.6627109107858935 12.441833786281443 3.880901168193181 0 0 0
238 80 2 -1.1794 3.812045661565846 7.609737896453039 2.015721526118951 0 0 0
187 63 2 -1.1794 1.0789675513884163 10.468867641290936 0.31662954831153667 0 0 0
189 63 1 0.5897 2.0208271466292125 10.435914797576707 0.14932764935482332 0 0 0
240 80 1 0.5897 3.520209823144026 6.882833377023909 1.4655823725808144 0 0 0
221 74 1 0.5897 3.986330160778521 10.51356444939486 3.1830890224239887 0 0 0
184 62 2 -1.1794 5.630172995910848 12.020010885698749 0.3849917300749001 0 0 0
228 76 1 0.5897 2.0203993593336733 10.752759364740834 5.746896082107553 0 0 0
174 58 1 0.5897 3.2870326195560997 8.905493741092215 4.644506667672192 0 0 0
222 74 1 0.5897 2.694666860477681 11.211923887664941 3.551489093101845 0 0 0
224 75 1 0.5897 -0.6482795084658877 10.929827488731183 3.8063598471093836 0 0 0
200 67 1 0.5897 0.4803739070364288 7.919313788940977 1.8283410907762934 0 0 0
188 63 1 0.5897 0.9452277087496812 9.87340332276689 1.0540684504426456 0 0 0
244 82 2 -1.1794 0.30189141935222885 9.700842400064188 4.591128331875582 0 0 0
245 82 1 0.5897 0.3896952984849289 9.03514084516497 3.908950648500622 0 0 0
199 67 2 -1.1794 0.9766149378924984 8.60441729235729 2.2761935030095657 0 0 0
246 82 1 0.5897 -0.17596534483863469 9.261816146237457 5.294809411225547 0 0 0
216 72 1 0.5897 0.7629422529905616 12.08903405388035 2.7150143686670214 0 0 0
201 67 1 0.5897 1.8604276800335189 8.246099978642563 2.3578565755689334 0 0 0
220 74 2 -1.1794 3.422671648540417 10.718358949118162 3.92913761925713 0 0 0
173 58 1 0.5897 2.987462710718189 7.450657661459878 4.937159485296183 0 0 0
214 72 2 -1.1794 1.6725412868862408 12.383547077566204 2.7603223203809795 0 0 0
172 58 2 -1.1794 3.5458088163114514 8.17838979487051 5.210744020648989 0 0 0
7 3 2 -1.1794 -0.7407246706241892 6.284886937360104 4.929715647460019 0 0 0
694 232 2 -1.1794 3.773162435335694 9.942770291737002 0.17895461643368016 0 0 1
696 232 1 0.5897 4.300777933532242 10.741386109317956 0.18555599740333456 0 0 1
215 72 1 0.5897 1.9330700033717312 12.499464321031189 1.8465637124435854 0 0 0
212 71 1 0.5897 -0.26013815603186297 12.634939378458888 8.443917608706075 0 0 0
66 22 1 0.5897 2.6421631423116088 6.827547238601789 7.4260573622330845 0 0 0
301 101 2 -1.1794 -2.6749405535959605 10.853781798907237 6.594747820001672 1 0 0
718 240 2 -1.1794 -1.3332587998900172 12.424843673895925 12.33502466469953 0 0 0
190 64 2 -1.1794 0.42414556973380657 10.074123632605016 9.933624560914076 0 0 0
191 64 1 0.5897 0.3835559392822163 9.861384968963932 9.001235872713618 0 0 0
192 64 1 0.5897 0.9806616845509168 10.851614725388973 9.978345823793076 0 0 0
202 68 2 -1.1794 0.15738528761685355 8.944744266384879 7.436399117734069 0 0 0
203 68 1 0.5897 -0.7456794522085941 8.749631061924743 7.686562213691283 0 0 0
204 68 1 0.5897 0.6544660155515403 8.174541234712645 7.711978058749865 0 0 0
728 243 1 0.5897 -3.161737022903508 11.90204595660987 12.725074086427405 0 0 0
213 71 1 0.5897 -0.4482843403585277 12.662048749663574 6.941974356799871 0 0 0
211 71 2 -1.1794 -0.4393880810816442 12.068833545091268 7.693172563381428 0 0 0
837 279 1 0.5897 -5.773770592144219 8.002011615512975 9.172198403703671 1 0 0
235 79 2 -1.1794 -2.2749756460308572 8.071717604280737 8.15417566179928 0 0 0
236 79 1 0.5897 -3.0320247814800867 7.595928269108585 7.812606134510104 0 0 0
237 79 1 0.5897 -2.6511346428520826 8.752850983049015 8.711664253612618 0 0 0
588 196 1 0.5897 -1.689333079590174 6.720163046331428 9.506538764421858 0 0 0
266 89 1 0.5897 -3.4019926226645594 11.480778154098827 9.194595643188283 1 0 0
292 98 2 -1.1794 -5.318740956527883 10.0324978651366 7.274985107748543 1 0 0
294 98 1 0.5897 -5.489904401658313 9.63721818296306 8.129817222191747 1 0 0
293 98 1 0.5897 -4.447217332723765 10.419102604714139 7.359529467844054 1 0 0
649 217 2 -1.1794 -4.065553674010969 6.667148878688699 11.29984947239163 1 0 0
835 279 2 -1.1794 -5.162235689915411 8.569624805993204 9.641264951991786 1 0 0
774 258 1 0.5897 -5.657702095532976 12.188000988059885 9.20157961289284 1 0 0
703 235 2 -1.1794 -2.170930019239295 8.362491814378114 12.563897867859326 0 0 0
795 265 1 0.5897 -5.809353667722926 9.37771571374959 11.195260173744776 1 0 0
704 235 1 0.5897 -1.2403556155710014 8.184467356518146 12.427825350673002 0 0 0
650 217 1 0.5897 -3.4139250717465703 7.127169708690749 11.828945998150983 1 0 0
64 22 2 -1.1794 1.991948162351811 7.013683493083223 8.103408004009239 0 0 0
836 279 1 0.5897 -4.513904844475251 7.9702707789419875 10.010953380676712 1 0 0
691 231 2 -1.1794 -2.336671435067521 10.002491575217162 10.16828508994075 0 0 0
692 231 1 0.5897 -1.4010218453967669 10.203318869270259 10.187951124301426 0 0 0
693 231 1 0.5897 -2.511746391223082 9.591433489128494 11.014840749041896 0 0 0
744 248 1 0.5897 0.04501486699186463 7.1750945224818174 10.69425364329615 0 0 0
303 101 1 0.5897 -1.9529609304029587 11.23431403922181 7.094865123543745 1 0 0
227 76 1 0.5897 1.250754567133316 11.28122439124563 6.938655312359014 0 0 0
651 217 1 0.5897 -4.872388686067441 6.721803517855129 11.811942530918119 1 0 0
793 265 2 -1.1794 -5.930638382511752 9.783693148209116 12.053584257940779 1 0 0
794 265 1 0.5897 -5.265405195850981 10.470949244511974 12.090133456943379 1 0 0
742 248 2 -1.1794 0.29356509233092165 7.80769192506731 11.368242948032657 0 0 0
743 248 1 0.5897 0.5085917105740752 8.603929674712727 10.882409313150422 0 0 0
265 89 2 -1.1794 -3.9292945751065265 12.270214728358031 9.3169699554571 1 0 0
267 89 1 0.5897 -3.8167446408924093 12.762461132481434 8.503761833298833 1 0 0
726 242 1 0.5897 -0.08860677983553167 11.246157700354427 12.771798871768665 0 0 0
616 206 2 -1.1794 -6.7565643190430915 6.458153022437362 12.284491932066954 1 0 0
688 230 2 -1.1794 2.053294571810217 12.207173994281268 10.08106464164636 0 0 0
617 206 1 0.5897 -7.203278256920559 7.230501983262889 11.93782956813172 1 0 0
65 22 1 0.5897 2.359331815677918 7.749554934102253 8.593030154768613 0 0 0
111 37 1 0.5897 -5.234633949163224 6.433837819131401 7.696508241790709 1 0 0
809 270 1 0.5897 -7.57029864530868 10.385691347986045 12.630056552312821 1 0 0
226 76 2 -1.1794 2.0494166512267995 11.422348080604023 6.430295536749608 0 0 0
333 111 1 0.5897 -8.414712833427256 9.327142200150366 18.68659006181444 1 0 -1
83 28 1 0.5897 -4.367635983324291 6.63401348730256 19.0152634730192 0 0 -1
515 172 1 0.5897 -1.9413550137766489 6.581871828702011 14.678920224219105 0 0 0
512 171 1 0.5897 -4.4237970447613275 7.401229754581952 14.89335557497719 0 0 0
717 239 1 0.5897 -2.730652489790441 12.38497917056805 16.882847640904153 0 0 0
695 232 1 0.5897 -2.7987637766761306 9.59886896213977 18.626841573143658 0 0 0
831 277 1 0.5897 -7.347345384842419 11.84013269032585 14.014632223597081 1 0 0
724 242 2 -1.1794 0.6831744995348723 10.819175502190348 13.143614475566402 0 0 0
516 172 1 0.5897 -0.5441871324086129 7.157100380823127 14.772523928082798 0 0 0
727 243 2 -1.1794 -4.015880572034645 11.535868412993572 12.9542810175656 0 0 0
830 277 1 0.5897 -6.922901951401586 12.80288275014214 15.103126163057508 1 0 0
729 243 1 0.5897 -4.439229729260074 12.220379318692876 13.47240201384758 0 0 0
829 277 2 -1.1794 -6.604538166939829 12.364252682776943 14.314145434923892 1 0 0
706 236 2 -1.1794 -2.882883371491052 8.728162315156563 16.911175952308106 0 0 0
707 236 1 0.5897 -3.697242615164484 8.287012323195098 17.152823723904753 0 0 0
708 236 1 0.5897 -2.1995535738854093 8.079178636141044 17.078815452153655 0 0 0
678 226 1 0.5897 0.43210231500698804 9.242220888677295 14.219944390294968 0 0 0
796 266 2 -1.1794 -8.04131295587365 10.350859329669538 17.261846785399314 1 0 0
762 254 1 0.5897 -7.615102699747737 8.49202979225052 14.708348399702798 1 0 0
805 269 2 -1.1794 -5.519320092246257 10.62827960452113 16.281824165973124 1 0 0
806 269 1 0.5897 -5.800454306693845 11.253860533654136 15.614079120909782 1 0 0
568 190 2 -1.1794 -1.0928570907481046 6.895609553245481 18.1192387568404 0 0 0
807 269 1 0.5897 -4.834680180891597 11.087713117294092 16.768001147234607 1 0 0
730 244 2 -1.1794 -1.189420454258916 11.871176275608741 16.473366988474645 0 0 0
731 244 1 0.5897 -1.5764900613494675 11.165425059498324 15.955393608585501 0 0 0
797 266 1 0.5897 -7.0945733731062255 10.426228544307797 17.142795149503424 1 0 0
739 247 2 -1.1794 -5.217435653337996 7.934844456491771 17.894777374197147 0 0 0
740 247 1 0.5897 -5.996812520099773 7.605909777576585 17.446960842067316 0 0 0
741 247 1 0.5897 -5.531942368544671 8.678485780792073 18.408897508276684 0 0 0
748 250 2 -1.1794 -2.3703010949230725 10.160994549269477 14.73411004475546 0 0 0
749 250 1 0.5897 -2.722096325366487 9.754277890208602 15.526001983556077 0 0 0
750 250 1 0.5897 -3.1263242143298395 10.580763227533819 14.323705663563112 0 0 0
757 253 2 -1.1794 -5.746118490758161 8.41816541552747 14.597822911148924 1 0 0
758 253 1 0.5897 -5.5898859675930535 9.170250676870076 15.16894596591885 1 0 0
759 253 1 0.5897 -5.608675075497242 8.756184300015775 13.71287479956514 1 0 0
798 266 1 0.5897 -8.323996288187281 9.756528145248806 16.566811328065587 1 0 0
715 239 2 -1.1794 -3.6382535709878736 12.6308541734061 17.061705318574813 0 0 0
732 244 1 0.5897 -0.5524071864027169 11.43306110706338 17.03771850475164 0 0 0
705 235 1 0.5897 -2.190375985786037 9.019298463110498 13.259930057724633 0 0 0
511 171 2 -1.1794 -3.8297530015655488 6.6586317577970435 15.002386956335487 0 0 0
514 172 2 -1.1794 -1.0216565242303135 6.364822841176466 14.526518288974202 0 0 0
185 62 1 0.5897 -1.1673615075100665 12.794558485126702 19.09680244243451 0 0 -1
769 257 2 -1.1794 -7.130683229053458 12.526003432484663 19.127778333054696 1 0 0
676 226 2 -1.1794 0.5344961131445869 8.5864493000356 14.909697303231168 0 0 0
280 94 2 -1.1794 -3.4023447516724286 13.907454577645451 2.610094787459162 1 0 0
425 142 1 0.5897 -4.252965779737252 15.962948932384325 4.803138352351926 1 0 0
281 94 1 0.5897 -3.6632786442426446 13.385254535475388 3.368709642863123 1 0 0
458 153 1 0.5897 -2.670566091679422 17.212083366664814 1.6954701131081031 1 0 0
457 153 2 -1.1794 -3.0185432710209237 17.357656633180007 2.575230355399093 1 0 0
282 94 1 0.5897 -2.447590586274205 13.948642806444973 2.6640571080662823 1 0 0
459 153 1 0.5897 -2.3609842873461613 17.903690854388287 3.0060935351557068 1 0 0
423 141 1 0.5897 -2.1733231377846276 16.083545482590573 3.917592940133003 1 0 0
421 141 2 -1.1794 -2.3358197878248506 15.763863102773723 4.805104900849794 1 0 0
313 105 2 -1.1794 -0.7767895777127971 14.607319800274137 1.7709906444855752 1 0 0
315 105 1 0.5897 -0.44262138874282053 14.010855144602171 1.1010649545102622 1 0 0
422 141 1 0.5897 -2.4287086283548254 16.55713520750061 5.332669633364866 1 0 0
176 59 1 0.5897 -1.1900284580060854 14.39654741538871 5.162724054558701 0 0 0
470 157 1 0.5897 -2.7493800159613184 18.949996275296275 5.939193171496671 1 0 0
500 167 1 0.5897 -1.4565980919900765 16.012085629942582 0.6356628233200361 1 0 0
939 313 1 0.5897 -0.26467519575443 18.955117129167935 0.3348812749146165 1 0 1
499 167 2 -1.1794 -2.1277848979354097 16.465079263040703 0.12524852518828708 1 0 0
327 109 1 0.5897 -4.317470387110644 12.802744301144942 5.448120443060656 1 0 0
391 131 2 -1.1794 -1.0233249770783601 18.779699004044605 3.789893899755739 0 0 0
392 131 1 0.5897 -0.34444147618170273 18.95879855169105 3.1393011651555316 0 0 0
340 114 2 -1.1794 3.8479820029037723 16.247414417989727 4.977813163781357 0 0 0
314 105 1 0.5897 0.007701824218910858 14.976182100936741 2.1768019372453487 1 0 0
250 84 2 -1.1794 2.6040429899261426 13.386576368722867 0.44181177136791183 0 0 0
355 119 2 -1.1794 1.0773750876400214 17.71223477196492 0.40836619121349654 0 0 0
388 130 2 -1.1794 3.7920163019290802 18.58859973567598 3.435961168740703 0 0 0
407 136 1 0.5897 4.827802830713517 14.919798219487456 2.153929352817853 0 0 0
414 138 1 0.5897 0.08599163942708277 17.800745720974977 4.801459995959094 0 0 0
175 59 2 -1.1794 -0.6668407046744278 13.597277949590861 5.223392717767343 0 0 0
177 59 1 0.5897 0.23983128609726823 13.899326791259305 5.16971985777602 0 0 0
412 138 2 -1.1794 0.7393757950908135 17.2527971786453 5.236280910910918 0 0 0
369 123 1 0.5897 1.5919782489787035 16.32422633874458 3.7925079483245834 0 0 0
367 123 2 -1.1794 1.4853210191449335 16.03221979068648 2.8871899629099427 0 0 0
356 119 1 0.5897 1.1007207365940994 17.324083889533494 1.2830518951311853 0 0 0
413 138 1 0.5897 1.4091180008314366 17.86845359260263 5.53392587832317 0 0 0
368 123 1 0.5897 2.342888209481049 15.68267825300074 2.6451414819953984 0 0 0
252 84 1 0.5897 3.308414327862664 13.978294218593756 0.7062120861059994 0 0 0
863 288 1 0.5897 2.991478739465803 17.763804185994662 0.2999430315417458 0 0 1
408 136 1 0.5897 4.219836250055584 16.054814236898935 1.35764655380115 0 0 0
179 60 1 0.5897 2.1284071325530016 13.24839764938522 5.782149580484372 0 0 0
383 128 1 0.5897 2.022245706497105 19.061156947704752 2.5615627899901767 0 0 0
178 60 2 -1.1794 1.9689534980100047 13.929568443240797 5.128806135550332 0 0 0
406 136 2 -1.1794 3.9964011004828155 15.35973188554206 1.976686463534222 0 0 0
341 114 1 0.5897 3.517853033563788 15.349276582082034 5.002123625289988 0 0 0
180 60 1 0.5897 1.9664783306855504 13.464046408357085 4.292430986057339 0 0 0
389 130 1 0.5897 3.622372982498418 17.847088870233936 4.017043615885701 0 0 0
862 288 2 -1.1794 3.8943828550660164 17.489561474503077 0.13950444974593137 0 0 1
390 130 1 0.5897 4.143881476906423 19.26831253440144 4.010757137823988 0 0 0
353 118 1 0.5897 4.908080663740251 18.938231487079566 0.038633831092336465 0 0 0
251 84 1 0.5897 1.9893049536069398 13.943593618645007 -0.035744145067306915 0 0 0
233 78 1 0.5897 2.639464831773725 14.191648026099822 7.8329942508255295 0 0 0
232 78 2 -1.1794 1.8550398408024424 14.280586926338184 8.374268630068732 0 0 0
785 262 1 0.5897 -7.322759832955172 14.099093253648464 11.883164097156548 1 0 0
234 78 1 0.5897 1.2204985257755192 14.718561673445622 7.807025607038816 0 0 0
277 93 2 -1.1794 -4.734713203141245 13.649356307658016 7.017811722316821 1 0 0
278 93 1 0.5897 -4.0901457658989 14.330873461997355 7.20821546759417 1 0 0
469 157 2 -1.1794 -2.564196293860538 18.161726288226966 6.449691733300096 1 0 0
358 120 2 -1.1794 0.31100674231134295 17.910501005128918 9.154706195769407 0 0 0
359 120 1 0.5897 0.5491799758613758 17.21846202268834 9.771657520047967 0 0 0
360 120 1 0.5897 0.9295132726232715 18.61788783646255 9.33703356364816 0 0 0
370 124 2 -1.1794 -0.12927012179159192 15.910861307183563 7.3652056175586 0 0 0
371 124 1 0.5897 0.05236758031140498 16.67390221840125 7.913837079455279 0 0 0
1004 335 1 0.5897 -5.2001761188820375 16.930575307267404 9.143562905258106 1 0 0
912 304 1 0.5897 1.115677043946972 15.464179209181285 11.499532767273415 0 0 0
403 135 2 -1.1794 -2.6192614213529097 15.341137307762784 7.918216202563895 0 0 0
404 135 1 0.5897 -1.8130942610656748 15.445877455836335 7.412912552392731 0 0 0
405 135 1 0.5897 -2.783028155679359 16.207374494845098 8.291109509157357 0 0 0
719 240 1 0.5897 -1.4472184183560275 12.963108139176812 11.55172101875149 0 0 0
871 291 2 -1.1794 -2.083902349886925 16.24142851856322 12.2885779455479 0 0 0
911 304 1 0.5897 -0.30595136519562693 15.964405853168678 11.642804425808599 0 0 0
961 321 2 -1.1794 -6.099445307427839 17.61753004921399 12.101685803408209 1 0 0
471 157 1 0.5897 -3.4184593355815336 17.883305208911878 6.779702248680987 1 0 0
963 321 1 0.5897 -5.89656119771 17.206623637423885 11.261303890248934 1 0 0
754 252 2 -1.1794 -0.9412444270139493 13.763291890741549 9.916856604610128 0 0 0
755 252 1 0.5897 -0.3915232301349372 14.486429290010332 10.218630305716676 0 0 0
756 252 1 0.5897 -1.6120490035925887 14.18102998740318 9.376728477872222 0 0 0
784 262 2 -1.1794 -6.511718041390349 13.596989852829697 11.803773280363863 1 0 0
460 154 2 -1.1794 -5.074994065095877 17.280985488323584 7.42267493564599 1 0 0
817 273 2 -1.1794 -3.9735902237142864 14.332627594768935 11.175435427291681 1 0 0
818 273 1 0.5897 -4.916029621751399 14.31247837727617 11.341494864901655 1 0 0
819 273 1 0.5897 -3.815472261145125 13.58520706528783 10.598723220338806 1 0 0
859 287 2 -1.1794 -2.2914507391131727 17.472697260364583 9.823390083606784 0 0 0
860 287 1 0.5897 -2.769143565739532 18.267469717438193 9.585923391419026 0 0 0
861 287 1 0.5897 -1.3691900612228776 17.70732936896497 9.720663458795238 0 0 0
279 93 1 0.5897 -5.560292963357824 13.9997305400725 7.352262818351356 1 0 0
872 291 1 0.5897 -2.079037515910988 17.02986602615599 11.74579258846274 0 0 0
873 291 1 0.5897 -2.760344750568583 15.686772698458832 11.900046412511303 0 0 0
1003 335 2 -1.1794 -5.375643902030873 16.39809416379734 9.919420958412573 1 0 0
1005 335 1 0.5897 -4.558550384337698 15.924540409513575 10.075322081086242 1 0 0
910 304 2 -1.1794 0.4150916541522216 15.902267483792702 11.016338616658981 0 0 0