LAMMPS data file via write_data, version 30 Jul 2021, timestep = 1250000

1920 atoms
2 atom types
1280 bonds
1 bond types
640 angles
1 angle types

-0.18185038061366043 24.91185138060939 xlo xhi
-0.12737549315595587 24.857376493156423 ylo yhi
-0.043270956230459845 22.85327095623247 zlo zhi

Masses

1 1.008
2 15.999

Pair Coeffs # lj/cut/tip4p/long/omp

1 0 0
2 0.21084 3.1668

Bond Coeffs # harmonic/omp

1 450 0.9572

Angle Coeffs # harmonic/omp

1 55 104.52

Atoms # full

1 1 2 -1.1794 4.613353161256552 1.0367283926193207 4.151522236202398 0 0 0
2 1 1 0.5897 4.465498347848571 1.849762978792803 4.6345464947940345 0 0 0
3 1 1 0.5897 5.260848799642252 1.2676305010902906 3.4854830645037174 0 0 0
4 2 2 -1.1794 2.780592624269852 1.0965648072991099 2.0306984994629635 0 0 0
5 2 1 0.5897 3.2004731793670556 1.0516696727481794 2.889719629661606 0 0 0
6 2 1 0.5897 1.8430249547619377 1.113555511789787 2.222504959241177 0 0 0
9 3 1 0.5897 4.927122182214134 4.585028259520499 3.358295846436936 0 0 0
10 4 2 -1.1794 2.980399392492476 4.574674507246195 3.272405491612084 0 0 0
11 4 1 0.5897 2.557625799336822 5.262793605159295 3.7861531467289167 0 0 0
12 4 1 0.5897 2.5076819467073688 4.571758230509443 2.440093868689346 0 0 0
13 5 2 -1.1794 1.5373344755766831 3.124325949063521 5.05240340828899 0 0 0
14 5 1 0.5897 2.00507343188606 3.461670046825615 4.288448294949632 0 0 0
15 5 1 0.5897 1.6836015697014703 2.1787864316539833 5.025111698075937 0 0 0
20 7 1 0.5897 3.7804713162808947 2.36093132414905 0.7147908675834681 0 0 0
22 8 2 -1.1794 1.1935946291692954 4.373255536474066 1.2567250705547854 0 0 0
24 8 1 0.5897 1.0003727010134533 5.011081115321245 0.5696606420855511 0 0 0
21 7 1 0.5897 5.224018185429428 2.7532112462753964 0.9468962409101328 0 0 0
23 8 1 0.5897 0.3689772675036217 4.276165223595596 1.7328750418139578 0 0 0
27 9 1 0.5897 4.521566896285425 4.850675813590882 0.6008807520917757 0 0 0
99 33 1 0.5897 -0.11614498813224569 3.84102936028392 4.127914265174003 1 0 0
1470 490 1 0.5897 1.6365917616612362 -0.086152430328122 0.20638716478137456 0 0 1
28 10 2 -1.1794 1.6573475048843698 0.16794705955248246 4.774619882179564 0 0 0
19 7 2 -1.1794 4.444300566289914 2.9967956589008837 0.44804562978299706 0 0 0
7 3 2 -1.1794 5.861066419808077 4.5193864983131835 3.5571490335764815 0 0 0
98 33 1 0.5897 -0.11136725899118427 5.348001061079101 3.983741953991805 1 0 0
16 6 2 -1.1794 0.005344098147445464 1.2612030502650018 1.8597826778267261 0 0 0
18 6 1 0.5897 0.00714441243208308 2.1509766550312857 1.5069520569625916 0 0 0
150 50 1 0.5897 1.276302616545016 5.89991758032489 5.630177280145068 0 0 0
25 9 2 -1.1794 4.556789306619787 5.807122363144137 0.588638161083609 0 0 0
47 16 1 0.5897 5.807249918117192 0.8482058610935151 1.432435793853371 0 0 0
26 9 1 0.5897 5.117308542182499 6.036130050777569 1.329964444618098 0 0 0
8 3 1 0.5897 6.007742410610877 5.1743431862449265 4.239592993920051 0 0 0
487 163 2 -1.1794 5.642951822950433 4.800573880178081 9.21285721087167 0 0 0
629 210 1 0.5897 2.0391693725891713 5.677175457212438 10.475527909504779 0 0 0
508 170 2 -1.1794 0.9904989330571108 0.007993610710681165 10.628710077530434 0 0 0
496 166 2 -1.1794 0.1498926074748278 1.618932824692437 7.760220994866367 0 0 0
500 167 1 0.5897 3.6253482553237815 2.8065279104959684 6.4708102354623795 0 0 0
498 166 1 0.5897 1.070138529475843 1.3558117608468105 7.764435297196442 0 0 0
528 176 1 0.5897 5.572058816694933 1.8542770914615596 7.136268014138421 0 0 0
484 162 2 -1.1794 2.715440984090817 1.2346222973973817 7.75289773560073 0 0 0
1347 449 1 0.5897 4.1797150209160225 0.2193801947619043 11.113631573174876 0 1 0
579 193 1 0.5897 -0.11398117273409043 5.4603411943121944 9.322594733333794 1 0 0
502 168 2 -1.1794 1.3944214078690031 4.799842043536558 6.95044276860185 0 0 0
481 161 2 -1.1794 4.4464170937526974 1.438061513779701 9.872560644864306 0 0 0
494 165 1 0.5897 1.1966562738508986 1.7440357155880515 10.58265853682922 0 0 0
490 164 2 -1.1794 2.989162832306237 4.258659789342588 9.185311828212932 0 0 0
483 161 1 0.5897 4.218525849436068 2.253332830066631 10.319332773265645 0 0 0
492 164 1 0.5897 2.298697062459008 3.702468699910425 9.545947204264424 0 0 0
503 168 1 0.5897 0.6829855407782713 4.738704361043155 7.587851559387119 0 0 0
489 163 1 0.5897 4.703783984458943 4.77785256288719 9.396036740842094 0 0 0
493 165 2 -1.1794 1.0661634402515956 2.6903553071903983 10.522416123608869 0 0 0
504 168 1 0.5897 1.2540753113984358 4.057895136981852 6.362202474109083 0 0 0
501 167 1 0.5897 4.46202471087122 3.9834822345072967 6.016418937866418 0 0 0
485 162 1 0.5897 3.1283993874870384 1.1430824433118838 8.611567511527506 0 0 0
491 164 1 0.5897 2.6382165538536277 4.5652885157418055 8.349227595471628 0 0 0
499 167 2 -1.1794 4.518601331506674 3.0522242828886124 6.2303045751359 0 0 0
486 162 1 0.5897 3.0224538952928106 0.47579167847915327 7.2567907688674085 0 0 0
482 161 1 0.5897 5.176051149889622 1.6741282668980768 9.299784612830997 0 0 0
505 169 2 -1.1794 4.342403572308323 6.0172905333541 6.2819703309559385 0 0 0
527 176 1 0.5897 5.643109909247665 0.4965712624706329 7.802139020096144 0 0 0
628 210 2 -1.1794 1.2102752804836476 5.997037995239165 10.831545549183563 0 0 0
488 163 1 0.5897 6.011778154487268 4.110733177612715 9.764485470598611 0 0 0
495 165 1 0.5897 1.250527246349677 3.0146265533681933 11.40394658819946 0 0 0
961 321 2 -1.1794 4.564787228449874 1.4493590413805129 15.438876625115014 0 0 0
962 321 1 0.5897 5.128666544733129 1.2533122454853365 14.6906795256875 0 0 0
963 321 1 0.5897 4.640175561377314 0.6806230293440669 16.004179211755442 0 0 0
964 322 2 -1.1794 2.566586816221581 1.371339298022656 13.588809477291198 0 0 0
965 322 1 0.5897 2.979384695534208 1.3540432490836227 14.452253626862106 0 0 0
966 322 1 0.5897 1.6297535861067023 1.2943687111763764 13.76919671053985 0 0 0
970 324 2 -1.1794 3.317734824249333 4.61662566858993 14.780324237959745 0 0 0
971 324 1 0.5897 4.268743067040219 4.622842540808574 14.672405394659743 0 0 0
972 324 1 0.5897 3.1360527630510826 3.8091451622387753 15.261118363319795 0 0 0
973 325 2 -1.1794 1.4449701900184095 2.5324884637889946 16.055505754609243 0 0 0
975 325 1 0.5897 0.6921885252602256 2.6753786441362633 15.481868688564933 0 0 0
982 328 2 -1.1794 1.2537764553975292 4.347145860868216 12.969270749524837 0 0 0
983 328 1 0.5897 1.2285969757818718 5.030584485711072 12.299572551028563 0 0 0
984 328 1 0.5897 2.0596889360545974 4.518151173263764 13.456509508389804 0 0 0
990 330 1 0.5897 1.2216339377760752 0.7454043584058491 16.629988311725953 0 0 0
980 327 1 0.5897 3.7830928185588344 2.8530391286653853 12.664006786901624 0 0 0
981 327 1 0.5897 5.282620656091352 2.7324411469027075 12.495260048777462 0 0 0
979 327 2 -1.1794 4.504102384465672 3.116851147488585 12.09241513182856 0 0 0
987 329 1 0.5897 4.455166325999472 5.051853524608491 11.951551309017432 0 0 0
974 325 1 0.5897 1.3120574334274682 3.141299387876543 16.78208256419125 0 0 0
1460 487 1 0.5897 4.647395345730482 2.74204704499039 16.70669164533969 0 0 0
985 329 2 -1.1794 4.555139349049939 6.002682311564094 11.905500088316083 0 0 0
1109 370 1 0.5897 0.6354455010227464 5.830392632348489 15.758740878459934 0 0 0
1346 449 1 0.5897 3.4525982888091944 0.10961396827426767 12.436921660185657 0 1 0
1058 353 1 0.5897 0.13360906494655317 4.593656872169222 14.470570424332072 1 0 0
967 323 2 -1.1794 6.062159705529957 4.475995873604788 14.97181931312587 0 0 0
1110 370 1 0.5897 2.061182619826165 6.014783243329259 16.232957620835613 0 0 0
1539 513 1 0.5897 0.058313632901426715 5.403907810177143 20.470378832538046 1 0 0
1588 530 2 -1.1794 1.3983210323703712 6.021946963686868 21.849090649755823 0 0 0
1468 490 2 -1.1794 1.495858477266978 0.1668973619660632 22.190565469828428 0 0 0
1467 489 1 0.5897 5.066753611434447 6.114891120841068 18.504220156893297 0 0 0
1538 513 1 0.5897 -0.05182872822956375 3.948142925005323 20.870878666544534 1 0 0
1826 609 1 0.5897 3.7869552958626946 -0.08794507113967023 18.002094579478786 0 1 0
1487 496 1 0.5897 5.903482978436293 1.512754541144078 19.777578387090223 0 0 0
1454 485 1 0.5897 1.9217327104461766 3.356540055076035 21.243308444349807 0 0 0
1466 489 1 0.5897 4.40453452547544 4.831081210033838 18.05140380529864 0 0 0
1464 488 1 0.5897 0.8428412721237031 4.1924126433022275 19.12104625400704 0 0 0
1465 489 2 -1.1794 4.228495106511644 5.758403835281472 18.21034318403985 0 0 0
1447 483 2 -1.1794 6.076449861610058 4.34354708996359 20.586325114161305 0 0 0
386 129 1 0.5897 4.451797926287661 -0.011610778527017113 22.605395467369284 0 1 -1
1446 482 1 0.5897 2.5080589602510464 2.352039308549567 18.591719400041526 0 0 0
1462 488 2 -1.1794 1.3847572335757667 4.105968837578801 18.336793417437868 0 0 0
1444 482 2 -1.1794 2.6056107189615667 1.4794752425048454 18.972940060206902 0 0 0
1469 490 1 0.5897 1.5571570258846112 1.1220998304399425 22.194277124135446 0 0 0
1461 487 1 0.5897 5.352374031996508 2.7745056993005943 18.046025675908346 0 0 0
1441 481 2 -1.1794 4.612418656574562 1.3218848524513211 21.194300661316156 0 0 0
1451 484 1 0.5897 4.37889145874853 4.536398626653942 20.925070331813174 0 0 0
1453 485 2 -1.1794 1.1743646079515793 2.87715870986393 21.60076647632497 0 0 0
1452 484 1 0.5897 3.4680684417988945 4.814332110723097 19.748233507369903 0 0 0
1459 487 2 -1.1794 4.723519140493503 3.2573384433276202 17.509754952236584 0 0 0
1442 481 1 0.5897 3.917949995287886 1.505402915307437 20.56168728132011 0 0 0
1445 482 1 0.5897 1.7204583100626998 1.2353109677554177 19.24314070537325 0 0 0
1443 481 1 0.5897 4.691945904100972 2.128151098935439 21.70401981181451 0 0 0
1450 484 2 -1.1794 3.459024606976551 4.664298234104145 20.693567118175537 0 0 0
1463 488 1 0.5897 1.4022413756568544 4.985276898830994 17.959033575730075 0 0 0
1455 485 1 0.5897 0.8771530652212622 3.410853284019006 22.337683261309316 0 0 0
1590 530 1 0.5897 2.2966986527589555 5.775229024333595 21.629637840376013 0 0 0
1488 496 1 0.5897 6.055632539069019 0.7833360933218035 18.459734001111663 0 0 0
1456 486 2 -1.1794 -0.1028672887120685 1.2943031928334974 19.26882871372088 0 0 0
121 41 2 -1.1794 4.356108295426096 7.649281099212956 4.062954588424806 0 0 0
122 41 1 0.5897 3.59428322875338 7.701028647540453 3.485807714221855 0 0 0
123 41 1 0.5897 5.105569401698047 7.615739639395093 3.4685334193479918 0 0 0
124 42 2 -1.1794 2.912921700196949 7.724751570614715 1.805511063487212 0 0 0
125 42 1 0.5897 3.3719121486152392 6.986872860168222 1.4042133664899497 0 0 0
126 42 1 0.5897 3.262470266079151 8.496105499641288 1.3594026241342156 0 0 0
129 43 1 0.5897 5.109684799515029 11.043029503950732 3.173479440097385 0 0 0
130 44 2 -1.1794 3.2702305299153958 11.039418810391409 3.506925121998417 0 0 0
132 44 1 0.5897 2.861318811840076 10.191241802188603 3.678844745976122 0 0 0
133 45 2 -1.1794 1.308726743560132 9.09087903743189 4.715481873139242 0 0 0
135 45 1 0.5897 0.5111203461178101 9.504502047526485 4.385523975357019 0 0 0
137 46 1 0.5897 0.9713204730531806 7.551714686494804 1.8324721435509734 0 0 0
139 47 2 -1.1794 4.835634183255348 9.486039856700245 0.6478966495307631 0 0 0
142 48 2 -1.1794 1.3129452004584168 10.910047519037127 1.6636470718126564 0 0 0
143 48 1 0.5897 2.0994456854380448 11.146052166752224 2.1554463819057745 0 0 0
144 48 1 0.5897 1.291866342614961 11.528581970367139 0.9334381002331152 0 0 0
149 50 1 0.5897 1.3474001463593421 7.2384064650687145 4.926465039366787 0 0 0
131 44 1 0.5897 2.8304603108364352 11.643523805682644 4.105135721794837 0 0 0
140 47 1 0.5897 4.686977990952136 10.429637567668786 0.5870461356904106 0 0 0
621 207 1 0.5897 4.511434855301306 9.141936839862398 5.341214263195506 0 0 0
168 56 1 0.5897 6.03219501557711 8.226898656123659 1.6130800155811567 0 0 0
148 50 2 -1.1794 1.2136274447293534 6.304492132751818 4.764940672534179 0 0 0
127 43 2 -1.1794 5.999422584660424 10.757833488308064 3.381201131140666 0 0 0
1574 525 1 0.5897 1.434758846502716 8.964145720295273 0.1972179684273709 0 0 1
134 45 1 0.5897 1.3154520000905088 9.294534298396384 5.650748836739045 0 0 0
270 90 1 0.5897 0.7269645218870984 12.062557129065606 4.751058806240378 0 0 0
136 46 2 -1.1794 0.07573589853940593 7.824635786638812 1.6335891761417796 0 0 0
507 169 1 0.5897 4.444646601666477 6.6200804815179435 5.545486184948457 0 0 0
268 90 2 -1.1794 1.4302074250020236 12.332572245076019 5.341574127827121 0 0 0
218 73 1 0.5897 0.005239100559891102 10.977714425231893 2.97237010620442 1 0 0
145 49 2 -1.1794 4.4325763875088615 12.252799982105183 0.5440274779054466 0 0 0
699 233 1 0.5897 -0.017873678239480745 10.762978785828807 8.802091567985519 1 0 0
648 216 1 0.5897 5.6048491495872845 7.091842200282817 7.146912675056748 0 0 0
607 203 2 -1.1794 5.976307016240302 10.876503183902987 9.341029322348724 0 0 0
602 201 1 0.5897 4.946664102523318 7.379223497799775 10.57039322176766 0 0 0
606 202 1 0.5897 1.807343195155979 8.072976093870125 8.015263688484326 0 0 0
604 202 2 -1.1794 2.6888585607364917 7.875427975208211 7.698996465865349 0 0 0
625 209 2 -1.1794 4.425115272542386 12.269624734372666 6.3654751411852075 0 0 0
698 233 1 0.5897 -0.007722555463449632 11.176133374705863 10.25849907787409 1 0 0
647 216 1 0.5897 5.500598483608314 7.792873535088231 8.484666456615523 0 0 0
611 204 1 0.5897 3.9600613039377643 10.991991853008475 9.546767709404515 0 0 0
623 208 1 0.5897 1.930699092729017 10.736008808396868 8.106830024659295 0 0 0
615 205 1 0.5897 0.615329080760955 9.192781322935774 10.354592153740919 0 0 0
622 208 2 -1.1794 1.3163041082337739 10.511288217246957 7.408113423156393 0 0 0
610 204 2 -1.1794 3.035147775549952 10.74601597574149 9.558919006868923 0 0 0
601 201 2 -1.1794 4.821183007039258 8.169259549772127 10.044748623057183 0 0 0
612 204 1 0.5897 2.5898026514194754 11.505427810390675 9.934613580921521 0 0 0
620 207 1 0.5897 5.359074962062973 9.178690275116244 6.5950062631362325 0 0 0
613 205 2 -1.1794 1.4054824967144595 8.763783966231031 10.682849536093238 0 0 0
626 209 1 0.5897 4.523995168897153 11.321278491805426 6.281553524875846 0 0 0
603 201 1 0.5897 3.943754009319731 8.074196912225792 9.674338015970799 0 0 0
630 210 1 0.5897 1.2943917630254558 6.950382054511211 10.816075998836164 0 0 0
619 207 2 -1.1794 4.647187526791221 9.63734947497623 6.148907819466982 0 0 0
605 202 1 0.5897 2.942842204169816 8.649802216142685 7.196960316473061 0 0 0
614 205 1 0.5897 2.11271354504268 9.376103287983586 10.48027668800428 0 0 0
624 208 1 0.5897 1.4403263243175464 11.195401110285358 6.750222560926064 0 0 0
506 169 1 0.5897 3.661046207155567 6.414441029604995 6.824356797673978 0 0 0
1101 367 1 0.5897 4.3248897037918255 9.091236564818436 11.333061644715361 0 0 0
646 216 2 -1.1794 6.090904932538725 7.661958385585434 7.742648415773778 0 0 0
1081 361 2 -1.1794 4.2330669629647755 7.503998427489976 15.766350793843236 0 0 0
1082 361 1 0.5897 4.359844610695782 8.405703984401905 16.0614080016274 0 0 0
1083 361 1 0.5897 4.625153651470656 6.968472274430954 16.4560544338916 0 0 0
1084 362 2 -1.1794 2.7797447281174756 7.458857156934943 13.311156377290523 0 0 0
1086 362 1 0.5897 3.2279924493020045 8.228427224969858 12.960426404604721 0 0 0
1089 363 1 0.5897 4.726841989854742 10.762302941943164 14.937960624815085 0 0 0
1090 364 2 -1.1794 2.996556403436649 10.764860791175819 15.014825843108557 0 0 0
1091 364 1 0.5897 2.5652255342226873 11.554681642387933 15.3408792704855 0 0 0
1092 364 1 0.5897 2.6001167372282734 10.051221433776771 15.514569522467532 0 0 0
1093 365 2 -1.1794 1.3341821047230926 9.145541514622137 16.46033193680315 0 0 0
1094 365 1 0.5897 1.1486333753822449 8.212099971851332 16.56251860269186 0 0 0
1095 365 1 0.5897 0.5863402937628521 9.486605388288787 15.96986091921085 0 0 0
1097 366 1 0.5897 0.921804230788275 7.587589877119402 13.240537436554897 0 0 0
1100 367 1 0.5897 5.087150287481849 9.308060814355702 12.622940699209185 0 0 0
1102 368 2 -1.1794 1.260767275723105 10.662433905226965 12.741395219366773 0 0 0
1103 368 1 0.5897 1.2689144535781394 9.870935191303706 12.203189679685817 0 0 0
1104 368 1 0.5897 2.015482458957311 10.565597955117564 13.322067661933309 0 0 0
1085 362 1 0.5897 3.0426409994366717 7.426422335391928 14.23098257320177 0 0 0
1099 367 2 -1.1794 4.255936689224444 9.507435123094215 12.192281341046511 0 0 0
1107 369 1 0.5897 4.356914691171088 11.497896309656962 11.988927382421235 0 0 0
1179 393 1 0.5897 -0.043576418784621734 10.606830696777246 14.078974445194476 1 0 0
1127 376 1 0.5897 5.5885683056853654 7.4263400305679275 14.370495823402567 0 0 0
750 250 1 0.5897 1.3419688153108449 12.2371143079549 11.636185238382092 0 0 0
1096 366 2 -1.1794 -0.02228185589478915 7.7449885858581125 13.245725816591412 0 0 0
1178 393 1 0.5897 0.3379151803863326 11.504283185544748 15.236945925835196 1 0 0
1087 363 2 -1.1794 5.682100437048709 10.821755638985103 14.944651382165528 0 0 0
1088 363 1 0.5897 5.885678844552762 11.325437816615615 15.732740790544662 0 0 0
986 329 1 0.5897 3.845980057078256 6.345189430241445 12.449507238807097 0 0 0
1128 376 1 0.5897 5.519161307123128 6.8098477651743226 12.989545169145766 0 0 0
1108 370 2 -1.1794 1.183059936062609 6.38728387274496 16.3120649243943 0 0 0
1126 376 2 -1.1794 6.0154242001075815 7.438353875122901 13.513835020328273 0 0 0
1608 536 1 0.5897 5.716686369954752 7.661890261847128 20.169301515475894 0 0 0
1710 570 1 0.5897 2.1148489317042047 12.074984196415565 21.869796366437306 0 0 0
1583 528 1 0.5897 0.8271201832039623 10.587293678436366 19.140318453400475 0 0 0
141 47 1 0.5897 4.666011879876609 9.158915589684137 22.661006377801947 0 0 -1
1709 570 1 0.5897 0.6627973559658277 11.733947441697206 21.61128838761755 0 0 0
1657 553 2 -1.1794 -0.17065389369263367 10.504284323724443 20.74152852783235 1 0 0
1562 521 1 0.5897 4.507436201591265 7.039348722836802 21.810357993048243 0 0 0
1566 522 1 0.5897 3.1228204434957187 6.9564991981151305 18.91581243551928 0 0 0
1585 529 2 -1.1794 4.251433799633829 12.246468425000518 18.053220988452225 0 0 0
1589 530 1 0.5897 1.4426119685753849 6.962809089444632 22.019380470573743 0 0 0
1587 529 1 0.5897 4.118289615424079 11.30120455290962 18.12341291450828 0 0 0
1575 525 1 0.5897 2.152724205731074 9.36070120925089 21.821309189225154 0 0 0
1563 521 1 0.5897 3.951569056957651 7.850663817961377 20.659426991611127 0 0 0
1571 524 1 0.5897 2.7252417691999353 10.84057696535219 20.141271325560574 0 0 0
1565 522 1 0.5897 1.8269038854329058 7.604994119170411 19.353637814116695 0 0 0
1581 527 1 0.5897 5.10841254238531 8.932714063453556 18.063242827892637 0 0 0
1564 522 2 -1.1794 2.765885526357371 7.770793082389703 19.2703583674298 0 0 0
1561 521 2 -1.1794 4.56171215303356 7.9001422487911785 21.395279539477073 0 0 0
1584 528 1 0.5897 1.5483049927483676 9.967258941860617 17.962480327231987 0 0 0
1580 527 1 0.5897 3.645306604318812 9.321092624738034 18.055434106860304 0 0 0
1572 524 1 0.5897 4.061498571052561 10.694248648061938 20.83743533029981 0 0 0
1573 525 2 -1.1794 1.539641938100036 8.71640891029713 22.17513770826001 0 0 0
1570 524 2 -1.1794 3.1199613480882777 10.72851738811814 21.00606120352235 0 0 0
1579 527 2 -1.1794 4.479940292825488 9.506542162806474 17.625171791686085 0 0 0
1582 528 2 -1.1794 1.6142599000884905 10.675556174246998 18.602936935547845 0 0 0
1567 523 2 -1.1794 5.738426699487589 11.003482312140648 20.416000303175366 0 0 0
1576 526 2 -1.1794 0.0034987262648554507 7.37665844431995 19.255070504710268 0 0 0
1230 410 1 0.5897 1.2318664873280287 12.309775486828022 17.22130641621367 0 0 0
1658 553 1 0.5897 0.23971175279203005 9.769613822168317 21.197649641947002 1 0 0
1708 570 2 -1.1794 1.2257444488718234 12.283882077192732 22.156117182952542 0 0 0
241 81 2 -1.1794 4.439832902767436 13.935610403048013 4.276903484186914 0 0 0
242 81 1 0.5897 4.410805296357104 13.270688863624885 4.964840351439825 0 0 0
243 81 1 0.5897 3.7660517398276756 13.665190852358165 3.653155233010819 0 0 0
244 82 2 -1.1794 2.6686993084064943 13.958643925785575 2.0610300727294084 0 0 0
245 82 1 0.5897 1.7333518410156767 14.10386668829634 1.9190977817389423 0 0 0
246 82 1 0.5897 3.096470129462527 14.677171387290802 1.5952891449258284 0 0 0
250 84 2 -1.1794 3.047502572929418 17.178532833922336 3.854426233581118 0 0 0
251 84 1 0.5897 2.7834462608357065 16.754677118587132 3.037819998213903 0 0 0
252 84 1 0.5897 3.987814198671061 17.01166928215092 3.9182434705212184 0 0 0
253 85 2 -1.1794 1.1217891069776387 15.224325820326664 5.074698074459362 0 0 0
254 85 1 0.5897 0.3984554775843695 15.439617708703757 4.485962313293194 0 0 0
255 85 1 0.5897 1.8714711148172594 15.700512245435945 4.717814573183655 0 0 0
259 87 2 -1.1794 4.551000455461557 15.536430244684169 0.8695398928173413 0 0 0
262 88 2 -1.1794 1.176437477938843 16.658195262114003 1.485102100415537 0 0 0
263 88 1 0.5897 1.114351587921589 15.937159913920578 0.8586315193733964 0 0 0
264 88 1 0.5897 1.0524251056344684 17.446576517443496 0.9566290970115555 0 0 0
269 90 1 0.5897 1.3971179320834899 13.289132211017371 5.3325772536312925 0 0 0
260 87 1 0.5897 4.442482446744342 16.487351059476303 0.8570758843036728 0 0 0
288 96 1 0.5897 5.984519556122117 14.674053575107756 1.7341815889553471 0 0 0
247 83 2 -1.1794 5.89915688152901 16.98493613390364 3.768525706799889 0 0 0
147 49 1 0.5897 3.6192312073169903 12.506887901772123 0.979964911724561 0 0 0
256 86 2 -1.1794 -0.11258171538662504 14.072112637500906 2.1101370560228894 0 0 0
338 113 1 0.5897 -0.16238148417083512 16.944864636030683 2.860478325370267 1 0 0
287 96 1 0.5897 5.9726617039203775 13.979685820398341 3.0794042365872127 0 0 0
389 130 1 0.5897 1.9471927821398105 18.54011611955046 4.534969151896977 0 0 0
265 89 2 -1.1794 4.5874782381570105 18.214904863773725 0.8085234682926384 0 0 0
146 49 1 0.5897 5.124283860361104 12.626165455556709 1.090195449961337 0 0 0
736 246 2 -1.1794 -0.012897237396898492 13.841080004152335 7.72909185845539 0 0 0
768 256 1 0.5897 5.946320989886879 14.58273196234447 7.55329708341774 0 0 0
741 247 1 0.5897 4.585357281390089 16.585728650513282 6.643001625586844 0 0 0
723 241 1 0.5897 5.317930993643161 14.011522017760054 9.500240966675353 0 0 0
740 247 1 0.5897 4.589449338609496 15.333465380573243 5.792333115335301 0 0 0
869 290 1 0.5897 0.5852589653446423 18.600775573610726 10.48700744876711 0 0 0
749 250 1 0.5897 1.3148597304914051 13.563981571166265 10.907836337290085 0 0 0
818 273 1 0.5897 -0.04567676393227815 17.063526732612097 8.826402462038734 1 0 0
745 249 2 -1.1794 4.33502482283922 18.368242490405386 6.524717898557941 0 0 0
870 290 1 0.5897 2.0523214786821353 18.443919671820336 10.148315539105226 0 0 0
732 244 1 0.5897 2.307982143171023 16.39078323312365 9.698483531224317 0 0 0
730 244 2 -1.1794 2.822826655467882 16.98541553296295 9.153024291922614 0 0 0
722 241 1 0.5897 3.8123109771584884 13.925830297276395 9.3685962130763 0 0 0
737 246 1 0.5897 0.9276001389891839 13.8596005717924 7.905792027687267 0 0 0
721 241 2 -1.1794 4.511405461797401 14.019794316042915 10.015596049817331 0 0 0
728 243 1 0.5897 4.707459601610827 17.235320272114258 9.327182452578425 0 0 0
726 242 1 0.5897 3.1420523909076064 13.419442034265455 7.285150883920462 0 0 0
733 245 2 -1.1794 1.4268784032796038 15.205931166107986 11.071039614985521 0 0 0
744 248 1 0.5897 0.8686826231095184 16.42508042353535 6.516979152420434 0 0 0
735 245 1 0.5897 0.8361516141477492 15.911102309866482 10.806591852183024 0 0 0
724 242 2 -1.1794 2.7566505507220063 14.064304143054544 7.878292366091651 0 0 0
742 248 2 -1.1794 0.9925154360302857 17.180145948698573 7.092082602534323 0 0 0
739 247 2 -1.1794 4.661944996984135 15.633240043673819 6.698489466825036 0 0 0
725 242 1 0.5897 3.2060032159876757 14.882777890849402 7.667702104868024 0 0 0
731 244 1 0.5897 2.309048836953234 17.081020644787703 8.351087756972033 0 0 0
743 248 1 0.5897 1.0712741064235332 17.925178142715435 6.496322068696076 0 0 0
627 209 1 0.5897 5.158006674589468 12.539287308411417 6.918936997876006 0 0 0
748 250 2 -1.1794 1.3986340908519346 12.62177656969395 10.761508290375502 0 0 0
1106 369 1 0.5897 4.631704918129697 12.860127174433392 11.388422796695643 0 0 0
1221 407 1 0.5897 4.713185190680507 15.381658945763276 11.239964346767582 0 0 0
727 243 2 -1.1794 5.6221603033185685 17.077775734061575 9.09348737850693 0 0 0
1201 401 2 -1.1794 4.373071283974427 14.264036850357765 15.701519854313764 0 0 0
1202 401 1 0.5897 5.112046589101377 14.217606626247386 15.094949918470732 0 0 0
1203 401 1 0.5897 4.470707217550379 13.491612537672363 16.258330212934183 0 0 0
1204 402 2 -1.1794 2.8739390123268915 14.376826603095052 13.44445715454735 0 0 0
1205 402 1 0.5897 3.395327935987458 14.373278800413152 14.247170638312204 0 0 0
1206 402 1 0.5897 3.11722006767394 13.566593124260324 12.99665094910228 0 0 0
1210 404 2 -1.1794 2.9700939737527445 17.355221483956967 15.017264952972678 0 0 0
1211 404 1 0.5897 2.7585915011189597 17.87842439673141 15.790405274728522 0 0 0
1212 404 1 0.5897 3.9257862124295366 17.374571559567727 14.968526806245514 0 0 0
1213 405 2 -1.1794 1.2608313844964727 15.278181908261109 16.5268674298174 0 0 0
1214 405 1 0.5897 0.7563674188535393 15.915022699737222 16.020770550795852 0 0 0
1215 405 1 0.5897 2.1694289032833463 15.565057774068773 16.435977494455408 0 0 0
1218 406 1 0.5897 1.0182446218068317 14.023767874711432 14.02561693565793 0 0 0
1222 408 2 -1.1794 1.0577111990572365 17.349897360615305 12.936349985168555 0 0 0
1223 408 1 0.5897 1.2845106773716193 17.91604149079333 12.198606878249915 0 0 0
1224 408 1 0.5897 1.8152946010104902 17.400085148509763 13.51918951667682 0 0 0
1229 410 1 0.5897 1.2157006397507297 13.583474524779737 16.403227003454404 0 0 0
1219 407 2 -1.1794 4.6984543101030445 15.874111567957794 12.060643356989655 0 0 0
1220 407 1 0.5897 4.05395797596264 15.418690666872115 12.60228927685415 0 0 0
1227 409 1 0.5897 4.507211349646039 17.685635684145325 12.235938979057378 0 0 0
1248 416 1 0.5897 5.637593691842247 13.326890883077876 13.235424023797984 0 0 0
1247 416 1 0.5897 5.904070460176953 14.808313456876526 13.073734206918758 0 0 0
1105 369 2 -1.1794 4.417179152652856 12.426226389912209 12.214220863999461 0 0 0
734 245 1 0.5897 1.590159334668894 15.365564353936703 12.00061087638306 0 0 0
1700 567 1 0.5897 4.513461253421385 15.201530842834371 17.028764833259615 0 0 0
1225 409 2 -1.1794 4.163415996161169 18.57866480308061 12.257731920767736 0 0 0
1209 403 1 0.5897 6.06758671046345 17.649950373149718 15.520215875164853 0 0 0
1216 406 2 -1.1794 0.08668818142466245 13.8263260088142 13.929014990181283 0 0 0
1228 410 2 -1.1794 1.1281313936726833 12.633411857174071 16.32646417317472 0 0 0
1207 403 2 -1.1794 5.673385958040333 16.962246515500652 14.983693168602494 0 0 0
1298 433 1 0.5897 -0.1786401053964255 17.352234331244997 14.273756035927033 1 0 0
1707 569 1 0.5897 4.904326583231354 17.573263346836065 18.12087507723617 0 0 0
1705 569 2 -1.1794 4.625332827316113 18.467447579230452 17.923955510993736 0 0 0
1695 565 1 0.5897 1.4110247820803936 14.189902532410294 22.011778078510865 0 0 0
1778 593 1 0.5897 0.1836954553642131 17.16141776796957 20.271695524202897 1 0 0
261 87 1 0.5897 4.638106851996691 15.2927337031579 22.84452295294421 0 0 -1
1779 593 1 0.5897 0.11922166139704643 17.881733418877776 21.601688746212695 1 0 0
1691 564 1 0.5897 2.6394763163751254 16.350902437363143 21.549787349129858 0 0 0
1697 566 1 0.5897 0.8246104918663801 13.689093849448062 19.35988346672555 0 0 0
1687 563 2 -1.1794 5.865875025886694 16.91212500979382 20.95531563433942 0 0 0
1702 568 2 -1.1794 1.3519038827718344 17.135552463149995 18.946567566725484 0 0 0
1684 562 2 -1.1794 2.604076204752674 13.926207434676897 19.421044076261573 0 0 0
1686 562 1 0.5897 3.2406787681391913 14.168720676840998 20.093441127570394 0 0 0
1692 564 1 0.5897 2.6699629893311685 17.22166025434565 20.311747319999597 0 0 0
1681 561 2 -1.1794 4.634469024211907 13.925301668012139 21.241229395942888 0 0 0
1689 563 1 0.5897 4.961899753435527 17.145601560177138 21.16610976282776 0 0 0
1694 565 1 0.5897 0.5445936230865626 15.382998877648404 21.668951460866154 0 0 0
1683 561 1 0.5897 4.5324535602372285 13.209375246878471 21.868328958955466 0 0 0
1685 562 1 0.5897 3.0659710394945505 13.29449989053067 18.86988052710933 0 0 0
1690 564 2 -1.1794 3.152189641093556 17.03347300539468 21.116886599553872 0 0 0
1699 567 2 -1.1794 4.420766837970878 15.696482204998059 17.84280440196906 0 0 0
1703 568 1 0.5897 1.133751186388909 16.413260910707756 18.35757387553415 0 0 0
1682 561 1 0.5897 5.282700973726553 13.604609070733392 20.614235769315023 0 0 0
1693 565 2 -1.1794 1.2512939950685535 15.102940712691897 22.250591286487676 0 0 0
1701 567 1 0.5897 3.6570304824281146 15.311246466593897 18.272268867128894 0 0 0
1704 568 1 0.5897 1.45908451807404 17.891700070120866 18.369540017073597 0 0 0
1728 576 1 0.5897 6.047152284586551 14.659625769854252 18.58855495251916 0 0 0
1830 610 1 0.5897 2.143741937690697 18.391044091193166 21.953806821382273 0 0 0
1696 566 2 -1.1794 -0.12809951283915555 13.611209493348678 19.311110083993682 0 0 0
1586 529 1 0.5897 5.030257123556116 12.419037027624551 18.582181273816403 0 0 0
1688 563 1 0.5897 5.850238639721381 16.7128585039383 20.01920832075318 0 0 0
266 89 1 0.5897 4.673656287345491 18.559754471113 22.816303576434557 0 0 -1
361 121 2 -1.1794 4.568060021509974 20.25739270998379 4.064214431008365 0 0 0
362 121 1 0.5897 3.8905472195005633 20.22219312222544 3.3890009453126853 0 0 0
364 122 2 -1.1794 3.004078299230101 20.08215968703814 1.804285996234369 0 0 0
365 122 1 0.5897 3.138330892383222 20.84226853993918 1.2382347589053864 0 0 0
366 122 1 0.5897 2.053136935273783 19.986958216355823 1.8566871945353212 0 0 0
370 124 2 -1.1794 3.2319606378459165 23.269380002511934 3.4888210288577977 0 0 0
371 124 1 0.5897 4.181350343334841 23.261746746414467 3.610087157099815 0 0 0
372 124 1 0.5897 2.900886228398525 22.660003370699688 4.148559004402264 0 0 0
373 125 2 -1.1794 1.2738577198790235 21.853278220451127 4.905766678791371 0 0 0
375 125 1 0.5897 0.5053423213323676 22.085260480301987 4.384496630523369 0 0 0
381 127 1 0.5897 5.183138676444644 21.618870386955063 1.2663579136148304 0 0 0