#include		in.partitions
include		in.temp
variable        temperature equal 15.49
variable	tempDamp equal 100.0
include		in.pressure
variable        pressure equal 9071.6
variable        pressureDamp equal 1000.0 # This is 1 ps
include		in.seed
variable        seed equal 745823

units		real
atom_style	full
box tilt large
read_restart	restart.lmp.${pid}
read_restart	restart.lmp.0
Reading restart file ...
  restart file = 30 Jul 2021, LAMMPS = 30 Jul 2021
  restoring atom style full from restart
  triclinic box = (-10.485704 -9.0705201 0.28511875) to (12.465704 12.060518 21.574880) with tilt (-9.1093911 1.7414806 2.6910812)
  2 by 4 by 4 MPI processor grid
  restoring pair style lj/cut/tip4p/long/omp from restart
  restoring bond style harmonic/omp from restart
  restoring angle style harmonic/omp from restart
  1296 atoms
  864 bonds
  432 angles
Finding 1-2 1-3 1-4 neighbors ...
  special bond factors lj:    0        0        0       
  special bond factors coul:  0        0        0       
     2 = max # of 1-2 neighbors
     1 = max # of 1-3 neighbors
     1 = max # of 1-4 neighbors
     2 = max # of special neighbors
  special bonds CPU = 0.002 seconds
  read_restart CPU = 0.009 seconds
include 	in.setup
variable	out_freq equal 1000
variable	out_freq2 equal 10000
variable	out_freq3 equal 1000

timestep	2.0

neigh_modify    delay 7 every 1

include		in.tip4p
# This is TIP4P/Ice

# create groups ###
group ox type 2
432 atoms in group ox
group hy type 1
864 atoms in group hy

# set charges - beside manually ###
set group ox charge -1.1794
Setting atom values ...
  432 settings made for charge
set group hy charge 0.5897
Setting atom values ...
  864 settings made for charge

# ### TIP3P Potential Parameters ###
pair_style lj/cut/tip4p/long/omp 2 1 1 1 0.1577 8.5
pair_coeff 1 1*2 0.000 0.000
pair_coeff 2 2 0.21084 3.1668
bond_style  harmonic
bond_coeff  1 450 0.9572
angle_style harmonic
angle_coeff 1 55 104.52
kspace_style pppm/tip4p/omp 1.0e-5
pair_modify tail yes

thermo          ${out_freq}
thermo          1000
thermo_style    custom step temp pe etotal epair emol press lx ly lz vol pxx pyy pzz pxy pxz pyz enthalpy

restart 	${out_freq3} restart.lmp.${pid} restart2.lmp.${pid}
restart 	1000 restart.lmp.${pid} restart2.lmp.${pid}
restart 	1000 restart.lmp.0 restart2.lmp.${pid}
restart 	1000 restart.lmp.0 restart2.lmp.0


include         in.dump
dump            myDump all atom ${out_freq2} dump.water.${pid}
dump            myDump all atom 10000 dump.water.${pid}
dump            myDump all atom 10000 dump.water.0
dump            myDump2 all dcd ${out_freq2} dump.dcd
dump            myDump2 all dcd 10000 dump.dcd
dump_modify     myDump append yes
dump_modify     myDump2 append yes


variable natoms 	equal  "count(all)"                        # NUMBER ATOMS
variable H      	equal  "enthalpy/v_natoms"                 # ENTHALPY-per-atom
variable Vol      	equal  "vol/v_natoms"                 # volume-per-atom
fix AVG all 		ave/time ${out_freq} 1 ${out_freq} v_Vol v_H file vol_enthalpy.dat
fix AVG all 		ave/time 1000 1 ${out_freq} v_Vol v_H file vol_enthalpy.dat
fix AVG all 		ave/time 1000 1 1000 v_Vol v_H file vol_enthalpy.dat


timer           timeout 10:00:00 every 1000
New timer settings: style=normal  mode=nosync  timeout=10:00:00

fix 		1 all shake 1e-6 200 0 b 1 a 1
       0 = # of size 2 clusters
       0 = # of size 3 clusters
       0 = # of size 4 clusters
     432 = # of frozen angles
  find clusters CPU = 0.001 seconds
fix             2 all nph tri ${pressure} ${pressure} ${pressureDamp}
fix             2 all nph tri 9071.6 ${pressure} ${pressureDamp}
fix             2 all nph tri 9071.6 9071.6 ${pressureDamp}
fix             2 all nph tri 9071.6 9071.6 1000
fix             3 all temp/csvr ${temperature} ${temperature} ${tempDamp} ${seed}
fix             3 all temp/csvr 15.49 ${temperature} ${tempDamp} ${seed}
fix             3 all temp/csvr 15.49 15.49 ${tempDamp} ${seed}
fix             3 all temp/csvr 15.49 15.49 100 ${seed}
fix             3 all temp/csvr 15.49 15.49 100 745823


run             250000
PPPM initialization ...
  extracting TIP4P info from pair style
  using 12-bit tables for long-range coulomb (../kspace.cpp:340)
  G vector (1/distance) = 0.37228679
  grid = 30 36 32
  stencil order = 5
  estimated absolute RMS force accuracy = 0.0035547006
  estimated relative force accuracy = 1.0704875e-05
  using double precision FFTW3
  3d grid and FFT values/proc = 7344 1080
Last active /omp style is kspace_style pppm/tip4p/omp
Neighbor list info ...
  update every 1 steps, delay 7 steps, check yes
  max neighbors/atom: 2000, page size: 100000
  master list distance cutoff = 10.8154
  ghost atom cutoff = 10.8154
  binsize = 5.4077, bins = 7 5 4
  1 neighbor lists, perpetual/occasional/extra = 1 0 0
  (1) pair lj/cut/tip4p/long/omp, perpetual
      attributes: half, newton on, omp
      pair build: half/bin/newton/tri/omp
      stencil: half/bin/3d/tri
      bin: standard
Per MPI rank memory allocation (min/avg/max) = 10.63 | 10.63 | 10.63 Mbytes
Step Temp PotEng TotEng E_pair E_mol Press Lx Ly Lz Volume Pxx Pyy Pzz Pxy Pxz Pyz Enthalpy 
13250000    16.233131   -6966.8452   -6925.0865   -6966.8452            0    8851.6488    22.951408    21.131038    21.289761    10325.259    9247.2112    8559.2349    8748.5001    18.850374   -186.06775   -137.64964   -5592.1758 
13251000    15.405771   -6963.9821   -6924.3517   -6963.9821            0    9336.2962    22.983558    21.109513    21.227266    10298.869    9568.9478    8766.2065    9673.7342   -233.51893    31.560727    108.20876   -5522.0545 
13252000     16.13176   -6967.6612   -6926.1632   -6967.6612            0    9003.1654    22.992187    21.095038    21.268724    10315.779    8950.6879    8901.7472    9157.0611   -147.28137   -313.42318    219.28634   -5571.6815 
13253000    15.229304   -6967.0656   -6927.8891   -6967.0656            0    8966.7805    22.937198    21.153583     21.28014    10325.207    9185.0731    8776.1302    8939.1381    8.5675535    79.637575   -397.99499   -5577.6484 
13254000    15.100749   -6967.1384   -6928.2927   -6967.1384            0    9141.9635    23.022686    21.058365    21.274976    10314.537    8844.7528    9301.8706    9279.2672     198.9883   -120.92029    267.52807   -5553.0951 
13255000    15.068495   -6965.9926   -6927.2299   -6965.9926            0     9164.816    22.949122    21.097608    21.306319    10315.914    9227.9413    9243.5107     9022.996    219.33884    112.94942    32.242087   -5548.4106 
13256000    15.571655   -6966.6132   -6926.5561   -6966.6132            0    8977.2131    22.964464    21.123976    21.279222    10322.568    9092.4132    8890.6022    8948.6238    91.402982    107.01071   -394.59931     -5575.09 
13257000    15.195508   -6965.6608   -6926.5713   -6965.6608            0    9200.4212    23.049849    21.063056    21.231856    10308.071    9007.9791    9233.3314    9359.9531   -197.51969   -286.70669    126.21923   -5543.4477 
13258000    16.165363    -6967.272   -6925.6876    -6967.272            0    8997.3788    22.952582    21.129551     21.26524    10313.168    9015.3771    9060.5304    8916.2289   -44.526133    284.86489   -297.22897    -5572.419 
13259000    16.192922   -6966.1628   -6924.5075   -6966.1628            0    8937.1464    22.990406    21.109393    21.260991    10318.246    8956.7326    9095.2671    8759.4395    60.438051    104.45777   -163.21381   -5579.6364 
13260000    15.515994     -6966.06    -6926.146     -6966.06            0    9165.3717    23.007551     21.07595     21.27761    10317.641    9201.2169    9187.8718    9107.0264   -185.52388   -146.46859    52.541747   -5547.0123 
13261000    15.497538   -6967.0632   -6927.1967   -6967.0632            0    9042.2747    22.904751    21.150299    21.310225    10323.575    9105.2427    9094.5768    8927.0046    127.03564    460.90603   -199.99571   -5565.8031 
13262000    15.736878   -6963.7318   -6923.2496   -6963.7318            0    9167.8555    23.024176    21.070036    21.253017    10310.268     8917.699     9221.523    9364.3445   -60.826566    58.362268    197.85997   -5544.7279 
13263000    15.809389   -6964.8676   -6924.1989   -6964.8676            0     9080.388    23.007786    21.093059    21.247518    10311.518    9015.4443    9315.9721    8909.7477    282.17903   -24.256278   -155.81593   -5558.6637 
13264000    15.137507   -6965.7922   -6926.8519   -6965.7922            0    9169.7702    22.962475    21.103829    21.267374    10306.087     9012.415    9449.4933    9047.4023      141.566    346.87826   -206.08945   -5548.6014 
13265000    15.916695   -6966.4696   -6925.5249   -6966.4696            0    9048.6101    23.051061    21.073989    21.224343    10310.315    8700.8832    9179.1256    9265.8215     15.29771   -154.70912    -112.6384   -5564.9273 
13266000    15.351066   -6966.1251   -6926.6354   -6966.1251            0    8987.0032    22.968297    21.128369    21.256806    10315.559    8832.9051    9000.7123    9127.3921    115.14815      100.766   -128.39432    -5574.614 
13267000    16.149803   -6968.1292   -6926.5848   -6968.1292            0    9021.4731    22.972474    21.074226    21.305785    10314.708    8923.0177    9340.0497    8801.3518    3.6463112    40.958866    152.27883   -5569.4897 
13268000    14.586194    -6966.254   -6928.7319    -6966.254            0    9037.0252    22.997651    21.079419    21.288081    10319.975    8835.3834     9296.842    8978.8501   -138.04666    40.645571     87.77878   -5568.6032 
13269000    15.468181   -6967.8831   -6928.0922   -6967.8831            0    8881.7526    22.908379    21.153476    21.311985    10327.614    9039.9641    8868.3556    8736.9382      81.0206    82.815211    -146.6936   -5590.3434 
13270000    15.334682   -6966.4272   -6926.9797   -6966.4272            0    9066.9924    23.002942    21.075509    21.270457     10311.89    9202.0654    8883.2672    9115.6446   -143.94946   -194.17528    204.64819   -5563.4098 
13271000    15.264429    -6966.966   -6927.6992    -6966.966            0    9186.4649    22.966147    21.111342    21.268878    10312.134    9199.5784    9189.3257    9170.4907     -20.7496    186.17574   -260.46574   -5546.1292 
13272000    15.172334   -6965.5211   -6926.4911   -6965.5211            0    9015.2383    22.953653    21.138226    21.265153    10317.842    9004.9006    8933.3565    9107.4579   -146.88574    141.53757   -164.28599   -5569.9219 
13273000    15.932442   -6968.2387   -6927.2535   -6968.2387            0    9011.9645    23.025975    21.075523    21.253436    10313.963    9043.0959    8999.0229    8993.7745   -412.92541   -149.48695     40.95471   -5571.6867 
13274000    16.430106   -6964.1227   -6921.8573   -6964.1227            0    9136.7085    22.915392    21.147674    21.278282     10311.61    9432.4819    8835.7948    9141.8486    11.978473    179.49842   -225.93258   -5547.8402 
13275000    15.913058   -6964.2734    -6923.338   -6964.2734            0    9193.4985    22.969372    21.100192    21.271002    10309.165     9366.179    9227.4268    8986.8895   -40.403922   -261.50716    29.269289   -5541.1085 
13276000    15.803517   -6965.0805   -6924.4269   -6965.0805            0    9217.2339    22.976737    21.090197    21.281864    10312.849    9239.5762    9192.5999    9219.5254    128.06246   -32.075219    197.50145   -5538.1335 
13277000    15.681067   -6966.1774   -6925.8389   -6966.1774            0    8907.0948    22.918739    21.145323    21.297865     10321.46    9298.0861    8671.0682      8752.13    -58.35435    191.45302   -278.80839   -5585.0725 
13278000    14.672393   -6966.0005   -6928.2566   -6966.0005            0    9039.0564    23.020316    21.084216    21.243428    10310.823    9012.8274    9193.7769    8910.5648   -169.90968   -167.58669    266.74414   -5569.0286 
13279000    15.204626   -6967.5369    -6928.424   -6967.5369            0    9069.9631    22.962656    21.110132    21.282326    10316.495    9048.0956    9021.9642    9139.8295    -191.2819    215.89288   -92.000199   -5563.7981 
13280000    15.832659   -6965.2544   -6924.5258   -6965.2544            0    9055.3518    22.957653    21.106195    21.294345    10318.147    9151.2806    8997.6998    9017.0752    37.250539    -12.90103   -234.85062   -5561.8802 
13281000    16.096814   -6966.9234   -6925.5153   -6966.9234            0    8918.2543    23.026573    21.084006     21.25573    10319.495    8659.3276    9253.7044    8841.7309   -183.75727   -170.69037    15.343483   -5583.3247 
13282000    15.532559   -6965.5387   -6925.5822   -6965.5387            0    9022.7833     22.97473    21.110193    21.277134    10319.431    8938.3913    9053.7628    9076.1957     101.3266    203.56953   -349.84373   -5567.6685 
13283000    15.614008    -6967.239   -6927.0729    -6967.239            0    8905.1641    22.996621    21.079459    21.287691    10319.343     8894.666    9010.4102    8810.4162      -255.42   -208.47144    11.472916   -5586.8722 
13284000    15.285454   -6966.6408   -6927.3199   -6966.6408            0    9111.1116    22.996334    21.098704    21.257034    10313.761    8913.6391    9172.9048     9246.791    3.9161878    59.702846    91.203081   -5556.8664 
13285000    15.109465   -6967.2992   -6928.4311   -6967.2992            0    9043.1478    22.978198    21.116152    21.265889    10318.446    8988.7349    8791.3876     9349.321    138.29062    249.17833   -85.684316   -5567.5825 
13286000    15.408381   -6967.1975   -6927.5603   -6967.1975            0    8997.7988    22.990176    21.074835    21.290771     10315.68     8969.483    9123.4778    8900.4355   -77.950322   -128.51269     244.7427    -5573.899 
13287000    15.835676   -6966.7764   -6926.0401   -6966.7764            0    9101.3383    22.936542    21.139882    21.273312    10314.914    9338.7406    8987.9753     8977.299    38.964998     60.73709   -58.572956   -5556.9035 
13288000    15.693587   -6966.3885   -6926.0177   -6966.3885            0     9269.075    22.968953    21.119654    21.256755    10311.574    9360.3218    9293.1599    9153.7432    7.7016511   -189.81614   -50.436764   -5532.0997 
13289000    15.820292   -6966.4454   -6925.7486   -6966.4454            0     9155.035    22.972738    21.085759    21.287277    10311.506    9300.0238    9155.5841    9009.4972   -122.70345   -164.16197    198.88862   -5548.9893 
13290000    15.313523   -6966.6282   -6927.2351   -6966.6282            0    9033.2236    22.941285    21.128492    21.283761    10316.553    9341.6166    8967.5241      8790.53   -21.896874    217.89204     -90.3933   -5568.1294 
13291000     16.13364   -6970.2131   -6928.7103   -6970.2131            0    8814.5623    23.005428    21.085586    21.278403     10321.79    8798.6287     9091.397    8553.6613    12.356754   -187.32345    285.62602   -5601.8302 
13292000    15.418069   -6966.5797   -6926.9177   -6966.5797            0     9115.144    22.959841    21.111637     21.27659    10313.185    9136.4413    9073.6593    9135.3313   -250.69829    55.704802    2.0124429   -5555.9342 
13293000    15.891545   -6966.2621    -6925.382   -6966.2621            0    9051.7753    22.969321    21.117025    21.274079    10318.858    9014.1537    8615.3825    9525.7897    133.03855    129.53363    222.09543   -5563.1807 
13294000    15.883047   -6968.0081   -6927.1499   -6968.0081            0    8947.6297    23.012758    21.069304    21.287273    10321.407    8804.2244    9336.8517     8701.813    -213.0837   -229.90045    201.34983   -5580.2889 
13295000    14.509239   -6968.0358   -6930.7116   -6968.0358            0    9195.4064    22.929659    21.132606    21.281481    10312.228    9198.0382    9217.2155    9170.9655    284.16678    164.75944   -114.87869   -5547.7845 
13296000    15.476498   -6965.1312   -6925.3189   -6965.1312            0    8997.2887    23.010728    21.112733    21.230616    10314.244    8866.1793    9120.9516    9004.7353   -61.808277   0.73334574       203.54   -5571.9227 
13297000    15.621718   -6966.9333   -6926.7474   -6966.9333            0    9105.4865    22.997991    21.100223    21.237816    10305.921    9252.7896    9204.0372    8859.6328   -110.17278   -23.256554    140.38825   -5558.1811 
13298000     16.10768   -6966.2137   -6924.7777   -6966.2137            0    9082.2544    22.946218    21.120333     21.27424    10310.173    9329.1115    9181.0805    8736.5712   -43.935753    381.05144   -235.80178     -5559.14 
13299000    16.041881   -6965.4732   -6924.2064   -6965.4732            0    9321.7018    23.026558    21.070949    21.246414    10308.578    8935.6481    9416.5837    9612.8734    -29.99642    16.621888    317.59398   -5522.7814 
13300000    16.134247   -6967.5403    -6926.036   -6967.5403            0    9089.0316    23.002646    21.095918    21.262788    10318.022    8996.8439    9060.8083    9209.4424   -148.88469   -150.88581    106.94402   -5558.3389 
13301000    15.802175   -6965.5259   -6924.8758   -6965.5259            0    9201.1123    22.914736    21.114493    21.316281    10313.521    9513.8961    9148.7403    8940.7004   -19.891355    121.04028   -61.153453    -5540.917 
13302000    15.673616   -6968.6554    -6928.336   -6968.6554            0    9129.0241    23.038059    21.054831    21.264248    10314.488    9060.6978    9069.2603    9257.1142    -63.01722   -484.21583    161.95964   -5555.0914 
13303000    15.465405   -6967.4868    -6927.703   -6967.4868            0    9103.9843    22.984063    21.116555     21.25341     10315.22    9105.0759    9010.4756    9196.4014    75.824346    75.577216   -69.527525   -5558.1277 
13304000    16.390023   -6967.0323     -6924.87   -6967.0323            0    9015.4101     22.99026    21.065853    21.287625    10309.798    8737.3764    9244.3413    9064.5127    263.93397    69.715032   -120.53109   -5569.3326 
13305000    15.594433   -6965.7859   -6925.6702   -6965.7859            0    9028.4965    23.044006    21.094496    21.213084    10311.716    8767.7202    9047.1727    9270.5967   -104.57412   -165.81908    127.47066   -5567.9125 
13306000    16.386065   -6966.6726   -6924.5205   -6966.6726            0    9047.6054    22.962079    21.158344    21.235697    10317.142    8898.9839    8957.9255    9285.9068      119.342    51.807838   -123.08667   -5563.1731 
13307000    15.758991   -6966.5073   -6925.9683   -6966.5073            0     9122.858    22.978148    21.083809    21.285306    10312.026    8994.8683    9396.0288    8977.6769    -514.8184    76.588563    -236.7545   -5553.9788 
13308000    15.746467   -6968.1021   -6927.5953   -6968.1021            0    9034.1537    22.995633    21.106276    21.259595    10318.391    9013.4567    8720.3212    9368.6834   -44.579705   -25.080255    198.39247   -5568.1074 
13309000    15.789633   -6967.2946   -6926.6767   -6967.2946            0    9135.6939    22.914919    21.159538    21.283336    10319.632    9470.3848    8903.7803    9032.9165   -251.14743    249.75886   -260.59169   -5551.7433 
13310000     14.74255   -6966.3896   -6928.4653   -6966.3896            0    9144.3973    23.000908    21.049295    21.301013    10312.947    9022.8318    9339.3267    9071.0335    47.414308   -178.22966    134.31178   -5553.1136 
13311000    15.184444    -6966.263    -6927.202    -6966.263            0    9079.7891    22.954329    21.113631    21.284828    10315.676    9110.7199     9138.231    8990.4164    71.069046    36.239653    -50.35717   -5561.2063 
13312000    15.713531   -6965.6989   -6925.2768   -6965.6989            0    9193.6959    22.912667    21.169701    21.262529    10313.481    9413.4666    8926.9041    9240.7171    289.52686    91.772973   -48.571316   -5542.4388 
13313000     15.84144   -6964.1854   -6923.4342   -6964.1854            0    9119.9694    22.982537    21.072937     21.30347    10317.474    9531.2095    9048.3087    8780.3902     218.7661   -494.78042    52.802552   -5551.1545 
13314000    15.157565   -6967.0736   -6928.0817   -6967.0736            0    9089.7202    22.931686    21.126713    21.300553    10319.503    9426.9421    8989.3549    8852.8636    114.41695    38.473385   -7.9749846   -5560.0845 
13315000    14.564042   -6966.4764   -6929.0113   -6966.4764            0    9155.0566    22.931505    21.144292    21.270791    10313.577    9417.4493    9146.5215    8901.1989    194.06748   -147.25992    63.061006   -5551.9723 
13316000    15.881497   -6965.0018   -6924.1476   -6965.0018            0    9082.8612     22.97309    21.083075    21.293171    10313.207    9213.9888    9346.2024    8688.3923    27.021757   -241.58244    3.7879219   -5558.0168 
13317000    14.994198   -6968.5502   -6929.9785   -6968.5502            0    8883.3896    22.942218     21.12054    21.299807    10320.865    8980.5341    8756.0468    8913.5879    289.07282    126.04455    50.607381   -5592.8576 
13318000    15.046185   -6967.7481   -6929.0427   -6967.7481            0    8909.4473    22.999015    21.092716    21.271781     10319.19    8942.9102    8795.6676     8989.764    16.113831   -276.92689    227.34927   -5588.2172 
13319000    14.513435   -6966.9155   -6929.5806   -6966.9155            0    9082.1964    22.967812    21.096616    21.283509    10312.778    9383.3249    8877.1266    8986.1379   -309.17216     169.4258     28.65528   -5563.6066 
13320000    15.356929   -6966.9153   -6927.4105   -6966.9153            0    9030.1224    22.967726    21.127409    21.260194    10316.478    9145.4792    8999.3578      8945.53   -129.29551    394.18069   -73.386591   -5568.7812 
13321000    15.512137   -6966.0544   -6926.1504   -6966.0544            0    9062.1019    23.039562    21.067707    21.253258    10316.135     8666.055    9430.0757     9090.175   -378.91546    75.239626    168.33506    -5562.755 
13322000    15.864355   -6964.0493   -6923.2392   -6964.0493            0    9091.7793    22.960763    21.107612    21.286074    10316.229    8998.3206    9198.9126    9078.1048    28.102091    630.25214   -320.96701   -5555.3663 
13323000    15.437711   -6967.8059   -6928.0933   -6967.8059            0    9022.8833    23.000478    21.104856    21.244872    10312.723    8816.2965    9178.9221    9073.4312   -195.63008    276.22348   -47.170366   -5571.0472 
13324000    16.063567   -6968.3494   -6927.0269   -6968.3494            0    8852.1704    23.053342    21.081408    21.229275    10317.362    8546.0516    9129.2922    8881.1674    -157.7925    126.98053   -87.060042   -5595.0572 
13325000    15.654526   -6966.4269   -6926.1566   -6966.4269            0    9178.1577    22.963042    21.106496    21.276729    10312.179    8929.7393    9426.2557    9178.4782    199.21337    257.24525   -401.42255     -5545.83 
13326000    15.748774   -6968.2388    -6927.726   -6968.2388            0    8956.0809    22.995838    21.095212    21.279081    10322.527    8819.8906    9034.7771    9013.5751    56.304377   -231.18341    14.266872   -5579.4466 
13327000    15.730476   -6969.4776   -6929.0119   -6969.4776            0     9123.457    22.977752    21.113032    21.275079     10321.18    9067.6408    9014.2773    9288.4529    76.299059    262.72185   -275.59677   -5555.7143 
13328000    15.837462   -6965.1649    -6924.424   -6965.1649            0    9118.0909    22.955597    21.103589    21.298673    10318.046    9277.0191    8990.9512    9086.3025    80.099381    148.41326    94.089374   -5552.3508 
13329000     14.93186   -6965.9834   -6927.5721   -6965.9834            0    9271.4424    22.973031    21.099159    21.269337    10309.495    9335.0479    9353.7674    9125.5119   -103.81129   -213.81002    113.29195   -5533.5791 
13330000    15.791539   -6965.3185   -6924.6958   -6965.3185            0    9170.0581    22.957118     21.14198    21.251514    10314.612     9164.196     8920.403    9425.5754    102.85734    114.49795    -45.28398   -5545.2619 
13331000    15.523927   -6965.9984   -6926.0641   -6965.9984            0    9204.4639    22.960072    21.094695    21.276277    10304.861    9489.1078    9218.1452    8906.1386   -144.94286   -253.07985     1.018431   -5542.7636 
13332000    15.509601   -6967.8833   -6927.9858   -6967.8833            0    9010.7097    22.962117    21.110922     21.27514    10313.155    9221.6758    8871.7708    8938.6825   -212.86254   -228.40434   0.99453241   -5572.7138 
13333000    15.631656   -6968.0382   -6927.8268   -6968.0382            0    8954.8333    22.962862    21.139907    21.259498    10320.057    8972.5289    8872.4206    9019.5503   -11.994629   -6.2472983   -220.09683   -5580.0577 
13334000    15.794774   -6963.4362   -6922.8051   -6963.4362            0    9259.5159     22.98233    21.077525    21.286972    10311.636    9077.6272    9573.8097    9127.1108   -313.63762   -130.68792    235.52002   -5530.3162 
13335000    15.055459   -6966.6198   -6927.8906   -6966.6198            0    9043.4773    22.947537    21.106708    21.308131    10320.528      9234.91    8991.0548     8904.467    24.366859    28.219813   -83.930645   -5566.7178 
13336000    15.688268   -6968.7597   -6928.4026   -6968.7597            0    8994.1129    22.988524    21.109669    21.266355     10320.14    8999.3672    9051.5978    8931.3737   -42.699214    92.955523    168.24374   -5574.7108 
13337000    14.947622     -6968.25   -6929.7981     -6968.25            0    8993.5747    22.976447    21.109804    21.268677     10315.91    8925.5642    9231.9625    8823.1974    -118.6254   -30.183103    197.27481   -5576.7421 
13338000    15.686651   -6966.3841   -6926.0312   -6966.3841            0    9100.8715    22.961428    21.117341    21.272387    10314.647    9384.6437    8857.0643    9060.9065   -29.832332    216.32607   -274.91424   -5557.0003 
13339000    15.217001   -6967.6979   -6928.5531   -6967.6979            0    9196.6287    22.997249     21.08663    21.258553    10309.006    9256.3407    9190.6009    9142.9444   -348.96342    10.524204    165.13103   -5545.8742 
13340000    15.350309   -6966.2909   -6926.8032   -6966.2909            0     9207.726    22.940636    21.122331    21.276034    10309.508    9077.3145    9365.7081    9180.1553    161.08052    212.29281     145.5407   -5542.3884 
13341000    15.106853   -6968.2277   -6929.3663   -6968.2277            0    9033.7041      22.9681    21.098287    21.294899    10319.243    9156.6161    9032.3768    8912.1193      189.462    104.78409   -236.69256   -5569.8338 
13342000     15.09426   -6965.6707   -6926.8416   -6965.6707            0    8998.4325     22.99328    21.082348    21.286516    10318.688    9067.5082    9094.7296    8833.0599   -50.299759   -95.700737   -8.3009727   -5572.6902 
13343000    15.405733   -6966.9166   -6927.2863   -6966.9166            0    9044.0855    22.947429    21.124825     21.28715    10319.167    9115.7471    8892.9691    9123.5403    115.25049    315.35757    19.417681   -5566.2014 
13344000    16.140893   -6968.4488   -6926.9273   -6968.4488            0     8974.868    23.021998    21.085198    21.255805    10318.065    8969.4165    8876.9111    9078.2763   -112.80789    45.305612     73.62751   -5576.4036 
13345000    15.426079   -6968.0505   -6928.3678   -6968.0505            0    9156.1746     22.98398    21.103914    21.252941     10308.78    8884.5851    9467.8437    9116.0951   -208.35524   -150.01826     46.64557   -5551.8012 
13346000    16.425229   -6967.6854   -6925.4325   -6967.6854            0    9029.6865    22.970676    21.120695    21.266245     10317.46    8982.7966    8879.9288    9226.3341    205.73315    209.05283   -37.246453   -5566.7395 
13347000    14.865145   -6964.7232   -6926.4835   -6964.7232            0     9080.471    23.017845    21.067647    21.271973    10315.457    8983.9159    9258.4136    8999.0836   -94.533424   -95.049634    163.27397   -5560.4142 
13348000    15.592727   -6968.4021   -6928.2908   -6968.4021            0    9174.4357     22.93611    21.118227    21.287672    10311.109    9169.8355    9092.4801    9260.9916   -140.29329     330.7836    201.63841    -5548.667 
13349000    15.716193   -6966.6693   -6926.2403   -6966.6693            0    9054.6456    22.983313    21.094731    21.279581    10316.912    9232.2482    8910.9612    9020.7274    10.190269    14.123286    4.7148557   -5563.8641 
13350000    14.981805   -6965.6543   -6927.1145   -6965.6543            0    9049.3597    22.994165    21.085392    21.276288    10315.616    9109.8814    9043.3444    8994.8535   -278.61468    64.451944    92.919799   -5565.7046 
13351000    14.978831   -6968.0876   -6929.5555   -6968.0876            0    8986.4159    22.949329    21.150548     21.26362    10321.167     8941.309    9078.9519    8938.9868    261.69692    105.41661   -142.03084   -5576.8874 
13352000    15.942503   -6967.4076   -6926.3965   -6967.4076            0    9180.3177    23.035704    21.075264    21.236463    10309.953    8941.5459    9162.4372    9436.9699   -357.61058      -389.62    -28.08479   -5546.0431 
13353000    15.729711   -6964.7396   -6924.2758   -6964.7396            0    9164.7068    22.972846    21.125039    21.244762    10310.131    9187.5433    8823.1253    9483.4518     12.74081   -196.75264   -106.30742   -5546.2459 
13354000    15.882699    -6968.338   -6927.4807    -6968.338            0    8901.3858    22.945849    21.141163    21.277637    10321.822     9096.838    8643.8017    8963.5176    32.745612    220.95113   -149.94454   -5587.5267 
13355000    15.846672   -6966.1469   -6925.3823   -6966.1469            0    9201.9011    23.017098    21.046403    21.287132    10312.064    9064.0552    9303.2789    9238.3693    175.49326   -196.12912    269.75025   -5541.5003 
13356000    15.164853   -6966.8462   -6927.8356   -6966.8462            0    9202.3913    22.912884    21.132627    21.301895    10314.579    9475.1028    9004.9683    9127.1028    99.918408     141.6874    10.201641   -5543.5424 
13357000    14.875783   -6966.4269   -6928.1599   -6966.4269            0    9002.7695    22.973962      21.1249    21.262828    10319.332    8995.6526    8738.9556    9273.7005    82.395215    80.236286     138.9996   -5573.2712 
13358000    15.244516   -6967.1134   -6927.8978   -6967.1134            0    9065.3469    23.002384    21.075083    21.280716    10316.405    9201.5395    9081.4921     8913.009    -466.3778   -22.634983   -336.79493   -5563.9785 
13359000     14.69356   -6965.7646   -6927.9663   -6965.7646            0     9180.207    22.928754    21.121986    21.298742    10314.998    9249.6056    9306.0052    8985.0103   -230.28948    612.97255   -358.08454   -5546.9541 
13360000    15.114886    -6966.415   -6927.5329    -6966.415            0    8887.7882    23.022259    21.096979    21.243836    10318.134     8949.382    8708.1083    9005.8742   -319.01472    57.826639    92.602861   -5590.1038 
13361000    15.320268   -6964.6132   -6925.2027   -6964.6132            0    9208.3529    23.002729    21.072795    21.269136    10309.827    8951.6561    9199.3896    9474.0128   -216.76841    197.17297    35.174896   -5540.6509 
13362000    15.965307   -6968.5978    -6927.528   -6968.5978            0    8951.5054     22.94844    21.122213    21.296146    10322.707    8797.7821    8889.6275    9167.1065    79.621175    144.86373   -144.03006   -5579.9138 
13363000      15.3441   -6965.7927    -6926.321   -6965.7927            0    9144.4965    23.050155    21.054416    21.257386     10316.37    8457.1878    9422.6653    9553.6363   -117.96926   -252.62925    285.92806   -5550.4978 
13364000    15.883801   -6967.1506   -6926.2904   -6967.1506            0    8986.2996    22.984042    21.103056     21.27703    10320.073    9056.3297    9089.6448    8812.9244   -130.53894     224.5846   -433.89077   -5573.7833 
13365000    15.206274   -6965.0843   -6925.9671   -6965.0843            0     9111.122    22.977069    21.103449    21.265392    10311.491    9194.2647    9163.2713    8975.8301   -170.37157    297.19417   -66.431165   -5555.8137 
13366000    15.264023   -6967.8417   -6928.5759   -6967.8417            0    9191.2286    23.059319    21.083737    21.199904    10306.898    8901.6206    9322.6554    9349.4099   -32.288215   -96.996965    81.880666   -5546.9915 
13367000    15.304494   -6968.7679    -6929.398   -6968.7679            0    9274.4976    22.973622    21.120982    21.238162    10305.297    9323.0806    9276.8193    9223.5929    51.567466    365.67759   -195.21248   -5535.5136 
13368000     14.99415   -6966.2231   -6927.6516   -6966.2231            0    9042.9951    22.995154    21.082587    21.265293    10309.357    9052.5971    9194.6535    8881.7347   -104.82006     28.63974   -49.383021   -5568.0246 
13369000    15.504026   -6968.2096   -6928.3264   -6968.2096            0    8947.0813     23.00069    21.097212     21.27484    10323.625    9115.7329     8864.534    8860.9771   -266.93012    149.82888   -92.583631   -5581.2585 
13370000    15.540361   -6967.5152   -6927.5386   -6967.5152            0    8992.5349    22.950761    21.111015    21.299666    10319.983    8917.2146     9099.243    8961.1471    131.66853    306.96849   -97.971871   -5574.1048 
13371000    15.103132   -6965.9419     -6927.09   -6965.9419            0    9045.0148    22.996047    21.075006    21.277568    10311.999    8923.7685    9045.4798     9165.796   -315.77286    -81.48894    425.48378   -5566.8109 
13372000    15.309897   -6964.6909   -6925.3072   -6964.6909            0    9034.0794    22.974889    21.126953    21.261008    10319.868    9307.0444    8594.3494    9200.8445    49.031686    125.59317    52.574028   -5565.6358 
13373000    15.509317   -6967.2725   -6927.3757   -6967.2725            0    9141.0036    22.946157    21.121121    21.273485    10310.164    9310.1812    8941.4428    9171.3869   -200.25494   -210.93319    16.799794   -5552.9055 
13374000    15.418188   -6965.9245   -6926.2622   -6965.9245            0    9118.2666    22.954473    21.125433    21.267389     10313.05    9183.4835    8903.8987    9267.4176    12.838581   -121.42876   -121.44569    -5554.827 
13375000    14.821868     -6963.15   -6925.0217     -6963.15            0    9219.8565    22.966568    21.138985    21.245175    10314.319    9340.4225    9058.1988    9260.9482    143.63311    173.33064   -241.29923   -5538.1362 
13376000    15.723015    -6967.088   -6926.6415    -6967.088            0    9126.6076    22.974643    21.091201     21.27894    10310.983    9315.9553    9090.9083    8972.9591   -51.691405   -272.64629    45.671605   -5554.2269 
13377000    15.789182   -6969.2665   -6928.6498   -6969.2665            0    8863.2487    22.948933    21.111789    21.311497    10325.272    9032.6927    8948.8021    8608.2512     206.5482  -0.81346471   -90.391639   -5593.9908 
13378000    15.497846   -6968.0344   -6928.1671   -6968.0344            0    8950.0866    22.976799    21.102752    21.294203    10324.999    9101.9188     9208.338    8540.0031    8.9667778   -200.65014   -139.59691   -5580.4674 
13379000    15.959686   -6965.4111   -6924.3558   -6965.4111            0    9068.7435    22.968513    21.112403    21.266545    10312.584    9173.4271    9111.9522    8920.8512   -50.375248   -181.39212    104.53719   -5560.4308 
13380000    14.741654   -6967.6545   -6929.7325   -6967.6545            0     9161.372    22.952848    21.164629    21.229097    10312.851    9168.8795    8825.1163    9490.1203   -157.53653     503.5542   -405.04446   -5551.8405 
13381000    14.820599   -6967.0362   -6928.9111   -6967.0362            0    9132.3029    23.003558    21.086861      21.2643    10314.735     9311.925    8954.9127     9130.071   -128.31779   -7.0976137   -148.69792   -5555.1404 
13382000     15.54571   -6964.5423   -6924.5519   -6964.5423            0    9160.7818    22.982554    21.099437    21.266842    10312.695    9095.3324    9165.1659    9221.8471   -336.70586    22.606628      103.815   -5546.7696 
13383000     15.76273   -6965.9229   -6925.3743   -6965.9229            0    9120.3841    22.955295    21.123571    21.262428    10310.104    9349.6845    8910.8833    9100.5845    108.80271    2.2740641   -44.429508   -5554.0124 
13384000    14.819805   -6966.7855   -6928.6624   -6966.7855            0    9010.1316    23.045133    21.053639    21.259278    10314.659    8937.9949    8980.0561    9112.3439   -342.42864   -253.90328    39.679331   -5573.2798 
13385000    15.315469   -6968.7198   -6929.3217   -6968.7198            0    9032.1391    22.960059    21.088204    21.308314    10317.196    8960.2814    9197.0539     8939.082    144.81336      124.017    181.96526   -5570.2944 
13386000    16.350974   -6968.0885   -6926.0266   -6968.0885            0    9090.3055    22.974055    21.110258    21.274886    10318.069     8858.481    8977.8377    9434.5979    248.93909    253.73673    433.99606   -5558.1315 
13387000    15.464396   -6966.6066   -6926.8254   -6966.6066            0    9111.5435    23.044786     21.04834    21.264397    10314.391    8762.9426    9209.4583    9362.2294   -118.26414   -194.90194    299.89645   -5556.2231 
13388000    15.336632    -6968.854   -6929.4015    -6968.854            0    8806.3422    22.957878    21.121658     21.29017    10323.783    8818.4764    8951.6001      8648.95    109.87867    111.27782   -365.13623   -5603.5028 
13389000    15.658319   -6968.6444   -6928.3643   -6968.6444            0    8975.4881    22.987844    21.127075     21.24029    10315.684    9001.6948    8663.6464    9261.1233   -378.49847   -85.851848   -36.671843   -5578.0589 
13390000    14.937257   -6964.5383   -6926.1131   -6964.5383            0    9173.2284    23.024683    21.093589    21.229319    10310.511    8962.3528    9163.7197    9393.6127    56.002161   -512.36277    187.12446   -5546.7509 
13391000    15.188528   -6967.7714   -6928.6998   -6967.7714            0    8977.2127    22.917122     21.15089    21.286312    10317.849    9242.0036    8767.7259    8921.9085    73.918641   -236.17492    101.50735   -5577.8516 
13392000    15.489624   -6967.7595   -6927.9134   -6967.7595            0    8970.6093    22.965373    21.078927    21.320616    10320.999    9484.4208    8765.3588    8662.0484     69.67494   -417.26723    177.92847   -5577.6466 
13393000    15.642617   -6967.9212   -6927.6815   -6967.9212            0    9104.1074    22.965947    21.109073    21.294238    10323.231    9087.2118     9057.688    9167.4223   -306.49391     139.3357    178.79131   -5557.0242 
13394000    15.642912   -6968.6655   -6928.4251   -6968.6655            0    8833.7211    22.930027    21.159225    21.277402    10323.404    9063.9056    8741.5587     8695.699    116.49458    64.861508   -112.93007   -5598.4531 
13395000    15.457956   -6963.8695   -6924.1049   -6963.8695            0    9101.2998    23.019769    21.070309    21.251785    10307.831    9245.9106     9159.747    8898.2417   -460.24782   -367.05874    254.98203   -5555.9143 
13396000    15.177081   -6966.1068   -6927.0647   -6966.1068            0     9084.636    22.945169    21.128438    21.272614     10312.87    9653.3427    8733.5636    8867.0016   -53.851391    -91.14533   -238.12844   -5560.7116 
13397000    14.820056   -6966.6564   -6928.5328   -6966.6564            0    9059.3266    22.914936    21.174319     21.26265    10316.812    9317.0242    8664.3614    9196.5942    10.013096   -112.33493   -53.903845   -5565.4654 
13398000    15.057474   -6967.2262   -6928.4918   -6967.2262            0    9042.0183    22.988993    21.079487    21.285331     10314.79    8938.8891    9119.1489     9068.017    -270.2651   -75.397321    310.99132   -5568.2953 
13399000    16.067257   -6966.7696   -6925.4376   -6966.7696            0     8977.886    22.917695    21.123881    21.322468    10322.434    9282.1236    8800.1334     8851.401    74.728098    169.92308    -16.03942   -5573.8876 
13400000    14.981232   -6967.5146   -6928.9763   -6967.5146            0    8965.4393    22.952542    21.121363    21.293057    10322.639    9118.6555    8801.2607    8976.4018   -112.10827   -217.41913    239.21433   -5579.2733 
13401000    15.437077   -6964.8709     -6925.16   -6964.8709            0    9157.7006    22.972794    21.102382    21.273727    10313.092    9244.8229    9128.7427    9099.5363   -8.9387004    18.895263    48.888084   -5547.7881 
13402000    15.439847   -6968.6664   -6928.9483   -6968.6664            0    8965.4115    22.932747    21.150271    21.272175    10317.724    9551.2823    8605.9575    8738.9947    136.03928    91.656823    -354.8233   -5579.8921 
13403000    15.667712   -6964.8206   -6924.5163   -6964.8206            0    9111.9313     22.98088    21.135565    21.229357    10311.394    9046.6379    8948.4127    9340.7433    99.980625    41.316908    165.71467   -5554.2541 
13404000    16.020282   -6968.0517   -6926.8405   -6968.0517            0    9052.4762    22.991334    21.115705    21.245008    10313.989    9021.0087    9092.4912    9043.9286    10.166716   -82.347084   -340.07436   -5565.1766 
13405000    14.870455   -6965.5348   -6927.2815   -6965.5348            0    9340.3157    22.981851    21.098206    21.263561    10310.187    9325.2323    9072.5473    9623.1674    6.9440757    28.313095    65.754998   -5522.8389 
13406000    15.475086   -6970.6966   -6930.8878   -6970.6966            0    8947.5682    22.994109     21.08981    21.282481    10320.756    8868.4756     8852.442     9121.787   -102.86427   -37.922931    188.28382    -5584.121 
13407000     15.19152   -6967.9167   -6928.8375   -6967.9167            0    9065.3179    22.995691    21.072617    21.298613    10320.869    8589.9739    9606.9707    8999.0093    258.33977    241.93158   -236.96376   -5564.3322 
13408000    15.244467   -6967.1183   -6927.9028   -6967.1183            0    9219.6682    23.007705     21.07126    21.267657    10310.589    8778.6553    9453.6192    9426.7302   -60.456465    164.94908    167.72263   -5541.5472 
13409000    15.339415   -6965.8101   -6926.3504   -6965.8101            0    9102.6359    23.032454    21.072794    21.246333    10312.081    8658.5723    9294.0954    9355.2401    405.82816    74.409898    107.72287   -5557.3947 
13410000    15.005218   -6965.9095   -6927.3095   -6965.9095            0    8993.2665    23.008038    21.106896    21.236788    10313.185    8964.4574    8922.4049    9092.9371    21.804531    88.233072   -222.23581   -5574.6573 
13411000    15.045492   -6967.2905   -6928.5868   -6967.2905            0    9080.6852    23.002962    21.105075    21.240317    10311.733    8870.2684    9079.6932     9292.094   -96.941581   -31.099037    51.978674   -5562.9785 
13412000    15.584943   -6967.1116   -6927.0203   -6967.1116            0     8727.812    23.016691    21.100015    21.258728    10324.355    8576.4275    8796.5242    8810.4844   -183.55307    48.487196   -186.67389   -5612.8725 
13413000    15.365028   -6967.5056     -6927.98   -6967.5056            0    9001.4852    22.992777    21.086051    21.286964    10320.492    8988.6474    9026.6244    8989.1837   -2.9227992    -98.36453   -65.275349   -5573.1323 
13414000    15.338568   -6967.7896   -6928.3321   -6967.7896            0     9103.486    22.973831    21.097144     21.28872    10318.264    9116.8131    9216.0816    8977.5635    150.98948   -39.518748    77.115341   -5558.4277 
13415000    15.394999   -6968.3772   -6928.7745   -6968.3772            0    8943.7106    22.949134    21.126823    21.301753     10327.99    9334.5595    8673.1483    8823.4241    215.59933    304.21457   -80.925944   -5581.6447 
13416000    15.880889   -6965.9877   -6925.1351   -6965.9877            0    9016.1585    22.991539    21.097456    21.263591    10314.181    9173.3544    9047.3189    8827.8022    390.65014   -13.018725     228.3026   -5568.9087 
13417000     15.38978   -6966.6338   -6927.0446   -6966.6338            0    9175.5515    22.956146    21.123943    21.264138    10311.498    9323.8903    9131.6825    9071.0818    128.74177    59.104436   -3.8312644   -5547.2011 
13418000    16.028802   -6966.3104   -6925.0773   -6966.3104            0    9001.7865    22.961037    21.125654    21.266756      10315.8    9203.1953    8854.6212    8947.5429   -59.205118    -141.1021   -422.37211   -5570.8003 
13419000    16.308511    -6965.281   -6923.3284    -6965.281            0     9050.811    22.960777    21.132982    21.256586    10314.326    9001.2286    8829.0362    9322.1683   -195.16628   -349.92391    349.22553   -5561.8704 
13420000    15.654251   -6968.9885   -6928.7189   -6968.9885            0     8978.063    22.942966    21.126809    21.296024    10322.431    9142.5421    8645.0806    9146.5662   -73.994718    13.686896    141.10137   -5577.1427 
13421000    15.241216   -6966.7352   -6927.5281   -6966.7352            0    9167.1647    22.972076    21.041756    21.347325    10318.717    9236.2896    9361.8786    8903.3259   -206.94288    154.27443    293.07309   -5547.9807 
13422000    15.359009   -6966.0855   -6926.5754   -6966.0855            0    9151.7604      22.9905    21.077274    21.284039    10313.758    8927.1574    9422.6565    9105.4672   -32.365928   -54.454255    179.96313   -5550.0081 
13423000    15.164769   -6967.4759   -6928.4654   -6967.4759            0    9038.4919    22.962949    21.128946     21.26645    10318.118    8964.7917    9029.9152    9120.7689    98.401906    121.48651   -247.92624   -5568.3607 
13424000     15.62154    -6968.256   -6928.0705    -6968.256            0    9023.9031    23.016039    21.078982    21.261233    10314.987     8780.343    9339.2555    8952.1107   -29.764817   -212.22097   -151.69556   -5570.5732 
13425000    15.919567   -6967.1068   -6926.1547   -6967.1068            0    9136.0729    22.996735    21.121026    21.225483    10309.528    9008.9681    8987.4647     9411.786   -112.50822   -37.406511   -305.42057   -5552.5106 
13426000    15.037119   -6965.4176   -6926.7356   -6965.4176            0    9240.8459    22.984558      21.1557    21.199045    10308.129    9156.5483    8639.8859    9926.1035   -101.77627    184.99444    -104.3851    -5537.527 
13427000    15.851005   -6964.2056   -6923.4299   -6964.2056            0    9133.9791    23.019333    21.071869    21.255722    10310.308    8851.2906    9341.7122    9208.9346   -113.20191   -95.103746    40.568383   -5549.9967 
13428000    14.970518     -6965.54   -6927.0292     -6965.54            0    8963.8088    22.979246    21.098177    21.293769    10323.649      9030.16    9222.6721    8638.5942   -173.21391    63.676987   -326.39173   -5577.4397 
13429000    15.259157   -6965.4616   -6926.2084   -6965.4616            0    9171.1811    22.969199    21.102972    21.280469    10315.034     9109.851    9296.8787    9106.8135   -3.3851873    36.709019    44.590704   -5546.5492 
13430000    15.466586   -6966.4306   -6926.6438   -6966.4306            0     9012.196    23.009785    21.077701    21.270298    10315.953    8877.3643    8795.4928     9363.731   -170.34477    170.57692    468.73604   -5570.7806 
13431000    15.550653   -6967.7393   -6927.7362   -6967.7393            0    9074.9569    22.958632    21.114965    21.281863    10316.824    9387.3245    8919.1447    8918.4015   -64.671604    74.845176   -168.58704   -5562.3155 
13432000    15.577676   -6964.8138   -6924.7411   -6964.8138            0    9066.2002    23.001306    21.102133    21.245873     10312.25    8804.0258    8968.5644    9426.0103   -240.83574   -11.624149    64.115111   -5561.2428 
13433000    14.913505   -6965.2727   -6926.9086   -6965.2727            0    9241.1175    22.966652    21.112881    21.250603    10304.251    9157.1793    9281.8396    9284.3337   -356.85743   -179.16908   -20.868055   -5538.1818 
13434000    15.309751   -6967.2323   -6927.8489   -6967.2323            0     9154.609    22.969307    21.112565    21.268908    10314.165    9017.7374    8898.1624    9547.9272   -75.924435    254.69348    263.51639   -5550.7987 
13435000    15.726989   -6966.0423   -6925.5856   -6966.0423            0    9024.8185     22.96845     21.05501    21.335807    10318.017      9394.82    9006.6545     8672.981    -85.86667   -283.36894     389.2309   -5567.5518 
13436000    15.687608   -6965.9671   -6925.6117   -6965.9671            0    9166.7336    22.942484    21.104615    21.305952    10316.178    9241.7008    9183.1551     9075.345    229.12114   -4.8906057     83.47756   -5546.4686 
13437000    15.131837   -6969.1484   -6930.2226   -6969.1484            0    9035.1431     22.96984    21.092491    21.304134    10321.664    9299.1174    8964.4093    8841.9027    65.657552   -85.223804   -79.355263   -5570.1545 
13438000    15.811717    -6966.257   -6925.5823    -6966.257            0    9029.4967    22.977885    21.093827     21.28926    10318.724    9304.5833    8839.0398    8944.8669   -118.30923   -390.80544    249.60467   -5566.7514 
13439000    14.871451   -6967.9369    -6929.681   -6967.9369            0    9189.7949    22.934249    21.156817    21.252478    10312.036     9348.876    8944.9842    9275.5244    51.583935    17.234875   -58.372887   -5547.6234 
13440000    16.336441   -6965.0962   -6923.0717   -6965.0962            0    9016.4954    23.031447    21.094238    21.232202    10315.258    8793.0045    8931.8142    9324.6675    387.17796   -335.77722   -8.8021022   -5566.6531 
13441000    15.392786    -6963.959    -6924.362    -6963.959            0    9101.6715    23.002224    21.096287    21.249651    10311.638     8824.288    9257.2591    9223.4673    213.86283   -214.08538   -92.352414   -5555.6103 
13442000    15.436122   -6966.3558   -6926.6473   -6966.3558            0    8879.5621    22.941916     21.15456    21.266283    10321.083     8954.471    8862.3863    8821.8289    396.25151    139.10855   -288.56213   -5590.0742 
13443000    14.990526   -6966.4948   -6927.9326   -6966.4948            0    9135.9344    23.031826    21.045589    21.279923    10314.769    8898.8911    9421.7449    9087.1671   -207.25025   -94.333931    59.280279   -5553.6111 
13444000    15.555608     -6966.72   -6926.7042     -6966.72            0     9189.961    22.965789    21.119007    21.261343    10312.063    9013.0135    9230.7815    9326.0882    43.381055    26.131481    107.02895   -5544.6181 
13445000    15.828653    -6965.511   -6924.7927    -6965.511            0    9172.1993    22.958211    21.145443    21.238866    10310.653    9173.6198    8807.1701    9535.8081   -175.38219    42.773479   -30.477413   -5545.5664 
13446000    15.030848   -6966.7074   -6928.0415   -6966.7074            0    8987.1483    23.048145    21.063076    21.251193    10316.707    8622.2133    9056.3295     9282.902   -181.59927    -149.4691    159.33544   -5575.8479 
13447000    15.852547   -6967.7994   -6927.0196   -6967.7994            0    9059.1244     22.96167    21.120758    21.270971    10315.737    8918.7024    9242.6748    9015.9958   -230.04344    255.64694   -92.213731   -5564.1247 
13448000    16.011827   -6966.2278   -6925.0384   -6966.2278            0    9135.9403    23.007437    21.066674     21.27872    10313.586    8930.0247    9385.6809    9092.1153   -316.85026   -39.443531     45.03379   -5550.8735 
13449000    15.531064   -6966.1965   -6926.2438   -6966.1965            0    9051.0463    22.994958    21.094871    21.273326    10319.173    8847.7848    9222.1937    9083.1603   -130.80515    86.381778    154.41024   -5564.1107 
13450000    15.185758   -6966.9429   -6927.8785   -6966.9429            0    9067.0113    22.919787    21.144115    21.289548    10317.311    9040.9542    9131.6661    9028.4137   -21.165279    676.55046   -78.307545   -5563.5889 
13451000    15.500971   -6964.6647   -6924.7894   -6964.6647            0    9222.4444    23.032074     21.04555    21.259707    10305.062    8755.8894    9602.7454    9308.6984    386.76905    -45.70869    314.74394   -5538.7598 
13452000    14.948902   -6965.9753   -6927.5201   -6965.9753            0    8983.1977    22.994657    21.116164     21.24731    10316.821    8762.9361    8853.3068    9333.3501    126.51241    119.60805     304.4322   -5575.9059 
13453000    14.807037   -6969.0521   -6930.9619   -6969.0521            0    8929.1058    22.936747    21.144391    21.278284    10319.618    8978.5778    8907.0572    8901.6822    364.15225   -148.71983    -199.1495   -5587.1221 
13454000    14.937757   -6965.7502   -6927.3237   -6965.7502            0    9172.2194    23.019574    21.057919    21.277818    10314.302    8955.3056    9522.9185    9038.4339    79.391918    -318.2642    10.133768   -5547.6063 
13455000    15.945721    -6969.637   -6928.6176    -6969.637            0    8976.2046     22.96755    21.127371    21.266479     10319.43    9063.3603    9016.2492    8849.0042    178.72112    321.46318   -65.746362   -5577.7141 
13456000    14.542232   -6964.7926   -6927.3836   -6964.7926            0    9246.9457    22.944644    21.118868    21.266755    10305.123     9168.912    9407.9145    9164.0107    325.60107   -42.262414    114.77158   -5537.6634 
13457000    15.056906    -6967.343     -6928.61    -6967.343            0    9073.8588    23.002481    21.068455    21.284351    10314.965    8995.2825    9245.7937    8980.5003    28.101573   -131.42865    142.77819   -5563.6005 
13458000    15.381409   -6967.5906   -6928.0229   -6967.5906            0    8951.3232    22.917817    21.135013    21.317206     10325.38    9529.4235    8524.7476    8799.7986   -2.2574965   -61.620452    64.243811   -5580.0872 
13459000    15.577448   -6965.7813   -6925.7092   -6965.7813            0    9008.8027    22.968451    21.110016    21.277395    10316.651    9077.9435    8948.3778    9000.0868   -265.46783   -42.358262    250.41843   -5570.2649 
13460000    14.983763   -6965.5544   -6927.0096   -6965.5544            0    9177.9516    22.990558    21.078941    21.275054    10310.245    8932.7639    9446.3247    9154.7663   -81.157248    -18.07932    187.35816   -5546.9729 
13461000     15.46741   -6965.5884   -6925.7995   -6965.5884            0    9045.1855    22.957384    21.134619    21.262381    10316.413    9120.4946    9065.6606    8949.4012   -63.473561    227.90023   -210.02098   -5564.9124 
13462000    15.184547    -6967.073   -6928.0117    -6967.073            0    9031.1324    22.988291    21.124515    21.238806    10313.914     8876.287    8963.7769    9253.3335   -180.04321   -135.11276    198.76692    -5569.568 
13463000    14.862257   -6966.1944   -6927.9622   -6966.1944            0    8900.9713    22.976286    21.118985    21.266038    10319.044    9065.2802    8665.1545    8972.4792   -92.861328    13.841685   -173.72819   -5588.4312 
13464000    15.279425   -6966.9542   -6927.6488   -6966.9542            0    9046.9935    22.955678    21.123903    21.282882    10320.357    9322.4198    8793.6983    9024.8623    243.51995   -45.085888    273.21033   -5565.9694 
13465000    14.661571   -6967.0836   -6929.3676   -6967.0836            0    9017.2265    22.979764    21.089258    21.289484    10317.441    9282.9085    8985.3779    8783.3931   -124.35509   -222.83704    466.20326   -5572.5518 
13466000    14.733064    -6965.921   -6928.0211    -6965.921            0    9191.2288    22.958379    21.103994    21.293129    10316.808    9097.8771     9303.477    9172.3322    336.67177    288.01398   -47.773658   -5545.1082 
13467000    15.396142   -6967.5713   -6927.9656   -6967.5713            0    8971.4676    22.976998    21.107785    21.279839    10320.584    8760.1005    9007.0098    9147.2926   -50.971216    117.27128     210.6757   -5577.6239 
13468000    16.118949   -6966.7318   -6925.2668   -6966.7318            0     9212.895    22.975502      21.0941    21.273728     10310.26    9243.8954    9201.8745    9192.9151    19.992893    31.109258   -57.879589   -5539.9738 
13469000    15.502666   -6967.4283   -6927.5486   -6967.4283            0    8970.6179    22.974762    21.114079    21.265847    10315.869    9175.5478    8937.3617    8798.9443     18.29384    149.15639   -208.70786   -5577.9517 
13470000    14.827305   -6966.9369   -6928.7946   -6966.9369            0    9003.1091    23.013708    21.117178    21.221809    10313.472    8770.3399    9152.2119    9086.7754   -297.40637   -191.74875    -42.43132   -5574.6243 
13471000    15.169286   -6967.3959   -6928.3739   -6967.3959            0    9020.6504     22.96693    21.110747    21.275288    10315.303    9051.4706     9016.414    8994.0666    51.021767    256.86346   -387.44479   -5571.3242 
13472000     15.17471   -6966.6122   -6927.5762   -6966.6122            0    9228.2076    23.011874    21.064602    21.268115     10309.42    9116.7792    9186.3495    9381.4943    109.43897    112.55263   -149.70509   -5540.0937 
13473000    15.474901   -6967.9409   -6928.1327   -6967.9409            0    9113.2703    23.002823    21.102359    21.251374    10315.711    9173.8545    9071.1183    9094.8382    111.28264   -249.75561    145.80318   -5557.0952 
13474000    15.872823   -6967.1503   -6926.3184   -6967.1503            0    9028.4844    22.953486    21.114807    21.301151    10323.783    8997.0501     9092.494    8995.9092     143.6325    249.78353   -112.04143   -5566.9737 
13475000     15.21085   -6966.4647   -6927.3357   -6966.4647            0    9114.8767     23.01683    21.039654    21.293752    10311.843    9123.9861    9184.5474    9036.0965    78.716503   -221.07647    76.466374   -5556.5707 
13476000    15.147712   -6966.2742   -6927.3077   -6966.2742            0    9056.5448    22.986973    21.132432    21.236561    10316.098    8988.6455    8690.6858     9490.303    -187.5375    216.62995   -16.145586   -5564.7532 
13477000    16.573768   -6966.1933   -6923.5583   -6966.1933            0    9020.7429    22.976621     21.13674    21.242051     10316.22    8830.2564    8833.8956    9398.0768    89.818191    393.02744    -253.4211   -5566.3741 
13478000    16.228105   -6966.4129   -6924.6671   -6966.4129            0    8952.0974    23.037682    21.046847    21.283337    10319.664      9092.19    9096.3186    8667.7835   -62.631304   -516.28563   -81.953105   -5577.3611 
13479000    15.603041   -6966.5951   -6926.4572   -6966.5951            0    9047.6981    22.970979    21.129995    21.261757    10319.961    9240.9482    8730.5478    9171.5983   -169.13185    162.52533    43.781184    -5564.724 
13480000    15.749236   -6965.8617   -6925.3478   -6965.8617            0    8990.0916    22.957971     21.11635    21.284219    10318.345    9124.1938     8842.702     9003.379   -111.79444   -1.2612893    280.61161   -5572.4964 
13481000    16.085366   -6966.0733   -6924.6947   -6966.0733            0    9263.7549    23.002623    21.060205    21.282239    10309.967    9064.9796     9419.933    9306.3521    91.877709    120.69935    212.17819   -5531.7939 
13482000    15.982365   -6968.9555   -6927.8418   -6968.9555            0    8915.0277    22.927258    21.144364    21.300772    10326.237    9005.0124    8918.3051    8821.7655    154.33372    405.49497   -329.66625   -5585.2602 
13483000    15.038998   -6966.2693   -6927.5823   -6966.2693            0    9002.2185    23.001032    21.076165     21.27216     10312.18     9075.784    9143.6742    8787.1973    136.48626   -382.47238    130.71651   -5573.7156 
13484000    15.537475   -6966.2273   -6926.2581   -6966.2273            0    9208.7754    22.966839    21.105921    21.265535    10308.176    9138.9408    9214.2857    9273.0998   -21.598493    168.53555    85.506544   -5541.8644 
13485000    15.029956   -6965.7644   -6927.1007   -6965.7644            0    9153.4396    22.949713    21.117069    21.281115    10313.481    9321.2148    9232.4727    8906.6313   -235.33533    -24.45001   -124.49989   -5550.3177 
13486000    15.405399   -6967.6588   -6928.0294   -6967.6588            0     8994.927    22.994353    21.088966    21.279996    10319.247    8826.5102    9040.7373    9117.5334   -376.24057    4.6256048    123.00465   -5574.3322 
13487000    14.890425   -6967.6111   -6929.3064   -6967.6111            0    9035.2242    22.932386    21.135122    21.295378    10321.418    9184.8522    8792.6563     9128.164   -1.0580714    197.97517   -216.11416   -5569.2586 
13488000    15.767718   -6965.7777   -6925.2162   -6965.7777            0    9093.0731    22.973395    21.085151    21.294989     10315.24    9040.6693    9297.6544    8940.8954    47.918744   -123.35356    197.63156   -5557.2798 
13489000    15.338612   -6967.8207    -6928.363   -6967.8207            0    9024.2307    22.981203    21.095913    21.281256    10317.354    9048.1776    8991.5937    9032.9209    106.06562   -60.284151    244.82913   -5570.5049 
13490000     15.68864   -6967.4001    -6927.042   -6967.4001            0    8897.5542    22.956652    21.140992    21.269407    10322.605    9071.7945    8694.6275    8926.2407    3.3164688    124.88737   -106.26789   -5587.5632 
13491000    14.767723   -6964.9613   -6926.9722   -6964.9613            0    9284.1347    23.010607    21.074482    21.253688    10306.692    9082.9662    9253.6591    9515.7789   -62.984935   -289.09956    103.96959   -5531.4505 
13492000     15.74595    -6967.625   -6927.1195    -6967.625            0    9066.7824    22.949154    21.140937    21.257809    10313.579    9226.8325    8903.5698    9069.9448   -29.932474    140.41196   -246.11437   -5563.3578 
13493000     15.52282    -6966.288   -6926.3565    -6966.288            0    8971.1867    22.960305    21.137233    21.259812    10317.755    9289.6597    8683.3141    8940.5863   -362.02368    95.457641    121.95138   -5576.4273 
13494000     15.48946   -6966.9896   -6927.1439   -6966.9896            0    8930.0928    23.007571    21.056388    21.303829    10320.775    8791.7861    9266.3253    8732.1671   -270.56049   -78.191849    126.77855   -5583.0049 
13495000    16.364704   -6967.1764   -6925.0792   -6967.1764            0     8962.658    22.929106    21.141089    21.300072     10325.13    9188.5675    8950.9995    8748.4071   -30.442127    36.864048   -71.380921   -5575.4693 
13496000    15.331358   -6967.8274   -6928.3884   -6967.8274            0    9034.4452    22.995823    21.047316    21.318099    10317.968    9029.4322    9217.0866    8856.8166     0.915886   -39.362225    416.26236   -5568.9125 
13497000    15.800146   -6966.6048   -6925.9599   -6966.6048            0    9210.9608    22.951859    21.088427    21.301301    10310.226    9433.7083    9348.7387    8850.4354    139.21117   -85.194461    121.87922   -5540.9623 
13498000    16.038772   -6967.6489   -6926.3902   -6967.6489            0     9121.654    22.940191    21.134206    21.278162    10316.136    9350.1813    8878.6776     9136.103    76.987317      279.547     -204.653   -5554.0349 
13499000    15.176444   -6966.6161   -6927.5756   -6966.6161            0    9120.5409    23.005215    21.083399    21.255467    10309.499    8968.5875    9364.5295    9028.5058   -3.0827473   -214.71513   -95.903617   -5556.2706 
13500000     16.86627   -6966.7962   -6923.4088   -6966.7962            0    9002.6867    22.971859     21.14002    21.240831     10315.09     8693.689    9052.1427    9262.2284   -7.2223868    315.57471   -57.523505   -5569.0895 
Loop time of 568.162 on 64 procs for 250000 steps with 1296 atoms

Performance: 76.035 ns/day, 0.316 hours/ns, 440.016 timesteps/s
195.6% CPU use with 32 MPI tasks x 2 OpenMP threads

MPI task timing breakdown:
Section |  min time  |  avg time  |  max time  |%varavg| %total
---------------------------------------------------------------
Pair    | 36.347     | 48.238     | 59.449     |  89.1 |  8.49
Bond    | 0.85363    | 1.0466     | 1.3382     |  11.3 |  0.18
Kspace  | 289.87     | 303.39     | 315.79     |  39.1 | 53.40
Neigh   | 0.1215     | 0.13467    | 0.14833    |   1.7 |  0.02
Comm    | 77.382     | 84.482     | 88.44      |  32.8 | 14.87
Output  | 0.55449    | 0.5549     | 0.55636    |   0.0 |  0.10
Modify  | 108.06     | 111.17     | 113.1      |   9.4 | 19.57
Other   |            | 19.15      |            |       |  3.37

Nlocal:        40.5000 ave          51 max          29 min
Histogram: 2 1 3 1 7 9 2 1 3 3
Nghost:        3230.03 ave        3254 max        3212 min
Histogram: 2 5 5 3 7 3 2 1 0 4
Neighs:        13535.1 ave       17094 max        9741 min
Histogram: 2 1 3 1 9 7 2 1 4 2

Total # of neighbors = 433124
Ave neighs/atom = 334.20062
Ave special neighs/atom = 2.0000000
Neighbor list builds = 250
Dangerous builds = 0

unfix		3
unfix		2
unfix		1

write_data	data.final.${pid}
write_data	data.final.0
System init for write_data ...
PPPM initialization ...
  extracting TIP4P info from pair style
  using 12-bit tables for long-range coulomb (../kspace.cpp:340)
  G vector (1/distance) = 0.37145885
  grid = 27 36 32
  stencil order = 5
  estimated absolute RMS force accuracy = 0.0037184816
  estimated relative force accuracy = 1.1198097e-05
  using double precision FFTW3
  3d grid and FFT values/proc = 6426 1008
Last active /omp style is kspace_style pppm/tip4p/omp
WARNING: Not all mixed pair coeffs generated from mixing. Use write_data with 'pair ij' option to store all pair coeffs. (../write_data.cpp:312)

write_restart   restart.lmp.${pid}
write_restart   restart.lmp.0
System init for write_restart ...
PPPM initialization ...
  extracting TIP4P info from pair style
  using 12-bit tables for long-range coulomb (../kspace.cpp:340)
  G vector (1/distance) = 0.37145885
  grid = 27 36 32
  stencil order = 5
  estimated absolute RMS force accuracy = 0.0037184816
  estimated relative force accuracy = 1.1198097e-05
  using double precision FFTW3
  3d grid and FFT values/proc = 6426 1008
Last active /omp style is kspace_style pppm/tip4p/omp
Total wall time: 0:09:28
