#include		in.partitions
include		in.temp
variable        temperature equal 108.19
variable	tempDamp equal 100.0
include		in.pressure
variable        pressure equal 3043.8
variable        pressureDamp equal 1000.0 # This is 1 ps
include		in.seed
variable        seed equal 745823

units		real
atom_style	full
box tilt large
read_restart	restart.lmp.${pid}
read_restart	restart.lmp.0
Reading restart file ...
  restart file = 30 Jul 2021, LAMMPS = 30 Jul 2021
  restoring atom style full from restart
  triclinic box = (-10.663544 -9.1267409 0.10895553) to (12.643544 12.116739 21.751043) with tilt (-9.2440450 1.8725244 2.8345642)
  4 by 4 by 4 MPI processor grid
  restoring pair style lj/cut/tip4p/long/omp from restart
  restoring bond style harmonic/omp from restart
  restoring angle style harmonic/omp from restart
  1296 atoms
  864 bonds
  432 angles
Finding 1-2 1-3 1-4 neighbors ...
  special bond factors lj:    0        0        0       
  special bond factors coul:  0        0        0       
     2 = max # of 1-2 neighbors
     1 = max # of 1-3 neighbors
     1 = max # of 1-4 neighbors
     2 = max # of special neighbors
  special bonds CPU = 0.011 seconds
  read_restart CPU = 0.020 seconds
include 	in.setup
variable	out_freq equal 1000
variable	out_freq2 equal 10000
variable	out_freq3 equal 1000

timestep	2.0

neigh_modify    delay 7 every 1

include		in.tip4p
# This is TIP4P/Ice

# create groups ###
group ox type 2
432 atoms in group ox
group hy type 1
864 atoms in group hy

# set charges - beside manually ###
set group ox charge -1.1794
Setting atom values ...
  432 settings made for charge
set group hy charge 0.5897
Setting atom values ...
  864 settings made for charge

# ### TIP3P Potential Parameters ###
pair_style lj/cut/tip4p/long/omp 2 1 1 1 0.1577 8.5
pair_coeff 1 1*2 0.000 0.000
pair_coeff 2 2 0.21084 3.1668
bond_style  harmonic
bond_coeff  1 450 0.9572
angle_style harmonic
angle_coeff 1 55 104.52
kspace_style pppm/tip4p/omp 1.0e-5
pair_modify tail yes

thermo          ${out_freq}
thermo          1000
thermo_style    custom step temp pe etotal epair emol press lx ly lz vol pxx pyy pzz pxy pxz pyz enthalpy

restart 	${out_freq3} restart.lmp.${pid} restart2.lmp.${pid}
restart 	1000 restart.lmp.${pid} restart2.lmp.${pid}
restart 	1000 restart.lmp.0 restart2.lmp.${pid}
restart 	1000 restart.lmp.0 restart2.lmp.0


include         in.dump
dump            myDump all atom ${out_freq2} dump.water.${pid}
dump            myDump all atom 10000 dump.water.${pid}
dump            myDump all atom 10000 dump.water.0
dump            myDump2 all dcd ${out_freq2} dump.dcd
dump            myDump2 all dcd 10000 dump.dcd
dump_modify     myDump append yes
dump_modify     myDump2 append yes


variable natoms 	equal  "count(all)"                        # NUMBER ATOMS
variable H      	equal  "enthalpy/v_natoms"                 # ENTHALPY-per-atom
variable Vol      	equal  "vol/v_natoms"                 # volume-per-atom
fix AVG all 		ave/time ${out_freq} 1 ${out_freq} v_Vol v_H file vol_enthalpy.dat
fix AVG all 		ave/time 1000 1 ${out_freq} v_Vol v_H file vol_enthalpy.dat
fix AVG all 		ave/time 1000 1 1000 v_Vol v_H file vol_enthalpy.dat


timer           timeout 10:00:00 every 1000
New timer settings: style=normal  mode=nosync  timeout=10:00:00

fix 		1 all shake 1e-6 200 0 b 1 a 1
       0 = # of size 2 clusters
       0 = # of size 3 clusters
       0 = # of size 4 clusters
     432 = # of frozen angles
  find clusters CPU = 0.001 seconds
fix             2 all nph tri ${pressure} ${pressure} ${pressureDamp}
fix             2 all nph tri 3043.8 ${pressure} ${pressureDamp}
fix             2 all nph tri 3043.8 3043.8 ${pressureDamp}
fix             2 all nph tri 3043.8 3043.8 1000
fix             3 all temp/csvr ${temperature} ${temperature} ${tempDamp} ${seed}
fix             3 all temp/csvr 108.19 ${temperature} ${tempDamp} ${seed}
fix             3 all temp/csvr 108.19 108.19 ${tempDamp} ${seed}
fix             3 all temp/csvr 108.19 108.19 100 ${seed}
fix             3 all temp/csvr 108.19 108.19 100 745823


run             250000
PPPM initialization ...
  extracting TIP4P info from pair style
  using 12-bit tables for long-range coulomb (../kspace.cpp:340)
  G vector (1/distance) = 0.367746
  grid = 30 40 32
  stencil order = 5
  estimated absolute RMS force accuracy = 0.0044457982
  estimated relative force accuracy = 1.3388389e-05
  using double precision FFTW3
  3d grid and FFT values/proc = 5168 640
Last active /omp style is kspace_style pppm/tip4p/omp
Neighbor list info ...
  update every 1 steps, delay 7 steps, check yes
  max neighbors/atom: 2000, page size: 100000
  master list distance cutoff = 10.8154
  ghost atom cutoff = 10.8154
  binsize = 5.4077, bins = 7 5 5
  1 neighbor lists, perpetual/occasional/extra = 1 0 0
  (1) pair lj/cut/tip4p/long/omp, perpetual
      attributes: half, newton on, omp
      pair build: half/bin/newton/tri/omp
      stencil: half/bin/3d/tri
      bin: standard
Per MPI rank memory allocation (min/avg/max) = 9.436 | 9.442 | 9.447 Mbytes
Step Temp PotEng TotEng E_pair E_mol Press Lx Ly Lz Volume Pxx Pyy Pzz Pxy Pxz Pyz Enthalpy 
 4250000    112.07048   -6719.6614   -6431.3669   -6719.6614            0    3646.9584    23.307088     21.24348    21.642088     10715.51    3186.3352    3990.9295    3763.6105   -434.16503   -92.451402    115.99746   -5861.4395 
 4251000    109.75302   -6743.0989   -6460.7659   -6743.0989            0    2461.5583    23.184352    21.397412    21.688119    10759.153    2383.5077    2178.1322    2823.0348   -277.94294    380.06905   -168.60302   -6074.5198 
 4252000    110.17736   -6743.0688   -6459.6443   -6743.0688            0    3160.6948    23.098207    21.557087    21.536901     10723.87    3871.6066    1793.5855    3816.8924     151.3039   -270.68402    505.96593   -5965.3222 
 4253000    108.80448   -6739.5373   -6459.6444   -6739.5373            0    2673.6699     23.22841    21.362209    21.640365    10738.169    3193.9476    2270.6986    2556.3636    384.89713   -32.008581    274.22733   -6040.9339 
 4254000    103.65519   -6742.0783   -6475.4317   -6742.0783            0    2346.6322    23.387327     21.23851    21.648312    10752.976    2310.4927    2512.2037    2217.2002   -610.37262   -202.83976    199.99456   -6107.4302 
 4255000    103.92121   -6728.0469    -6460.716   -6728.0469            0    3458.9759    23.304037    21.247711    21.640184    10715.298    3750.7137    3483.9385    3142.2756   -610.86686   -507.18801    446.99892   -5920.1762 
 4256000    110.94893   -6738.5055   -6453.0962   -6738.5055            0    2052.5978    23.131428    21.458243    21.706249     10774.11    3312.6129    1750.1558    1095.0245   -20.442556   -140.44376   -498.94103   -6130.5728 
 4257000    110.00454   -6746.9334   -6463.9535   -6746.9334            0    3016.9903    23.112258    21.501794    21.581853    10725.209    3178.1419    2930.4675    2942.3614    629.84612    468.09744    10.870254   -5992.0474 
 4258000    111.07935   -6741.2342   -6455.4893   -6741.2342            0    2893.5215    23.241565     21.36804    21.636812    10745.418    3366.1881    2731.2581    2583.1182   -3.8524611    3.4466026   -54.574417    -6002.043 
 4259000    113.84354   -6734.7329   -6441.8773   -6734.7329            0    2635.9408     23.37717    21.222301     21.64702    10739.461    1485.8847    3224.0392    3197.8984    103.07206   -103.36645   -644.35463   -6029.0256 
 4260000    111.22357   -6742.7113   -6456.5954   -6742.7113            0    3342.2585    23.296355    21.245417    21.642372    10711.693    3328.4705    3044.7812    3653.5237   -23.746027   -564.05784    16.752543    -5934.471 
 4261000    108.54388   -6739.7687   -6460.5462   -6739.7687            0     2907.207    23.177074    21.398678     21.63756    10731.337    2926.2829    3337.7149    2457.6231   -1.4577228    25.904886    324.14216   -6005.5522 
 4262000    110.89343   -6725.7509   -6440.4843   -6725.7509            0    3195.5817    23.123737    21.404057    21.674422    10727.577    4755.2899    1755.1101    3076.3451    998.60322   -845.18046    881.84466   -5940.5333 
 4263000     111.5163   -6729.7559    -6442.887   -6729.7559            0    3494.5157    23.211592     21.36315    21.601809    10711.748    2184.1056    3279.0338    5020.4078    153.56974    584.67125    830.04942   -5896.9743 
 4264000    107.83708   -6750.9748   -6473.5705   -6750.9748            0    3080.4075    23.207105     21.37886    21.621037    10727.093    3883.2831    2528.4469    2829.4926   -1015.4288    333.95687   -657.86348   -5991.6604 
 4265000    107.19536   -6733.0873   -6457.3338   -6733.0873            0    3218.6344    23.255061    21.389854    21.584432    10736.579    3401.6616     2467.716    3786.5257   -114.35119    16.535864    78.855222   -5953.3536 
 4266000    107.66455   -6738.2608   -6461.3003   -6738.2608            0    2542.5388    23.274664    21.386133    21.634694    10768.778    3058.9875    2564.6276    2004.0013    -857.3069   -307.65778   -1414.7145   -6061.9905 
 4267000    107.44916    -6737.158   -6460.7516    -6737.158            0    3091.6838    23.289488    21.257204    21.708912    10747.418    3067.6752    3498.2577    2709.1185    117.64802   -180.48258    434.68582   -5976.1608 
 4268000    103.02768    -6736.781   -6471.7486    -6736.781            0    3950.1143     23.27657    21.241833    21.581396    10670.641    3108.7902     4310.009    4431.5437   -239.20659    580.15656    19.390425   -5857.0304 
 4269000    110.05885   -6743.1872   -6460.0675   -6743.1872            0    3343.7788    23.119196    21.373617    21.686812    10716.339    4654.5003    2248.3661    3128.4701    430.81873   -191.82171    725.60035   -5937.4789 
 4270000     107.1998     -6739.22    -6463.455     -6739.22            0    3205.5462     23.03818    21.546259    21.590183    10717.077    3162.7915    2735.3813    3718.4658    776.83888    -111.2571    4.8943912   -5962.4359 
 4271000    104.35119   -6742.4886   -6474.0515   -6742.4886            0    3335.8809    23.199576    21.392494    21.615772    10727.838    3820.7599    2821.0651    3365.8177    402.62487   -917.14982    542.58146   -5952.1379 
 4272000    108.63061   -6733.3177   -6453.8721   -6733.3177            0    2710.1162    23.341189     21.24452     21.67955     10750.29    2031.8848    2472.8885    3625.5754    409.15348     900.6442    6.2338476   -6028.9748 
 4273000    107.16487   -6739.5136   -6463.8385   -6739.5136            0    2892.4122    23.410528    21.217821    21.581923    10720.181    2300.6134    3353.8164    3022.8066    -4.021757    429.71852   -483.42397   -6011.6305 
 4274000    114.83095   -6725.6531   -6430.2575   -6725.6531            0    3038.3652    23.173628     21.38768     21.69549    10752.939    3279.4669    2908.8727    2926.7559    787.84139   -470.06367    376.88673   -5953.7793 
 4275000    109.67144    -6721.827   -6439.7039    -6721.827            0    3486.9461    23.069881    21.528047    21.599225    10727.244    4156.4233    2367.1727    3937.2423    778.73126    474.00652    440.43124   -5894.1857 
 4276000     106.6671   -6718.1303   -6443.7356   -6718.1303            0    3381.2782    23.270441    21.344785     21.63058    10743.965    3123.0063     3715.747    3305.0812    200.32205   -542.62111   -166.50767   -5913.9242 
 4277000    110.61975   -6735.7726   -6451.2101   -6735.7726            0    2919.0271       23.286    21.244535    21.716515    10743.165    3700.8043    3378.6579     1677.619   -204.43576    202.78501   -347.38897   -5993.8626 
 4278000    103.32836   -6738.8305   -6473.0245   -6738.8305            0      2916.84    23.345895    21.279526    21.600682    10730.994    2781.8051    2774.5473    3194.1677    536.70823    -234.5739   -148.14273   -6016.5375 
 4279000    105.93167   -6742.5891   -6470.0864   -6742.5891            0     2771.048    23.126816    21.436557    21.663495     10739.88    3327.6328    2140.3312    2845.1799   -269.24085   -108.63219    508.16461   -6036.0568 
 4280000    108.27555     -6723.62   -6445.0878     -6723.62            0    3047.1508    23.123227    21.460697    21.646413    10741.828    3539.1542    2933.1004    2669.1979    152.61543    108.15946   -226.85504   -5967.7255 
 4281000    108.21155   -6725.0074   -6446.6398   -6725.0074            0    3364.9463    23.185277    21.381987    21.591519    10703.937      3992.75    2533.3935    3568.6954   -249.49931    -549.7108    342.48683   -5921.3516 
 4282000    113.40622   -6742.4947   -6450.7641   -6742.4947            0    2770.7883    23.371245    21.225198    21.660107    10744.698    1470.4204    3343.3218    3498.6228   -352.51616   -77.979915   -176.55063   -6016.5805 
 4283000    106.52012   -6731.8149   -6457.7984   -6731.8149            0    3686.5342    23.257046    21.266784    21.671918    10718.986     4415.862    3965.1577     2678.583   -290.43657   -517.95595   -9.7952171   -5881.4994 
 4284000    104.81193   -6735.5974   -6465.9751   -6735.5974            0    3246.0542    23.145242     21.47935    21.573156    10724.981    2937.9323    3000.1287    3800.1017     446.5165    702.77531    314.06139   -5958.2505 
 4285000    108.36363   -6747.8136   -6469.0547   -6747.8136            0    3474.6043    23.121872    21.412506    21.626068    10707.006    3621.4116    3351.0265    3451.3748    372.24078    438.88135   -6.2549976   -5926.4928 
 4286000    109.71548   -6751.3805   -6469.1441   -6751.3805            0    2850.8868    23.189873     21.30545    21.695148    10718.937    2400.9137     4041.974    2109.7728   -925.46555   -7.1741948   -175.55505   -6023.4801 
 4287000    109.09478   -6734.5523   -6453.9126   -6734.5523            0    3284.2581    23.333288    21.240903    21.613973     10712.32    3078.0968    3494.3336    3280.3438   -250.80462    265.06649   -132.98508   -5940.8189 
 4288000    110.14101   -6741.4909   -6458.1598   -6741.4909            0    3676.1881    23.305782    21.280703    21.582588    10704.174    3003.7079    3862.6172    4162.2393    334.63001    -148.5044   -148.72344   -5884.2723 
 4289000    105.24542   -6727.8071   -6457.0696   -6727.8071            0     3333.328    23.145992    21.411896    21.679306    10744.255    3314.2277    3348.4736    3337.2826   -845.22999    319.98375   -937.93913   -5934.7574 
 4290000    104.48148    -6733.153   -6464.3808    -6733.153            0    3135.0354    23.181922    21.440653    21.578532    10725.297    4526.5576     1531.221    3347.3276    -77.15426   -1084.8842   -173.93064   -5974.0065 
 4291000    103.50076   -6735.2619   -6469.0125   -6735.2619            0    2470.4682     23.28935    21.352272    21.620331    10751.369    1639.0387    3261.0707    2511.2953   -591.89615    677.53961    61.307344   -6081.6488 
 4292000    103.30832   -6727.9035   -6462.1492   -6727.9035            0    2964.8159    23.314651    21.154693    21.737131    10721.063    3747.3721    3615.0768    1531.9988    205.92968   -599.29993   -343.63532   -5998.5833 
 4293000    114.31108   -6746.4899   -6452.4317   -6746.4899            0     3244.264      23.2422    21.323443    21.613901     10711.93    2852.1894    3116.5296    3764.0729   -42.343798    481.17027    1592.9346   -5945.6046 
 4294000    107.90692   -6732.5012   -6454.9172   -6732.5012            0    3116.0643    23.167427    21.377958    21.658475    10726.843    3366.8978    2393.9119    3587.3831    262.32861   -582.98614    82.817471   -5967.4401 
 4295000    102.26122   -6750.9812   -6487.9205   -6750.9812            0    3116.4634     23.19385    21.360395    21.628693    10715.499    3612.5544    2515.9994    3220.8363   -18.642922    -860.4444    -371.4161   -6000.8965 
 4296000     108.8203   -6732.9657   -6453.0321   -6732.9657            0    3999.1335    23.253374    21.334075    21.561834    10696.594    4022.0379    3692.2567    4283.1059    285.92661    397.01427       -123.2   -5829.1719 
 4297000     105.0179   -6744.6021   -6474.4499   -6744.6021            0    2836.9268    23.244607    21.344057    21.674696    10753.558    2874.2344    3436.1756    2200.3703    438.94643   -1069.6121   -735.85399   -6029.5358 
 4298000    109.90021    -6730.557   -6447.8454    -6730.557            0    4068.7893     23.24046    21.264455    21.621491    10685.248     3541.331    4205.3364    4459.7005    402.12252    653.35385    593.62084   -5813.7922 
 4299000    108.96701   -6730.1878   -6449.8768   -6730.1878            0    2641.9624    23.199571    21.355073    21.666582    10734.243    3178.4925    2249.9028    2497.4918    -739.4752    561.89669    72.201775   -6036.2831 
 4300000    110.61825   -6743.3884   -6458.8297   -6743.3884            0    2678.9105    23.207672    21.369958     21.63092    10727.789    3263.9758    3194.8805    1577.8753     432.5744   -137.88514   -21.187647   -6039.7039 
 4301000    110.55991   -6732.7691   -6448.3605   -6732.7691            0    2606.4982    23.206292    21.374717    21.693168    10760.417     2965.769    2350.3531    2503.3724   -854.13238    984.87478   -30.074169   -6039.3236 
 4302000    109.14332   -6751.6085   -6470.8439   -6751.6085            0    2700.9381    23.325097     21.29352     21.60621     10731.23    2685.9876    2501.1411    2915.6855    344.09346   -324.26187    100.67398   -6048.1364 
 4303000    107.16368   -6740.9139   -6465.2419   -6740.9139            0    3296.7177    23.229512    21.284403    21.681218    10719.764    2447.5345    3912.2093    3530.4093   -430.62684   -205.77846     254.9889   -5949.8437 
 4304000    112.32948   -6738.9576   -6449.9968   -6738.9576            0    3643.9196     23.28016    21.327015    21.539201    10694.134    3846.0906    2981.8174    4103.8509    303.60409   -519.55211    188.29249   -5881.6803 
 4305000    107.30559   -6732.8859   -6456.8488   -6732.8859            0    2237.8955    23.124755    21.420447    21.729838    10763.714    2653.6609     1816.662    2243.3635      1089.81   -317.23928    226.54258    -6105.549 
 4306000    116.65746   -6741.8996   -6441.8054   -6741.8996            0    2825.8508    23.126668    21.423484    21.616583    10710.018     2623.759    3215.4515    2638.3418   -222.47632   -39.436624   -418.15638   -6000.4227 
 4307000    109.34576   -6738.9324    -6457.647   -6738.9324            0    3470.2287    23.217861    21.384895    21.580794    10715.113    3534.4448    3223.3993    3652.8419    356.44711   -293.68691    627.59415   -5915.3581 
 4308000    104.50032    -6729.164   -6460.3433    -6729.164            0    2960.7205     23.20391    21.272735    21.751053     10736.55    3320.4909    3540.7636    2020.9069   -499.39696    646.31519   -479.39515   -5996.7491 
 4309000    107.13103    -6730.462    -6454.874    -6730.462            0    4016.5181     23.31663    21.332046    21.502026    10694.923    4021.6779    3681.6688    4346.2077    153.70214   0.74983139    117.88341   -5828.3996 
 4310000    104.65354   -6744.2021   -6474.9873   -6744.2021            0    3172.7586    23.149835    21.375908    21.690568     10733.55    3844.2684     2382.918    3291.0895   -476.12855   -104.27322    890.18544   -5978.3305 
 4311000    107.54475   -6738.4166   -6461.7643   -6738.4166            0    2257.4047    23.149522    21.410945    21.703234    10757.276    2189.2967    2855.0399    1727.8775    767.86778     434.0371   -763.41821    -6107.614 
 4312000    111.35567   -6736.7611   -6450.3054   -6736.7611            0    2693.8239    23.334132    21.415291    21.466895    10727.162    2557.6384    2084.0093    3439.8241    97.090502    938.76219     523.5933   -6028.8711 
 4313000      112.528   -6731.1531   -6441.6816   -6731.1531            0    3409.2435    23.252877    21.268918    21.663792    10714.122    3553.0946    3494.5476    3180.0884   -905.36793    226.22249    653.39045   -5908.9721 
 4314000    104.72435   -6733.9427   -6464.5457   -6733.9427            0    3281.2665    23.275466    21.288286    21.668922    10736.838    3043.2195    3975.9936    2824.5863    353.12391   -351.34352   -720.23843   -5950.7461 
 4315000    107.60495   -6756.4731   -6479.6659   -6756.4731            0    3242.5922     23.16589    21.401712    21.618155    10718.059    3600.1486    2295.9163    3831.7117   -89.293589    489.45864   -414.85199   -5972.8102 
 4316000    114.87789   -6741.8345   -6446.3181   -6741.8345            0    3132.9913    23.156546    21.389313     21.65691    10726.724    3499.2507    3060.4712     2839.252    816.25975   -359.20155    510.66407   -5956.1984 
 4317000    105.26999    -6748.094   -6477.2934    -6748.094            0    2335.7387     23.22677    21.355088    21.643127    10735.201    2114.9958    2064.1777    2828.0425    985.88526   -376.81025    226.90842   -6111.6057 
 4318000    106.22073    -6743.427   -6470.1806    -6743.427            0    2793.7489    23.247351    21.304373    21.652676    10723.926    3092.6811    2438.2799    2850.2856    376.39878    428.64039   -80.387502   -6033.2454 
 4319000    98.686282   -6734.8116   -6480.9472   -6734.8116            0    2916.2531    23.248019    21.381391     21.57199    10722.897     3041.194    2766.8116    2940.7535   -500.72993    -470.8839   -603.57548   -6024.8964 
 4320000    106.75477     -6740.77   -6466.1498     -6740.77            0    3321.2081    23.163794    21.401325    21.614189    10714.929    3504.3993    3032.3196    3426.9052   -283.27085    157.49104     -891.046   -5947.1571 
 4321000    111.71122   -6746.0057   -6458.6354   -6746.0057            0    2618.3641    23.233978    21.409626    21.586025    10737.553    3180.5272    2413.9341    2260.6312    545.89191    555.79551    -37.37406   -6048.6096 
 4322000    112.90273   -6729.2727   -6438.8373   -6729.2727            0    2133.8041    23.234696    21.394425    21.671997    10772.997    2577.0413    1755.9466    2068.4242    -907.1453   -560.85939    733.82761   -6103.5887 
 4323000    107.80704   -6750.3882   -6473.0612   -6750.3882            0    3807.0327    23.183863    21.313041    21.635702    10690.603    4253.8741    3985.8937    3181.3303   -323.53634   -498.45815   -310.49323    -5879.501 
 4324000    106.79936   -6735.2071   -6460.4722   -6735.2071            0    3850.9544    23.233129    21.284954    21.651523    10707.026    3364.8978    4368.9836    3818.9817    1329.6279    568.05629   -109.41015   -5859.1419 
 4325000    110.43736   -6745.1576   -6461.0642   -6745.1576            0    3191.4496    23.251262    21.335203     21.63542    10732.692     3273.246    2861.0939    3440.0091   -414.25326    124.24533    -201.8495   -5961.5216 
 4326000    105.37595   -6732.6136   -6461.5404   -6732.6136            0    2707.8575    23.140936     21.39646    21.719701    10754.165    2850.1147    2818.5111    2454.9468   -206.99606   -279.94244   -72.834158   -6036.8442 
 4327000     104.7553   -6739.6536    -6470.177   -6739.6536            0    2719.9598    23.256553    21.360246    21.605757    10732.999     2940.497    2206.4426    3012.9399    291.30859   -287.10211    281.59558   -6044.4223 
 4328000    108.38822   -6722.5581    -6443.736   -6722.5581            0    2757.0374    23.255292    21.300473    21.700744    10749.436    2445.4346    2617.3546     3208.323    1062.2663   -196.52419    891.91169   -6011.5167 
 4329000    104.84453   -6741.6603   -6471.9541   -6741.6603            0    3293.8663    23.195702    21.325429    21.655724    10712.183    3234.1438    2567.7208    4079.7342   -412.02041   -289.91453    224.06692   -5957.3659 
 4330000    109.63671   -6726.8912   -6444.8574   -6726.8912            0    2880.1483    23.213224    21.424357    21.587921    10736.286     3567.328    2072.5894    3000.5276   -512.33844   -152.86678     71.03697   -5993.8904 
 4331000    106.15327   -6739.9322   -6466.8594   -6739.9322            0    3223.3508    23.192809    21.355231    21.649314    10722.641    3748.8849    3155.5038    2765.6636      157.854    272.66212   -353.37621   -5962.7959 
 4332000    106.42843   -6738.0082   -6464.2275   -6738.0082            0    2625.2062     23.27402    21.440323    21.541042    10749.034    3300.6561    1468.3661    3106.5962   -1056.7509   -285.69512    117.37825   -6052.6906 
 4333000    108.57923   -6742.1701   -6462.8566   -6742.1701            0    2259.9914    23.243728    21.319426    21.705228    10755.873    2600.6886    3093.6798    1085.6057   -263.61664   -137.94947    240.20419   -6108.3468 
 4334000    112.17726   -6726.7241   -6438.1549   -6726.7241            0    2935.6119    23.200555     21.29569    21.712506    10727.537    2715.2311    3798.1156     2293.489    -791.7562    668.18905   -848.26205   -5978.8781 
 4335000    107.53417   -6743.0578   -6466.4326   -6743.0578            0    3507.8695    23.237412    21.366736    21.578138    10713.711    2795.1335    3307.4563    4421.0185    307.93149     1117.533    697.69739   -5918.3334 
 4336000    107.42153    -6741.037   -6464.7017    -6741.037            0    4021.3729    23.008252    21.407646    21.730396    10703.362    5546.6838    4245.0325    2272.4022   -597.05415   -1057.5827   -628.57344   -5836.9752 
 4337000    105.63464   -6746.9946    -6475.256   -6746.9946            0    3135.8402     23.30246    21.389337    21.535815    10733.971    2672.2268    2363.5501    4371.7437   -143.35836   -45.212111   -189.99101   -5984.3591 
 4338000    110.17489   -6739.8501   -6456.4319   -6739.8501            0    2862.9117    23.272418     21.27814    21.656505    10724.166      2681.43    3285.7177    2621.5876    225.03304    389.59089   -609.68984   -6008.6697 
 4339000     102.4737   -6746.0049   -6482.3976   -6746.0049            0    2828.8063    23.241222    21.301739    21.700013    10743.208    2920.0548    3323.2037    2243.1604   -671.19506   -368.83875   -4.1578428   -6039.1839 
 4340000    110.22801   -6750.5888   -6467.0339   -6750.5888            0    2702.6025    23.157611    21.433149    21.617019    10729.402    3439.4859    2350.2239    2318.0976   -211.35599   -96.329023    588.84325   -6044.1379 
 4341000    104.57847   -6744.1852   -6475.1634   -6744.1852            0      2961.56    23.144874    21.373002    21.702777     10735.83     2568.538    2926.9883    3389.1536    1256.2596   -15.443998    401.22047   -6011.4688 
 4342000    107.92292   -6735.8483   -6458.2232   -6735.8483            0    3288.0342     23.22955    21.330169    21.637242    10721.042    3616.4334    2925.1218    3322.5474    336.01629   -278.81828     252.0006   -5944.1213 
 4343000    105.59009   -6734.4281   -6462.8041   -6734.4281            0    2845.0577    23.334934     21.29254     21.58165    10723.058    1957.6504    4009.2278    2568.2948    211.57982   -567.22402   -592.26068   -6017.8803 
 4344000    108.15044    -6737.059   -6458.8486    -6737.059            0     2708.214     23.29462    21.290224    21.696226    10760.193    3083.4026    2787.2982    2253.9412    2.1006112   -864.89722   -443.85986   -6033.8584 
 4345000    108.28692   -6757.3886   -6478.8271   -6757.3886            0    4034.9587    23.137384    21.360554    21.613409    10681.938    4556.1626    3949.7775    3598.9359    213.39108    220.81708   -289.14905   -5850.2406 
 4346000    113.47152   -6740.1535   -6448.2549   -6740.1535            0    3423.9133    23.131086    21.394899    21.657031    10717.789    3619.0669    3686.4933    2966.1796   -497.24348   -21.087001    -184.6867     -5913.07 
 4347000    107.80543   -6739.2647   -6461.9417   -6739.2647            0    3093.5323     23.17637    21.315658    21.705238    10722.812    3545.8231    2616.0746    3118.6992   -0.3254865    -52.73463    846.60768   -5978.1714 
 4348000    106.37037   -6751.3827   -6477.7514   -6751.3827            0    2386.4335    23.368773    21.227917    21.615268    10722.695    1609.1803    3448.6605    2101.4597    750.77401    379.51052   -693.70197   -6104.5621 
 4349000    106.40318   -6734.6235   -6460.9078   -6734.6235            0    2219.6977     23.24961    21.355509    21.698182    10773.304    2458.5691    1398.7083    2801.8158   -700.72933    440.12746   -209.78676   -6112.1543 
 4350000    105.90041   -6742.6809   -6470.2585   -6742.6809            0    3475.2832    23.102427    21.431863    21.613503    10701.451    3478.5197    3468.5421    3478.7878    3.4062366   -271.49339    365.46745   -5927.8722 
 4351000    109.84798   -6759.8865   -6477.3093   -6759.8865            0    2874.2563    23.159247    21.379333    21.679242    10734.027    3837.4823    2551.6198    2233.6666    568.47454   -141.01501    510.91208   -6027.3595 
 4352000    109.05993   -6742.9115   -6462.3615   -6742.9115            0    4155.0464    23.225597    21.261017    21.626832    10679.325    4388.3828    4392.5167    3684.2398   -4.3781268    868.87361    132.44709   -5815.2254 
 4353000    109.25988   -6726.6751   -6445.6107   -6726.6751            0    3398.9094    23.247099    21.373414    21.606285    10735.512    2365.0214    4080.4686    3751.2382   -64.158298   -135.83498    527.25442   -5913.4556 
 4354000    109.25672   -6736.1107   -6455.0544   -6736.1107            0    3167.3414    23.199098    21.323212    21.678305    10723.808    3599.9264    3460.6491    2441.4488   -340.67823   -103.32997   -894.04774   -5959.6957 
 4355000    108.77585   -6732.2836   -6452.4643   -6732.2836            0    2730.7582    23.325399    21.363207    21.562915    10744.916    2523.8195    2020.2954    3648.1597     1095.739    129.05817   -35.052109   -6024.5448 
 4356000    107.83177   -6746.9401   -6469.5494   -6746.9401            0    3536.6763    23.199914    21.338018    21.631877    10708.648    4015.0424    3442.9767    3152.0099   -1000.0226   -334.57401   -393.61615   -5917.2102 
 4357000    108.20546   -6743.8103   -6465.4583   -6743.8103            0    2693.1285    23.233029    21.342951    21.649928    10735.363    2745.3069    2805.6143    2528.4643   -514.20579   -332.65894    375.08068   -6043.8106 
 4358000    105.12185   -6738.1548   -6467.7352   -6738.1548            0    2598.4085    23.306511    21.335529    21.624938    10753.146    1655.7233    2964.5375    3174.9649    272.58343    889.83123    474.21946   -6060.2434 
 4359000    104.36774   -6739.3715   -6470.8918   -6739.3715            0    2498.3837    23.155325    21.362248     21.74567    10756.491     3592.658    2747.3532    1155.1398    138.90895    -261.3634   -22.942419   -6078.9644 
 4360000    107.03329   -6743.7583   -6468.4217   -6743.7583            0    2908.4949    23.201131    21.375383    21.648144     10736.03    2521.3344    2617.5709    3586.5795   -74.934296     -309.009     1104.082    -6013.027 
 4361000    108.59121   -6739.3549   -6460.0106   -6739.3549            0    2911.5101    23.238481    21.383621     21.56876     10718.01     2578.819    2703.9839    3451.7276   -474.57707    356.66226   -277.57545   -6004.9091 
 4362000    110.37643   -6742.7025   -6458.7658   -6742.7025            0    2082.2128    23.206811    21.325214    21.755422    10766.546    2669.2617    1935.4425    1641.9344     724.5743    304.60275   -772.44185   -6131.8188 
 4363000    105.97874   -6733.2944   -6460.6705   -6733.2944            0    3445.4482    23.179111    21.355358    21.674452    10728.815    2511.1612    4452.6353    3372.5481    1451.5485    -369.8487    116.30707   -5921.5655 
 4364000    109.15215   -6732.9556   -6452.1683   -6732.9556            0    3288.4249    23.281421     21.37773    21.536167    10718.635    2929.6244    2807.2834    4128.3669   -1031.5405   -202.84805    59.803103   -5938.1208 
 4365000    106.49677   -6731.1793   -6457.2229   -6731.1793            0    3065.5089    23.171828    21.364695    21.687856    10736.769    3007.1918     3509.048    2680.2868    376.62917    -855.2486   -725.39903   -5977.2109 
 4366000    105.59821   -6753.1724   -6481.5274   -6753.1724            0    3172.3251    23.251525    21.395464    21.561916    10726.561    2211.0281    3293.7956    4012.1514     1026.075    328.49379    198.64369   -5985.2619 
 4367000    102.76652    -6753.446   -6489.0854    -6753.446            0     3248.537    23.166095    21.286125    21.706545    10703.854    3586.7098    3194.4711    2964.4301    346.02214   -310.23233    364.50093   -5981.9734 
 4368000     107.0691    -6748.629   -6473.2003    -6748.629            0    2454.8824    23.245223    21.279492    21.755146    10761.108    2116.3978    2447.6556    2800.5938   -268.11644    920.45825     1115.369   -6087.9317 
 4369000    108.06848   -6739.2801   -6461.2805   -6739.2801            0    3563.0302    23.336991    21.244824    21.564724    10691.581    3143.1517    3788.6582    3757.2807     158.2063   -504.19373    230.29112   -5905.7124 
 4370000    107.60417   -6744.4023   -6467.5972   -6744.4023            0    2287.9768    23.255542    21.320978    21.704273    10761.649    2766.5706    3287.6741    809.68565    131.54582   -713.19985   -618.05632   -6108.5047 
 4371000    102.26977   -6729.3542   -6466.2714   -6729.3542            0    3125.9002    23.203034    21.416823    21.567946    10717.873     2951.382    2498.3836    3927.9351   -250.43839    659.23333    427.68658   -5977.6645 
 4372000     109.9396   -6728.1301   -6445.3172   -6728.1301            0    2734.5951    23.268533    21.451507    21.540363    10751.767    2503.5746    1914.9274    3785.2833   -1170.0104    211.64662     541.6081   -6016.5231 
 4373000    107.15273   -6738.7727   -6463.1288   -6738.7727            0    3983.1724    23.117752    21.285393     21.72205    10688.779    4736.4366    4708.9254    2504.1553    151.40698   -440.67888   -190.64738   -5842.2124 
 4374000    108.09861   -6733.8754   -6455.7983   -6733.8754            0    2140.4328    23.396143    21.361192    21.540471    10765.271    1632.7904    2073.0012    2715.5067    352.27251     49.91377    903.74771   -6119.7495 
 4375000    111.37657   -6733.4455    -6446.936   -6733.4455            0    4017.2475    23.173419    21.282863    21.671075    10688.103     3546.247    4958.8342    3546.6614   -435.13074   -136.54764   -644.85472   -5820.7475 
 4376000    108.60056    -6744.358   -6464.9897    -6744.358            0    3120.5375    23.269615    21.370815     21.61265    10747.769    2670.8115    3149.6069     3541.194    514.48848   -483.46808   -487.84902   -5975.8605 
 4377000    109.48947   -6740.7317   -6459.0767   -6740.7317            0    4012.9162    23.202368    21.350068    21.561324    10680.879    4139.1781     3503.402    4396.1686    281.11454    299.21761     -497.468   -5833.9861 
 4378000    107.98508   -6738.8102   -6461.0252   -6738.8102            0    2011.3736     23.20074     21.35175      21.7536     10776.22    2504.1238    1950.1163    1579.8806    70.057111    32.062834    420.29834   -6144.9175 
 4379000    112.02169   -6727.9045   -6439.7355   -6727.9045            0    2858.4745    23.231501    21.332772    21.640263    10724.748    3571.6612    2326.5338    2677.2285    243.98008       -436.8   -133.64377   -5992.6431 
 4380000    101.42658   -6744.4948   -6483.5811   -6744.4948            0    2367.5739    23.183982    21.335611    21.739756    10753.449    2313.0232    2279.3285      2510.37    458.74263    560.08619   -618.80045   -6112.2792 
 4381000    104.66707   -6748.0179   -6478.7683   -6748.0179            0    3068.0731    23.158776     21.43541    21.592157    10718.732    2684.6958    2971.1221    3548.4015    26.612935    644.25977   -41.381542   -5999.1618 
 4382000    110.43148   -6729.2607   -6445.1824   -6729.2607            0     3487.982    23.184678    21.400826    21.558765     10696.84    4059.0024    2718.6026    3686.3411   -485.40406   -344.46949    422.64044   -5901.0487 
 4383000    107.40247   -6730.8976   -6454.6113   -6730.8976            0    3553.4129    23.260209    21.304164    21.654522    10730.667    3444.6641    3495.2104     3720.364    145.13301   -233.03652   -297.86396   -5898.5173 
 4384000    102.66417    -6737.585   -6473.4877    -6737.585            0    3687.7403    23.293496    21.216549    21.611651    10680.642    4005.7301    3141.2914    3916.1994   -56.459334    367.35789   -36.356774   -5899.0624 
 4385000    108.21372   -6755.5304   -6477.1572   -6755.5304            0    2509.5804    23.249051    21.326563    21.657062    10738.056    2342.4765    2931.0014    2255.2631   -339.73851    479.20529   -170.78242    -6084.148 
 4386000    112.06125   -6739.1658   -6450.8951   -6739.1658            0    2997.3357     23.10369    21.465644    21.620656    10722.453    3502.1558    2620.1643    2869.6871    20.561972   -320.58793    92.241495   -5982.1838 
 4387000    107.33426   -6740.6692   -6464.5584   -6740.6692            0    3216.2953    23.129306      21.4215    21.619101    10711.495    3825.7257    3286.9412    2536.2189    720.41208    572.76794   -338.52796    -5962.121 
 4388000    102.32057   -6738.0186   -6474.8052   -6738.0186            0    2525.2247    23.307906    21.326467    21.650265    10761.812    2379.2401    2202.6503    2993.7836    692.57885    5.9973923     137.2385   -6078.4712 
 4389000    108.66406   -6747.8796   -6468.3479   -6747.8796            0    2585.6008    23.306592    21.244112    21.697514    10743.044     2042.793    3295.4905    2418.5188   -988.93564    195.61064   -295.80627   -6063.2456 
 4390000    109.00825   -6741.2022   -6460.7851   -6741.2022            0    3690.9403    23.234493    21.366229    21.559711    10702.963    3656.4801    3070.0529     4346.288   -154.51357   -283.04984    521.64535   -5884.6598 
 4391000    104.49586   -6740.4264   -6471.6172   -6740.4264            0    3570.4802    23.064506    21.422611    21.684717     10714.46    4329.7264    3148.2951    3233.4192    948.16178   -409.32179   -121.62905   -5913.6961 
 4392000     108.1262   -6736.7395   -6458.5914   -6736.7395            0    4051.2168    23.171531     21.35012    21.606022    10688.823    4116.0371    3785.4104    4252.2031    278.54317    664.40442   -18.828743   -5827.0654 
 4393000    106.27117   -6731.8175   -6458.4414   -6731.8175            0    2710.4983    23.323417    21.323506    21.621222    10753.034    1904.3762    3118.1901    3108.9287   -222.24453   -990.19654   -60.648435   -6033.3757 
 4394000     108.6358   -6743.8449   -6464.3859   -6743.8449            0     3481.236    23.181322    21.204473    21.754776    10693.511    3994.3057    3803.9791    2645.4232   -238.53446   -337.08445    609.07748   -5921.4737 
 4395000    113.50864   -6739.7254   -6447.7313   -6739.7254            0    2379.7228     23.27374    21.387364    21.608074    10755.721    2188.0131    2134.8611    2816.2942    311.93973    110.35367   -7.5107805   -6074.4452 
 4396000    108.20631   -6744.6311    -6466.277   -6744.6311            0    3536.7341    23.193853    21.381683    21.610718    10717.265    2666.1612    4035.3946    3908.6466    -14.21714    192.84367     336.3233   -5913.4843 
 4397000    106.67339   -6746.3441   -6471.9333   -6746.3441            0    3056.6022    23.158747    21.412688    21.631319    10726.777    2663.8277    3041.1976    3464.7813    318.34812    65.202999   -44.884998   -5993.7614 
 4398000    103.20716   -6743.3396   -6477.8454   -6743.3396            0    2987.5923    23.253313    21.388486    21.589665    10737.688    2656.6659    2684.7645    3621.3466    691.11604   -122.31972    55.778128    -6009.994 
 4399000    108.81161   -6725.5537   -6445.6424   -6725.5537            0    3496.6114    23.256835    21.295622    21.619632    10707.528    3092.0493     4516.922     2880.863    52.225544      927.794   -408.84853   -5899.6175 
 4400000    106.00325   -6740.5974   -6467.9105   -6740.5974            0    2888.4363    23.231188    21.321825    21.657965    10727.868    3508.1462     2791.427    2365.7355   -952.25328   -357.52257   -257.65937   -6016.0003 
 4401000    109.27341   -6733.0938   -6451.9946   -6733.0938            0    2470.9244    23.202807    21.333812       21.726    10754.464    2280.7017    2692.5769    2439.4946   -892.72271    1000.2525    307.07362   -6064.4478 
 4402000    108.73744   -6753.2589   -6473.5385   -6753.2589            0    3270.6696    23.198536    21.393853     21.56412    10702.403    3656.6248      2810.34    3345.0441    -103.6129   -474.90643   -197.94636   -5963.0407 
 4403000    113.01078   -6740.1186   -6449.4052   -6740.1186            0    2641.0303    23.247561     21.39497    21.653729     10770.15     2779.056    2324.4577    2819.5772   -216.53245   -948.05985   -391.28733   -6034.5744 
 4404000     107.7791   -6734.9426   -6457.6874   -6734.9426            0    4726.4714    23.269099    21.253729    21.581872    10673.425    4207.5907    5378.9692    4592.8544   -356.94571   -290.45153   -196.51739   -5721.9603 
 4405000    103.64429   -6740.4853   -6473.8667   -6740.4853            0    2659.2051     23.26287    21.345637    21.655362    10753.204    2262.6331    2820.2414    2894.7409    1116.8578   -566.65864    105.39428   -6056.8383 
 4406000    105.07732   -6753.5627   -6483.2577   -6753.5627            0    3133.0391     23.08118    21.430074    21.638987    10703.322    3950.3785    2568.8117    2879.9271    49.320201   -140.60216    371.78728   -5994.1998 
 4407000    110.46753   -6753.6132   -6469.4422   -6753.6132            0    2882.9712    23.147003    21.375578    21.679491    10726.591    2277.3521    2948.5819    3422.9796    344.31838   -550.55167    531.74156   -6018.4408 
 4408000    108.41931    -6749.884   -6470.9819    -6749.884            0    4033.1969    23.210501    21.343981    21.580987    10691.318    4083.7097    3641.7117    4374.1693   -871.25954    241.09743   -99.790432   -5842.1181 
 4409000    109.42221   -6743.2164   -6461.7344   -6743.2164            0    2813.3552     23.25105    21.374521    21.663203     10766.18    3184.1682    2882.1826    2373.7148   -996.81535    411.12704   -365.81393   -6019.9992 
 4410000     107.1148   -6741.2501   -6465.7038   -6741.2501            0    4211.8444    23.260752    21.333876     21.53245    10685.306    3691.1348    3894.0318    5050.3667    650.06956   -365.87153   -1.6304891   -5809.3543 
 4411000    106.27546   -6753.7095   -6480.3224   -6753.7095            0    1919.7866    23.271426    21.383491    21.674882    10785.948    1466.1883    1960.4699    2332.7016   -730.70989    966.58211    -141.5666   -6178.3361 
 4412000    106.59925   -6737.6033   -6463.3832   -6737.6033            0    3489.4609     23.20168    21.339414    21.632682    10710.562    3837.8145    2555.0212    4075.5472    202.13336   -180.93007    748.88911   -5918.3205 
 4413000    106.59896   -6738.4153   -6464.1959   -6738.4153            0    3150.0453    23.162212    21.372757    21.668861     10726.96    3750.4871    3026.6957    2672.9532    438.61826   -180.26097    603.63819   -5971.3975 
 4414000    105.06419   -6742.8388   -6472.5676   -6742.8388            0    3530.5267     23.26071    21.302375    21.625881    10715.805    3461.9687    3388.5062    3741.1051   -254.67515   -465.84703   -229.28633   -5920.8203 
 4415000    112.36653   -6751.6296   -6462.5736   -6751.6296            0    3235.7108    23.289679    21.362052     21.58387    10738.306    3280.2716    3095.3055    3331.5554   -297.44099   -579.75307   -402.22151    -5955.838 
 4416000      112.136    -6734.584    -6446.121    -6734.584            0    3928.6188    23.186673    21.373363    21.560965    10685.122    3856.7922    4111.2318    3817.8323   -881.07343     732.5609   -767.67774   -5833.9182 
 4417000    106.07489   -6737.3256   -6464.4544   -6737.3256            0    3882.5633    23.190372     21.33415    21.628385    10700.576    3677.6413     3729.084    4240.9646   -373.76096    148.70229    453.50877   -5858.5535 
 4418000    110.36376   -6733.9682   -6450.0642   -6733.9682            0    2906.9535    23.188358    21.343597    21.678577    10729.226    3147.9288    3205.5596    2367.3721    513.93876   -162.28645    118.55112   -5995.1994 
 4419000    114.67767   -6735.8521   -6440.8508   -6735.8521            0    2340.4097    23.244662    21.313838     21.72436    10762.964    1929.9679    2365.4469    2725.8141    472.37782    771.12744    191.85271   -6073.4842 
 4420000    109.72714   -6748.2665   -6466.0001   -6748.2665            0    3484.8162     23.30402    21.336205    21.555048    10717.587    2859.7565    3646.0538    3948.6384    -826.4327    260.95991   -732.04883   -5921.3058 
 4421000    107.28054   -6740.1278   -6464.1551   -6740.1278            0    2769.7774     23.26259    21.406557    21.620974    10766.639    3145.9284    2304.8104    2858.5933   -802.14655   -443.18001   -109.06612   -6029.2436 
 4422000     107.0404   -6736.4895   -6461.1346   -6736.4895            0    3061.4264    23.231802    21.342939    21.652439    10736.036    3524.9436    2927.1249    2732.2107    619.03081   -464.20398   -374.17175   -5981.7946 
 4423000    106.16749   -6741.4648   -6468.3554   -6741.4648            0    2921.8376    23.267601    21.272089     21.68713    10734.055    2741.8603    3162.7289    2860.9237    1379.3128   -269.26504    -79.62352   -6010.9557 
 4424000    108.63829   -6751.4444    -6471.979   -6751.4444            0    4120.8705    23.211191    21.232552    21.668306    10678.853    4139.6092     4585.205    3637.7974   -1025.9313     248.0221    42.794246   -5830.1942 
 4425000    107.79383   -6738.9505   -6461.6574   -6738.9505            0    3150.0448    23.236427    21.395617    21.580399    10728.861    2966.8957    2941.7076    3541.5312    68.043809    146.78203    430.13163   -5968.7717 
 4426000    104.13811   -6736.4311   -6468.5422   -6736.4311            0    2773.1931    23.173533    21.379156    21.699378    10750.535    3225.7676    2909.1996    2184.6122    381.25218    165.97405    -560.5321   -6033.7457 
 4427000    109.61377   -6726.9651   -6444.9904   -6726.9651            0    2679.4537    23.293099    21.422295    21.547727    10752.136    3165.9605    1464.4513    3407.9494    -613.6548   -88.572633    674.68232   -6024.8282 
 4428000    109.17832   -6735.9443   -6455.0897   -6735.9443            0    2684.4396    23.275771    21.333994    21.612554    10732.041     2339.074    3471.0556    2243.1891   -506.41698   -666.77977    77.503603   -6034.9325 
 4429000    105.99058   -6735.1256   -6462.4713   -6735.1256            0    3064.6646    23.245522    21.276885    21.749683    10757.226    3174.8577    3220.4833    2798.6527    965.83189   -396.34238    492.66866   -5981.6772 
 4430000    111.46098   -6744.0554   -6457.3288   -6744.0554            0    3708.6536    23.207958    21.325007    21.591022     10685.61    3003.0483    3364.3002    4758.6124   -435.65152    778.81174    866.46957   -5879.3772 
 4431000    105.22555    -6736.949   -6466.2627    -6736.949            0    2868.0051    23.230896    21.324342    21.697875    10748.771    3271.9756    2745.7346     2586.305    336.76079     381.4086    668.77044   -6016.6748 
 4432000    113.40687   -6744.0508   -6452.3185   -6744.0508            0    2598.3204    23.202347    21.328109    21.723359    10750.069    4018.6448    1700.1009    2076.2156   -690.69635   -405.34956    187.47519   -6044.9572 
 4433000    102.60098    -6736.494   -6472.5592    -6736.494            0    3148.1924    23.284834    21.377058    21.567596    10735.514    3131.6697    2165.3268    4147.5805   -148.22617   -410.11776    411.81393   -5979.6579 
 4434000    107.22757   -6747.0608   -6471.2244   -6747.0608            0    3103.7674    23.268107    21.380731    21.570095    10730.888    3744.9404    2314.2591    3252.1026   -327.64778   -751.26108   -1077.7199   -5985.4879 
 4435000    107.63039   -6727.7418   -6450.8692   -6727.7418            0    3362.0749    23.214838    21.335009    21.653115    10724.545    3485.0006    3050.4132    3550.8108   -212.16564   -53.717813   -565.10187   -5925.0189 
 4436000    109.26619   -6731.8848   -6450.8042   -6731.8848            0    2747.3389    23.346606    21.399668    21.541359    10762.271     1992.854    3812.9489    2436.2139    -39.56299   -507.06584   -1087.7316    -6019.591 
 4437000    104.42456    -6744.245   -6475.6192    -6744.245            0    3976.0625    23.064127    21.357003    21.732953    10705.232    4856.8264    3763.2843    3308.0767   -208.97949    14.853639    -29.82957   -5854.8572 
 4438000    111.31226   -6732.5021   -6446.1581   -6732.5021            0    2692.6546     23.10156    21.411981      21.7066    10737.173    3244.4111    1854.7997     2978.753    121.88635    447.90357    669.98705   -6024.5135 
 4439000    107.23661   -6757.2417   -6481.3821   -6757.2417            0    2494.2764    23.228091    21.355964    21.626592     10728.05    2372.5371    1906.2367    3204.0555   -237.28392    904.35738    816.14466   -6091.1336 
 4440000    111.41258   -6726.0409   -6439.4389   -6726.0409            0    2221.8632    23.359549    21.243859    21.702561     10769.83    2224.1497    2653.5951    1787.8449   -645.30094   -369.47425   -183.71017   -6090.4576 
 4441000    107.10092   -6725.0549   -6449.5443   -6725.0549            0    2257.0016    23.376332    21.253458    21.683982    10773.207    1469.1649    2927.4713    2374.3685   -5.1838414    195.54887   -265.12342   -6094.9328 
 4442000    108.38999   -6735.5726    -6456.746   -6735.5726            0    3292.6443    23.156913    21.454578    21.596999     10729.86    3788.6641     2087.887    4001.3817   -261.39365   -277.15841   -88.106495   -5941.4998 
 4443000    105.55539   -6737.7205   -6466.1857   -6737.7205            0    3425.6076    23.049771    21.497357    21.614495     10710.18    3532.5805     2724.321    4019.9213    266.28357   -15.764724    164.28425   -5931.1161 
 4444000    108.24738   -6738.0831   -6459.6233   -6738.0831            0    3500.1322    23.320239    21.270362    21.570064    10699.397    3344.0458    2791.2092    4365.1415    73.241534    438.04876    1273.8195   -5913.4637 
 4445000    110.67314   -6737.6287   -6452.9288   -6737.6287            0    3276.5406    23.264575    21.165908    21.769621    10719.707     3316.252    4120.6136    2392.7564   -54.336125   -225.03767   -101.22849   -5940.6878 
 4446000    106.67835   -6739.1816   -6464.7581   -6739.1816            0    3034.3228    23.281361    21.278768    21.688105    10744.259    2973.4462    2476.3885    3653.1336     92.05662   -118.93206    1012.4766   -5989.2979 
 4447000    108.76516   -6737.5905   -6457.7987   -6737.5905            0    2560.6027    23.231943    21.496424     21.51068    10742.513    2242.8811    1931.6274    3507.2995   -187.37726    680.78197   -195.19154   -6056.6329 
 4448000    112.37963   -6744.3445   -6455.2547   -6744.3445            0    2957.7876    23.151026    21.438957     21.62597    10733.701    3088.9474    3080.4109    2704.0044   -118.29483     103.2742   -936.23023   -5992.2426 
 4449000    107.16712   -6729.2798   -6453.5989   -6729.2798            0    2507.6322    23.313504    21.378935    21.602976     10767.31    2950.0835    2128.4166    2444.3964   -116.19691    48.819214   -298.08051    -6059.825 
 4450000    105.37035   -6741.3745   -6470.3157   -6741.3745            0    3144.7394    23.371099    21.230168    21.628727    10731.576    2838.1023    3603.9437    2992.1724   -436.83646    381.43506   -848.76007   -5978.1355 
 4451000    108.77817   -6738.7154   -6458.8902   -6738.7154            0    3966.1473    23.221195    21.215252    21.717822    10699.144    3023.3871    4537.4015    4337.6533   -415.27427    608.40187    299.61086   -5840.0283 
 4452000    111.10154   -6747.9035   -6462.1015   -6747.9035            0     3934.727    23.161199    21.388314     21.58261    10691.572    4218.1379     3124.416    4461.6269   -228.64853   -395.65968      531.865   -5848.5769 
 4453000    105.73474    -6757.216   -6485.2198    -6757.216            0    2667.8866    23.148006     21.43161    21.638578    10734.877    3174.5603    2197.1055    2631.9938    590.12572   -137.54022   -459.16593   -6067.5431 
 4454000    106.34893   -6742.3721    -6468.796   -6742.3721            0    2382.0041    23.108229    21.417842    21.758105    10768.704    3703.0575     2306.575    1136.3799   -190.90988   -492.13709   -946.07812   -6094.7011 
 4455000    105.20904   -6740.2105   -6469.5666   -6740.2105            0    2691.4667    23.292849    21.332203    21.628163     10746.77    2306.8761    2738.5708    3028.9531   -609.57544    171.90384    146.76073   -6047.7314 
 4456000    101.37904   -6740.7167   -6479.9253   -6740.7167            0    2462.9637    23.342741    21.271768    21.639674    10744.993    1650.6335    2996.0062    2742.2514    361.82855    -566.8674    97.007375   -6093.9673 
 4457000    106.02531   -6746.8464   -6474.1027   -6746.8464            0    3209.0878    23.131943    21.304414    21.736415    10711.977    3615.6747    2053.6797    3957.9089    952.22711    92.685228    1107.7708   -5972.7688 
 4458000    110.99145   -6746.8592   -6461.3404   -6746.8592            0    3022.6718    23.135209    21.411133    21.633276    10716.066    3507.0729    2476.3886    3084.5538    284.49082   -146.47788    407.98894   -5988.9487 
 4459000    112.12418   -6742.6029   -6454.1703   -6742.6029            0    3569.3227    23.143935    21.398718    21.626452    10710.512    3001.1919    3413.8701    4292.9062   -874.31588    395.00493   -70.607553   -5896.6355 
 4460000    109.82154   -6747.1728   -6464.6636   -6747.1728            0    3050.8967    23.251962    21.402588    21.557239    10728.007    2086.7837    3111.9387    3953.9676    409.63591   -86.978418    125.68671   -5987.3295 
 4461000     109.7416   -6738.1891   -6455.8855   -6738.1891            0    2235.9289    23.362169    21.257044    21.676911    10764.985    2216.2948    2694.2562    1797.2356    140.47631    13.129281   -135.33297   -6104.8531 
 4462000    105.36391   -6742.7071   -6471.6648   -6742.7071            0    2809.2609    23.232923    21.277073    21.717029    10735.349    3355.7019    2631.3386    2440.7421   -852.10589    522.20939   -3.4307066   -6031.8356 
 4463000    107.25032     -6743.81    -6467.915     -6743.81            0     2545.686    23.265081    21.354076    21.625481    10743.632    2683.3982    1996.5889    2957.0709    303.98179   -348.42076    1254.6108   -6069.0446 
 4464000    110.56686   -6747.7671   -6463.3406   -6747.7671            0    3427.0572    23.020894    21.413909    21.767788    10730.808    3828.6328    3373.8322    3078.7066   -26.253556    876.14437   -331.28622   -5927.0135 
 4465000    103.74381   -6745.9695   -6479.0949   -6745.9695            0     3930.198    23.191862    21.455166    21.479189    10687.727    4397.4495    3562.4606    3830.6838   -5.6527635   -405.27033   -138.69937   -5866.4967 
 4466000     110.2868   -6748.5837   -6464.8776   -6748.5837            0    2625.1602    23.212123    21.364586    21.681163    10752.066    2810.2174    2511.0934    2554.1699   -550.81147   -362.11363    250.99092   -6053.2319 
 4467000    108.05493   -6738.7985   -6460.8338   -6738.7985            0    4198.5411    23.334422    21.166517    21.629034    10682.762    4261.9419    4208.8008    4124.8805    231.76455   -917.08021   -400.45365   -5806.7131 
 4468000    110.52844   -6736.0277      -6451.7   -6736.0277            0    3604.4928    23.293393    21.271289    21.588533    10696.697    2870.5422    3341.6106    4601.3257   -259.71668    314.14091   -80.376133   -5889.3978 
 4469000     104.8766   -6736.0326   -6466.2439   -6736.0326            0    3111.7891    23.149557    21.380396    21.694258    10737.501    3438.7829    3060.8469    2835.7375   -96.863596   -76.160241    195.50074   -5978.9519 
 4470000    106.42532   -6756.2333   -6482.4606   -6756.2333            0    1916.3527    23.227168    21.460426    21.626738     10780.17     1960.598    2083.7019    1704.7583   -453.17663   -115.89496    -683.0447    -6181.176 
 4471000    104.97294   -6739.1294   -6469.0929   -6739.1294            0    2766.9519    23.238324    21.355493    21.610058    10724.334    2305.1361    2709.5205     3286.199   -287.87726    689.88996    237.42859   -6036.3322 
 4472000    108.84806    -6748.817    -6468.812    -6748.817            0    3454.3975    23.206491    21.263181    21.695531    10705.526    3480.7371    3123.5194    3758.9361    1040.7984   -487.14042    706.95644     -5929.48 
 4473000    106.74696    -6748.618    -6474.018    -6748.618            0    2840.1777     23.25407    21.332791    21.636686    10733.402    3019.7816    2751.6145     2749.137   -677.58121   -23.293141    294.19493   -6029.4289 
 4474000    111.29727   -6733.0417   -6446.7363   -6733.0417            0    3647.4351    23.200362    21.270818    21.696147    10706.846    3908.8317    3512.2257    3521.2479   -624.24769   -1051.3229    28.900153   -5877.1952 
 4475000    109.82792   -6752.6339   -6470.1083   -6752.6339            0    2195.5875     23.29716    21.384459    21.604134    10763.118    1905.5762    2608.8608    2072.3253    795.19648    -7.117592    -771.2641   -6125.4691 
 4476000    108.12791   -6743.9263   -6465.7739   -6743.9263            0    2969.1621    23.206134    21.388143    21.609897    10725.773    2742.9557    3599.3963    2565.1343   -461.04385   -788.16733   -1122.8801   -6001.3245 
 4477000    110.89984    -6727.227   -6441.9439    -6727.227            0     2373.388    23.284193    21.451894    21.585042    10781.513    1344.8216    2164.2457    3611.0967    283.53358    443.44191    342.04847   -6068.7588 
 4478000    108.42523    -6725.443   -6446.5257    -6725.443            0    3197.2375    23.245792    21.307542    21.656242    10726.568     3366.461     3309.991    2915.2605   -475.04744    49.566673    317.41388   -5946.3626 
 4479000    109.79149   -6741.4109    -6458.979   -6741.4109            0    2314.8795    23.258949    21.319833    21.713348    10767.148    1180.7066     2479.355    3284.5769    245.07879    147.03995    1034.3026   -6095.4785 
 4480000    113.42418   -6742.8211   -6451.0443   -6742.8211            0    2416.2051    23.228833    21.433053    21.563683    10735.799    2531.9687    1723.9248    2992.7218   -248.15232   -53.647927    706.62902   -6072.7376 
 4481000    109.72533   -6730.5162   -6448.2545   -6730.5162            0    3477.7245    23.164932    21.343253    21.679363    10718.602    3979.1527    3634.2823    2819.7385     655.7371   -146.19386   -135.64171   -5904.6173 
 4482000    106.48616   -6730.1173   -6456.1881   -6730.1173            0    3774.0842    23.207261    21.347836    21.595218    10698.806    4409.1214    3603.5293    3309.6019   -201.45515   -60.276573    93.057174   -5867.3135 
 4483000     104.9089   -6740.9819   -6471.1102   -6740.9819            0    2978.4765    23.224003    21.434253    21.570872    10737.747    2723.7951    3518.1784     2693.456   -239.13961    361.86432   -701.71625   -6004.6837 
 4484000    108.36378   -6738.8867   -6460.1275   -6738.8867            0    2497.4017    23.187032    21.383376    21.691239    10754.886    3307.2039    2567.1287    1617.8724   -743.73974    568.44015   -726.17071   -6068.4126 
 4485000    106.61643   -6742.0076   -6467.7433   -6742.0076            0    1817.7489    23.314711    21.391366    21.597257    10771.276    1207.4224    1882.5836    2363.2406   -467.96948     590.5186   -172.42676   -6182.1967 
 4486000    105.67345   -6737.8251   -6465.9866   -6737.8251            0    3270.2151    23.266508    21.282888     21.63445    10712.914    3745.0152    3296.6707    2768.9593   -107.11546   -294.11145   -397.36842   -5955.0584 
 4487000    101.71092   -6735.2646   -6473.6195   -6735.2646            0    3190.3683     23.17085    21.357568    21.676816    10727.271    2934.9462    3673.5055    2962.6531   -305.99492    76.324265   -520.66545   -5974.4983 
 4488000    112.87602   -6738.9234   -6448.5567   -6738.9234            0     3714.844    23.146598    21.334353    21.661954    10697.056    3447.8642    4016.9522    3679.7157    916.92517   -116.26375     761.6623   -5869.0203 
 4489000    103.22912   -6729.2208   -6463.6702   -6729.2208            0    2414.2827    23.245574    21.360875    21.698916    10774.506    2418.1466    2925.3414    1899.3601   -89.396058   -851.66349    88.362861   -6084.3016 
 4490000    109.33307   -6738.1423   -6456.8896   -6738.1423            0    3377.8892    23.274401    21.309639    21.584937    10705.461     2901.187    3585.7175     3646.763     70.57078   -460.06358   -230.99014    -5929.506 
 4491000    110.40701   -6752.1184   -6468.1031   -6752.1184            0    2882.7446    23.230906    21.345206    21.671485    10746.206    3429.4264    2426.4551    2792.3523   -344.20369   -1039.1611   -272.34704   -6016.3125 
 4492000    107.87823   -6746.0726   -6468.5624   -6746.0726            0    3533.4574    23.188256    21.386765    21.597299    10710.571     3589.504    3382.6819    3628.1865   -144.27411    128.56645    347.84588   -5916.6268 
 4493000    109.75989   -6740.9112   -6458.5606   -6740.9112            0    2841.9884    23.221205    21.373031    21.634964    10737.596    2702.6582    2931.3413    2891.9658    718.96524   -81.053487     77.95628   -6013.5142 
 4494000    109.21865   -6745.2432   -6464.2849   -6745.2432            0    1306.4101    23.259971    21.370066    21.711247    10791.947     1122.557    1604.2202     1192.453   -211.21277    830.45042   -163.64226   -6258.6697 
 4495000     114.1942   -6736.5593   -6442.8016   -6736.5593            0    3776.2453    23.255182    21.298802    21.608892    10703.047    3299.8816    3832.4942      4196.36    -15.79419   -456.94536    267.85245   -5853.3563 
 4496000    106.20858   -6741.0368   -6467.8217   -6741.0368            0    3210.3079    23.237724    21.340934    21.591533     10707.56     3035.645    3209.0963    3386.1823    1147.0333   -498.83852    296.90675    -5966.504 
 4497000    108.97047   -6741.3697   -6461.0498   -6741.3697            0    2528.0306    23.162623    21.384876    21.694031      10745.7    2058.4155    2821.6497    2704.0266   -297.22434    719.04064    -299.7152   -6064.8695 
 4498000    107.50071   -6735.4089   -6458.8699   -6735.4089            0    2446.4478    23.164446    21.453865    21.662678    10765.634    3009.5936    1991.3522    2338.3975    -65.86649    -127.1945    599.42729   -6074.7635 
 4499000    108.79944   -6746.9879    -6467.108   -6746.9879            0    3554.0421    23.178897    21.375793    21.597667    10700.937    3997.6511    3299.4255    3365.0498   -373.54523    169.69664   -343.82041   -5912.4564 
 4500000    111.01588   -6723.6601   -6438.0785   -6723.6601            0    3157.9486    23.315907    21.294902    21.667962    10758.359    2881.2365    3037.4976    3555.1117    761.32788   -30.259128    473.00788   -5942.5976 
Loop time of 525.752 on 64 procs for 250000 steps with 1296 atoms

Performance: 82.168 ns/day, 0.292 hours/ns, 475.510 timesteps/s
99.1% CPU use with 64 MPI tasks x 1 OpenMP threads

MPI task timing breakdown:
Section |  min time  |  avg time  |  max time  |%varavg| %total
---------------------------------------------------------------
Pair    | 29.523     | 40.859     | 52.652     | 114.0 |  7.77
Bond    | 0.28365    | 0.29147    | 0.2999     |   0.7 |  0.06
Kspace  | 265.14     | 277.8      | 289.3      |  44.1 | 52.84
Neigh   | 1.4555     | 1.4761     | 1.4974     |   0.9 |  0.28
Comm    | 89.178     | 91.224     | 94.699     |  18.2 | 17.35
Output  | 0.63641    | 0.63818    | 0.64026    |   0.1 |  0.12
Modify  | 100.58     | 103.19     | 106.35     |  14.0 | 19.63
Other   |            | 10.27      |            |       |  1.95

Nlocal:        20.2500 ave          27 max          14 min
Histogram: 6 9 4 9 2 7 15 4 3 5
Nghost:        2616.31 ave        2646 max        2585 min
Histogram: 4 1 6 5 11 16 8 8 4 1
Neighs:        6491.84 ave        8679 max        4433 min
Histogram: 5 10 6 6 3 8 12 6 3 5

Total # of neighbors = 415478
Ave neighs/atom = 320.58488
Ave special neighs/atom = 2.0000000
Neighbor list builds = 2821
Dangerous builds = 0

unfix		3
unfix		2
unfix		1

write_data	data.final.${pid}
write_data	data.final.0
System init for write_data ...
PPPM initialization ...
  extracting TIP4P info from pair style
  using 12-bit tables for long-range coulomb (../kspace.cpp:340)
  G vector (1/distance) = 0.36627608
  grid = 30 40 32
  stencil order = 5
  estimated absolute RMS force accuracy = 0.0047992443
  estimated relative force accuracy = 1.4452782e-05
  using double precision FFTW3
  3d grid and FFT values/proc = 5168 640
Last active /omp style is kspace_style pppm/tip4p/omp
WARNING: Not all mixed pair coeffs generated from mixing. Use write_data with 'pair ij' option to store all pair coeffs. (../write_data.cpp:312)

write_restart   restart.lmp.${pid}
write_restart   restart.lmp.0
System init for write_restart ...
PPPM initialization ...
  extracting TIP4P info from pair style
  using 12-bit tables for long-range coulomb (../kspace.cpp:340)
  G vector (1/distance) = 0.36627608
  grid = 30 40 32
  stencil order = 5
  estimated absolute RMS force accuracy = 0.0047992443
  estimated relative force accuracy = 1.4452782e-05
  using double precision FFTW3
  3d grid and FFT values/proc = 5168 640
Last active /omp style is kspace_style pppm/tip4p/omp
Total wall time: 0:08:45
