LAMMPS data file via write_data, version 30 Jul 2021, timestep = 21500000

1296 atoms
2 atom types
864 bonds
1 bond types
432 angles
1 angle types

-10.65265688266248 12.63265688266248 xlo xhi
-9.243049815365618 12.233047815365618 ylo yhi
0.09209806175401347 21.767900938247163 zlo zhi
-9.177705530743966 1.8077626769960762 2.882340770746753 xy xz yz

Masses

1 1.008
2 15.999

Pair Coeffs # lj/cut/tip4p/long/omp

1 0 0
2 0.21084 3.1668

Bond Coeffs # harmonic/omp

1 450 0.9572

Angle Coeffs # harmonic/omp

1 55 104.52

Atoms # full

280 94 2 -1.1794 -9.631159285387984 -4.596965511912156 1.4905915992974268 1 1 0
270 90 1 0.5897 -8.6002519780988 -7.353053541177328 2.143016806069448 1 1 0
269 90 1 0.5897 -9.438540114543011 -6.137529039105102 2.476646053986498 1 1 0
268 90 2 -1.1794 -9.346425759476396 -7.070074002095279 2.6714876354833312 1 1 0
314 105 1 0.5897 -8.924683426534362 -6.843626817735387 4.5519630337580255 1 1 0
299 100 1 0.5897 -6.56460683235593 -7.91269354997716 4.252345795626831 1 1 0
163 55 2 -1.1794 -7.246381881839827 -8.090315285357462 0.9171572619104267 1 1 0
164 55 1 0.5897 -6.438983541840073 -8.462750004299764 1.2714925830737582 1 1 0
298 100 2 -1.1794 -5.96825021559501 -7.1640268083649 4.254725479045732 1 1 0
73 25 2 -1.1794 -8.555272310300328 -3.821852805920103 4.812013094583251 1 0 0
324 108 1 0.5897 -7.150367173878265 -4.374112352762661 3.7157119874577504 1 1 0
300 100 1 0.5897 -5.095798718216704 -7.551931797816081 4.187960806870122 1 1 0
282 94 1 0.5897 -10.496698244743298 -4.2055154641043115 1.3734281600447207 1 1 0
199 67 2 -1.1794 0.48905721858678497 -7.824780985657321 0.9187894924137217 1 1 0
227 76 1 0.5897 0.9328960835091546 -7.878867504629108 4.121769406810963 0 1 0
293 98 1 0.5897 -5.186586757337412 -3.8139940131718335 2.3383169915352293 1 1 0
260 87 1 0.5897 -6.795350190062975 -6.33632161196058 0.456287354592882 1 1 0
281 94 1 0.5897 -9.033184485959726 -3.8505036055053123 1.5279293920740684 1 1 0
322 108 2 -1.1794 -6.417813381742226 -4.706772717007654 3.197218239310843 1 1 0
323 108 1 0.5897 -6.282381602352677 -5.598413322344747 3.517730867415526 1 1 0
261 87 1 0.5897 -6.788600758200029 -5.098737774266737 1.3281878425787859 1 1 0
310 104 2 -1.1794 -3.48683754416718 -8.320901139066592 3.9057041573334703 1 1 0
306 102 1 0.5897 -0.7142880154897728 -7.289602215796835 2.0371246465091017 1 1 0
304 102 2 -1.1794 -1.4309817408181686 -6.977416441626126 2.5894184642488813 1 1 0
318 106 1 0.5897 -2.809848977254882 -4.192388074967107 1.7035353177593104 1 1 0
242 81 1 0.5897 -1.2390787823042313 -6.585815350487044 4.310378215094585 0 1 0
305 102 1 0.5897 -1.6039847783477317 -6.088894677209486 2.278469401125533 1 1 0
316 106 2 -1.1794 -1.9479831418166036 -4.545386392088231 1.482892732394028 1 1 0
311 104 1 0.5897 -2.7649460295932453 -7.920885426284317 3.4209310460585143 1 1 0
259 87 2 -1.1794 -6.741025940260472 -5.381624704508798 0.4149366026540813 1 1 0
75 25 1 0.5897 -9.288688038120801 -3.368850338413999 4.396021235912824 1 0 0
315 105 1 0.5897 -8.75761504122383 -5.5184204041925025 5.264532134064093 1 1 0
317 106 1 0.5897 -1.3737166390793618 -3.7799602639315433 1.4603716744151927 1 1 0
243 81 1 0.5897 -0.982880114788129 -5.331195206738046 5.117962125490407 0 1 0
165 55 1 0.5897 -7.532769655457717 -8.721894307939658 0.2573155514817882 1 1 0
241 81 2 -1.1794 -1.2013251591195715 -6.2586008992607365 5.209175741497482 0 1 0
313 105 2 -1.1794 -8.753065916199592 -6.463837828809147 5.413733082023157 1 1 0
1177 393 2 -1.1794 -3.0350359800357554 -8.963358125254148 0.09233733543303917 0 0 1
201 67 1 0.5897 0.18014451641689888 -8.40783124651394 0.2252967164043109 1 1 0
420 140 1 0.5897 -9.32122129660792 -6.11001934800923 9.887807288521108 1 0 0
618 206 1 0.5897 -7.827701275884062 -7.480682641898697 6.678297718157396 1 1 0
413 138 1 0.5897 -7.468227767501672 -3.6149885606706906 7.820236951794129 1 0 0
419 140 1 0.5897 -8.79641765987735 -5.397367793247046 8.659588748884104 1 0 0
418 140 2 -1.1794 -9.608240392552707 -5.661672824090296 9.092292153148797 1 0 0
414 138 1 0.5897 -6.570697356941063 -4.8283670742019975 7.703377828551824 1 0 0
350 117 1 0.5897 -7.22158373695847 -4.172060654510953 9.952384263330313 0 0 0
412 138 2 -1.1794 -7.249458217101832 -4.439266376687323 8.25476281300631 1 0 0
429 143 1 0.5897 -6.356715720599638 -7.356386115897784 8.803918462400466 1 0 0
427 143 2 -1.1794 -6.024771148247238 -6.98745124321 9.622482864764065 1 0 0
428 143 1 0.5897 -6.7641656384892705 -7.042494720442489 10.227813584744885 1 0 0
335 112 1 0.5897 -4.7877732375133055 -5.490302871005851 9.534763556925876 0 0 0
627 209 1 0.5897 -10.509566252387303 -6.968357182828846 6.2705553130918235 1 1 0
555 185 1 0.5897 -2.553243085144741 -6.772056150236517 6.2062420796053415 0 1 0
356 119 1 0.5897 1.2072498742375437 -7.3236230094074095 10.11967228062232 0 0 0
631 211 2 -1.1794 -5.33805283890636 -5.449697655803784 6.424835135605298 1 1 0
404 135 1 0.5897 -5.172047180863297 -3.6446827725396 5.723616192041728 1 0 0
347 116 1 0.5897 -0.9393031792840318 -5.709887512522229 8.549942568710467 0 0 0
348 116 1 0.5897 -1.3028801784159665 -6.727425265101504 9.610201917346743 0 0 0
336 112 1 0.5897 -3.286589153155636 -5.394541707891035 9.364634463516564 0 0 0
359 120 1 0.5897 -4.373284623997251 -3.16272528671859 8.694281054020687 0 0 0
346 116 2 -1.1794 -1.6887565499450066 -6.095856353001301 9.003257602189413 0 0 0
632 211 1 0.5897 -4.540611493982641 -5.91111186961048 6.684284658905541 1 1 0
546 182 1 0.5897 -0.016327161109273902 -7.348006806592492 6.5342947197310135 0 1 0
553 185 2 -1.1794 -3.1237749110178026 -7.082170504100912 6.909448750824244 0 1 0
554 185 1 0.5897 -2.6675459190078525 -6.836983783948087 7.714482807283604 0 1 0
334 112 2 -1.1794 -4.055649893594962 -4.877648028369387 9.604339001315783 0 0 0
544 182 2 -1.1794 0.3710964301497075 -7.94886165070808 7.170728274661199 0 1 0
616 206 2 -1.1794 -7.356903354565861 -8.011534613527033 7.32074401856346 1 1 0
349 117 2 -1.1794 -7.153418016036179 -3.906357594875078 10.869491352425657 0 0 0
351 117 1 0.5897 -6.929731734460823 -2.976401725872188 10.833938273815056 0 0 0
626 209 1 0.5897 -10.67414884581321 -6.657666683378255 7.743129474799912 1 1 0
633 211 1 0.5897 -5.67207900795391 -5.948298364201722 5.679079797923882 1 1 0
74 25 1 0.5897 -8.305641714463606 -3.2548909409910607 5.541772673446114 1 0 0
652 218 2 -1.1794 -5.821574217535135 -5.584834828923066 12.60749219333966 0 0 0
780 260 1 0.5897 -7.451466465882054 -3.855283893741124 15.274418890151297 0 0 0
779 260 1 0.5897 -7.304998850508936 -2.765919798047534 14.233483818383977 0 0 0
778 260 2 -1.1794 -7.953248129775804 -3.3373944244586724 14.64497698967595 0 0 0
768 256 1 0.5897 -9.520537910520353 -2.6248929162075427 14.909610401248337 0 0 0
654 218 1 0.5897 -6.25339910646381 -4.980945520467886 12.003327478854102 0 0 0
653 218 1 0.5897 -6.5161831268473875 -6.180122802505742 12.889090567495755 0 0 0
662 221 1 0.5897 -9.058143343679593 -4.019328052588229 13.242684385106273 0 0 0
661 221 2 -1.1794 -9.394305465647868 -4.162037274803488 12.357822309496195 0 0 0
663 221 1 0.5897 -8.657682431198072 -3.9508693147973286 11.784278537556695 0 0 0
684 228 1 0.5897 -8.641476452052709 -6.581950018544637 14.420878341183068 0 0 0
682 228 2 -1.1794 -7.9337767328076865 -7.025138128080657 13.95304492082688 0 0 0
774 258 1 0.5897 -5.342812360787685 -2.2474993885348855 12.79549121394531 0 0 0
740 247 1 0.5897 -10.887292118786398 -3.1115773636392863 12.079984427959246 1 0 0
788 263 1 0.5897 -5.0572649490456945 -4.639068867255756 15.427885461961125 0 0 0
766 256 2 -1.1794 -10.39019991870888 -2.2299423504534444 14.847913721173473 0 0 0
727 243 2 -1.1794 -8.332742776822244 -7.24066958287213 11.215172380781956 1 0 0
729 243 1 0.5897 -8.308048251541491 -6.950546416051569 12.127063085455477 1 0 0
787 263 2 -1.1794 -4.3902085778659625 -4.639487858481151 14.741436459115356 0 0 0
789 263 1 0.5897 -4.869441948758173 -4.854390177417235 13.941128022589604 0 0 0
326 109 1 0.5897 -3.3478397858148217 -7.7741091338052275 10.943086198960158 0 0 0
667 223 2 -1.1794 -4.173420201897642 -3.138958303494074 11.683577113270033 0 0 0
678 226 1 0.5897 -4.046352508220147 -6.255551839735568 12.253489384844798 0 0 0
676 226 2 -1.1794 -3.1411721208675205 -6.5507117609203975 12.35175983693658 0 0 0
814 272 2 -1.1794 -0.1582524005383874 -3.4201804906934283 14.876172529674562 0 0 0
657 219 1 0.5897 -0.37452581355507597 -7.1929475591377585 11.825199081107385 0 0 0
669 223 1 0.5897 -4.3151814822091445 -3.7536041069079378 10.963568889592073 0 0 0
803 268 1 0.5897 -3.2875152382181083 -3.039952128333659 14.817943662095322 0 0 0
795 265 1 0.5897 -2.9139507939470857 -5.565263374650096 15.10658791012586 0 0 0
720 240 1 0.5897 -0.8113480954671708 -6.45744344639693 14.141186502232568 0 0 0
804 268 1 0.5897 -1.8120143188607152 -2.7659858879901416 15.017010178458667 0 0 0
698 233 1 0.5897 -1.2231105494553756 -3.986757473951015 13.406926521447545 0 0 0
699 233 1 0.5897 -1.0666089901397076 -4.013673373782185 11.901316608479135 0 0 0
697 233 2 -1.1794 -1.7126293314512981 -4.133109723567093 12.597423978049328 0 0 0
718 240 2 -1.1794 -0.22046057280637577 -6.959356707898454 13.579871318524427 0 0 0
677 226 1 0.5897 -2.6230344948646866 -5.7461220108393105 12.333633413127066 0 0 0
668 223 1 0.5897 -3.3468396229620305 -3.4174473382981825 12.07776494034817 0 0 0
793 265 2 -1.1794 -2.046650559563261 -5.844847348086658 15.399430759222676 0 0 0
816 272 1 0.5897 0.27884143269822914 -3.9295954246883706 15.558530879441285 0 0 0
802 268 2 -1.1794 -2.654455747823266 -2.326807908874448 14.900698507844 0 0 0
767 256 1 0.5897 -10.974586322711307 -2.9643791424069983 14.660076660382558 0 0 0
655 219 2 -1.1794 -0.4293664742198118 -7.665821259383349 10.994719718812734 0 0 0
794 265 1 0.5897 -1.8260076589264767 -5.240203463555517 16.107969855622002 0 0 0
1150 384 2 -1.1794 -6.376887848719692 -4.249659612986285 19.335311679775025 0 0 0
1152 384 1 0.5897 -7.018693373657181 -3.8797155231508427 19.94143325426053 0 0 0
1227 409 1 0.5897 -9.131467750963942 -2.904380931395881 20.73575459356377 0 0 0
1109 370 1 0.5897 -8.938766746898287 -3.353960662071283 17.689770265488498 0 0 0
1089 363 1 0.5897 -6.4390642518963705 -4.393346602797202 17.42721571660256 0 0 0
1151 384 1 0.5897 -6.202980796667723 -5.127001010472962 19.676079776106775 0 0 0
1108 370 2 -1.1794 -9.484529136127687 -4.1384129006232 17.635552157873796 0 0 0
1225 409 2 -1.1794 -8.346851983072312 -3.3602585629131507 21.040205555890694 0 0 0
1165 389 2 -1.1794 -0.011661038907735843 -2.0716710851348967 17.726168034245205 0 0 0
1178 393 1 0.5897 -1.2244367455961953 -6.426737464492035 20.8755087753008 0 0 0
1132 378 2 -1.1794 -1.2191938218616247 -6.6744021354767735 19.037816049891262 0 0 0
1110 370 1 0.5897 -10.378293569472445 -3.8042679564338346 17.560395076931833 0 0 0
1124 375 1 0.5897 0.8855120087712169 -5.951108568642561 16.61561793103766 0 0 0
1145 382 1 0.5897 -1.2167470974707157 -3.5141289970120653 17.813702786543317 0 0 0
1122 374 1 0.5897 -4.5966896895008285 -2.292896639441877 17.534556033809572 0 0 0
1219 407 2 -1.1794 -10.565374649257638 -1.7929328448603545 20.2259304763557 0 0 0
1087 363 2 -1.1794 -6.572869704608816 -4.674315489271167 16.521955515438513 0 0 0
1121 374 1 0.5897 -4.960230609646098 -3.3538619830837053 18.55136468058629 0 0 0
1248 416 1 0.5897 -5.894095319490081 -1.4416877835348352 20.899330778100826 0 0 0
1186 396 2 -1.1794 1.4509523421320303 -4.429940853847034 19.30625576245731 0 0 0
1125 375 1 0.5897 1.395518786404022 -4.8125573407487074 17.473265921100065 0 0 0
1187 396 1 0.5897 1.648564309182012 -5.298477375105687 19.65652583532904 0 0 0
1129 377 2 -1.1794 -7.975853611723462 -1.8840963204244723 17.842495488865993 0 0 0
1142 381 1 0.5897 -8.858386313991828 -6.360914051644837 20.660728586777786 0 0 0
1221 407 1 0.5897 -11.004341652219034 -2.0029093171052983 19.401573253436737 0 0 0
1097 366 1 0.5897 -9.299717887623515 -5.800415482196675 18.647626225436262 0 0 0
1144 382 2 -1.1794 -1.8266061063610337 -4.251708433063206 17.799025962837185 0 0 0
1263 421 1 0.5897 -1.388353397343126 -3.155692748491763 20.536033774334193 0 0 0
1133 378 1 0.5897 -1.3834666585962143 -5.868042339344382 18.54902874130582 0 0 0
1188 396 1 0.5897 0.7771131230952673 -4.083088730747544 19.890881188290194 0 0 0
1257 419 1 0.5897 -3.369572618903087 -2.143113036204313 19.568305554848557 0 0 0
1255 419 2 -1.1794 -2.8987650387997963 -1.9470336211579777 20.378389605156087 0 0 0
1261 421 2 -1.1794 -0.6353517434751677 -3.5757535492346832 20.951605824317667 0 0 0
1256 419 1 0.5897 -3.5251148900747484 -2.146140389439884 21.074246556716297 0 0 0
1120 374 2 -1.1794 -4.209966854443883 -2.9361449403116993 18.12855830010283 0 0 0
1146 382 1 0.5897 -2.6874537450702523 -3.853964391463096 17.928765741444558 0 0 0
1131 377 1 0.5897 -7.258114880410529 -1.6570561247852629 17.251342913100444 0 0 0
1088 363 1 0.5897 -6.850323769776361 -5.587630928192442 16.59265561466251 0 0 0
1262 421 1 0.5897 -0.3103579011897075 -2.924838802169191 21.573685439977893 0 0 0
1179 393 1 0.5897 -1.0499265091040506 -5.146235994219571 21.664003917177077 0 0 0
1143 381 1 0.5897 -8.729411000027365 -5.16247752081928 21.576717189067104 0 0 0
1130 377 1 0.5897 -7.599980934929112 -1.8019838033283877 18.719034767255025 0 0 0
1226 409 1 0.5897 -7.9730988639863885 -2.7788090452613936 21.702427086745004 0 0 0
1141 381 2 -1.1794 -8.807808368690914 -6.116364139775644 21.584835831944226 0 0 0
758 253 1 0.5897 -9.791024220353508 -5.354303679067373 16.376104727728794 0 0 0
1123 375 2 -1.1794 1.2075641805945931 -5.051163578895467 16.565476627338967 0 0 0
292 98 2 -1.1794 -4.389546679882894 -3.4565059736375607 1.947066815639644 1 1 0
94 32 2 -1.1794 -6.486764443304601 -1.557774470617379 3.71843200949855 1 0 0
84 28 1 0.5897 -8.273222127152117 -0.6107212136428384 3.9875799494312267 1 0 0
59 20 1 0.5897 -13.656984656405047 -1.015250134486875 3.2260416774321232 1 0 0
26 9 1 0.5897 -4.2953298679720735 0.4307113188809861 4.385847580786118 0 0 0
301 101 2 -1.1794 -7.874768064064412 -2.5263470051162553 1.476004999428079 1 1 0
256 86 2 -1.1794 -12.131131343992221 -3.3988815595232156 1.6000872817718121 1 1 0
69 23 1 0.5897 -11.349240537282672 -2.854458625101576 3.186933547829326 1 0 0
272 91 1 0.5897 -9.437925010742477 -1.4760144583054826 1.0664996087891012 1 1 0
83 28 1 0.5897 -9.739154274768143 -0.8589605222474415 4.272350510724383 1 0 0
82 28 2 -1.1794 -9.094906255802936 -0.1576184071086768 4.1763357929713285 1 0 0
271 91 2 -1.1794 -10.274312764713068 -1.121139645786112 0.7653874554143715 1 1 0
98 33 1 0.5897 -11.956410650774107 0.4934054425170782 4.4399201024339385 1 0 0
54 18 1 0.5897 -11.481586094818043 -0.45629726073827115 2.1380863117006945 1 0 0
67 23 2 -1.1794 -10.966867056479268 -2.558122030159005 4.012964435806233 1 0 0
68 23 1 0.5897 -11.680856124223112 -2.627811987897547 4.646625423561195 1 0 0
52 18 2 -1.1794 -12.269087906750807 -0.11889639625808002 2.564842740854576 1 0 0
53 18 1 0.5897 -12.470246598133338 0.6891345787621574 2.092894749623936 1 0 0
258 86 1 0.5897 -12.51621091920287 -2.8740919460392913 0.8982993623815643 1 1 0
307 103 2 -1.1794 -2.5592764139933077 -1.0311984576562043 0.7027757908813973 1 1 0
89 30 1 0.5897 -4.643013923649395 0.8909337350942153 2.293357568007664 1 0 0
107 36 1 0.5897 -9.375748508905058 1.4505598532394721 3.4398057050899795 1 0 0
88 30 2 -1.1794 -4.522966827087683 -0.026783053498720122 2.537227912187627 1 0 0
302 101 1 0.5897 -7.371796065264999 -2.4465850357716663 2.286556173904616 1 1 0
103 35 2 -1.1794 -2.8532187457176645 -2.4004512985852227 4.11146128279763 1 0 0
96 32 1 0.5897 -5.97812982299762 -1.8127241408834651 4.488216630119391 1 0 0
90 30 1 0.5897 -3.942281718754825 -0.3801392067324709 1.8633444281775007 1 0 0
44 15 1 0.5897 -9.934901918947942 0.6528620652259232 0.29904355790422077 1 0 0
303 101 1 0.5897 -7.25493911210477 -2.2930563364951064 0.7849488517954919 1 1 0
105 35 1 0.5897 -3.4137972171790363 -2.6204610584944943 3.3673637464739254 1 0 0
294 98 1 0.5897 -4.699006446681347 -2.9329969718308657 1.2078875822800303 1 1 0
95 32 1 0.5897 -5.901366146971353 -0.9851885235555908 3.2228674263810064 1 0 0
104 35 1 0.5897 -3.4032820510587625 -2.553043734898501 4.87979669356744 1 0 0
25 9 2 -1.1794 -4.230296389889865 0.6171278710344605 5.322518914587301 0 0 0
3 1 1 0.5897 -1.268124012130226 -3.1664625987998463 4.381941195470049 0 0 0
97 33 2 -1.1794 -11.88229529332473 0.8047288787248146 5.342096185505749 1 0 0
99 33 1 0.5897 -11.800567112172148 1.755005419675216 5.262092387119016 1 0 0
27 9 1 0.5897 -3.9516039432473704 1.5317558638146647 5.366440786706924 0 0 0
400 134 2 -1.1794 -10.50372108609728 -0.6338363316714553 7.209504954652311 1 0 0
536 179 1 0.5897 -9.718640401651262 0.11943996865697848 10.114717912875205 1 0 0
402 134 1 0.5897 -10.915911215948018 0.01651281198415333 6.6409141671268275 1 0 0
526 176 2 -1.1794 -12.745597522987172 1.418443399904616 9.2159285878775 1 0 0
442 148 2 -1.1794 -7.135633675023518 2.352930172067923 9.406256796436157 0 0 0
537 179 1 0.5897 -9.455646264408768 0.1841125278729443 8.62518982078254 1 0 0
443 148 1 0.5897 -7.662357573609716 1.5619721792792252 9.52065899595201 0 0 0
426 142 1 0.5897 -8.777900403759013 -1.5311569357060586 7.051167490704576 1 0 0
401 134 1 0.5897 -11.227769272976666 -1.005554937543165 7.713215031120225 1 0 0
527 176 1 0.5897 -12.081796898618746 1.8840171012646998 8.707245413665268 1 0 0
535 179 2 -1.1794 -9.021035507155792 0.2603920417033212 9.47468043152518 1 0 0
424 142 2 -1.1794 -7.969664308313784 -2.0392010588299696 6.9823970286755195 1 0 0
528 176 1 0.5897 -12.248338317905311 0.9439334538039894 9.882097483411497 1 0 0
435 145 1 0.5897 -7.547385803835565 -0.8716320096313854 9.84248707199213 0 0 0
411 137 1 0.5897 -13.631137045278244 0.19712750066013207 6.117467953065377 1 0 0
425 142 1 0.5897 -7.270956651532618 -1.3874375407931634 7.038880235578516 1 0 0
328 110 2 -1.1794 -2.6771083279435954 -0.7719222801272405 7.130833058072924 0 0 0
339 113 1 0.5897 -5.672556973701902 0.36690269789037266 6.394068215602819 0 0 0
433 145 2 -1.1794 -6.709414669660607 -1.273521318269509 10.071438860969872 0 0 0
415 139 2 -1.1794 -8.467710759988078 1.8290708164317966 6.245342204440589 1 0 0
522 174 1 0.5897 -9.944713942265595 2.294401463424416 7.344606548673642 1 0 0
464 155 1 0.5897 -1.8136366998669224 -0.1510331506794067 9.988207770843795 0 0 0
444 148 1 0.5897 -6.239565145550788 2.0320426163604814 9.305280906500922 0 0 0
358 120 2 -1.1794 -4.545018363761377 -2.2701409538076565 8.394469769992655 0 0 0
416 139 1 0.5897 -7.7076556268409515 1.427779996502741 6.666583090895959 1 0 0
405 135 1 0.5897 -4.850446199100278 -2.459113777740111 6.6084627681804005 1 0 0
454 152 2 -1.1794 -4.679641315753235 1.1731308372818852 9.169491934359927 0 0 0
337 113 2 -1.1794 -6.292723223939941 0.1849722955170474 7.100096204745121 0 0 0
456 152 1 0.5897 -4.223295568108138 0.6112025365797162 9.795723747397744 0 0 0
329 110 1 0.5897 -3.289167337982632 -1.2799112382077613 7.663257202194037 0 0 0
330 110 1 0.5897 -3.228111750910479 -0.3398430499004075 6.478210677300401 0 0 0
360 120 1 0.5897 -5.343617319782078 -2.011963017910243 8.854584224738156 0 0 0
338 113 1 0.5897 -5.822149938749973 0.42077337972606443 7.8996570872253855 0 0 0
455 152 1 0.5897 -3.9873887243672987 1.701654979521802 8.772509432650454 0 0 0
417 139 1 0.5897 -8.811106136679893 1.146324029433746 5.668959413734804 1 0 0
403 135 2 -1.1794 -4.974107574732396 -2.7087426600705395 5.692636991984756 1 0 0
434 145 1 0.5897 -6.411845807658368 -0.7868838506531102 10.840174948835495 0 0 0
465 155 1 0.5897 -1.8381548319082093 0.06269634245498779 8.48961125337559 0 0 0
430 144 2 -1.1794 -12.476846072769154 -2.099918928673273 8.384241930018737 1 0 0
369 123 1 0.5897 -12.75735502366999 -2.193978619438333 6.497519808853967 1 0 0
769 257 2 -1.1794 -12.507173826436295 2.866501841442412 12.17310832653363 0 0 0
805 269 2 -1.1794 -4.497510992277453 2.6860958493041647 12.578502657012578 0 0 0
771 257 1 0.5897 -11.807388530206577 2.899574217818248 11.520901537056242 0 0 0
773 258 1 0.5897 -5.893051266865033 -0.8947902757307755 13.194199335580493 0 0 0
761 254 1 0.5897 -9.190445011294978 1.252623213659101 13.037885248579663 0 0 0
896 299 1 0.5897 -7.901024706743094 2.420644279759655 15.68832665964371 0 0 0
792 264 1 0.5897 -11.29572715420432 0.7641008871901551 14.218127585794187 0 0 0
807 269 1 0.5897 -3.8365195866929307 2.6947866774498372 11.886264198414679 0 0 0
760 254 2 -1.1794 -8.55356970022595 1.7962732666265708 12.57423301997186 0 0 0
837 279 1 0.5897 -11.119273742653165 0.21365438633605827 11.980797417529145 1 0 0
791 264 1 0.5897 -10.659715561957842 -0.5959861037029643 14.025351068409055 0 0 0
762 254 1 0.5897 -9.085393131441474 2.387090518363408 12.041076629167408 0 0 0
790 264 2 -1.1794 -10.610228145047017 0.31192076877091246 13.726442820177303 0 0 0
835 279 2 -1.1794 -11.176146211071101 -0.09041752625100585 11.07490557420197 1 0 0
764 255 1 0.5897 -3.670684582903993 -1.2467716188352647 11.194499324916176 0 0 0
865 289 2 -1.1794 -12.681649474702484 1.2292774780369875 15.23016613989663 0 0 0
786 262 1 0.5897 -7.079229004530344 0.9144253868021242 12.222130422528705 0 0 0
903 301 1 0.5897 -5.619877486983214 1.6366336648602786 15.290102799701645 0 0 0
888 296 1 0.5897 -10.657241379153849 3.2357971840510977 15.125583690213583 0 0 0
897 299 1 0.5897 -7.7613855798058236 2.3109286988409945 14.184810274046638 0 0 0
806 269 1 0.5897 -4.028947659394078 2.9754454513674293 13.361491183557868 0 0 0
818 273 1 0.5897 -5.532692576327299 -1.5342675467209883 15.338441087301545 0 0 0
828 276 1 0.5897 -3.5851565130368126 0.4724036505153535 14.37534787285585 0 0 0
901 301 2 -1.1794 -4.786796202538675 1.2441744427567745 15.551044016984486 0 0 0
895 299 2 -1.1794 -7.25055126734409 2.4258621819175747 14.986165676566978 0 0 0
826 276 2 -1.1794 -2.9057995330735817 0.21242204206056492 13.753235373124449 0 0 0
765 255 1 0.5897 -3.1858146801813296 -0.011549410482015077 11.92322821166248 0 0 0
784 262 2 -1.1794 -6.20428251754117 0.5501077411586959 12.088556195921438 0 0 0
785 262 1 0.5897 -5.612686188890251 1.289894661615385 12.226125254158157 0 0 0
827 276 1 0.5897 -2.6724613115783686 -0.6791713027899302 14.011496470865099 0 0 0
770 257 1 0.5897 -12.099634592694809 3.1844832033988144 12.978797427173728 0 0 0
924 308 1 0.5897 -2.8329306546057307 3.1422478296705734 15.513024592100685 0 0 0
866 289 1 0.5897 -12.60361921605093 1.7535448498183772 16.02726122589077 0 0 0
819 273 1 0.5897 -5.419142111166723 -0.3881496316087354 16.321016245314055 0 0 0
772 258 2 -1.1794 -5.9132975723075685 -1.8209454069862705 13.434838629095092 0 0 0
836 279 1 0.5897 -11.447488665514621 -1.0055739898402791 11.14552381982849 1 0 0
763 255 2 -1.1794 -3.3609814902444146 -0.3533130632077359 11.046381864252751 0 0 0
1137 379 1 0.5897 -2.583823231031598 -1.197518465635694 16.320496617296982 0 0 0
817 273 2 -1.1794 -5.569655267629205 -1.3321816223055043 16.273383414099527 0 0 0
1217 406 1 0.5897 -12.118507359333982 3.8001013004802537 17.457697991487166 0 0 0
1247 416 1 0.5897 -5.718579208919129 -0.4554652808554067 19.764290941504626 0 0 0
1196 399 1 0.5897 -9.819065473382977 1.4001356742134448 16.437474593229197 0 0 0
1232 411 1 0.5897 -1.8871163216194518 1.214342463671139 16.639331324314398 0 0 0
1135 379 2 -1.1794 -2.368084879817955 -0.5459783643237994 16.987759267753077 0 0 0
1101 367 1 0.5897 -10.395543173688418 -1.002897867229974 16.357373837000587 0 0 0
1294 432 2 -1.1794 -1.5552444610490905 2.715482330690767 19.21993985644727 0 0 0
1136 379 1 0.5897 -1.5656507121987975 -0.8742921142483784 17.39332751131483 0 0 0
1204 402 2 -1.1794 -12.102144659630667 0.6536435176028856 18.782981495906995 0 0 0
1295 432 1 0.5897 -1.359773083789177 1.829494264458516 19.52474085950032 0 0 0
1047 349 1 0.5897 -4.337539984929121 3.924204028794083 20.73086245207483 0 -1 0
1099 367 2 -1.1794 -10.241672832985163 -0.4371366492391964 17.114033193101164 0 0 0
1236 412 1 0.5897 -8.042035289053274 -0.05163661946335374 20.22261832147113 0 0 0
1009 337 2 -1.1794 -11.21082647860214 3.680569336751926 21.09746251005153 0 -1 0
1100 367 1 0.5897 -9.547135255370824 -0.8762854103161661 17.60488853852113 0 0 0
1234 412 2 -1.1794 -8.881151587850123 0.40617404834191007 20.173683892955644 0 0 0
1259 420 1 0.5897 -9.161042797878109 2.0066565426695284 19.386155702817426 0 0 0
1258 420 2 -1.1794 -9.362016042525317 2.9183714221375947 19.17529927539679 0 0 0
1260 420 1 0.5897 -10.04634085286241 3.1634302097077533 19.798027812257615 0 0 0
1216 406 2 -1.1794 -12.650767381642614 3.008645479135957 17.377245023978425 0 0 0
1197 399 1 0.5897 -9.663035599480697 2.6417476219263154 17.289500302395695 0 0 0
1206 402 1 0.5897 -11.545752426432355 0.21626061473318892 18.13854590406553 0 0 0
1235 412 1 0.5897 -9.529128842621247 -0.29072063719676855 20.070459721614377 0 0 0
1272 424 1 0.5897 -0.11759452862498598 -0.2799252870157307 20.193271409622433 0 0 0
1254 418 1 0.5897 -5.723483739352876 3.3384032168990316 17.880864853201928 0 0 0
1242 414 1 0.5897 -3.55065395527794 0.03417975493494474 18.249510824828903 0 0 0
1045 349 2 -1.1794 -3.543742890188323 3.5995672173417166 21.155924158738713 0 -1 0
1286 429 1 0.5897 -4.012799664728664 0.6251054909030902 20.65567565984656 0 0 0
1229 410 1 0.5897 -7.976931250203815 3.81126899675448 18.516920231292275 0 0 0
1271 424 1 0.5897 -1.5844428406773527 -0.5896241638005524 20.403314530371873 0 0 0
1253 418 1 0.5897 -4.243117241116538 3.617231246291583 17.730985123731173 0 0 0
1252 418 2 -1.1794 -4.874009211047191 2.90233797010403 17.81500264943451 0 0 0
1218 406 1 0.5897 -13.546875268727671 3.3048427497878876 17.536497261838548 0 0 0
1270 424 2 -1.1794 -0.9710967442022351 0.13858345710976572 20.304951215985255 0 0 0
1240 414 2 -1.1794 -4.129072183083643 0.42269384276698574 18.905758269837797 0 0 0
1241 414 1 0.5897 -4.3888304710589106 1.263346596947999 18.52902577237687 0 0 0
1296 432 1 0.5897 -2.1301554768908133 3.079427045856514 19.893132775886848 0 0 0
1205 402 1 0.5897 -12.35526941083694 1.4755698244045785 18.362903073207484 0 0 0
1011 337 1 0.5897 -12.027093565588023 4.057687150441998 20.7693788162737 0 -1 0
1250 417 1 0.5897 -11.707739078582637 0.7415242169662513 20.523925264094473 0 0 0
1246 416 2 -1.1794 -6.386643278103307 -0.9369364891027914 20.25216677606665 0 0 0
1233 411 1 0.5897 -1.7158900252917721 2.4258943083278712 17.5308143114258 0 0 0
1231 411 2 -1.1794 -1.8367238441747133 2.169871930740987 16.61637869092199 0 0 0
1195 399 2 -1.1794 -9.524617812305067 2.3101858746940866 16.40225482963791 0 0 0
1251 417 1 0.5897 -11.531003904613403 1.9449553321312276 21.425281834055347 0 0 0
1249 417 2 -1.1794 -11.680197699762678 0.99972848592083 21.445285974573608 0 0 0
309 103 1 0.5897 -0.9667465523080061 1.2092687362036223 21.701844695525367 1 1 -1
1287 429 1 0.5897 -3.8124069606889854 1.9211147507427118 21.412025086349637 0 0 0
273 91 1 0.5897 -8.68393975905113 1.240371883982661 21.668016112411827 1 1 -1
1010 337 1 0.5897 -10.880109763704008 4.328385626915438 21.719754890271275 0 -1 0
1046 349 1 0.5897 -3.2146471232926013 4.348040749241699 21.653655456692974 0 -1 0
1285 429 2 -1.1794 -3.9492385177763625 0.9826804510420555 21.54135705679196 0 0 0
902 301 1 0.5897 -4.5566803185543865 1.689382854685352 16.366624757159464 0 0 0
40 14 2 -1.1794 -15.00747999333873 3.6241395186354595 1.982533767411442 1 0 0
177 59 1 0.5897 -14.099684784947792 4.566906569960453 3.2232070360819174 1 0 0
56 19 1 0.5897 -12.456750916095595 5.779726075894374 1.1299444826576104 1 0 0
66 22 1 0.5897 -13.38915010303155 2.8996516515529276 1.5089626941631236 1 0 0
65 22 1 0.5897 -11.936147484936475 3.3243125193542884 1.5225761905626745 1 0 0
64 22 2 -1.1794 -12.498272048068966 2.5503517309672734 1.488321851429359 1 0 0
191 64 1 0.5897 -12.393157463759298 6.320882437050361 4.331046446724009 1 0 0
183 61 1 0.5897 -12.266272997969242 3.572401813071174 4.314377457428243 1 0 0
175 59 2 -1.1794 -13.720192748482194 4.764006592668036 4.07964630572862 1 0 0
176 59 1 0.5897 -14.398595743931423 4.512685747469941 4.7063619220716655 1 0 0
181 61 2 -1.1794 -11.388464413932066 3.409390363497737 4.659444737329351 1 0 0
55 19 2 -1.1794 -13.304306130454599 6.073816122747788 0.7962853804917706 1 0 0
42 14 1 0.5897 -15.33199215472744 4.186852489782757 1.279514371673542 1 0 0
108 36 1 0.5897 -10.152154801286104 2.749814726959338 3.4147458249754084 1 0 0
182 61 1 0.5897 -11.241069371886375 4.118381722700741 5.285441946613635 1 0 0
192 64 1 0.5897 -10.981569256353282 6.781350307371975 4.035965649240067 1 0 0
167 56 1 0.5897 -16.776281754277754 6.424605035660109 3.3076034351108614 1 0 0
190 64 2 -1.1794 -11.883612975668214 7.095927045113529 4.094814757684732 1 0 0
86 29 1 0.5897 -10.414263980445517 4.999465341230465 2.402719852628108 1 0 0
87 29 1 0.5897 -10.304974341382112 5.032801715927787 0.8930745606889876 1 0 0
85 29 2 -1.1794 -10.913936832959223 4.831702273166929 1.603641706820251 1 0 0
45 15 1 0.5897 -9.747581273090336 1.956804773868683 1.0450254974720437 1 0 0
106 36 2 -1.1794 -9.516768195517788 2.238000978280212 2.914281778157788 1 0 0
111 37 1 0.5897 -4.594103178779417 3.6762483761274023 4.5207925001695815 0 0 0
212 71 1 0.5897 -6.704920550169375 4.64796246985583 4.632527470780617 1 0 0
76 26 2 -1.1794 -7.353992551949997 3.6944758246734306 1.8928992597134544 1 0 0
102 34 1 0.5897 -5.738338722457409 2.927395634381851 1.5965840213031386 1 0 0
204 68 1 0.5897 -9.06087923961456 5.241650162860012 4.438827383283265 1 0 0
211 71 2 -1.1794 -6.035850424706024 4.759737239195092 3.9572324447732417 1 0 0
100 34 2 -1.1794 -4.858455710296709 2.5531814297784745 1.553300793617206 1 0 0
203 68 1 0.5897 -8.827137343137611 6.195664419039035 3.2868769975302294 1 0 0
77 26 1 0.5897 -8.02555392954167 3.225656792094842 2.38824182116951 1 0 0
213 71 1 0.5897 -6.468363340754094 4.496410150257981 3.1448696203637 1 0 0
202 68 2 -1.1794 -9.52218860791509 5.754871700437391 3.775503219040309 1 0 0
78 26 1 0.5897 -7.8442477269615125 4.210726345398749 1.2531092297695505 1 0 0