LAMMPS data file via write_data, version 30 Jul 2021, timestep = 10250000

1008 atoms
2 atom types
672 bonds
1 bond types
336 angles
1 angle types

-3.204502318358559 14.814501317912766 xlo xhi
-0.22537184255891418 22.805370842555387 ylo yhi
0.0860822333122524 19.143915766683577 zlo zhi
-0.6423428211064647 -6.70584762860102 0.18447924760530132 xy xz yz

Masses

1 1.008
2 15.999

Pair Coeffs # lj/cut/tip4p/long/omp

1 0 0
2 0.21084 3.1668

Bond Coeffs # harmonic/omp

1 450 0.9572

Angle Coeffs # harmonic/omp

1 55 104.52

Atoms # full

21 7 1 0.5897 0.9823619511604731 2.1739134733370937 0.8745544340167057 0 0 0
55 19 2 -1.1794 -0.9387900994890304 3.9695672023356243 3.5095274485586563 0 0 0
56 19 1 0.5897 -1.616502083592489 3.4095705473967297 3.1309516819377086 0 0 0
57 19 1 0.5897 -0.2852720258774757 4.0580011301437615 2.8157284278640264 0 0 0
121 41 2 -1.1794 -2.6665258279301005 2.1855769330830657 2.5320142002230734 1 0 0
122 41 1 0.5897 -2.5885798059217326 1.729714489398771 1.6939794192348594 1 0 0
86 29 1 0.5897 -2.561049855537812 1.2804779026555198 4.101243855295265 1 0 0
31 11 2 -1.1794 1.2396353347874882 1.1451263834244805 2.4367894895402595 0 0 0
32 11 1 0.5897 1.226849557702069 1.5136483179479165 3.3200857586933936 0 0 0
123 41 1 0.5897 -3.454222101193377 2.7219560824150415 2.441054201650814 1 0 0
46 16 2 -1.1794 1.502515252850201 4.620477768149804 2.2432892564200224 0 0 0
602 201 1 0.5897 -0.6897088007707795 5.38715137873589 0.7285313866819596 1 0 1
33 11 1 0.5897 0.5415124277380574 0.4902415964607182 2.4398774343610876 0 0 0
101 34 1 0.5897 -2.954291915444212 4.554045170543129 0.2962348737328653 1 0 0
482 161 1 0.5897 -1.2656106451163065 -0.013427622553803364 1.1721387222123603 1 1 0
158 53 1 0.5897 -4.6178605606209295 4.865875976067562 4.648138137259844 1 0 0
47 16 1 0.5897 1.794600181742969 5.077512865424441 1.4545034358426938 0 0 0
78 26 1 0.5897 0.1835927601119378 2.883629042126622 4.519005623025708 0 0 0
528 176 1 0.5897 2.715246566548169 2.6858878889758397 0.23727470521976843 0 0 1
163 55 2 -1.1794 -2.4376956008734014 0.9761033699226151 0.22031189457396907 1 0 0
48 16 1 0.5897 1.6051745981135248 5.263344078226967 2.944977884586706 0 0 0
603 201 1 0.5897 -0.20983777657186176 4.074209498366143 0.14718884693464396 1 0 1
601 201 2 -1.1794 -0.9873997333701392 4.62649947587425 0.2295621664127625 1 0 1
16 6 2 -1.1794 5.322717439954122 4.785979746056078 0.2964298474594699 0 0 0
527 176 1 0.5897 3.792097932482558 1.7726952760659251 0.7841775953443425 0 0 1
6 2 1 0.5897 3.398121759130203 1.5673467995726542 4.4072655536548515 0 0 0
71 24 1 0.5897 3.066871685841572 0.02234216052862606 2.163483828908264 0 0 0
70 24 2 -1.1794 3.7343788175313204 -0.05960251516824164 1.4823337159896324 0 0 0
53 18 1 0.5897 4.1768837641566705 2.6863359474370796 2.9035194514714977 0 0 0
54 18 1 0.5897 2.9387591301259626 3.532182402287967 2.6936945659503757 0 0 0
52 18 2 -1.1794 3.3874688502988857 2.9959574155578017 3.3476330405186454 0 0 0
18 6 1 0.5897 4.925072651015089 3.9154101933155 0.2797909321445179 0 0 0
526 176 2 -1.1794 3.65430987137775 2.507285830552849 0.18592395795298405 0 0 1
134 45 1 0.5897 -2.3344624240644207 2.3851738160517697 6.243044513176313 1 0 0
135 45 1 0.5897 -1.759337508285634 3.6863314791596284 6.76082245096565 1 0 0
402 134 1 0.5897 1.1896699169673175 -0.04209810564231414 7.785684551816001 0 1 0
34 12 2 -1.1794 -0.29065493386517227 1.0388187081251408 7.1967663678563705 0 0 0
35 12 1 0.5897 -0.034827403307240434 1.6422710110273537 7.8943242658482005 0 0 0
36 12 1 0.5897 -1.170882689192497 0.7511955344798413 7.439057639214036 0 0 0
44 15 1 0.5897 -0.5798699563694707 5.44579842905013 8.155737677785327 0 0 0
69 23 1 0.5897 -3.3329103665564515 1.0755536507196763 8.751537892452273 0 0 0
522 174 1 0.5897 1.58631051605422 5.398558979811673 9.396374214572747 0 0 0
58 20 2 -1.1794 1.9563582221661777 4.3661771088230275 6.555971072236308 0 0 0
59 20 1 0.5897 1.4995849711526024 3.7807554993910166 5.951965513203641 0 0 0
77 26 1 0.5897 0.39930990973015845 1.8103900071512604 5.565064113589675 0 0 0
22 8 2 -1.1794 0.27936648587986523 2.5101497516827007 9.337051352372045 0 0 0
126 42 1 0.5897 -4.25651434784349 3.0505690638647516 7.23066039948382 1 0 0
45 15 1 0.5897 0.29719032738056983 4.860557422813133 7.069401942232148 0 0 0
133 45 2 -1.1794 -2.574820451653839 3.28626178902162 6.458846012467018 1 0 0
157 53 2 -1.1794 -3.902725992886925 5.304785003224458 5.108800286191288 1 0 0
67 23 2 -1.1794 -2.865529047369999 0.5255846033991325 8.122798935718262 0 0 0
60 20 1 0.5897 2.611510912856005 3.81092988727593 6.979085025650606 0 0 0
43 15 2 -1.1794 -0.6012047934415312 5.137466064605719 7.2498173434138975 0 0 0
124 42 2 -1.1794 -5.155411614621022 2.789390937624801 7.430727070600347 1 0 0
401 134 1 0.5897 2.4177775300315947 0.08331162581267965 8.662190280610224 0 1 0
159 53 1 0.5897 -3.423754852842477 4.596309889844597 5.5391565997526815 1 0 0
669 223 1 0.5897 -5.527183524804679 1.8339648195422704 8.827382060334859 1 0 0
76 26 2 -1.1794 0.8684555006808816 2.365368460859878 4.941973823606846 0 0 0
98 33 1 0.5897 -4.263073858772094 5.001699658120238 8.909624678051783 1 0 0
667 223 2 -1.1794 -5.644741249459838 1.1722784925322467 9.509154500804797 1 0 0
5 2 1 0.5897 3.2813128182036175 0.12716558037053272 4.859629462402004 0 0 0
4 2 2 -1.1794 3.6238305803190727 0.9795976643016246 5.128449932698849 0 0 0
87 29 1 0.5897 -3.70414771713048 0.9522760106714692 5.038057982997145 1 0 0
125 42 1 0.5897 -5.692504020671317 3.5163325066983155 7.115081597682005 1 0 0
68 23 1 0.5897 -3.5188317195580736 -0.1079148533747801 7.826033472726696 0 0 0
85 29 2 -1.1794 -2.7504689370334257 0.9136054224883867 4.964900249255464 1 0 0
520 174 2 -1.1794 1.6891944337522595 4.741930031278035 10.085397343748088 0 0 0
97 33 2 -1.1794 -4.250990030065594 4.7830210831616 9.841508022468414 1 0 0
560 187 1 0.5897 -4.6432821709844045 3.450219928982376 12.68095166526264 0 0 0
574 192 2 -1.1794 0.5966728140148976 0.30862296367029807 11.125591460108872 0 0 0
550 184 2 -1.1794 -1.7926343931410784 4.886956467906476 12.265343580379481 0 0 0
523 175 2 -1.1794 -2.3822811316957995 2.6803288932581606 10.03164609136788 0 0 0
606 202 1 0.5897 -6.126994118761949 4.822506576782137 10.240614490630085 1 0 0
557 186 1 0.5897 0.41360334478463656 2.431391324238365 13.261175434501535 0 0 0
535 179 2 -1.1794 -1.6703457725107995 1.0459090539312985 12.259310881552933 0 0 0
536 179 1 0.5897 -1.9951743618899176 1.4075219177545772 13.0838763756859 0 0 0
537 179 1 0.5897 -1.839064156996228 1.7320179436729919 11.613325347078693 0 0 0
23 8 1 0.5897 0.2922507470922704 1.8489150904482066 10.029207438829559 0 0 0
625 209 2 -1.1794 -5.910976407889989 2.4106572563473745 11.898112541894852 1 0 0
556 186 2 -1.1794 0.595569163240417 3.181190846528643 12.694493323606142 0 0 0
561 187 1 0.5897 -3.693879932815915 3.40840190736193 13.859595663713241 0 0 0
668 223 1 0.5897 -5.864253862174152 1.6733794623083147 10.29456457888033 1 0 0
558 186 1 0.5897 -0.2670183534288748 3.5425366325678462 12.489931230297303 0 0 0
559 187 2 -1.1794 -4.144381502376156 4.014733182435827 13.27140371900235 0 0 0
662 221 1 0.5897 -7.862395093184594 4.371901680812476 14.099131851552993 1 0 0
552 184 1 0.5897 -2.721319304374739 4.662942883118515 12.325582502309034 0 0 0
626 209 1 0.5897 -5.916481058310442 1.6719512848519698 12.50702856414889 1 0 0
576 192 1 0.5897 -0.059496207099732246 0.5661557861800293 11.773174532298064 0 0 0
627 209 1 0.5897 -6.790805540153023 2.782200168921498 11.963355470923272 1 0 0
551 184 1 0.5897 -1.6579183215081041 5.538850539394629 12.953142576047103 0 0 0
521 174 1 0.5897 1.846228201556623 5.2510406349760395 10.880554647096686 0 0 0
99 33 1 0.5897 -4.293325818455926 5.629177387358563 10.28699805349096 1 0 0
663 221 1 0.5897 -6.9904647779837275 5.607902664353171 14.03527718901478 1 0 0
524 175 1 0.5897 -2.9020566253697235 3.4817654478681157 9.96833788871605 0 0 0
589 197 2 -1.1794 -5.507006722819719 0.9226455972740537 14.069704679586314 1 0 0
591 197 1 0.5897 -4.815537644576528 0.3086606451103848 14.317476108477168 1 0 0
593 198 1 0.5897 -7.592652350218336 0.5309836557789894 14.16416869123471 1 0 0
525 175 1 0.5897 -1.4964676406349562 2.9488672383542114 9.78768343692267 0 0 0
987 329 1 0.5897 -3.253843809380685 0.008493199748983604 11.68762794490373 1 1 0
986 329 1 0.5897 -4.362357812866632 0.2687278196433473 10.68966600517335 1 1 0
24 8 1 0.5897 0.7433302292112902 3.258868356135593 9.711726281285781 0 0 0
19 7 2 -1.1794 -5.761023951121633 2.7947481949946362 19.08114371419333 0 0 -1
571 191 2 -1.1794 -5.820431835518523 0.17836812645988143 17.841812310119764 0 0 0
661 221 2 -1.1794 -7.3769709286950516 4.985104280910372 14.65100112671241 1 0 0
580 194 2 -1.1794 -2.382651141943505 2.205310425127171 14.703342487978997 0 0 0
581 194 1 0.5897 -2.8240205532736002 1.7997153489323212 15.449651318275833 0 0 0
629 210 1 0.5897 -8.992632647101814 3.0243042579294164 16.91560900164601 1 0 0
639 213 1 0.5897 -6.127314210186276 3.6515031435789687 15.420809889142792 1 0 0
582 194 1 0.5897 -1.902802917839911 2.9428802127486153 15.08009373702885 0 0 0
538 180 2 -1.1794 -3.1116276280200355 0.9774652606888039 16.99087256550272 0 0 0
539 180 1 0.5897 -3.063400766968657 1.613217557361437 17.704773640818928 0 0 0
547 183 2 -1.1794 -3.864126333531291 4.6475201323984425 16.79363912558638 0 0 0
540 180 1 0.5897 -4.0226154246151005 0.6835567207982807 16.99240337581302 0 0 0
638 213 1 0.5897 -6.5920934536698255 2.748353549927615 16.543570484585615 1 0 0
549 183 1 0.5897 -4.517756848259898 3.948647042216992 16.81853497351075 0 0 0
562 188 2 -1.1794 -1.1750541491806494 4.54201110785344 16.073896103217834 0 0 0
84 28 1 0.5897 -4.304996419183343 5.6597981375230635 18.31836529542464 0 0 -1
564 188 1 0.5897 -1.9447291824985546 4.612966994756841 16.638534210913896 0 0 0
637 213 2 -1.1794 -5.81318827746932 2.9986881790064897 16.04666463093588 1 0 0
164 55 1 0.5897 -8.900762992480178 1.6732890596050514 18.507067939628094 1 0 -1
628 210 2 -1.1794 -8.3013737941978 2.3770741638569617 17.056012808341166 1 0 0
563 188 1 0.5897 -1.2442780901106953 5.2887914646047065 15.478893082420543 0 0 0
165 55 1 0.5897 -9.622298231430541 0.4100655466304476 18.92639471314599 1 0 -1
20 7 1 0.5897 -6.02796235346162 2.107440327727885 18.47080255703758 0 0 -1
590 197 1 0.5897 -5.4106064010404555 1.6523277132228755 14.68163614074481 1 0 0
548 183 1 0.5897 -4.1703304048501995 5.238172794138614 16.105229177365572 0 0 0
630 210 1 0.5897 -8.268944630107235 1.879568752102485 16.23893639875216 1 0 0
508 170 2 -1.1794 0.598085636133133 1.0561879970667385 14.595634031499115 0 0 0
289 97 2 -1.1794 -2.88212676421311 9.9702617105788 2.593497955086497 1 0 0
255 85 1 0.5897 -2.6802056043571296 9.169267698743925 4.152013902858864 1 0 0
146 49 1 0.5897 -1.5554838284293133 6.731395525640822 2.2776221831718013 1 0 0
147 49 1 0.5897 -1.1469956238718124 7.5803241314883 1.092386777106279 1 0 0
332 111 1 0.5897 -2.499129478666524 9.327497113687663 0.9114629441366255 1 0 0
145 49 2 -1.1794 -0.823825148144437 6.900586275530427 1.6840546077771195 1 0 0
112 38 2 -1.1794 -3.431486819474375 6.548792000292565 2.7890969582762546 1 0 0
291 97 1 0.5897 -3.7127906702710054 10.313574415488635 2.9228220179172197 1 0 0
113 38 1 0.5897 -3.4954675260561086 6.132958972264 3.6489819405274653 1 0 0
114 38 1 0.5897 -3.6468105905527355 5.852116325361898 2.1690735025299084 1 0 0
9 3 1 0.5897 -1.1445729360765577 5.831262169292814 4.323451229721726 0 0 0
290 97 1 0.5897 -2.258562094293815 10.684649928373966 2.723916013031851 1 0 0
331 111 2 -1.1794 -2.24661742937071 8.801539247829869 0.15264882687565817 1 0 0
188 63 1 0.5897 0.6861326819918707 9.919642446125183 1.1830033192681682 0 0 0
200 67 1 0.5897 0.28697689506398394 8.096090445670056 2.595819564703982 0 0 0
201 67 1 0.5897 1.6791483154504796 8.659183397693196 2.4038977394371215 0 0 0
221 74 1 0.5897 4.096635728650259 10.638377404944102 2.922099582883146 0 0 0
199 67 2 -1.1794 0.782415729019835 8.914750849776476 2.620440240594881 0 0 0
245 82 1 0.5897 0.5276289539126777 9.683193184319196 4.172102874775807 0 0 0
240 80 1 0.5897 2.8170765903888784 7.51472898985586 0.9926615530716649 0 0 0
187 63 2 -1.1794 0.747557663802322 10.27608626958223 0.2966752519227437 0 0 0
239 80 1 0.5897 3.513171216087204 8.848647155076554 1.1603574009181636 0 0 0
694 232 2 -1.1794 3.3790594570878296 10.330921689381215 0.2662512637018232 0 0 1
220 74 2 -1.1794 3.3892010167791353 10.816130017647989 3.541898182047576 0 0 0
238 80 2 -1.1794 3.2369374167744382 8.072344111317326 1.6476158979765074 0 0 0
189 63 1 0.5897 1.6838206164907836 10.422248794077053 0.16121858902471253 0 0 0
174 58 1 0.5897 3.211891669183143 9.294600492791108 4.504653432392192 0 0 0
224 75 1 0.5897 -0.7727556750026183 11.323392336773898 3.9390301471280376 0 0 0
696 232 1 0.5897 3.9020336450015476 11.132283227536323 0.2907229537396844 0 0 1
10 4 2 -1.1794 1.7168209486392563 6.311584070920827 4.4266129093646125 0 0 0
29 10 1 0.5897 4.8057423067811325 6.987750928817246 2.2642448018723758 0 0 0
12 4 1 0.5897 0.8107591588392733 6.466825927928887 4.693586973296601 0 0 0
222 74 1 0.5897 2.727546946777709 11.276533160177376 3.025389039488864 0 0 0
191 64 1 0.5897 0.4205722555230609 9.662240226925396 8.880278470742764 0 0 0
8 3 1 0.5897 -1.0105285493338516 6.166955533899836 5.79357462535628 0 0 0
110 37 1 0.5897 -4.472402673400802 5.969502654140128 6.707794573699633 1 0 0
109 37 2 -1.1794 -4.610693422854895 6.364928511507641 7.568425455992698 1 0 0
293 98 1 0.5897 -4.671562908500066 10.46348613271485 7.237154523150352 1 0 0
257 86 1 0.5897 -4.511040338579313 8.253794330523904 5.30664540835774 1 0 0
292 98 2 -1.1794 -5.5882939159089915 10.196012935063758 7.303159860603741 1 0 0
65 22 1 0.5897 2.1313445262814437 7.570973035190568 8.744519314850724 0 0 0
246 82 1 0.5897 0.16664214595231908 9.489303909577384 5.629513711355467 0 0 0
294 98 1 0.5897 -5.67298165926958 9.84649108365841 8.190315302752081 1 0 0
111 37 1 0.5897 -5.48488055388907 6.751688675839487 7.517119354109067 1 0 0
64 22 2 -1.1794 1.7910413163589816 6.793998891714442 8.301040263288375 0 0 0
173 58 1 0.5897 2.9251634502787454 7.854077172824043 4.87206046821715 0 0 0
202 68 2 -1.1794 0.037624441195525105 8.484488979888539 7.153603966530751 0 0 0
203 68 1 0.5897 -0.8468828025797075 8.319224080441371 7.480080273246337 0 0 0
204 68 1 0.5897 0.5672822645415265 7.78060354045893 7.528516748861928 0 0 0
172 58 2 -1.1794 3.4293609877935367 8.61958616701746 5.147768668273857 0 0 0
235 79 2 -1.1794 -2.461118234113423 7.915232014612533 8.283574391530768 0 0 0
236 79 1 0.5897 -3.290491660095243 7.499860391409869 8.047177935658585 0 0 0
237 79 1 0.5897 -2.709710906963008 8.63305820487695 8.865942044795894 0 0 0
302 101 1 0.5897 -2.730961704847511 10.179549131770642 6.204837677443086 1 0 0
301 101 2 -1.1794 -2.9155245589225145 10.893142755045977 6.815515988931428 1 0 0
66 22 1 0.5897 2.50283876060704 6.515562960879419 7.724778730264252 0 0 0
11 4 1 0.5897 2.071507549271402 5.735773726533595 5.104242358925165 0 0 0
254 85 1 0.5897 -1.9939427962631577 8.098978096187583 4.97435165238903 1 0 0
253 85 2 -1.1794 -2.637377574799877 8.805094056881762 5.03629778355171 1 0 0
588 196 1 0.5897 -1.5753270045190195 6.724193207801415 9.509945265930604 0 0 0
244 82 2 -1.1794 0.21527106476861047 10.155529073046342 4.943786009420968 0 0 0
228 76 1 0.5897 1.4065975597756637 11.299563653206663 5.702402513035907 0 0 0
837 279 1 0.5897 -6.281837820182172 8.24683544479574 9.294820785726737 1 0 0
692 231 1 0.5897 -1.8543399650429837 10.37130244330581 9.59698170719413 0 0 0
190 64 2 -1.1794 -0.07143742160457345 10.074726131738613 9.590196896071799 0 0 0
7 3 2 -1.1794 -0.9419210798662592 6.552000691727567 4.919824227904251 0 0 0
836 279 1 0.5897 -5.141285353299265 8.654995400062523 10.202919556080717 1 0 0
617 206 1 0.5897 -7.558348971329226 7.378443934630773 12.45722162860756 1 0 0
794 265 1 0.5897 -5.615197843690556 10.738726695744512 12.286298145756273 1 0 0
513 171 1 0.5897 -4.57610708423264 5.775936720078211 14.246743390552515 0 0 0
742 248 2 -1.1794 0.06347749135267522 8.009194003592262 11.413363346973442 0 0 0
587 196 1 0.5897 -1.6423314940731153 5.732797892626951 10.652354965676707 0 0 0
726 242 1 0.5897 -0.41205057645371834 11.383166807215204 12.426941567197623 0 0 0
693 231 1 0.5897 -2.870959427637415 9.870989050632046 10.601086199090274 0 0 0
649 217 2 -1.1794 -4.326013003484203 7.153300980433025 11.05398209824444 1 0 0
650 217 1 0.5897 -3.551964194417325 7.567984632473273 11.434984012429373 1 0 0
651 217 1 0.5897 -5.003819610997194 7.249813057374259 11.72292652778846 1 0 0
795 265 1 0.5897 -6.299741593530525 9.830553312956246 11.287118672660824 1 0 0
744 248 1 0.5897 -0.31765118551407534 7.28103789357582 10.922715392285616 0 0 0
793 265 2 -1.1794 -6.387261537938141 10.184585912279443 12.172100446269532 1 0 0
724 242 2 -1.1794 0.2995522736136662 10.889065397973532 12.834359022286314 0 0 0
759 253 1 0.5897 -6.315775520931071 9.015319162689845 13.712979926951402 1 0 0
703 235 2 -1.1794 -2.396515863249866 8.784510853428548 12.134118647669855 0 0 0
704 235 1 0.5897 -1.529309717145849 8.38254187365465 12.081287711467256 0 0 0
705 235 1 0.5897 -2.3629288238151895 9.324667138875787 12.923567059202112 0 0 0
743 248 1 0.5897 -0.015844519655861422 8.761544315508695 10.82669615310699 0 0 0
616 206 2 -1.1794 -6.924604235355565 6.671401261766238 12.579513832864599 1 0 0
678 226 1 0.5897 0.06781964399015994 9.373270002775724 14.038200368021501 0 0 0
618 206 1 0.5897 -7.11165921213075 6.056247295411372 11.870444715645451 1 0 0
750 250 1 0.5897 -3.4454642386924554 10.527326680786313 14.328181661131035 0 0 0
691 231 2 -1.1794 -2.7941616386978967 10.237567864240745 9.720108914978848 0 0 0
586 196 2 -1.1794 -1.1119629548009708 5.98008311429301 9.894834429628627 0 0 0
835 279 2 -1.1794 -5.87731102868483 9.01122424611169 9.705048023309335 1 0 0
192 64 1 0.5897 0.4170563101843445 10.873789486520522 9.787977486636732 0 0 0
514 172 2 -1.1794 -1.6523635939984906 6.690439972193297 14.357196496927793 0 0 0
333 111 1 0.5897 -8.755064350593912 9.628091654342583 18.528428721598303 1 0 -1
695 232 1 0.5897 -3.099600629516061 10.106024184954155 18.489231795286265 0 0 0
741 247 1 0.5897 -5.943623402909762 8.97724215199011 18.272799434691585 0 0 0
569 190 1 0.5897 -1.6206120011638179 6.31797261325853 18.126660116999766 0 0 0
740 247 1 0.5897 -6.651810814416432 7.8497604917619945 17.552318306771298 0 0 0
568 190 2 -1.1794 -1.4329708595850406 7.115468990951777 17.631465634599785 0 0 0
512 171 1 0.5897 -4.99755834917422 7.160195725439274 14.692084642545598 0 0 0
615 205 1 0.5897 -7.711029543210279 5.8250394569367066 16.373328544244494 1 0 0
570 190 1 0.5897 -0.6422450097032666 6.908169014369155 17.133422482197368 0 0 0
748 250 2 -1.1794 -2.7065157375091546 10.012914666383926 14.653494219776768 0 0 0
797 266 1 0.5897 -7.408984848286921 10.681102493208714 16.949306311760054 1 0 0
749 250 1 0.5897 -3.0682080778141767 9.506438142243494 15.380808348222958 0 0 0
758 253 1 0.5897 -5.941416346074435 9.401366274044824 15.128157418453508 1 0 0
613 205 2 -1.1794 -7.813485631117905 6.400851120457741 17.131010595780502 1 0 0
796 266 2 -1.1794 -8.354484609229491 10.532793593738456 16.9678143513935 1 0 0
706 236 2 -1.1794 -3.288728371234801 8.937554117385183 17.169816833900576 0 0 0
707 236 1 0.5897 -4.152750793042509 8.53420448066012 17.25379841764338 0 0 0
708 236 1 0.5897 -2.673814287969204 8.210433391585779 17.268102512016796 0 0 0
739 247 2 -1.1794 -5.781996915018698 8.212200656811122 17.72071093929643 0 0 0
762 254 1 0.5897 -7.982563774660567 8.336054574337544 14.886400149390031 1 0 0
805 269 2 -1.1794 -5.7939100097715155 10.904580480671745 15.99865072258403 1 0 0
83 28 1 0.5897 -5.100750381248043 6.927935185900726 18.543958465900587 0 0 -1
798 266 1 0.5897 -8.507629403433388 9.875601158774677 16.288978217733167 1 0 0
676 226 2 -1.1794 0.17372649071185897 8.78864890068904 14.788868022254459 0 0 0
511 171 2 -1.1794 -4.3771060678312725 6.4579693328446055 14.888147401221621 0 0 0
731 244 1 0.5897 -1.9224731349370217 11.37547317091319 15.490911523641508 0 0 0
515 172 1 0.5897 -2.4838120988240053 6.9037274398848245 14.780841283133546 0 0 0
757 253 2 -1.1794 -6.120121064961694 8.642565773662007 14.572752880656656 1 0 0
516 172 1 0.5897 -1.0724325672855715 7.416274274742702 14.587584883269624 0 0 0
82 28 2 -1.1794 -4.549752815100737 6.289191900107452 18.99669210998841 0 0 -1
614 205 1 0.5897 -7.7264241699898175 5.820231529728824 17.887180297518682 1 0 0
807 269 1 0.5897 -5.09566133087991 11.403150161322257 16.423039401097263 1 0 0
280 94 2 -1.1794 -3.6869587447456142 13.699371949666125 2.77156018633107 1 0 0
269 90 1 0.5897 -3.9057081132772984 12.555288165928369 1.3453735264449502 1 0 0
306 102 1 0.5897 -4.9549657109845455 11.598894007666726 4.233373549208447 1 0 0
281 94 1 0.5897 -3.72403601063143 13.429412595568202 3.6892345224590914 1 0 0
282 94 1 0.5897 -2.830766257741818 14.117230520239845 2.6787425370623645 1 0 0
769 257 2 -1.1794 -0.8751243040353485 12.411947918909206 0.21388198457297158 1 0 1
180 60 1 0.5897 1.598361466907006 13.74932969571256 3.892673331990379 0 0 0
223 75 2 -1.1794 -1.1990716399841164 11.870985555221534 3.2795295057943834 0 0 0
367 123 2 -1.1794 0.8450899214710894 16.326384354122254 2.46544156751554 0 0 0
313 105 2 -1.1794 -1.2900472685849658 14.63191767805905 1.7533569190528022 1 0 0
315 105 1 0.5897 -0.8743111696566634 13.850500269467409 1.3888518489274686 1 0 0
314 105 1 0.5897 -0.5596116689682757 15.197376924067473 2.004305709527869 1 0 0
216 72 1 0.5897 0.556559670293332 12.46556174992119 2.629569161268949 0 0 0
225 75 1 0.5897 -1.614225307862857 12.572264512902718 3.7816357628412174 0 0 0
214 72 2 -1.1794 1.4871374404438953 12.638838343395689 2.4870832372411664 0 0 0
215 72 1 0.5897 1.519149368194503 13.105608408253154 1.651893259863835 0 0 0
252 84 1 0.5897 2.477139739942162 14.550527376871663 0.8042310411229865 0 0 0
368 123 1 0.5897 1.7389918620088372 15.988409787798204 2.4096846528090383 0 0 0
408 136 1 0.5897 3.7243606465039294 16.240748838900682 1.5229793425296998 0 0 0
406 136 2 -1.1794 3.4718652804625814 15.413248859382174 1.932742785705241 0 0 0
771 257 1 0.5897 -0.2558451514450213 11.687445292774509 0.30360098424040965 1 0 1
500 167 1 0.5897 -1.9406908923018515 15.714739123691258 0.6316452576850836 1 0 0
407 136 1 0.5897 4.30212694709282 14.997329025347565 2.1654532961743573 0 0 0
499 167 2 -1.1794 -2.552810771651379 16.297341673775335 0.18171218243100895 1 0 0
178 60 2 -1.1794 1.2742104207988199 14.103217272997526 4.7208518053966015 0 0 0
250 84 2 -1.1794 1.9411876319216814 14.03659506574472 0.20019609404960498 0 0 0
423 141 1 0.5897 -2.7535742667331675 16.780250907811187 3.883213813125444 1 0 0
369 123 1 0.5897 0.7157563573712462 16.51028633354677 3.3958605262472155 0 0 0
421 141 2 -1.1794 -2.6938120420891254 16.392325474174473 4.756347947860579 1 0 0
770 257 1 0.5897 -1.728468159331345 12.023545084772847 0.40685464494958856 1 0 1
184 62 2 -1.1794 5.255504678690611 12.499761797323039 0.27690439683802026 0 0 0
177 59 1 0.5897 -0.5725501970703775 14.276822721881073 4.711162521145643 0 0 0
176 59 1 0.5897 -1.9815604814539172 14.814566593678922 4.84468252132361 0 0 0
404 135 1 0.5897 -2.1328337197929983 15.955893244373712 7.535563000461516 0 0 0
425 142 1 0.5897 -4.540317509439731 16.178108792458897 4.973275292381495 1 0 0
372 124 1 0.5897 -0.1751417528179795 16.680194105484738 6.248757741947316 0 0 0
327 109 1 0.5897 -4.725506155263221 13.077835277371195 5.786730279610589 1 0 0
175 59 2 -1.1794 -1.468756318884937 14.009210813205872 4.914779570619214 0 0 0
211 71 2 -1.1794 -0.9039023440515677 12.660654469801928 7.553103508799542 0 0 0
340 114 2 -1.1794 2.929973307077036 16.39296346666287 5.293037116463978 0 0 0
213 71 1 0.5897 -1.148020208807044 13.355078433075285 6.9409857696816 0 0 0
212 71 1 0.5897 -1.2405124151365832 12.956917872261643 8.398750913124704 0 0 0
279 93 1 0.5897 -5.676962880608624 14.166208798261183 7.8025500880428735 1 0 0
232 78 2 -1.1794 1.5354323832667394 14.650893865442606 8.16218202326287 0 0 0
756 252 1 0.5897 -2.027113563974426 14.820106345119271 9.409176808520536 0 0 0
234 78 1 0.5897 1.1413369035254393 15.25864189721008 7.536179672341764 0 0 0
370 124 2 -1.1794 -0.36288242123240577 16.453037429658114 7.159507445360779 0 0 0
303 101 1 0.5897 -2.086887857290985 11.366729202315275 6.8886601486182455 1 0 0
277 93 2 -1.1794 -4.806398769762107 13.795260189159634 7.6580074090679195 1 0 0
278 93 1 0.5897 -4.237608237074657 14.556323688839575 7.5415647438601505 1 0 0
326 109 1 0.5897 -3.651354091552479 12.010866776326413 5.773605187473876 1 0 0
405 135 1 0.5897 -3.1678975351986582 16.442588455504463 8.527364497057327 0 0 0
403 135 2 -1.1794 -2.980267252348518 15.728499404465872 7.918234658441471 0 0 0
227 76 1 0.5897 0.8345266960323432 12.09549079089063 6.856118725305726 0 0 0
267 89 1 0.5897 -4.3201679791576755 13.034503623376184 9.166020734020659 1 0 0
325 109 2 -1.1794 -4.171065977723536 12.569177631401127 5.195048086304813 1 0 0
226 76 2 -1.1794 1.6455802289906014 11.940537008288054 6.371901554969691 0 0 0
341 114 1 0.5897 2.46082507434355 15.559539869753205 5.253215724161843 0 0 0
179 60 1 0.5897 1.3159153891470243 13.365659874215526 5.329753959160644 0 0 0
233 78 1 0.5897 2.4400888675371135 14.553180038940113 7.864934871490016 0 0 0
690 230 1 0.5897 1.1824556447652945 12.986889423566861 9.189800496899046 0 0 0
727 243 2 -1.1794 -4.3779779712306865 11.674094054943577 13.145861562791309 0 0 0
831 277 1 0.5897 -7.779312199361735 11.986862459049068 14.3062563041518 1 0 0
773 258 1 0.5897 -7.128432469713793 12.725590457582665 10.83699969011023 1 0 0
718 240 2 -1.1794 -1.8168024198283073 12.508794070846244 12.0141582258136 0 0 0
872 291 1 0.5897 -2.3283813397861888 16.99417218117321 11.517193096142769 0 0 0
720 240 1 0.5897 -1.4523466371220461 13.112744615768419 12.661156244163777 0 0 0
728 243 1 0.5897 -3.54962337736883 11.925015752350703 12.737017051303585 0 0 0
755 252 1 0.5897 -0.7029423012983629 14.583766632480046 10.104259457947016 0 0 0
688 230 2 -1.1794 1.5141401509075774 12.360892180908193 9.833737178933893 0 0 0
784 262 2 -1.1794 -7.229002996434898 13.882350094611507 12.276486060662506 1 0 0
729 243 1 0.5897 -4.743610889602666 12.496561294396473 13.471700955084732 0 0 0
911 304 1 0.5897 -0.44386143505714504 16.225253695049712 11.814460415396066 0 0 0
910 304 2 -1.1794 0.3489646857577342 16.099063925472457 11.293160951429092 0 0 0
912 304 1 0.5897 0.840870546348504 15.425722486508628 11.76345446129492 0 0 0
1005 335 1 0.5897 -5.593892384952708 16.05857537189604 10.223103093951917 1 0 0
719 240 1 0.5897 -1.9070926523528913 13.034518037173433 11.219211067330635 0 0 0
786 262 1 0.5897 -7.2994835211202105 13.676537897276253 13.208690414329075 1 0 0
817 273 2 -1.1794 -4.60289131703472 14.772816638735467 11.619925036956422 1 0 0
818 273 1 0.5897 -5.506932613644052 14.604333119062462 11.885662710513097 1 0 0
819 273 1 0.5897 -4.31349762162332 13.952768308662053 11.219882383774685 1 0 0
873 291 1 0.5897 -2.9506881045855655 15.746923704449257 12.108265388732002 0 0 0
266 89 1 0.5897 -3.610251399181643 11.893927944379316 9.864464527398585 1 0 0
871 291 2 -1.1794 -2.2122341018888756 16.346902087336126 12.212923085592381 0 0 0
754 252 2 -1.1794 -1.5025951561257513 14.136724741020533 9.82679931180434 0 0 0
1003 335 2 -1.1794 -6.2847877962996375 16.64207005980344 9.90889531567918 1 0 0
774 258 1 0.5897 -6.107716539531386 12.056148087558833 9.941495088873992 1 0 0
265 89 2 -1.1794 -4.331770275932066 12.514231522510936 9.96953415539696 1 0 0
772 258 2 -1.1794 -7.031573518691108 12.303342927869636 9.983478567707145 1 0 0
725 242 1 0.5897 0.6902810011573779 11.50107749757494 13.458029140780992 0 0 0
925 309 2 -1.1794 -6.355332596231987 16.08360273985969 14.326760881120055 1 0 0
846 282 1 0.5897 -0.033349823532643263 16.921740139867765 13.98408629794835 0 0 0
682 228 2 -1.1794 -1.4503943814461282 14.22624279918238 14.16461304277858 0 0 0
680 227 1 0.5897 -3.2736146103072192 14.344083477354303 14.36151983577231 0 0 0
926 309 1 0.5897 -5.688756907783502 15.397878224928395 14.370294585062318 1 0 0
684 228 1 0.5897 -0.955255751728866 15.022893688103682 14.355481172650252 0 0 0
783 261 1 0.5897 -8.748671712427708 14.128958345626868 17.01188137460253 1 0 0
927 309 1 0.5897 -5.994242349827074 16.802527611186527 14.845377601835139 1 0 0
717 239 1 0.5897 -3.1512264313633107 12.70148889927619 17.039556627450608 0 0 0
732 244 1 0.5897 -0.7744082203258804 11.583409996043699 16.45569594786138 0 0 0
830 277 1 0.5897 -7.3956641959601 13.106832225613276 15.249805395852054 1 0 0
681 227 1 0.5897 -4.011355610214262 13.897368922993058 15.605783822934512 0 0 0
185 62 1 0.5897 -1.5564004718012585 13.541770713116666 18.92254415610472 0 0 -1
251 84 1 0.5897 -5.4182294038503835 14.839581449992092 18.931224245458772 0 0 -1
715 239 2 -1.1794 -4.099792839908204 12.787332349767345 17.135471967475432 0 0 0
716 239 1 0.5897 -4.213788438395814 13.33988095374214 17.908695323447283 0 0 0
874 292 2 -1.1794 -3.688328558276174 16.28493424435161 17.015096515857714 0 0 0
907 303 2 -1.1794 -6.454199595586174 15.85265510205327 17.930406688502153 0 0 0
930 310 1 0.5897 -8.232404927208083 16.13793948640097 14.655591613872438 1 0 0
876 292 1 0.5897 -2.8709235903655683 15.867220778510841 17.286814218148848 0 0 0
736 246 2 -1.1794 -1.3201530340102483 14.950757278167794 17.856848750303534 0 0 0
909 303 1 0.5897 -5.709006629588225 16.012526763143537 17.351272052933588 0 0 0
781 261 2 -1.1794 -7.872603344838757 13.779003802705034 16.84935155385218 1 0 0
782 261 1 0.5897 -7.670346570797216 13.265195425961306 17.631399079221097 1 0 0
875 292 1 0.5897 -3.4377367710282423 16.850371848979215 16.284421916016896 0 0 0
908 303 1 0.5897 -6.9509594572444655 15.159015410341542 17.49645747351289 0 0 0
683 228 1 0.5897 -1.1725387058690666 13.603994566626161 14.837028388156162 0 0 0
730 244 2 -1.1794 -1.5179883458250663 12.0342601758573 16.055343484337854 0 0 0