LAMMPS data file via write_data, version 30 Jul 2021, timestep = 3500000

1920 atoms
2 atom types
1280 bonds
1 bond types
640 angles
1 angle types

-0.0013422654771026998 24.73134326548226 xlo xhi
-0.019828921577364156 24.749829921575028 ylo yhi
0.049887695890101114 22.760112304115033 zlo zhi

Masses

1 1.008
2 15.999

Pair Coeffs # lj/cut/tip4p/long/omp

1 0 0
2 0.21084 3.1668

Bond Coeffs # harmonic/omp

1 450 0.9572

Angle Coeffs # harmonic/omp

1 55 104.52

Atoms # full

1 1 2 -1.1794 4.5429016220993415 1.5594948441665843 4.323551153793601 0 0 0
2 1 1 0.5897 4.602244412129598 2.273574357458767 4.958170131613599 0 0 0
3 1 1 0.5897 5.403051512011571 1.5391034227928104 3.904142350354688 0 0 0
4 2 2 -1.1794 2.9448915117633274 1.34516577315166 2.112206076041718 0 0 0
5 2 1 0.5897 3.3134493434984584 1.3557768061694602 2.9954802585025804 0 0 0
6 2 1 0.5897 1.9995441276066672 1.4134952412463129 2.2457719834653664 0 0 0
9 3 1 0.5897 5.002551420853582 4.501813160660318 3.613861061816067 0 0 0
10 4 2 -1.1794 3.1783310014814496 4.518230619228323 3.5831578123839005 0 0 0
11 4 1 0.5897 2.685662590143144 5.228181693204202 3.9947888106610248 0 0 0
12 4 1 0.5897 2.7796494989502127 4.419306343719108 2.7186400127580654 0 0 0
13 5 2 -1.1794 1.3078421694792288 2.9812737345174485 4.992161926580369 0 0 0
14 5 1 0.5897 2.053689282446497 3.357653951464359 4.525009131042346 0 0 0
15 5 1 0.5897 1.4486639329317041 2.035580863190118 4.9467922436146345 0 0 0
19 7 2 -1.1794 4.638540813929239 3.0936028415171517 0.6872303607861625 0 0 0
20 7 1 0.5897 3.8979075290777687 2.7508289666106696 1.1873708525961064 0 0 0
21 7 1 0.5897 5.405796140587392 2.881529343439273 1.218753330126465 0 0 0
22 8 2 -1.1794 1.706354723133642 4.417805640240551 1.2762008450503715 0 0 0
23 8 1 0.5897 0.9381229961834464 4.488563204925134 1.8427509972172238 0 0 0
24 8 1 0.5897 1.6026270756925423 5.126822541359883 0.6416085211648134 0 0 0
27 9 1 0.5897 4.688360400535061 4.899144230905889 0.7223962725685819 0 0 0
98 33 1 0.5897 0.29302134681570446 5.5869028388186095 3.9035020820111774 1 0 0
387 129 1 0.5897 4.139908835554233 0.25874037987222676 1.3841420589278588 0 1 0
28 10 2 -1.1794 1.6123675599471903 0.20426226343002932 4.981997964656208 0 0 0
16 6 2 -1.1794 0.15647548264313346 1.6132650973041835 2.1469789531780368 0 0 0
7 3 2 -1.1794 5.954379474550811 4.549098416443673 3.524544602863452 0 0 0
25 9 2 -1.1794 4.60740862280142 5.848420629071104 0.6299561550241515 0 0 0
47 16 1 0.5897 6.055994028778198 0.9058189994299473 1.6680994844970944 0 0 0
99 33 1 0.5897 0.03639660659150516 4.0949179148834025 3.9019777085754908 1 0 0
867 289 1 0.5897 4.444916213970329 0.24097967974614676 5.550345158402957 0 1 0
501 167 1 0.5897 4.414541725462199 4.16305160214987 6.4444914678428065 0 0 0
150 50 1 0.5897 1.5479353380438554 5.999475800375689 5.9075524384661655 0 0 0
484 162 2 -1.1794 2.903052222585365 1.5269878140224944 7.808222505943195 0 0 0
502 168 2 -1.1794 1.5437115732544662 4.7067068100189715 7.150447128232116 0 0 0
579 193 1 0.5897 0.32487766411974117 5.285271766613713 9.698273301734714 1 0 0
578 193 1 0.5897 0.22034399217047587 3.7756253078940607 9.65458185825265 1 0 0
485 162 1 0.5897 3.2942990808933867 1.4748032606260868 8.680190016566916 0 0 0
499 167 2 -1.1794 4.605898431019556 3.2260470498844267 6.484839893609097 0 0 0
489 163 1 0.5897 5.075962036029786 4.603789337920986 9.208874243133227 0 0 0
486 162 1 0.5897 3.367092403783915 0.8640772306865446 7.2969519159596 0 0 0
504 168 1 0.5897 1.3274745327955457 4.036049520536002 6.502660030210126 0 0 0
481 161 2 -1.1794 4.579826830048721 1.3480141155355354 10.008857316928212 0 0 0
496 166 2 -1.1794 0.18984805241491579 1.6307000852290408 7.616752399686722 0 0 0
528 176 1 0.5897 5.984268181637145 2.282889797651156 7.494060919491887 0 0 0
487 163 2 -1.1794 6.031224046673815 4.647292166919724 9.166762696574626 0 0 0
483 161 1 0.5897 4.713475021939737 2.0263432733283326 10.670806242908007 0 0 0
494 165 1 0.5897 1.5438301872244564 1.8037895429945294 10.621615761015121 0 0 0
629 210 1 0.5897 2.351713407970405 6.100954229596366 10.291617056327325 0 0 0
527 176 1 0.5897 5.974609443389056 0.7713969540008182 7.409410176928902 0 0 0
492 164 1 0.5897 2.9718370108881835 3.8094691987975873 9.774633929249047 0 0 0
503 168 1 0.5897 0.8657906698110935 4.620414647591559 7.8206177731451545 0 0 0
482 161 1 0.5897 5.363636946407403 1.389566598287745 9.461061777349414 0 0 0
490 164 2 -1.1794 3.3270351406713967 4.578054377758505 9.328198153290225 0 0 0
491 164 1 0.5897 2.7467848912459587 4.709537181325764 8.578423213972385 0 0 0
500 167 1 0.5897 3.8733226812267243 2.852366060062139 6.974607698170669 0 0 0
493 165 2 -1.1794 1.6296386575189559 2.746909926331303 10.48240410578306 0 0 0
505 169 2 -1.1794 4.574082451325094 6.065582747049607 6.455482830082997 0 0 0
508 170 2 -1.1794 1.4317395655943947 0.04518892579808863 10.675006330791323 0 0 0
498 166 1 0.5897 1.1413735225787387 1.5297638607833768 7.592194208338839 0 0 0
495 165 1 0.5897 1.4182278331561158 3.1350448097920642 11.331396287590794 0 0 0
961 321 2 -1.1794 4.713773575034083 1.6241708545937212 15.645057892796743 0 0 0
962 321 1 0.5897 5.4213395979938985 1.5437638983035689 15.00549512322258 0 0 0
963 321 1 0.5897 4.831953508973942 0.8750877129023261 16.229083763904477 0 0 0
964 322 2 -1.1794 2.903683334323641 1.6884518923740945 13.544757001028593 0 0 0
965 322 1 0.5897 3.307534618709518 1.540682243009453 14.39985660623925 0 0 0
966 322 1 0.5897 1.9772519004617586 1.4888165440599297 13.679156454294553 0 0 0
970 324 2 -1.1794 3.3154599730157828 4.523621231407676 14.95317545692096 0 0 0
971 324 1 0.5897 4.268493166929709 4.445046152228941 14.911378566420314 0 0 0
972 324 1 0.5897 3.0180253281252383 3.6708057175458833 15.270109458952055 0 0 0
973 325 2 -1.1794 1.472641615947622 2.8166693402617655 16.30193638620804 0 0 0
975 325 1 0.5897 0.851747573793974 3.3739315852741623 15.83275535966593 0 0 0
979 327 2 -1.1794 4.55695422800117 3.3299931402351963 11.997317318545681 0 0 0
980 327 1 0.5897 3.7916703258138162 2.94750722172231 12.426530352780148 0 0 0
981 327 1 0.5897 5.297631812031795 3.054916899134411 12.53759183181728 0 0 0
982 328 2 -1.1794 1.4446461357924196 4.326279954094689 12.845468845463104 0 0 0
983 328 1 0.5897 1.4548871671205519 5.061916632797663 12.23316750547164 0 0 0
984 328 1 0.5897 2.243435784294289 4.4328367851683135 13.361946613077635 0 0 0
987 329 1 0.5897 4.579544370483505 5.208136863215735 12.073683935362334 0 0 0
990 330 1 0.5897 1.4668342528261402 1.09016912886734 16.320672077793738 0 0 0
1346 449 1 0.5897 3.8543052203403616 0.2297320594896416 12.847285669455676 0 1 0
967 323 2 -1.1794 6.106654308000279 4.457353785709354 14.796230751561696 0 0 0
1008 336 1 0.5897 6.103249632482679 0.9437241157784627 12.989477473223328 0 0 0
1110 370 1 0.5897 2.2285792841465604 5.647031192485834 16.085343461842456 0 0 0
985 329 2 -1.1794 4.6106273007235625 6.144856682284924 11.879200017804088 0 0 0
1109 370 1 0.5897 0.7271564016329436 5.8397244974936635 16.105205201688733 0 0 0
1058 353 1 0.5897 0.164728567448332 4.482407263673534 14.161760739737234 1 0 0
988 330 2 -1.1794 1.5535652108089695 0.13900417512327493 16.257516655492267 0 0 0
1108 370 2 -1.1794 1.5374023576478704 6.165888987836846 16.49673939296622 0 0 0
1460 487 1 0.5897 4.650877164309974 2.745034138389789 16.972023286556755 0 0 0
976 326 2 -1.1794 0.18349342667079682 1.3416392235118144 13.638042104794131 0 0 0
1347 449 1 0.5897 4.50463444083635 0.31272010592182026 11.482796313648485 0 1 0
974 325 1 0.5897 1.563048025811862 3.2286679123856734 17.16113252621664 0 0 0
386 129 1 0.5897 4.784624304580978 0.23344899869430136 22.724939940340057 0 1 -1
1461 487 1 0.5897 5.429740361468239 2.8262327413429986 18.267565547692335 0 0 0
1447 483 2 -1.1794 6.065275214724081 4.471972634426303 20.61723879577834 0 0 0
1464 488 1 0.5897 0.9475102395310736 4.4632723932802945 19.113983683125277 0 0 0
1468 490 2 -1.1794 1.5548085522139221 0.04776866780876372 21.86625854697165 0 0 0
1590 530 1 0.5897 2.2736812299502533 5.863182456221986 21.515520311431246 0 0 0
1452 484 1 0.5897 3.194912706133742 4.456553422606364 19.77463358314707 0 0 0
1445 482 1 0.5897 2.0367126706909837 1.388253062846741 19.357269432707966 0 0 0
1443 481 1 0.5897 4.777766129294397 2.079326734690258 21.903090141646643 0 0 0
1462 488 2 -1.1794 1.6526681686421376 4.305558470163779 18.486259735384706 0 0 0
1453 485 2 -1.1794 1.4513390967164066 2.731457278394211 21.729829176837526 0 0 0
1488 496 1 0.5897 6.084142323352454 0.7901001712951187 18.671145739564047 0 0 0
1451 484 1 0.5897 4.282014364857723 4.425906300158287 20.827707741757507 0 0 0
1459 487 2 -1.1794 4.683661335135233 3.2108409386945715 17.80753950014367 0 0 0
1454 485 1 0.5897 2.1840792686702493 3.2340486355309634 21.3739002445082 0 0 0
1465 489 2 -1.1794 4.535162018982062 5.966927751912949 17.72239774694954 0 0 0
1442 481 1 0.5897 4.133671733898451 1.3641331075579382 20.734617983485585 0 0 0
1826 609 1 0.5897 4.139653968348247 0.051004794685089755 18.354731756052118 0 1 0
1487 496 1 0.5897 6.112073322319467 1.5027361041868061 20.00644372502652 0 0 0
1539 513 1 0.5897 0.2619807086081501 5.3383171262191444 21.007346103735657 1 0 0
1441 481 2 -1.1794 4.885734459246241 1.3238685705926256 21.325331336010485 0 0 0
1446 482 1 0.5897 3.1764856587764396 2.1227357781960947 18.684049520505113 0 0 0
1538 513 1 0.5897 0.31891129502387133 3.826746121849088 20.945750662848702 1 0 0
1466 489 1 0.5897 4.658453150621304 5.017712609972967 17.725742796702754 0 0 0
1444 482 2 -1.1794 2.98904775126524 1.38255573612799 19.26126765571715 0 0 0
1456 486 2 -1.1794 0.1370940158143435 1.3138706394774295 19.053163225170124 0 0 0
1469 490 1 0.5897 1.510324855284699 1.0037411547014077 21.885265177389492 0 0 0
1463 488 1 0.5897 1.687643588709207 5.103743103424303 17.959129255251348 0 0 0
1450 484 2 -1.1794 3.3361488239419193 4.524307015262557 20.718864859105935 0 0 0
1455 485 1 0.5897 1.2679451151650174 3.1406906888974535 22.575423173222617 0 0 0
121 41 2 -1.1794 4.492653048925017 7.758001617995199 4.159862894876301 0 0 0
122 41 1 0.5897 3.7576934293294704 7.697275507640279 3.5496952436594236 0 0 0
123 41 1 0.5897 5.261484828681197 7.543370641764453 3.63165931424831 0 0 0
124 42 2 -1.1794 2.896489411496599 7.384987555867015 2.0698691743911217 0 0 0
125 42 1 0.5897 3.3083818762770036 6.622534306202613 1.6634152493903043 0 0 0
126 42 1 0.5897 3.3664066437935976 8.134746831064184 1.7048512946123437 0 0 0
129 43 1 0.5897 4.899754553677975 10.928769949297086 3.527903334726095 0 0 0
130 44 2 -1.1794 3.061091644753963 10.710904499757678 3.5173648503647934 0 0 0
131 44 1 0.5897 2.836071137902731 11.576366540396117 3.858754990013934 0 0 0
132 44 1 0.5897 2.49560891034843 10.108037103408591 4.000026605548861 0 0 0
133 45 2 -1.1794 1.300477363344257 9.094581647979368 4.889806447849344 0 0 0
135 45 1 0.5897 0.6742984117815927 9.590821054520411 4.362720007370773 0 0 0
137 46 1 0.5897 1.1357817735434423 7.765924208053688 2.032192949237656 0 0 0
139 47 2 -1.1794 4.5107677030058255 9.380057094209606 0.781437946721321 0 0 0
140 47 1 0.5897 4.532798887551359 10.336463325893435 0.8134204829756352 0 0 0
142 48 2 -1.1794 1.3217438092674412 10.746078242703595 1.2558303107166466 0 0 0
143 48 1 0.5897 2.1226428565638864 10.83125026426296 1.7730087071567264 0 0 0
144 48 1 0.5897 1.3613529167343699 11.470217425633512 0.6311473320445826 0 0 0
149 50 1 0.5897 1.3991404171674455 7.283950831895941 5.120294455096652 0 0 0
148 50 2 -1.1794 1.4576360562040171 6.3343161577875495 5.015447559129664 0 0 0
127 43 2 -1.1794 5.8534055789145185 10.893661501155137 3.453637851688465 0 0 0
621 207 1 0.5897 4.378383335890666 9.051411318055859 5.504636360775552 0 0 0
270 90 1 0.5897 0.9346552563296618 12.283083129335338 4.5374107967462844 0 0 0
507 169 1 0.5897 4.39626855482381 6.530660676836201 5.638023261551508 0 0 0
26 9 1 0.5897 5.221876156612034 6.2052636421291085 1.2712448923264656 0 0 0
136 46 2 -1.1794 0.19332716216473844 7.933154216782408 2.0299949461034377 0 0 0
145 49 2 -1.1794 4.663941403807722 12.156147970665057 0.7837821887598851 0 0 0
218 73 1 0.5897 0.17914449171227181 10.942740960083427 2.716724312249769 1 0 0
168 56 1 0.5897 5.867733136053832 8.13915796960565 1.6199009382293412 0 0 0
128 43 1 0.5897 6.165516274536796 11.579184781219093 4.0442512314686505 0 0 0
134 45 1 0.5897 1.4127825720235156 9.616980794276737 5.683928385477919 0 0 0
1101 367 1 0.5897 4.530360260708611 8.982188693108508 11.082671142510323 0 0 0
610 204 2 -1.1794 3.173338666600331 10.764149192483236 9.112686195209244 0 0 0
601 201 2 -1.1794 4.845754262310902 7.838838833928325 9.789207409817573 0 0 0
605 202 1 0.5897 3.218693529175451 8.545784798806693 7.335698688120719 0 0 0
648 216 1 0.5897 5.902017906897374 7.142107838159555 7.087527146687573 0 0 0
612 204 1 0.5897 2.7963362302987766 11.538103524614279 9.531092533018905 0 0 0
625 209 2 -1.1794 4.463169385001329 12.213818279840986 6.437284769748955 0 0 0
606 202 1 0.5897 1.9672872284989449 7.832558343018096 7.801621202046189 0 0 0
611 204 1 0.5897 4.116406538838615 10.927891065555798 9.110554233839467 0 0 0
628 210 2 -1.1794 1.5081846730326998 6.275474871078456 10.708965438245666 0 0 0
622 208 2 -1.1794 1.3704709987398553 10.77786358138092 6.992940373206262 0 0 0
614 205 1 0.5897 2.2219498101298227 9.357800755257907 10.044287946235194 0 0 0
623 208 1 0.5897 2.124016420793479 10.807655712144083 7.582385282754462 0 0 0
647 216 1 0.5897 6.003193343183169 7.925069569581919 8.379193553528404 0 0 0
603 201 1 0.5897 4.110777572586878 7.703252701365146 9.191223837817184 0 0 0
698 233 1 0.5897 0.17740972703254665 11.4788016279857 9.777895125890204 1 0 0
613 205 2 -1.1794 1.4604526357458707 8.993460635391704 10.495462521314629 0 0 0
624 208 1 0.5897 1.495432552168572 11.523449869795117 6.405855890859079 0 0 0
607 203 2 -1.1794 5.895800217874716 10.909514627826285 9.37260543324815 0 0 0
615 205 1 0.5897 0.7162350548595906 9.480627711227914 10.141914227888071 0 0 0
506 169 1 0.5897 3.9610193973405567 6.444504294033994 7.085353096205068 0 0 0
699 233 1 0.5897 0.09440037596035888 10.892977085626093 8.384494630846449 1 0 0
619 207 2 -1.1794 4.437714586873413 9.551149368415327 6.318811425420902 0 0 0
626 209 1 0.5897 4.5574872518132725 11.261748730741138 6.467090452254181 0 0 0
604 202 2 -1.1794 2.9210518330594843 7.817603976348926 7.880993013477056 0 0 0
620 207 1 0.5897 5.232089891898853 9.226137782560631 6.74250172112615 0 0 0
616 206 2 -1.1794 0.12399735475263182 7.673343666189905 7.774530399275539 0 0 0
630 210 1 0.5897 1.4183805495935087 7.227993611360096 10.679557688140461 0 0 0
602 201 1 0.5897 4.8214835865747565 7.082021210512031 10.374713232307956 0 0 0
1081 361 2 -1.1794 4.86963869723714 7.662407182871009 15.573467648830693 0 0 0
1082 361 1 0.5897 4.965076323498097 8.377902481451617 16.202061416821223 0 0 0
1083 361 1 0.5897 4.855249839987842 6.870731150671707 16.111271751416844 0 0 0
1084 362 2 -1.1794 3.0371129234545764 7.604205631345717 13.535403849474225 0 0 0
1085 362 1 0.5897 3.5333976874169046 7.534527944119198 14.350867549385915 0 0 0
1086 362 1 0.5897 3.402639527319123 8.372543225540891 13.09694883096196 0 0 0
1089 363 1 0.5897 4.903242434798689 10.55241046568434 14.879861138956896 0 0 0
1090 364 2 -1.1794 3.138432652584684 10.557789364746327 14.732379569908009 0 0 0
1091 364 1 0.5897 2.9272007808930325 11.343788750227029 15.236139553268114 0 0 0
1092 364 1 0.5897 2.7976958452351965 9.835637889493901 15.260186860819685 0 0 0
1093 365 2 -1.1794 1.5484424386363063 8.888137434288332 16.24242500480156 0 0 0
1094 365 1 0.5897 1.5046764472852636 7.9390028678523645 16.35839182837195 0 0 0
1095 365 1 0.5897 0.8596035481054974 9.08433576429957 15.607474091305159 0 0 0
1097 366 1 0.5897 1.2194402527659787 7.494860913119829 13.500409106496457 0 0 0
1099 367 2 -1.1794 4.561510664309901 9.368184300901614 11.957980482316598 0 0 0
1100 367 1 0.5897 5.340142052275142 8.984867440920283 12.361691683542606 0 0 0
1102 368 2 -1.1794 1.429020123280897 10.76478076029981 12.64369915810074 0 0 0
1103 368 1 0.5897 1.4689850028846778 10.033250496477146 12.027709635210242 0 0 0
1104 368 1 0.5897 2.140058293433555 10.596869646279094 13.26207548403986 0 0 0
1107 369 1 0.5897 4.532493940057678 11.175639258654815 12.024685682230437 0 0 0
1179 393 1 0.5897 0.2635593690183324 10.82820378049793 13.900502588440006 1 0 0
1127 376 1 0.5897 5.996992135483257 7.721644083206325 14.120626366029098 0 0 0
1087 363 2 -1.1794 5.858140613022258 10.486571065517058 14.884905365728468 0 0 0
1178 393 1 0.5897 0.4130356910954339 11.244271831041697 15.3483147453949 1 0 0
986 329 1 0.5897 3.9638399886216793 6.533783705143672 12.46790276780936 0 0 0
1128 376 1 0.5897 6.022690470992259 7.0428970902935655 12.7677431182977 0 0 0
1088 363 1 0.5897 6.150304077471815 11.270708314553131 15.349620958829588 0 0 0
1096 366 2 -1.1794 0.2949787139286367 7.687350397554608 13.343851778553375 0 0 0
1105 369 2 -1.1794 4.620564631383626 12.110975027510623 12.20800875766389 0 0 0
750 250 1 0.5897 1.7219577817357636 12.154666658400973 11.416747852064315 0 0 0
1608 536 1 0.5897 6.021160522515426 7.677571336985661 19.965337881800764 0 0 0
1581 527 1 0.5897 5.4665366530106665 8.933213326844436 18.081479547826497 0 0 0
1230 410 1 0.5897 1.6358107136372146 12.04813377211883 17.102456255223778 0 0 0
1467 489 1 0.5897 5.290814385960894 6.308768277218049 18.20021392748734 0 0 0
1710 570 1 0.5897 2.1724645183750027 12.037692918157358 21.461958859130988 0 0 0
1585 529 2 -1.1794 4.565985966475893 12.214329503868976 17.60954094084709 0 0 0
1709 570 1 0.5897 0.6624389350755007 12.109889113575639 21.381935133319693 0 0 0
1583 528 1 0.5897 0.9400759784321511 10.732075647633305 18.881625825625576 0 0 0
1566 522 1 0.5897 3.3473445287762518 7.045822640384624 18.600047511604785 0 0 0
1582 528 2 -1.1794 1.726574796580265 10.797497940726885 18.340048106881255 0 0 0
1570 524 2 -1.1794 3.224675306593147 10.923346170971246 20.590200844209782 0 0 0
1571 524 1 0.5897 2.9435424092236895 10.82540357190734 19.680536936461714 0 0 0
1562 521 1 0.5897 4.643151757848718 7.023104491060425 21.949367525946904 0 0 0
1588 530 2 -1.1794 1.4965330724826997 6.214981789776606 21.9496356838144 0 0 0
1576 526 2 -1.1794 0.3115968670202488 7.6760124127803895 18.978527778347726 0 0 0
1580 527 1 0.5897 3.9550270460565784 9.00613694878815 18.12407267161212 0 0 0
1587 529 1 0.5897 4.660596145059536 11.268373598966406 17.72105660014187 0 0 0
1564 522 2 -1.1794 2.9875753461784824 7.743642969587472 19.147580479902658 0 0 0
1572 524 1 0.5897 4.179796678338138 10.872869881575388 20.552974137247887 0 0 0
1561 521 2 -1.1794 4.753162589222767 7.729383204302125 21.3127841478317 0 0 0
1658 553 1 0.5897 0.2538518089603042 10.001438136278212 20.767100088818744 1 0 0
1563 521 1 0.5897 4.067400236435314 7.575681108991587 20.662968611775803 0 0 0
1575 525 1 0.5897 2.1718817659188447 9.460561930801314 21.196027233829973 0 0 0
1584 528 1 0.5897 1.5985296373671016 10.145342539721653 17.651236911237817 0 0 0
1573 525 2 -1.1794 1.5232868612092234 9.002849776351635 21.730821672845686 0 0 0
1567 523 2 -1.1794 5.968240847956655 10.665057788665905 20.65463738804953 0 0 0
1565 522 1 0.5897 2.0416972535832736 7.693209435711547 19.009884468292967 0 0 0
1589 530 1 0.5897 1.5683871892257284 7.163057700531178 21.839130579646273 0 0 0
1579 527 2 -1.1794 4.7187010369016775 9.378757592574384 17.683464677457074 0 0 0
141 47 1 0.5897 4.433485566902777 9.17279893039141 22.56043397471658 0 0 -1
1574 525 1 0.5897 1.5386188900666882 9.461067391181556 22.57102301591388 0 0 0
241 81 2 -1.1794 4.578201977773696 14.082868059385762 4.27024824255806 0 0 0
242 81 1 0.5897 4.353650091998738 13.39508859175693 4.896911124632567 0 0 0
243 81 1 0.5897 3.8632948474771536 14.070424446673387 3.6339234645821916 0 0 0
244 82 2 -1.1794 2.8900800220475573 13.787316716691764 2.0323079450882027 0 0 0
245 82 1 0.5897 1.9578494129802921 13.984206604444214 1.9408061463144093 0 0 0
246 82 1 0.5897 3.33217206772961 14.498116070057796 1.5680800575028493 0 0 0
250 84 2 -1.1794 3.36205189395628 17.08130566847444 3.7500173876514027 0 0 0
251 84 1 0.5897 2.9329204820083237 16.85799034534395 2.9241189425219014 0 0 0
252 84 1 0.5897 4.297393130397792 17.060480739906435 3.547798632078635 0 0 0
253 85 2 -1.1794 1.4821249687449034 15.375173254404144 4.964288666755696 0 0 0
254 85 1 0.5897 0.7622414944702182 15.78655541357815 4.486052158044683 0 0 0
255 85 1 0.5897 2.270446269773712 15.792248224172122 4.616744511307472 0 0 0
259 87 2 -1.1794 4.40674803102346 15.659637975312812 0.7515465275741309 0 0 0
260 87 1 0.5897 4.514901975431843 16.602147635517753 0.6242752403806842 0 0 0
262 88 2 -1.1794 1.5109477067875943 16.85819773800666 1.615142151190124 0 0 0
263 88 1 0.5897 1.439663246908402 16.14542521792177 0.9802806282128667 0 0 0
264 88 1 0.5897 1.4112304077172524 17.65478008491628 1.0938882744365075 0 0 0
269 90 1 0.5897 1.624027704543484 13.568456383241404 4.9428942299529455 0 0 0
288 96 1 0.5897 5.851898687381067 14.900645228995844 1.7227689553612442 0 0 0
146 49 1 0.5897 5.461967638677 12.469376286339442 1.209486134874764 0 0 0
147 49 1 0.5897 3.9593157531216305 12.653053515180446 1.199444167809867 0 0 0
268 90 2 -1.1794 1.6948279000385182 12.616534345762686 5.013984068587988 0 0 0
247 83 2 -1.1794 6.0667680125954 17.10230629156705 3.5559213233745535 0 0 0
265 89 2 -1.1794 4.564855290801215 18.382149960171812 0.7720353620343775 0 0 0
287 96 1 0.5897 6.0907533582379605 14.202900246288436 3.0447941922502966 0 0 0
338 113 1 0.5897 0.10273520274568569 17.05017156005397 2.8846184869014375 1 0 0
339 113 1 0.5897 0.23360515000922072 17.804674842380273 4.190473265027456 1 0 0
389 130 1 0.5897 2.2846419822461996 18.506467380562288 4.462455437475901 0 0 0
256 86 2 -1.1794 0.0677769987418842 14.012204909075692 1.9982611193722795 0 0 0
740 247 1 0.5897 4.603666874914042 15.520265058362229 5.61813920320353 0 0 0
731 244 1 0.5897 2.996547233914343 17.181431035600458 8.69403349326711 0 0 0
743 248 1 0.5897 1.7171251160252843 17.85264442425129 6.651116916941847 0 0 0
749 250 1 0.5897 1.6079745557619807 13.496809648647371 10.725742532400792 0 0 0
733 245 2 -1.1794 1.6184076714379279 15.37951793187425 10.75916639078541 0 0 0
748 250 2 -1.1794 1.6006401311708611 12.554855239667075 10.555778229138559 0 0 0
744 248 1 0.5897 1.7528992692915084 16.34187113131138 6.7414490821485895 0 0 0
768 256 1 0.5897 6.042153878777839 14.69750262652418 7.318712369987838 0 0 0
1221 407 1 0.5897 4.698530299569515 15.131418497531993 11.297721470259079 0 0 0
736 246 2 -1.1794 0.25653595004306495 13.96303127691329 7.817138849412038 0 0 0
818 273 1 0.5897 0.2657468862955733 16.961482360396246 8.531411316582474 1 0 0
739 247 2 -1.1794 4.671472019989327 15.843986453529602 6.516320236773735 0 0 0
721 241 2 -1.1794 4.635695734140918 13.746065009306767 9.886874517687323 0 0 0
745 249 2 -1.1794 4.660783701558814 18.54038566053027 6.499232198444032 0 0 0
737 246 1 0.5897 1.2116148700727984 13.960521588399022 7.880450760428137 0 0 0
741 247 1 0.5897 4.728116402527749 16.795129620504877 6.424997234023281 0 0 0
724 242 2 -1.1794 2.9512426269976846 14.077648544939013 7.742139310457842 0 0 0
730 244 2 -1.1794 3.4500796829103364 16.92337212159872 9.496436645274828 0 0 0
732 244 1 0.5897 2.8506547321686435 16.312466014276655 9.925007507945635 0 0 0
728 243 1 0.5897 5.252971627737106 16.76018913103709 9.356543781433945 0 0 0
723 241 1 0.5897 5.350486241191839 13.77263031395362 9.25085195284251 0 0 0
722 241 1 0.5897 3.840504348041474 13.796776598177651 9.356528545404409 0 0 0
735 245 1 0.5897 0.8881795669071278 15.82413294930552 10.328741931448315 0 0 0
725 242 1 0.5897 3.4409762292415116 14.849932602472256 7.45939857205901 0 0 0
742 248 2 -1.1794 1.6728200434869807 17.13056306202873 7.277863944290846 0 0 0
726 242 1 0.5897 3.259325405245398 13.375186210069964 7.169590911929506 0 0 0
869 290 1 0.5897 0.976754241184239 18.276674390487624 10.32892538078857 0 0 0
870 290 1 0.5897 2.472085523494091 18.13258640825893 10.516044840179253 0 0 0
1106 369 1 0.5897 4.633860131218461 12.524503616430705 11.344905625091297 0 0 0
627 209 1 0.5897 5.167394867363966 12.542360143801131 6.996116019936645 0 0 0
1201 401 2 -1.1794 4.825141072911008 14.016629188875662 15.680144658895388 0 0 0
1202 401 1 0.5897 5.592546148411099 13.919683789972598 15.116357243303938 0 0 0
1203 401 1 0.5897 4.86460739754944 13.264310955641264 16.270600643795625 0 0 0
1204 402 2 -1.1794 2.9413542957011334 13.80954358819712 13.509953754860042 0 0 0
1205 402 1 0.5897 3.35650138871157 13.862216547507417 14.370772038997192 0 0 0
1206 402 1 0.5897 3.403852639600945 13.100348704049791 13.063492237941587 0 0 0
1210 404 2 -1.1794 3.308236876560161 16.97841344402722 15.099733294532594 0 0 0
1211 404 1 0.5897 2.887698906413183 17.708464117905667 15.554007075929093 0 0 0
1212 404 1 0.5897 4.24261740247352 17.184065628588343 15.128580010616453 0 0 0
1213 405 2 -1.1794 1.5062135551252847 15.199159307495146 16.311616352074147 0 0 0
1214 405 1 0.5897 0.8020673530942883 15.667787635531289 15.863565562334546 0 0 0
1215 405 1 0.5897 2.308696383076316 15.620286313829165 16.00361411795643 0 0 0
1218 406 1 0.5897 1.0903734337566786 13.948433296571206 13.649410156821695 0 0 0
1219 407 2 -1.1794 4.706664760923551 15.569297824417934 12.148795918285188 0 0 0
1220 407 1 0.5897 4.128736162859443 15.038737453470002 12.697136415833334 0 0 0
1222 408 2 -1.1794 1.5098530455420882 16.985074913652017 12.960042069632083 0 0 0
1223 408 1 0.5897 1.647556778054085 17.73613387306926 12.382868596429576 0 0 0
1224 408 1 0.5897 2.2505356386165287 17.00900982123558 13.565826758552738 0 0 0
1227 409 1 0.5897 4.7904510837717345 17.492692999009773 12.183121041524341 0 0 0
1229 410 1 0.5897 1.5647780062962666 13.369709010687725 16.36746954180161 0 0 0
1228 410 2 -1.1794 1.6896707834041829 12.43115704566478 16.226944645204888 0 0 0
1216 406 2 -1.1794 0.15148088497795617 13.803265354173911 13.53280215705525 0 0 0
1225 409 2 -1.1794 4.629084357574368 18.434654986227855 12.129374084135321 0 0 0
1247 416 1 0.5897 6.106027741054032 14.558412296801583 13.00274067415725 0 0 0
1298 433 1 0.5897 0.2548017256466593 17.081891461813882 14.229166823850733 1 0 0
1248 416 1 0.5897 6.004729357561796 13.04895512884892 13.058878320725082 0 0 0
734 245 1 0.5897 1.638841499869891 15.750473903580753 11.641267559161921 0 0 0
1207 403 2 -1.1794 6.152086367791834 17.041941721771124 15.034148886817405 0 0 0
1350 450 1 0.5897 0.887292451187718 18.393066667910688 16.07870576886704 0 0 0
1700 567 1 0.5897 4.669406182860169 15.237488854450142 17.00289581566623 0 0 0
1697 566 1 0.5897 1.0601170298416471 13.755414005511046 19.213859444037595 0 0 0
1703 568 1 0.5897 1.3411496604717519 16.258319722290707 17.859166079270985 0 0 0
1687 563 2 -1.1794 5.868676315607258 17.085465245958446 20.72677182619409 0 0 0
1690 564 2 -1.1794 3.11412242914333 17.053882932523244 20.661316151470977 0 0 0
1830 610 1 0.5897 2.324955271069916 18.39191506833587 21.8543294472298 0 0 0
261 87 1 0.5897 4.489685379291497 15.28781054245208 22.583708664744748 0 0 -1
1691 564 1 0.5897 2.6953588677289226 16.335004875914983 21.134644527081512 0 0 0
1685 562 1 0.5897 3.17576025071054 13.100274455082676 18.697497722319312 0 0 0
1686 562 1 0.5897 3.2567232863729854 13.804502914254583 20.03509354146781 0 0 0
1705 569 2 -1.1794 4.835145710259259 18.35804455274499 17.977082600052512 0 0 0
1696 566 2 -1.1794 0.1052720174789518 13.6948423170811 19.242086428114717 0 0 0
1708 570 2 -1.1794 1.4141121319811436 12.476067762683101 21.847851501311304 0 0 0
1701 567 1 0.5897 3.806067681281306 15.145656033937382 18.243005064322077 0 0 0
1692 564 1 0.5897 2.6057046196174007 17.13849546088684 19.854787621894374 0 0 0
1689 563 1 0.5897 4.934836288337424 17.103374327750394 20.517461966440777 0 0 0
1695 565 1 0.5897 1.2991452773943257 14.31771674751756 21.808292972174684 0 0 0
1681 561 2 -1.1794 4.586958823769194 13.937606178071084 21.347308800350604 0 0 0
1728 576 1 0.5897 5.884428816913401 14.593824998886177 18.750283217747423 0 0 0
1683 561 1 0.5897 4.719499789951394 13.277653206857456 22.02779604869403 0 0 0
1707 569 1 0.5897 4.637324629435202 17.433859696670265 17.8255333766012 0 0 0
1693 565 2 -1.1794 1.4090057765931938 15.240086956910215 22.039330672696373 0 0 0
1702 568 2 -1.1794 1.2088694090620877 16.99271261779585 18.458622017376214 0 0 0
1704 568 1 0.5897 1.3542243338625104 17.770908278165084 17.920599086230396 0 0 0
1694 565 1 0.5897 0.6577056919255538 15.678639120586565 21.640077819873703 0 0 0
1684 562 2 -1.1794 2.793630497329969 13.821425468898386 19.197604776612103 0 0 0
1586 529 1 0.5897 5.232497982681034 12.59152411524546 18.18369509274359 0 0 0
1778 593 1 0.5897 0.10905600689726883 16.989374286277286 19.978497204356124 1 0 0
1779 593 1 0.5897 0.32260617611166864 17.728939245049197 21.281991669861277 1 0 0
1699 567 2 -1.1794 4.4906886543695945 15.67566804346075 17.834877749892712 0 0 0
1682 561 1 0.5897 5.411798955475011 13.950748396567851 20.861884509386627 0 0 0
361 121 2 -1.1794 4.858809283284168 20.189652305603186 4.3181126964183285 0 0 0
362 121 1 0.5897 4.130995687176355 20.154108132826934 3.697479685493283 0 0 0
363 121 1 0.5897 4.7258355702379795 19.4318398772346 4.887515193457258 0 0 0
364 122 2 -1.1794 2.9801135179258247 20.099849335314552 2.351163616462407 0 0 0
365 122 1 0.5897 3.335296636149622 20.807883205229928 1.8138409945242555 0 0 0
366 122 1 0.5897 2.035499190204396 20.13505201943371 2.2006504486846525 0 0 0
370 124 2 -1.1794 3.3211739505786975 23.390249488151653 3.5035081700120267 0 0 0
371 124 1 0.5897 4.260526648385537 23.305529806282276 3.666689377937576 0 0 0
372 124 1 0.5897 2.949076192877505 22.562626323852665 3.8081209717077336 0 0 0
373 125 2 -1.1794 1.6763272497795232 21.56998215967521 4.769904769887385 0 0 0
375 125 1 0.5897 0.8640511032676705 21.956822742868287 4.443182082844096 0 0 0
379 127 2 -1.1794 4.54526367760185 21.818699029765995 0.7853871135374969 0 0 0
380 127 1 0.5897 4.72008098311819 22.759415837128042 0.7586720126772732 0 0 0