LAMMPS data file via write_data, version 30 Jul 2021, timestep = 36500000

1008 atoms
2 atom types
672 bonds
1 bond types
336 angles
1 angle types

-3.1336015172301543 14.743600516780702 xlo xhi
-0.011205141853533718 22.59120414184811 ylo yhi
0.060928970548582484 19.16906902944381 zlo zhi
-0.1905873069926578 -6.338363115345053 0.19422738457231942 xy xz yz

Masses

1 1.008
2 15.999

Pair Coeffs # lj/cut/tip4p/long/omp

1 0 0
2 0.21084 3.1668

Bond Coeffs # harmonic/omp

1 450 0.9572

Angle Coeffs # harmonic/omp

1 55 104.52

Atoms # full

55 19 2 -1.1794 -0.8628841504419791 4.159415031266552 3.4827155526448106 0 0 0
56 19 1 0.5897 -1.4975275197795646 3.6105019188371124 3.0219823864330326 0 0 0
57 19 1 0.5897 -0.08735655267615083 4.1521664642671245 2.9217706215315267 0 0 0
121 41 2 -1.1794 -2.6249097808420787 2.3881120018013755 2.3599054096678613 1 0 0
122 41 1 0.5897 -2.5458437212724014 2.0516372501393016 1.4673242867070806 1 0 0
21 7 1 0.5897 1.0953557218115586 2.6875607753995974 0.8916150871502302 0 0 0
31 11 2 -1.1794 1.2185057743886283 1.3136660851096358 2.4320910626835985 0 0 0
86 29 1 0.5897 -2.171028111965666 1.4819441924032082 4.05670638437279 1 0 0
32 11 1 0.5897 1.1169312429620195 1.6023895064773266 3.3389936310517387 0 0 0
46 16 2 -1.1794 1.7653364817423247 4.613020530284146 2.420225323603381 0 0 0
16 6 2 -1.1794 5.401119339024749 4.854041574553137 0.21081554450964587 0 0 0
70 24 2 -1.1794 3.787494781892521 0.6282498788418118 1.6948540342995448 0 0 0
669 223 1 0.5897 -5.0288673050767345 1.8417782201132626 9.172165269203422 1 0 0
71 24 1 0.5897 3.0013216930073066 0.7274369037253781 2.231749452270056 0 0 0
48 16 1 0.5897 1.795747431329021 5.336786962929975 3.0459769580639815 0 0 0
123 41 1 0.5897 -3.516583067399774 2.732823231325664 2.40831160830756 1 0 0
47 16 1 0.5897 1.9256343303361971 5.023608653033628 1.570618650269677 0 0 0
54 18 1 0.5897 3.091445913278199 3.674451446931694 3.075441813975962 0 0 0
158 53 1 0.5897 -4.155400092859943 4.5878092071667576 4.361845116343429 1 0 0
522 174 1 0.5897 2.2873166798486864 5.6482393213197595 9.259555092337305 0 0 0
402 134 1 0.5897 1.562912406410863 0.13412362958216623 7.921276295578823 0 1 0
52 18 2 -1.1794 3.7628062753569136 3.254422045086192 3.613106778645032 0 0 0
101 34 1 0.5897 -2.4535862393816705 4.6773036787008255 0.1136062504842141 1 0 0
33 11 1 0.5897 0.5850191391089381 0.6027073229828518 2.334077210065118 0 0 0
44 15 1 0.5897 -0.16976381704510146 5.231255560226295 8.251736398593915 0 0 0
124 42 2 -1.1794 -4.812880768080923 2.565901973171025 7.539664726419206 1 0 0
6 2 1 0.5897 3.7813391384719246 1.7749221558474242 4.624236901511915 0 0 0
159 53 1 0.5897 -3.1388917157024885 4.537221427206879 5.4825688849166925 1 0 0
87 29 1 0.5897 -3.254708262489139 1.1083802265186615 5.045528536723957 1 0 0
85 29 2 -1.1794 -2.3084114932005595 1.2312475572973065 4.970143524934113 1 0 0
45 15 1 0.5897 0.7981049464621539 4.733796917935626 7.1993823074959975 0 0 0
78 26 1 0.5897 0.20238219809676572 3.0863154920378117 4.538476438396125 0 0 0
76 26 2 -1.1794 0.8993303292824031 2.486313141064863 4.8040499072377685 0 0 0
59 20 1 0.5897 2.0316395754192085 3.633430652952159 5.696947080607036 0 0 0
43 15 2 -1.1794 -0.12541213144697938 4.942300017308775 7.340314618773598 0 0 0
60 20 1 0.5897 3.0801256750327743 3.778372221639489 6.779341286541405 0 0 0
34 12 2 -1.1794 0.29099988067470584 1.3738377026266502 7.224409946556298 0 0 0
35 12 1 0.5897 0.4350802682608501 2.036728419528057 7.899783872533767 0 0 0
36 12 1 0.5897 -0.5791952807871463 1.0230476144642138 7.414054435859081 0 0 0
527 176 1 0.5897 4.068895408356408 1.8828666863315402 0.35679273569664954 0 0 1
67 23 2 -1.1794 -2.1125348693105166 0.5836270218622404 8.161168370438375 0 0 0
157 53 2 -1.1794 -3.5855967893547387 5.144460690059689 4.892701767103151 1 0 0
58 20 2 -1.1794 2.433185715363228 4.277266333385219 6.280541270329305 0 0 0
482 161 1 0.5897 -0.8745811283779936 0.002726530163069136 1.0401540582232487 1 1 0
5 2 1 0.5897 3.302276452914951 0.383112266207395 4.978582203073736 0 0 0
135 45 1 0.5897 -1.533998272349324 3.9134821664223165 6.843720995131981 1 0 0
126 42 1 0.5897 -3.935060161063195 2.8978298930037236 7.351252688922959 1 0 0
77 26 1 0.5897 0.54374372779739 2.0271800484700617 5.564893003968312 0 0 0
134 45 1 0.5897 -2.1131791919123764 2.6914024291654424 6.163008187059803 1 0 0
133 45 2 -1.1794 -2.363955169149447 3.5148204715824467 6.581865368439241 1 0 0
69 23 1 0.5897 -2.3205143223816997 1.252869588559695 8.813193355262058 0 0 0
401 134 1 0.5897 2.632530987224486 0.19713966992258278 8.99078167625212 0 1 0
97 33 2 -1.1794 -3.773485793375775 4.810725542202154 9.276254721654476 1 0 0
53 18 1 0.5897 4.512156372162101 3.1537896284781843 3.0261686529544773 0 0 0
98 33 1 0.5897 -3.6799135926008004 5.238444235999332 8.425129739472066 1 0 0
602 201 1 0.5897 -0.3644380940493046 5.464512830959859 0.28124814810036936 1 0 1
9 3 1 0.5897 -0.8151136464560111 5.672083318189813 4.493573622487763 0 0 0
68 23 1 0.5897 -2.96420496493252 0.24652150011877816 7.883086110766352 0 0 0
125 42 1 0.5897 -5.402306580769672 3.234070322625797 7.189805426662997 1 0 0
606 202 1 0.5897 -5.6487703348057785 4.69123994019922 9.566720736945365 1 0 0
4 2 2 -1.1794 3.9914204535476916 1.018698797943333 5.172177790897845 0 0 0
163 55 2 -1.1794 -1.8879114048605607 1.2032330101480269 0.06262503833733837 1 0 0
22 8 2 -1.1794 0.5996535033906598 2.878693904289698 9.576011810479855 0 0 0
591 197 1 0.5897 -5.064445893804582 0.23607032924000926 14.552544500353818 1 0 0
626 209 1 0.5897 -5.771565964595723 2.044175207500549 12.840383343018003 1 0 0
23 8 1 0.5897 0.735282645909304 2.244518281579973 10.2800120604472 0 0 0
629 210 1 0.5897 -8.608959000283809 3.417079765948201 16.500918655411937 1 0 0
536 179 1 0.5897 -2.0405674205977364 1.6371032360218165 12.963111234164101 0 0 0
508 170 2 -1.1794 0.6455937990056455 1.2111419603916573 14.394350891570681 0 0 0
576 192 1 0.5897 -0.09417986137625523 0.8121575809434367 11.770264113771988 0 0 0
628 210 2 -1.1794 -8.037055319082162 2.691211102029891 16.750590423552715 1 0 0
535 179 2 -1.1794 -1.9376917916422922 1.079045361384786 12.192247253327738 0 0 0
165 55 1 0.5897 -8.76333305512324 0.7041707263556014 18.786968810709723 1 0 -1
537 179 1 0.5897 -2.1415140688515764 1.6515624899812087 11.45274732545957 0 0 0
561 187 1 0.5897 -3.4602291907537106 3.773950700651886 13.62605634487194 0 0 0
575 192 1 0.5897 1.3158149005049662 0.26495414342864676 11.836896051683288 0 0 0
164 55 1 0.5897 -7.970920010451719 1.942938014604394 18.426858050935046 1 0 -1
627 209 1 0.5897 -6.707915432507581 3.1241449463062025 12.341462192671871 1 0 0
557 186 1 0.5897 0.546298921196021 2.880880311732478 13.296414137678648 0 0 0
558 186 1 0.5897 0.03610498515300975 4.131229087607068 12.612064951320352 0 0 0
559 187 2 -1.1794 -3.917411892817067 4.404785395122506 13.069937739688612 0 0 0
560 187 1 0.5897 -4.628322480959889 3.902491690307845 12.671623592323245 0 0 0
625 209 2 -1.1794 -5.856147055082079 2.7223766362569815 12.170243542699598 1 0 0
668 223 1 0.5897 -5.706661624581638 1.8732250537449209 10.52536630075448 1 0 0
556 186 2 -1.1794 0.8423352954073104 3.6908716741091516 12.881024259910408 0 0 0
580 194 2 -1.1794 -2.2017512206475995 2.7586286966353404 14.504283306164375 0 0 0
552 184 1 0.5897 -2.3041343694396828 5.036922578957678 12.413600039396288 0 0 0
589 197 2 -1.1794 -5.6905826123478445 0.9067931796133408 14.279839943679615 1 0 0
550 184 2 -1.1794 -1.3842437032232526 5.254624007954586 12.263069451808715 0 0 0
572 191 1 0.5897 -6.04829020194008 0.2129588956779528 17.37081863930458 0 0 0
526 176 2 -1.1794 -2.4417877593610813 2.795222632397335 18.8559907263108 0 0 0
630 210 1 0.5897 -8.287944396048225 1.9758787035605316 16.166042894448772 1 0 0
582 194 1 0.5897 -1.7782511990867729 3.4528475813809703 15.009338331582782 0 0 0
525 175 1 0.5897 -1.2940517697906704 2.9370133010639963 9.85691652059344 0 0 0
547 183 2 -1.1794 -3.537326616315341 4.816098003400886 16.863212649909755 0 0 0
639 213 1 0.5897 -5.684219523972917 4.111135691607819 14.999022947855138 1 0 0
538 180 2 -1.1794 -2.8897830078645814 1.2816092584385572 16.67602755029926 0 0 0
540 180 1 0.5897 -3.8191948463875924 1.158798837363513 16.869276549598894 0 0 0
510 170 1 0.5897 0.6846134278241491 1.6760710014152065 15.230138900438508 0 0 0
539 180 1 0.5897 -2.576423053618277 1.8667343072482412 17.36577278225034 0 0 0
638 213 1 0.5897 -6.363241311472159 3.190001849503188 15.990086285602262 1 0 0
549 183 1 0.5897 -4.166168462270341 4.106594008186572 16.73083751945218 0 0 0
562 188 2 -1.1794 -0.8304998618642685 4.40666073529056 16.09698097875424 0 0 0
528 176 1 0.5897 -3.3670752051736876 3.0031617723213038 18.985736688499827 0 0 0
564 188 1 0.5897 -1.5957928756297948 4.531729965304987 16.65808792046404 0 0 0
593 198 1 0.5897 -7.619149551359973 0.7591569969559115 14.51968048795032 1 0 0
524 175 1 0.5897 -2.7143280117604895 3.452954392997062 9.764379746144488 0 0 0
637 213 2 -1.1794 -5.519393318999532 3.3627980470454673 15.572645705881373 1 0 0
663 221 1 0.5897 -7.478571875993002 4.794723949512561 13.92005936194828 1 0 0
581 194 1 0.5897 -2.564035441369792 2.168076620326667 15.164721807345542 0 0 0
590 197 1 0.5897 -5.447651146771497 1.682046791006524 14.786145791252263 1 0 0
563 188 1 0.5897 -0.749882091690699 5.229342142463084 15.614316812627193 0 0 0
523 175 2 -1.1794 -2.203214899322027 2.6841248251338015 10.017287779295641 0 0 0
20 7 1 0.5897 -5.2628075441602915 2.24509452363476 18.626422717110685 0 0 -1
661 221 2 -1.1794 -6.80172356847811 5.433324462151225 14.144645494672764 1 0 0
574 192 2 -1.1794 0.691937166125332 0.679085398687265 11.240662465130567 0 0 0
571 191 2 -1.1794 -5.277881398915701 0.6404511465748914 17.745058824871336 0 0 0
667 223 2 -1.1794 -5.416871739654484 1.2737324699811419 9.837714153014778 1 0 0
99 33 1 0.5897 -3.6542113797985567 5.515287004636768 9.913200164979925 1 0 0
548 183 1 0.5897 -3.777459570463998 5.474408656476027 16.211167030445537 0 0 0
601 201 2 -1.1794 -7.003952964163416 5.082948004744 18.686497032963736 1 0 0
19 7 2 -1.1794 -5.2169142875706465 3.093833986310789 19.066779380587654 0 0 -1
24 8 1 0.5897 1.1991013115880111 3.596438609499738 9.780692365498277 0 0 0
520 174 2 -1.1794 2.371177359643033 4.99442019979312 9.953586527882452 0 0 0
603 201 1 0.5897 -6.398509358048482 4.3417975897682854 18.70731830928348 1 0 0
84 28 1 0.5897 -3.5689490545356914 5.68128042066124 18.492168435375746 0 0 -1
587 196 1 0.5897 -0.940685569531055 5.677513990286512 10.613104820916153 0 0 0
18 6 1 0.5897 -1.4465784479970552 4.259656379577924 19.131726055775907 0 0 -1
289 97 2 -1.1794 -2.5408300932093018 9.883176318574291 2.5540313171151596 1 0 0
332 111 1 0.5897 -2.2771979707079613 9.096421509068334 0.9110639495352142 1 0 0
255 85 1 0.5897 -2.282158292294138 8.723560608570525 4.047491555108886 1 0 0
147 49 1 0.5897 -0.7981705356402578 7.311831489219438 1.0469588144931627 1 0 0
146 49 1 0.5897 -1.0395232139570325 6.460136420842229 2.274983910622938 1 0 0
145 49 2 -1.1794 -0.3482625018057508 6.75463642368342 1.6820373709393497 1 0 0
174 58 1 0.5897 3.540685336997024 9.266873349202797 4.514897086824676 0 0 0
112 38 2 -1.1794 -2.940363217724445 6.569684796514456 2.6096603045760998 1 0 0
110 37 1 0.5897 -3.938057499765651 6.256808333280075 6.271485169115439 1 0 0
222 74 1 0.5897 2.965227217678337 11.316592480549343 3.0675065059366426 0 0 0
172 58 2 -1.1794 3.7316732853519445 8.589151721799707 5.163293650706433 0 0 0
696 232 1 0.5897 4.1973371795467145 10.864388115861402 0.10234151262280991 0 0 1
201 67 1 0.5897 2.0898122585212215 8.50656059738287 2.417911012824585 0 0 0
188 63 1 0.5897 0.7828658536351369 9.858921476506627 0.9936700261899987 0 0 0
200 67 1 0.5897 0.644887857322423 8.062711194168616 2.3329738883055384 0 0 0
66 22 1 0.5897 3.1360026530743985 6.769880596692002 7.759217868439473 0 0 0
199 67 2 -1.1794 1.1930200561331699 8.823807133004614 2.524453863044326 0 0 0
239 80 1 0.5897 3.7863519346260848 8.67960827690468 1.2353015918798016 0 0 0
238 80 2 -1.1794 3.6450191784555255 7.942501719860777 1.8293802784666817 0 0 0
173 58 1 0.5897 3.1579703096463856 7.860716263403282 4.92530835486395 0 0 0
10 4 2 -1.1794 2.0760536000560537 6.488381118780146 4.5789545947403445 0 0 0
240 80 1 0.5897 3.317980836427483 7.240186753974156 1.2670968587148184 0 0 0
245 82 1 0.5897 0.9413658968866443 9.587395707735404 4.053174508681341 0 0 0
228 76 1 0.5897 1.9871377990184307 11.081639965699862 5.817503838834059 0 0 0
291 97 1 0.5897 -3.4596919159056903 10.09530441162638 2.7181154360523037 1 0 0
113 38 1 0.5897 -3.119219688658263 6.084215302326058 3.414929405856894 1 0 0
12 4 1 0.5897 1.1446846827475712 6.647862472431691 4.731760011530797 0 0 0
65 22 1 0.5897 2.463070626326088 7.525979487659487 8.88493104971939 0 0 0
837 279 1 0.5897 -5.623272663970916 8.337771594181646 9.18179510179614 1 0 0
301 101 2 -1.1794 -2.1755704239971436 10.82793552844469 6.533798511118553 1 0 0
11 4 1 0.5897 2.332361681398189 5.880245323194519 5.27225369103188 0 0 0
8 3 1 0.5897 -0.4467818667891166 5.965010310367952 5.932417434534485 0 0 0
254 85 1 0.5897 -1.8045391918299096 7.669781318934515 5.023866916151752 1 0 0
253 85 2 -1.1794 -2.300181129776136 8.487252505650154 4.97481433772529 1 0 0
302 101 1 0.5897 -1.9232815707683004 9.9759234802726 6.177732696218135 1 0 0
244 82 2 -1.1794 0.7300203801045502 10.110770102349665 4.8262411037249136 0 0 0
220 74 2 -1.1794 3.6133613877124002 10.75985513653558 3.499039699272478 0 0 0
294 98 1 0.5897 -4.7490000517885465 9.874014103871136 8.249249022640639 1 0 0
109 37 2 -1.1794 -3.9723823207796536 6.665944120111389 7.136138218592238 1 0 0
7 3 2 -1.1794 -0.5729844086927502 6.386816366131303 5.0825426484073 0 0 0
64 22 2 -1.1794 2.280226026511677 6.933924185657344 8.15532666600787 0 0 0
237 79 1 0.5897 -2.0838255619960377 8.7923455325654 8.728692442061295 0 0 0
257 86 1 0.5897 -4.183509331898367 8.412429144888769 4.979873920099499 1 0 0
290 97 1 0.5897 -2.0708396194158385 10.69775101428872 2.7328626166252996 1 0 0
292 98 2 -1.1794 -4.73941241098427 10.340684417380409 7.413635773980367 1 0 0
191 64 1 0.5897 0.5881142273553008 9.828541005976508 8.688904533885873 0 0 0
293 98 1 0.5897 -3.825314738695961 10.597756892405128 7.292842186596244 1 0 0
202 68 2 -1.1794 0.5318166970881699 8.798269139017318 7.15204408027579 0 0 0
203 68 1 0.5897 -0.34031810333521095 8.514540682740696 7.426108744999989 0 0 0
204 68 1 0.5897 1.1080522673543953 8.074775599741708 7.398627675225451 0 0 0
246 82 1 0.5897 0.765959577324443 9.48958398549329 5.553575373473589 0 0 0
235 79 2 -1.1794 -1.8433423971887404 7.9445911947489884 8.354749467793965 0 0 0
236 79 1 0.5897 -2.6113450418482964 7.678776701977157 7.848973969054349 0 0 0
111 37 1 0.5897 -4.8848101446461865 6.937010665043128 7.237288575755197 1 0 0
588 196 1 0.5897 -1.1791595140634898 6.681060952097691 9.505031117359824 0 0 0
187 63 2 -1.1794 0.7925437586205093 10.26169244301161 0.12545509434728103 0 0 0
221 74 1 0.5897 4.343254670240822 10.718023652383456 2.881268737235963 0 0 0
303 101 1 0.5897 -1.3607016246516759 11.19617817107598 6.875420150455519 1 0 0
82 28 2 -1.1794 2.460619637118924 5.986290261086616 0.14008150682889192 0 0 0
258 86 1 0.5897 -5.029059344289662 9.22139486722617 5.940320418454402 1 0 0
190 64 2 -1.1794 0.4926236082287838 10.22468212357061 9.555007259514142 0 0 0
192 64 1 0.5897 1.1683021306669588 10.902119438802702 9.585016973934584 0 0 0
114 38 1 0.5897 -3.0511915731221553 5.92468363371431 1.9110926426246746 1 0 0
331 111 2 -1.1794 -1.85621648520509 8.554845912692977 0.24346086051047136 1 0 0
692 231 1 0.5897 -1.363184704077748 10.559420338557471 9.550782018428606 0 0 0
676 226 2 -1.1794 0.6645083839807038 8.769486269524931 14.598634639132506 0 0 0
798 266 1 0.5897 -8.07818840441701 9.77737928229816 16.381357233276916 1 0 0
759 253 1 0.5897 -5.401094540628913 9.138023017503643 13.424880196264535 1 0 0
651 217 1 0.5897 -4.530103098786203 6.936251860882132 11.481980141174677 1 0 0
83 28 1 0.5897 -4.40642448368099 6.884074177187394 18.871681949323936 0 0 -1
797 266 1 0.5897 -6.925263610599871 10.566138907195393 16.965141036949156 1 0 0
795 265 1 0.5897 -5.600479736272268 9.922547309960363 11.111955716552009 1 0 0
693 231 1 0.5897 -2.3796442162959868 10.06945623636389 10.559954257696793 0 0 0
649 217 2 -1.1794 -3.657249584725168 6.948340029887449 11.08933900334914 1 0 0
650 217 1 0.5897 -3.1552525777495006 7.5505312621926866 11.63862532731153 1 0 0
742 248 2 -1.1794 0.44661293514516576 8.052577605398083 11.394187746594103 0 0 0
793 265 2 -1.1794 -5.837142221605044 10.208716302138914 11.99413065432519 1 0 0
743 248 1 0.5897 0.5539433548836721 8.836510522707053 10.855507974256696 0 0 0
744 248 1 0.5897 0.18454627299715476 7.37038050303999 10.775906339080418 0 0 0
741 247 1 0.5897 -5.5781381979052895 8.869829471152087 18.23865123332842 0 0 0
618 206 1 0.5897 -6.40909774791381 6.007196996353473 11.130067276444517 1 0 0
703 235 2 -1.1794 -2.0978008985927046 9.033369281534279 12.122064851585263 0 0 0
704 235 1 0.5897 -1.2126938674266707 8.679482864022631 12.034897520328418 0 0 0
705 235 1 0.5897 -2.072685378671144 9.546301800532852 12.929837059633657 0 0 0
691 231 2 -1.1794 -2.303213983098391 10.429955836809135 9.676606568617792 0 0 0
706 236 2 -1.1794 -2.89007200877154 8.971155191220717 16.83747086035703 0 0 0
707 236 1 0.5897 -3.76483274716343 8.64112112759744 17.042702825156745 0 0 0
750 250 1 0.5897 -2.989154160344861 10.847720694404522 14.18248910081447 0 0 0
333 111 1 0.5897 -7.96753463444539 9.362782842402103 18.653043422420396 1 0 -1
662 221 1 0.5897 -6.536877243156164 5.8078290029566055 13.304580462492918 1 0 0
796 266 2 -1.1794 -7.849587713845028 10.360562519747809 17.10518936392738 1 0 0
748 250 2 -1.1794 -2.2421209758087812 10.376561574276812 14.551552095485988 0 0 0
514 172 2 -1.1794 -1.027395236649074 6.619447051030419 14.473184925666601 0 0 0
708 236 1 0.5897 -2.294732969659532 8.319082484628368 17.20711474921204 0 0 0
749 250 1 0.5897 -2.6233256141989676 9.80995557110201 15.222225021959527 0 0 0
570 190 1 0.5897 -0.2180591032545225 7.171127548016731 17.37945561785343 0 0 0
512 171 1 0.5897 -4.448353203388844 7.358269791188694 14.497969648858788 0 0 0
511 171 2 -1.1794 -3.8456842204278026 6.644080510699425 14.705380883753934 0 0 0
515 172 1 0.5897 -1.9193473611744665 6.87991652256684 14.702974071584107 0 0 0
516 172 1 0.5897 -0.5053413758904455 7.4114006705309325 14.602282076509178 0 0 0
724 242 2 -1.1794 0.7140986648211403 10.911734941864848 12.842706221380674 0 0 0
757 253 2 -1.1794 -5.477471913451854 8.726498053286832 14.285644923476848 1 0 0
695 232 1 0.5897 -2.6360926926658923 9.99561390072052 18.252817224540642 0 0 0
758 253 1 0.5897 -5.351854306163813 9.444093022933142 14.906623879160747 1 0 0
616 206 2 -1.1794 -6.289769796820407 6.673661021904283 11.80673332561151 1 0 0
762 254 1 0.5897 -7.23960954722612 8.599919431497826 14.697446895763088 1 0 0
568 190 2 -1.1794 -1.0204756528405872 7.324675012973998 17.87817354151681 0 0 0
551 184 1 0.5897 -1.1672513387564232 5.874765130746572 12.959238032085938 0 0 0
836 279 1 0.5897 -4.524748223604697 8.346700334098191 10.223464756370076 1 0 0
678 226 1 0.5897 0.4751749111863548 9.44365561852815 13.946058519023353 0 0 0
739 247 2 -1.1794 -5.257555363399073 8.026677443380125 17.918225639306314 0 0 0
613 205 2 -1.1794 -7.156176585264445 6.680030082693007 16.46360054433687 1 0 0
740 247 1 0.5897 -5.945867035950955 7.715976936648405 17.33001832753996 0 0 0
794 265 1 0.5897 -5.2620739712874 10.954226892584595 12.16705628330912 1 0 0
569 190 1 0.5897 -1.1398966780813913 6.526164727357139 18.39234514788695 0 0 0
805 269 2 -1.1794 -5.366767156956631 10.818349550167138 15.955483042649204 1 0 0
615 205 1 0.5897 -7.019526665384753 6.258323526391207 15.615263003960601 1 0 0
654 218 1 0.5897 -9.212990980396484 7.832938675898367 18.312536824342168 1 0 0
513 171 1 0.5897 -4.061535334936309 5.957029799544229 14.074753624119012 0 0 0
617 206 1 0.5897 -7.04185096888129 7.256917734631207 11.704471476070022 1 0 0
586 196 2 -1.1794 -0.517093834767818 6.087142982672519 9.858857827606505 0 0 0
807 269 1 0.5897 -4.742290021627296 11.338053473709946 16.461717990420404 1 0 0
614 205 1 0.5897 -6.972810839143749 5.993582148651867 17.104992905001346 1 0 0
726 242 1 0.5897 -0.025571456317709185 11.351408051541059 12.423397133958911 0 0 0
806 269 1 0.5897 -5.73737687788803 11.435915489634704 15.325033582713337 1 0 0
694 232 2 -1.1794 -2.735768815882639 10.310870419846152 19.151058797119404 0 0 0
189 63 1 0.5897 -4.62788118116856 10.682610017622325 19.084453672307582 0 0 -1
835 279 2 -1.1794 -5.056425629005547 8.927433718076225 9.679125950414 1 0 0
280 94 2 -1.1794 -3.5038917879009888 14.074313892432022 2.614771443185773 1 0 0
184 62 2 -1.1794 5.307509693430905 12.305545337229406 0.40741562174274626 0 0 0
756 252 1 0.5897 -1.567694869455507 14.397419227893886 9.249957508084744 0 0 0
1004 335 1 0.5897 -5.249096117866877 16.78346261610241 9.030203345620228 1 0 0
223 75 2 -1.1794 -0.9735535729933855 11.928153315028185 3.522120456412921 0 0 0
232 78 2 -1.1794 2.081213638717877 14.590855203362969 8.41061115279169 0 0 0
371 124 1 0.5897 0.29166011808557446 17.01892410601776 8.045807320856953 0 0 0
277 93 2 -1.1794 -4.32595221200903 13.902529160169847 7.035995051498618 1 0 0
326 109 1 0.5897 -2.964439421682587 11.96649667683734 5.256266155695643 1 0 0
226 76 2 -1.1794 2.3812438249630024 11.72805345809625 6.403318288191771 0 0 0
408 136 1 0.5897 3.983437198290484 16.11443608240632 1.231143345653656 0 0 0
281 94 1 0.5897 -3.509790351715018 13.5675411499401 3.4267354755953314 1 0 0
340 114 2 -1.1794 3.6588203678903266 16.259976857562297 5.191016008808798 0 0 0
372 124 1 0.5897 0.3187966411087335 16.791573425690675 6.549410986143818 0 0 0
341 114 1 0.5897 3.1735443581174634 15.441200624667594 5.293401219909636 0 0 0
227 76 1 0.5897 1.6644407209048744 12.001889523621 6.975488803471777 0 0 0
407 136 1 0.5897 4.567691545655515 15.028946611030424 2.109937807127905 0 0 0
234 78 1 0.5897 1.3914161759837302 15.075425750766886 7.9571624664839895 0 0 0
404 135 1 0.5897 -1.583808124689944 15.93342630585389 7.824586013887041 0 0 0
403 135 2 -1.1794 -2.411038395491484 15.718271328507733 8.255386087702224 0 0 0
282 94 1 0.5897 -2.593711296222392 14.35227986873543 2.51199816057168 1 0 0
178 60 2 -1.1794 2.0011844866369994 14.097185411928319 5.0151873200826325 0 0 0
180 60 1 0.5897 1.9374247762882684 13.780883283969533 4.114041407660364 0 0 0
368 123 1 0.5897 2.014127907741165 16.000910107382648 2.671232725265037 0 0 0
314 105 1 0.5897 -0.07340097629743969 15.083246424693542 2.032518552074933 1 0 0
175 59 2 -1.1794 -0.7495534332750378 14.064693458443406 5.270287063743354 0 0 0
313 105 2 -1.1794 -0.8966568236163157 14.660330301050097 1.788153092012173 1 0 0
315 105 1 0.5897 -0.6424732047127906 13.986491561590087 1.1575896831274537 1 0 0
225 75 1 0.5897 -1.118058439600972 12.720567356210378 4.039361934886382 0 0 0
278 93 1 0.5897 -3.682116667563448 14.537995868025309 7.34909482000142 1 0 0
279 93 1 0.5897 -5.169910698251179 14.260456434323995 7.31138251066947 1 0 0
252 84 1 0.5897 2.827139173132605 14.38540093007979 0.7807704730571532 0 0 0
214 72 2 -1.1794 1.6653579607710949 12.586466231513631 2.7731999333045594 0 0 0
215 72 1 0.5897 1.661711193442831 12.943029876588154 1.8849674697983305 0 0 0
216 72 1 0.5897 0.7492634804739255 12.37212624497113 2.9494764976458625 0 0 0
176 59 1 0.5897 -1.214443238302162 14.896303227926182 5.1773577939047986 0 0 0
406 136 2 -1.1794 3.7393819199014686 15.4438602472309 1.869080689386216 0 0 0
500 167 1 0.5897 -1.5890005055673497 16.067267068309267 0.6497600206541163 1 0 0
177 59 1 0.5897 0.167684371340854 14.282778901826811 5.104876491487911 0 0 0
367 123 2 -1.1794 1.0933527480627623 16.261358230106477 2.6954485394781384 0 0 0
421 141 2 -1.1794 -2.471952463563878 16.28233996409079 5.077223242550222 1 0 0
179 60 1 0.5897 2.163899141982709 13.309909757254971 5.534776532696552 0 0 0
233 78 1 0.5897 2.80391206679806 14.558953609737886 7.7838501301616665 0 0 0
425 142 1 0.5897 -4.3632729766907445 16.15718206901593 5.104760936042531 1 0 0
327 109 1 0.5897 -3.9303301829404518 13.107351806092796 5.496225916062566 1 0 0
211 71 2 -1.1794 -0.12194893390744266 12.483125023836847 7.459009334814192 0 0 0
212 71 1 0.5897 -0.34536084800974365 12.943920315206068 8.267681962849002 0 0 0
213 71 1 0.5897 -0.41392333442412976 13.068952188448163 6.760619985945532 0 0 0
370 124 2 -1.1794 0.12421877380233104 16.353818735740987 7.37804231429543 0 0 0
267 89 1 0.5897 -3.8424924000228917 12.95221270877556 8.465343025885387 1 0 0
325 109 2 -1.1794 -3.640790978181109 12.4890555877591 4.825309027422366 1 0 0
405 135 1 0.5897 -2.5726659431138583 16.4543378720229 8.845637244440624 0 0 0
423 141 1 0.5897 -2.5600218036338527 16.67679085276582 4.209602895424773 1 0 0
369 123 1 0.5897 0.9754550989145478 16.645662056191355 3.564113101179924 0 0 0
499 167 2 -1.1794 -2.3020851560982107 16.545215253090014 0.22629447235856326 1 0 0
269 90 1 0.5897 -3.5473547880020635 12.975369041958219 1.2029402684120585 1 0 0
690 230 1 0.5897 2.062269821634672 13.08176499292879 9.330212275473357 0 0 0
266 89 1 0.5897 -3.1323656587334843 11.93338111359213 9.331144664847024 1 0 0
250 84 2 -1.1794 2.2280277488799562 13.759024393592503 0.3744716744665257 0 0 0
771 257 1 0.5897 -0.17014897703651277 11.772773566493512 0.0844108700177467 1 0 1
770 257 1 0.5897 -1.5444373913625677 12.36953388400476 0.30147059419543265 1 0 1
265 89 2 -1.1794 -3.7375281100118647 12.673758610800222 9.375044343770897 1 0 0
462 154 1 0.5897 -5.109132168225317 16.98371289505534 6.695729911698711 1 0 0
224 75 1 0.5897 -0.4119756270546837 11.381706009315378 4.071897392148949 0 0 0
910 304 2 -1.1794 0.6673946270923441 15.74252214728897 11.088456735140205 0 0 0
773 258 1 0.5897 -6.550243217989534 12.855744813574677 10.586535403727407 1 0 0
727 243 2 -1.1794 -3.9532661335479946 11.915932591374444 13.033464700250349 0 0 0
718 240 2 -1.1794 -1.5187074098991586 12.539525099736107 12.07119781107022 0 0 0
688 230 2 -1.1794 2.204941028763143 12.351983739429667 9.932946785415803 0 0 0
720 240 1 0.5897 -1.1737344065274549 13.095193723252255 12.770147908566049 0 0 0
911 304 1 0.5897 -0.08386623251665348 15.718123271683288 11.681031193034785 0 0 0
873 291 1 0.5897 -2.465547007685863 15.593381119049894 12.108961247113312 0 0 0
830 277 1 0.5897 -7.232044835528911 13.172026861908515 14.970258463633767 1 0 0
738 246 1 0.5897 -0.17482743256787536 14.518101377683593 17.323784692651238 0 0 0
729 243 1 0.5897 -4.10098901376918 12.605704794979047 13.680518587852093 0 0 0
755 252 1 0.5897 -0.3059147819076582 14.594800451445328 10.062951314993889 0 0 0
831 277 1 0.5897 -7.44354333933469 11.982985556534349 14.057216430491287 1 0 0
784 262 2 -1.1794 -6.406734205217848 13.84023058006559 11.991521414760529 1 0 0
829 277 2 -1.1794 -6.770953208960845 12.5900800148222 14.36613050839978 1 0 0
719 240 1 0.5897 -1.1690905708820778 12.921700802811436 11.26632154323702 0 0 0
786 262 1 0.5897 -6.601208443875425 13.433091457301844 12.835636545616184 1 0 0
817 273 2 -1.1794 -3.842434676237379 14.679564607847535 11.25898299860988 1 0 0
818 273 1 0.5897 -4.670641079480976 14.356239904751236 11.613606194178248 1 0 0
819 273 1 0.5897 -3.5573915534269807 13.995288360392308 10.653342318997057 1 0 0
930 310 1 0.5897 -7.376969001001273 16.18940459983649 14.57855318184144 1 0 0
730 244 2 -1.1794 -0.9509965385443158 12.034149905445169 16.33855454849894 0 0 0
679 227 2 -1.1794 -3.86321475880443 14.169780810073856 14.743251432320436 0 0 0
783 261 1 0.5897 -8.411258696628519 14.364433076332517 16.91308001474924 1 0 0
684 228 1 0.5897 -0.5682784453395495 14.862273900079433 14.57607032248052 0 0 0
682 228 2 -1.1794 -1.0104549476366227 14.052872395540273 14.319696319022123 0 0 0
737 246 1 0.5897 -0.582562209129982 15.365976066524164 18.509832232327526 0 0 0
683 228 1 0.5897 -0.789493956684213 13.429201654413625 15.011356507770385 0 0 0
926 309 1 0.5897 -5.072666414033392 15.413171360153221 14.381155032074663 1 0 0
754 252 2 -1.1794 -0.9129151461415437 13.919760799612307 9.759215449959727 0 0 0
876 292 1 0.5897 -2.4240000929083036 15.527802832506698 17.165009921402664 0 0 0
681 227 1 0.5897 -3.848945110100985 13.776637919091188 15.61580389121943 0 0 0
907 303 2 -1.1794 -5.703099553892402 15.618137800547386 17.923582220209553 0 0 0
925 309 2 -1.1794 -5.695093359645591 16.131795553407404 14.269495469808446 1 0 0
680 227 1 0.5897 -2.940638633990866 14.298187904254727 14.522827463887982 0 0 0
908 303 1 0.5897 -6.323056364859534 15.128728727052668 17.382781154614086 0 0 0
728 243 1 0.5897 -3.1602159150241347 12.1867723862183 12.570965170505279 0 0 0
1005 335 1 0.5897 -4.741802041259483 15.826127838144448 10.087555509661716 1 0 0
715 239 2 -1.1794 -3.581446116558684 12.636805219660001 17.06204841653456 0 0 0
716 239 1 0.5897 -3.695330121870435 13.12180386901726 17.879369987314057 0 0 0
871 291 2 -1.1794 -1.8145185444827954 16.274665546075834 12.277456420775291 0 0 0
874 292 2 -1.1794 -3.1599384107245134 16.10772848339155 16.9691699928729 0 0 0
736 246 2 -1.1794 -0.9088985984736668 14.692736701368265 17.91268049725133 0 0 0
912 304 1 0.5897 1.3574511250917212 15.272108066904385 11.556193571765638 0 0 0
185 62 1 0.5897 -1.1667668286388633 13.17725977266168 18.853174217055717 0 0 -1
909 303 1 0.5897 -4.929910855249618 15.721180452501603 17.36886635471943 0 0 0
781 261 2 -1.1794 -7.55729835369955 13.996605848146748 16.685740380212543 1 0 0
782 261 1 0.5897 -7.33467012980913 13.431508820195862 17.42552547987298 1 0 0
875 292 1 0.5897 -2.943955314888326 16.49087360818953 16.11907590555687 0 0 0
717 239 1 0.5897 -2.6540310760328687 12.400116357234868 17.050692969512312 0 0 0
1003 335 2 -1.1794 -5.5177031504597664 16.32082070885117 9.823891324062638 1 0 0
844 282 2 -1.1794 0.3580247617213912 16.439939822372512 14.731486807140934 0 0 0
251 84 1 0.5897 -4.725033424656498 14.495308566230413 18.988084766718252 0 0 -1