#include		in.partitions
include		in.temp
variable        temperature equal 83.27
variable	tempDamp equal 100.0
include		in.pressure
variable        pressure equal 8240.5
variable        pressureDamp equal 1000.0 # This is 1 ps
include		in.seed
variable        seed equal 745823

units		real
atom_style	full
read_restart    restart.lmp.${pid}
read_restart    restart.lmp.1
Reading restart file ...
  restart file = 30 Jul 2021, LAMMPS = 30 Jul 2021
  restoring atom style full from restart
  triclinic box = (-3.0457442 -0.064728515 0.020504313) to (14.655743 22.644728 19.209494) with tilt (-0.25316774 -6.7325035 0.16946810)
  2 by 4 by 2 MPI processor grid
  restoring pair style lj/cut/tip4p/long/omp from restart
  restoring bond style harmonic/omp from restart
  restoring angle style harmonic/omp from restart
  1008 atoms
  672 bonds
  336 angles
Finding 1-2 1-3 1-4 neighbors ...
  special bond factors lj:    0        0        0       
  special bond factors coul:  0        0        0       
     2 = max # of 1-2 neighbors
     1 = max # of 1-3 neighbors
     1 = max # of 1-4 neighbors
     2 = max # of special neighbors
  special bonds CPU = 0.001 seconds
  read_restart CPU = 0.005 seconds

include 	in.setup
variable	out_freq equal 1000
variable	out_freq2 equal 10000
variable	out_freq3 equal 1000

timestep	2.0

neigh_modify    delay 7 every 1

include		in.tip4p
# This is TIP4P/Ice

# create groups ###
group ox type 2
336 atoms in group ox
group hy type 1
672 atoms in group hy

# set charges - beside manually ###
set group ox charge -1.1794
Setting atom values ...
  336 settings made for charge
set group hy charge 0.5897
Setting atom values ...
  672 settings made for charge

# ### TIP3P Potential Parameters ###
pair_style lj/cut/tip4p/long/omp 2 1 1 1 0.1577 8.5
pair_coeff 1 1*2 0.000 0.000
pair_coeff 2 2 0.21084 3.1668
bond_style  harmonic
bond_coeff  1 450 0.9572
angle_style harmonic
angle_coeff 1 55 104.52
kspace_style pppm/tip4p/omp 1.0e-5
pair_modify tail yes

thermo          ${out_freq}
thermo          1000
thermo_style    custom step temp pe etotal epair emol press lx ly lz vol pxx pyy pzz pxy pxz pyz enthalpy

restart 	${out_freq3} restart.lmp.${pid} restart2.lmp.${pid}
restart 	1000 restart.lmp.${pid} restart2.lmp.${pid}
restart 	1000 restart.lmp.1 restart2.lmp.${pid}
restart 	1000 restart.lmp.1 restart2.lmp.1


include         in.dump
dump            myDump all atom ${out_freq2} dump.water.${pid}
dump            myDump all atom 10000 dump.water.${pid}
dump            myDump all atom 10000 dump.water.1
dump            myDump2 all dcd ${out_freq2} dump.dcd
dump            myDump2 all dcd 10000 dump.dcd
dump_modify     myDump append yes
dump_modify     myDump2 append yes


variable natoms 	equal  "count(all)"                        # NUMBER ATOMS
variable H      	equal  "enthalpy/v_natoms"                 # ENTHALPY-per-atom
variable Vol      	equal  "vol/v_natoms"                 # volume-per-atom
fix AVG all 		ave/time ${out_freq} 1 ${out_freq} v_Vol v_H file vol_enthalpy.dat
fix AVG all 		ave/time 1000 1 ${out_freq} v_Vol v_H file vol_enthalpy.dat
fix AVG all 		ave/time 1000 1 1000 v_Vol v_H file vol_enthalpy.dat



fix 		1 all shake 1e-6 200 0 b 1 a 1
       0 = # of size 2 clusters
       0 = # of size 3 clusters
       0 = # of size 4 clusters
     336 = # of frozen angles
  find clusters CPU = 0.000 seconds
fix             2 all nph tri ${pressure} ${pressure} ${pressureDamp}
fix             2 all nph tri 8240.5 ${pressure} ${pressureDamp}
fix             2 all nph tri 8240.5 8240.5 ${pressureDamp}
fix             2 all nph tri 8240.5 8240.5 1000
fix             3 all temp/csvr ${temperature} ${temperature} ${tempDamp} ${seed}
fix             3 all temp/csvr 83.27 ${temperature} ${tempDamp} ${seed}
fix             3 all temp/csvr 83.27 83.27 ${tempDamp} ${seed}
fix             3 all temp/csvr 83.27 83.27 100 ${seed}
fix             3 all temp/csvr 83.27 83.27 100 745823


run             250000
PPPM initialization ...
  extracting TIP4P info from pair style
  using 12-bit tables for long-range coulomb (../kspace.cpp:340)
  G vector (1/distance) = 0.38028452
  grid = 24 27 32
  stencil order = 5
  estimated absolute RMS force accuracy = 0.0023485531
  estimated relative force accuracy = 7.0725978e-06
  using double precision FFTW3
  3d grid and FFT values/proc = 7875 1344
Last active /omp style is kspace_style pppm/tip4p/omp
Neighbor list info ...
  update every 1 steps, delay 7 steps, check yes
  max neighbors/atom: 2000, page size: 100000
  master list distance cutoff = 10.8154
  ghost atom cutoff = 10.8154
  binsize = 5.4077, bins = 5 5 4
  1 neighbor lists, perpetual/occasional/extra = 1 0 0
  (1) pair lj/cut/tip4p/long/omp, perpetual
      attributes: half, newton on, omp
      pair build: half/bin/newton/tri/omp
      stencil: half/bin/3d/tri
      bin: standard
Per MPI rank memory allocation (min/avg/max) = 12.46 | 12.47 | 12.48 Mbytes
Step Temp PotEng TotEng E_pair E_mol Press Lx Ly Lz Volume Pxx Pyy Pzz Pxy Pxz Pyz Enthalpy 
36250000    85.929235   -5212.0802   -5040.2111   -5212.0802            0    8090.0086    17.701487    22.709456    19.188989    7713.8039    9033.0852    8356.4533    6880.4873   -333.83549    646.21337    865.72041    -4130.102 
36251000    84.132553   -5218.7985    -5050.523   -5218.7985            0    8011.6865    17.764794    22.564894    19.210358    7700.6773    7793.7706    9086.7567    7154.5322    687.95473    348.12688   -672.44634   -4150.7587 
36252000    82.040216   -5214.0364   -5049.9459   -5214.0364            0    7242.0219      17.9044    22.571905    19.138742    7734.6627     7008.093    7633.9998     7083.973    485.83213    203.94043   -191.34385   -4233.0304 
36253000    83.059678   -5217.8971   -5051.7675   -5217.8971            0    8703.6827    17.813194    22.659783    19.065249    7695.5564    8510.0467    8530.8139    9070.1875    199.29201    40.121158   -405.30556   -4074.9376 
36254000    81.635315    -5224.385   -5061.1043    -5224.385            0    8343.9761    17.754791    22.739872    19.078511    7702.7903    9579.0854    7359.6288    8093.2142    494.42727   -237.96188   -283.78012   -4123.7646 
36255000    81.553238   -5211.5347   -5048.4182   -5211.5347            0    8188.7022    17.740619    22.736548    19.092883    7701.3137    8888.8812    7848.5373     7828.688    1001.4514    94.650484    1533.6971   -4128.6979 
36256000    83.454911   -5211.5106   -5044.5905   -5211.5106            0     7347.917    17.928909    22.442575    19.200833    7725.8562    6220.4988    8010.2211     7813.031    97.115402    71.229037    479.46684   -4216.6736 
36257000    86.042032   -5225.2151   -5053.1204   -5225.2151            0    7574.6695    17.784508    22.695235    19.104517    7711.0339    7209.4965    8125.0562    7389.4559   -367.89424    188.39418   -296.46182   -4201.2918 
36258000    84.324442   -5215.2288   -5046.5695   -5215.2288            0    8285.3867    17.722196    22.857739    19.008043    7699.9553    9512.6231    7329.7856    8013.7515    484.85398    169.48351   -646.51516   -4116.1542 
36259000    84.706768   -5209.2475   -5039.8235   -5209.2475            0    7889.2789    17.904622    22.555354    19.123624    7722.9818    7168.2978    8156.7756    8342.7633    201.74821   -423.17125    298.73115     -4151.24 
36260000    85.848611    -5215.456   -5043.7482    -5215.456            0    8404.1411    17.839024    22.611813    19.092543    7701.4104    7640.3926    9062.2266    8509.8042   -122.98814    488.75233    966.11348   -4099.8188 
36261000    83.665781   -5219.9064   -5052.5645   -5219.9064            0    8133.8964    17.783703    22.641188    19.129593    7702.4189    8932.4729    7906.1628    7563.0537   -656.71577    304.06454    350.97496   -4138.8687 
36262000    85.234303   -5205.4753   -5034.9961   -5205.4753            0    7121.5958    17.721046    22.776917    19.132337    7722.4002    7356.1031    6825.5685    7183.1158    -281.9311    186.63928   -493.18772   -4232.9386 
36263000    87.566067   -5206.9156   -5031.7727   -5206.9156            0    8836.0951    17.700553    22.832518    18.966303    7665.1969    8533.4585    8317.1178    9657.7089   -154.86917      556.125   -1669.9218   -4043.9941 
36264000    83.541992   -5213.3223   -5046.2279   -5213.3223            0    8960.1419    17.799271    22.588501    19.082815    7672.4149    8287.6341    9408.8634    9183.9281    526.04222   -106.60559    1128.2487   -4043.6391 
36265000    85.167705   -5219.1827   -5048.8367   -5219.1827            0    8089.2266    17.930232    22.529477    19.111276    7720.1673    7907.0943    7610.5617    8750.0239   -163.39485    2.1797906   -118.83117   -4138.0649 
36266000    80.960396   -5209.3442   -5047.4134   -5209.3442            0    7308.6226    17.773738     22.72771    19.076827    7706.2057     8344.506    6923.0587    6658.3033    913.07712    -317.1934   -221.83967   -4226.0185 
36267000    83.499108   -5213.6073   -5046.5988   -5213.6073            0    9286.2726    17.758534    22.644975    19.075224      7670.94     9798.073    9294.8305    8765.9143    186.06841  0.063844413    710.60384   -4007.7176 
36268000    84.916759   -5224.5143   -5054.6703   -5224.5143            0    7707.3258    17.740494    22.633388    19.199448    7709.1056     7725.281    7741.5596    7655.1369   -808.18969   -67.392625   -986.41243   -4188.1403 
36269000    82.038727   -5211.1711   -5047.0836   -5211.1711            0    9076.6951    17.782127    22.445596    19.253492     7684.655    9247.4371    9844.1022    8138.5459   -330.44665   -577.08894   -34.336861   -4029.8328 
36270000    81.353447   -5210.1702   -5047.4532   -5210.1702            0    9585.7705    17.784597    22.702715       19.011    7675.8555    9779.9574     9791.121    9186.2331     1.461884   -222.55646    241.66089   -3974.3791 
36271000    81.492515   -5219.5365   -5056.5414   -5219.5365            0    7953.7735     17.72326    22.861616     19.03026    7710.7259    7535.4111    7783.5437    8542.3658    -163.2424   -687.75647    910.31587   -4162.1155 
36272000    81.785079    -5204.074   -5040.4938    -5204.074            0    9768.5392    17.774805    22.641864    19.014516    7652.4812    9367.5686     9894.335    10043.714    1574.0882    144.48269    907.62886   -3950.2897 
36273000    84.615104   -5226.9163   -5057.6756   -5226.9163            0    6930.0358    17.710884    22.805903    19.109222    7718.4575    7494.8063    6857.2316    6438.0697   -633.58971   -128.16643   -1381.6429   -4277.5907 
36274000    87.328891   -5206.4695   -5031.8009   -5206.4695            0    8846.8757    17.748908    22.633045    19.143125    7690.0199    10118.593    7921.0197    8501.0146   -120.05631    375.16558    108.11153   -4039.6145 
36275000    88.652668   -5216.8168   -5039.5005   -5216.8168            0    7912.2949    17.801455     22.57001    19.193811    7711.6705    8071.9035    8548.5254    7116.4558    429.63495    133.42682    487.21148     -4149.63 
36276000    86.333123   -5218.1501   -5045.4732   -5218.1501            0    7647.6954    17.770485    22.590785    19.219193      7715.53    7991.8795    8119.4114    6831.7953    1202.0494    433.02555   -59.677049   -4184.9309 
36277000    81.724163   -5199.7905   -5036.3321   -5199.7905            0    8423.1562    17.791049    22.736956    19.012891    7690.9863    9535.1168    7904.6002    7829.7514   -970.10461    50.630915    580.27662   -4091.5476 
36278000    81.916638   -5220.7819   -5056.9385   -5220.7819            0    7741.4728    17.823234    22.696623    19.076147    7716.8209    7997.4052    7707.5859    7519.4273    658.28477    89.923267    1357.0346   -4185.6983 
36279000    86.671793   -5218.6925   -5045.3382   -5218.6925            0    8586.5675    17.741118    22.658913    19.125814    7688.4714    7741.7295    9373.3945    8644.5783    469.47592    461.11613   -305.25028   -4082.5396 
36280000    83.759411   -5209.5592     -5042.03   -5209.5592            0     8180.778     17.83339    22.684026    19.024128    7695.8896    7852.9771    7839.1319    8850.2251    106.35892    155.77584    878.78079   -4123.8468 
36281000    85.248183   -5205.5783   -5035.0714   -5205.5783            0    9098.7883    17.862856    22.686104    18.966386     7685.912    8621.4117    8207.2269    10467.726   -540.91188   -223.55055    -532.9233   -4015.1778 
36282000    85.221689    -5211.266   -5040.8121    -5211.266            0    9736.8934    17.772034    22.682786     19.02504    7669.3595    9828.7224    9545.6545    9836.3032    773.59172   -101.94649    629.82926   -3951.7431 
36283000    82.813906   -5213.7892   -5048.1511   -5213.7892            0    7625.1187    17.865271    22.594295    19.114282     7715.541     7298.699    7268.4678    8308.1892   -111.26929   -560.60205    413.58583    -4190.148 
36284000    82.112464   -5219.2092   -5054.9741   -5219.2092            0    8632.2435    17.791913    22.533187    19.176561    7688.0464    8486.6359    8727.8754    8682.2193   -83.705946   -53.013057   -709.28147   -4087.1073 
36285000    81.889202    -5217.391   -5053.6024    -5217.391            0    8886.8449    17.732008    22.747858    19.017995    7671.1973    9357.3533     8616.659    8686.5225     258.5731    277.31371    277.85686   -4059.3729 
36286000    81.472349   -5222.5175   -5059.5628   -5222.5175            0    8118.0194    17.758473    22.774378    19.068065    7711.8536    8447.8741    7515.0733    8391.1107    71.953473   -253.50141   -411.07934   -4146.5334 
36287000     84.91157   -5217.9245   -5048.0909   -5217.9245            0     7268.719    17.772666    22.675372    19.150808    7717.8102    7417.2984    7310.8624    7077.9962    861.98127    215.81312    238.68747   -4229.9505 
36288000      82.0055    -5220.749   -5056.7279    -5220.749            0    6145.0626    17.912959    22.490002    19.250969    7755.4933    6045.9167    6714.5099    5674.7612   -142.75759   -127.65085   -503.93978   -4361.6849 
36289000    87.619912    -5223.447   -5048.1963    -5223.447            0     7949.054    17.708544    22.810896    19.060317    7699.3725    7771.8299    7579.4602     8495.872   -94.489858   -407.84942    530.11197   -4155.6173 
36290000    85.576484   -5217.6291   -5046.4656   -5217.6291            0    7925.8131    17.813574    22.721288    19.045272    7708.5236    7714.4359    7674.5598    8388.4436   -186.36589    25.752225    305.83019   -4155.4385 
36291000    83.183417   -5213.5051    -5047.128   -5213.5051            0    7914.7015    17.748571    22.799775    19.047276     7707.736    7772.0702    7846.0379    8125.9965    214.80572   -189.23356   -304.96531    -4157.441 
36292000    84.498437    -5218.787   -5049.7797    -5218.787            0    7877.4118    17.830396    22.644164    19.087547    7706.6812    7217.8588    8336.8911    8077.4854    702.88332     374.5587     296.9017   -4164.4056 
36293000     84.30163   -5212.3702   -5043.7565   -5212.3702            0    8088.5116     17.83678    22.503001    19.195903    7704.8722    8047.2262     7917.776    8300.5327    620.19467   -228.34179   -496.88747   -4134.8694 
36294000    81.571244   -5217.9917   -5054.8391   -5217.9917            0    8018.0052    17.856225     22.49177    19.182879    7704.1912    7000.6152    8280.3423     8773.058   -330.18318   -188.29193    643.06047   -4153.9543 
36295000    82.019528   -5225.9954   -5061.9462   -5225.9954            0    7863.4723    17.834516    22.763286    18.994124    7711.0859    7128.5651    7889.4274    8572.4245   -217.15111    178.04789   -408.23999   -4177.6337 
36296000     80.13738   -5215.0386   -5054.7539   -5215.0386            0    8394.9269    17.764529    22.733468    19.053218    7694.6299    7959.5382    8606.9434     8618.299   -158.17204    642.13171   -290.54002   -4112.6896 
36297000    82.584187   -5212.5465   -5047.3679   -5212.5465            0    8637.5257    17.825813    22.641466    19.063864    7694.2238    8786.9955    8828.6096    8296.9719   -173.19966    430.54344    1454.5159   -4078.1307 
36298000    81.778007   -5221.9737   -5058.4075   -5221.9737            0    7306.0083    17.831062    22.586304    19.189757    7728.4404    7779.4142    7355.9025    6782.7082    606.26813    -1013.373    14.588835   -4234.9373 
36299000    86.787554   -5212.8524   -5039.2666   -5212.8524            0    8725.1821    17.846914    22.627995    19.037934     7688.277    7879.9826    9239.4387     9056.125    717.04124    971.04824   -292.30821     -4060.95 
36300000    80.218389   -5216.0843   -5055.6376   -5216.0843            0    8147.7115    17.759516    22.925343    18.908394    7698.4199    8255.1275    7415.7773    8772.2296   -973.60223    -552.9133   -942.74373    -4140.865 
36301000    87.938757   -5207.4084     -5031.52   -5207.4084            0    6981.5081    17.726181    22.671135    19.246687    7734.7172    7334.1119    7402.1078    6208.3047   -277.12759   -106.25708   -337.64502   -4243.9855 
36302000    85.079676   -5222.9393   -5052.7695   -5222.9393            0    8863.0223    17.761836    22.575731    19.148353    7678.2299    8760.0891    8567.1296    9261.8481    672.83959    47.167451   -272.64129   -4060.2962 
36303000    82.756621   -5225.8883   -5060.3648   -5225.8883            0    8547.8093    17.822035    22.534698    19.138036    7686.1066    7603.5736    9301.6868    8738.1676   -126.09773   -152.14824   -17.771822   -4102.2068 
36304000    89.855767   -5218.8382   -5039.1155   -5218.8382            0     7832.199    17.752267    22.855987    19.004535    7711.0059    8114.8775    7411.0686    7970.6507    639.53394   -516.53102    860.05456   -4158.3291 
36305000     86.08692   -5212.9159   -5040.7314   -5212.9159            0    8213.9755    17.740994    22.842386    18.981443    7692.1661    9076.7002    7450.4792    8114.7472    185.92059   -38.187145    595.25944   -4119.2683 
36306000    90.261561   -5209.9499   -5029.4156   -5209.9499            0    8763.5215    17.792199    22.561275    19.142536    7684.0954    8775.4356    8959.1361    8555.9927   -31.355688   -296.95818    572.55331   -4047.3346 
36307000    80.916733   -5219.4074    -5057.564   -5219.4074            0    8536.8302    17.815888    22.559247    19.118182    7683.8461      9080.15    8715.2729    7815.0677     727.7286    171.03718    966.12903   -4100.9181 
36308000    81.577558   -5209.6313   -5046.4661   -5209.6313            0    8305.6537    17.788482    22.653161    19.100062    7696.6632    8316.7807    9109.2091    7490.9712    499.05727    273.36429   -127.21177   -4114.1736 
36309000    85.334305   -5219.4035   -5048.7244   -5219.4035            0    8463.0829    17.718287    22.761983    19.064048    7688.5943    8952.9373    8237.3618    8198.9496    576.21848    -519.4586     1431.315   -4099.7567 
36310000    82.748382   -5215.0563   -5049.5493   -5215.0563            0    8409.8662    17.749805     22.76239    19.048287    7696.0411    9213.1965    7650.1575    8366.2447   -140.37958    499.80926   -79.090205   -4105.6355 
36311000    81.904752   -5205.4243   -5041.6046   -5205.4243            0    7325.3826    17.767656    22.741131     19.08273    7710.5028    8608.9854     6819.895    6547.2673   -384.71442   -409.65356   -541.01243    -4217.867 
36312000    89.636456   -5211.5364   -5032.2524   -5211.5364            0    9306.6889    17.893467    22.562236    19.054795    7692.7376    8831.2101    9723.4352    9365.4213    314.77841    348.02492    930.38215   -3988.1286 
36313000    90.056518   -5218.6176   -5038.4934   -5218.6176            0    7843.8109    17.818483    22.643684    19.105106    7708.4537    7968.0704      8205.43    7357.9323   -292.77013    147.34485    281.28588    -4156.693 
36314000    83.302894   -5219.2028   -5052.5867   -5219.2028            0    7786.9698    17.792609    22.707714    19.091067    7713.3536    7322.0955    7893.8381    8144.9758    281.19606    610.89869   -500.54107     -4176.62 
36315000     78.75054    -5213.468   -5055.9572    -5213.468            0     8853.671    17.774673    22.682757    19.086475    7695.2581    9372.8485    8661.1982    8526.9661    178.44665    24.255623   -239.36526   -4062.3323 
36316000    85.375072   -5205.9686   -5035.2079   -5205.9686            0    8637.6967    17.803304    22.667449    19.100208    7707.9937    9004.7779     8262.851    8645.4614    1040.8763    -381.7836    1098.9989   -4064.2169 
36317000    77.693213   -5211.8727   -5056.4767   -5211.8727            0    7670.1556    17.822203    22.589389    19.176169    7720.1852    8338.3239    7296.7428    7375.4001   -437.89327   -618.70829    766.31485   -4192.8863 
36318000    83.229303   -5216.4658   -5049.9969   -5216.4658            0    8154.6339    17.820043    22.622577    19.104818    7701.8265    7806.5956    8384.7654    8272.5406   -434.45737    64.868916    574.29697    -4134.042 
36319000     79.67638   -5216.9652   -5057.6026   -5216.9652            0    8833.7061    17.685401    22.732641    19.131785    7691.6639    8908.1349    8958.5935    8634.3898    931.04171    665.71083    -133.5688   -4066.6814 
36320000    84.218096   -5214.1032   -5045.6566   -5214.1032            0    8269.7462    17.733861    22.852065    19.016674    7706.6088     7959.415    7902.3152    8947.5082    437.64964    293.12302    1015.2676   -4116.1952 
36321000    81.184385   -5211.5556   -5049.1768   -5211.5556            0    7172.2258    17.791304    22.689659    19.160321    7734.6124    7574.7736    7167.3004    6774.6035   -676.03237   -770.90069     834.1577   -4240.1398 
36322000    85.417836   -5199.8325   -5028.9863   -5199.8325            0    8922.3422    17.883075    22.473579    19.139555    7692.1239    8475.9798    9517.5277    8773.5192   -204.81572    63.961705    544.52951   -4028.0624 
36323000    80.270065   -5223.0158   -5062.4658   -5223.0158            0    8574.9517    17.816006    22.708164    19.028872    7698.4875    7640.7243    8078.3249    10005.806   -61.650498   -26.951967   -741.75936    -4099.717 
36324000    81.604927   -5227.7824   -5064.5625   -5227.7824            0    6372.6515    17.789277    22.831073    19.071121    7745.7031    5881.3923    6050.4766    7186.0855   -72.663125   -248.95877   -56.923537   -4344.6878 
36325000    78.992433   -5209.2304   -5051.2357   -5209.2304            0    7956.6757    17.731277    22.737936    19.102983    7701.8002    7420.0517    8489.0618    7960.9136   -900.59895    146.16285    588.42742   -4157.5192 
36326000    85.115261   -5216.2568   -5046.0158   -5216.2568            0    7606.5795    17.761901    22.736576    19.079158    7705.0189    8125.0814    7422.4391     7272.218     95.62442   -30.649533    1168.3867    -4191.266 
36327000    78.620236   -5221.2229   -5063.9727   -5221.2229            0    7481.5253    17.907597    22.698914    18.964722    7708.8371    7363.9443    6696.2371    8384.3946    921.56652    147.12326    440.28847   -4222.8586 
36328000    86.709272   -5206.0873   -5032.6581   -5206.0873            0    8868.9543    17.742634      22.6703     19.12357    7692.0897    9351.1171    8984.1525    8271.5932    658.76005    213.42147    568.79176   -4037.7278 
36329000    80.655213   -5214.4124    -5053.092   -5214.4124            0     8555.694    17.791292    22.611944    19.122766    7693.0064    9143.0044    8675.9126     7848.165    47.620879    623.19241    1563.3582   -4093.1893 
36330000    86.244845    -5214.295   -5041.7946    -5214.295            0    7608.1932    17.754265    22.643929     19.21616    7725.4017    8301.9351    7542.7859    6979.8586   -951.42898   -827.68615    86.318032   -4184.6018 
36331000    86.871909   -5222.2662   -5048.5117   -5222.2662            0    8319.8891    17.859793    22.665235    19.022685    7700.3146    7885.4832    8404.3051    8669.8789    92.001001    181.18996    992.54607   -4114.1782 
36332000    79.614965   -5221.8359   -5062.5962   -5221.8359            0    7710.3744    17.739949    22.772365    19.106963    7718.8421    8403.1078     7777.522    6950.4935    867.96835    287.73123   -83.277818   -4194.6286 
36333000     81.69273   -5206.9011   -5043.5056   -5206.9011            0    8394.9974    17.918155    22.562292    19.065727    7707.7901    8660.4079    8096.7582    8427.8263    125.86867   -293.76645    78.346157   -4099.8221 
36334000      87.4715   -5210.1428    -5035.189   -5210.1428            0      9187.12    17.810295    22.695287    18.997411    7678.9388    9166.8383    9312.6077     9081.914   -941.01644      858.598   -624.52696   -4006.3285 
36335000    82.880848   -5220.3473   -5054.5754   -5220.3473            0    7933.4576    17.759367    22.805513    19.026335    7705.8841    8367.7704     7467.406    7965.1965   -1076.9899    -165.8942    -90.77274   -4162.9942 
36336000    82.163976   -5218.5997   -5054.2616   -5218.5997            0    8225.8267    17.820108    22.539963    19.163622    7697.3481    7617.4858    9062.7019    7997.2923      358.622    394.23351    200.98507   -4130.8474 
36337000    85.352674   -5224.3128   -5053.5969   -5224.3128            0    7110.1122     17.72886    22.715058    19.154514     7713.754    7202.7386     7253.432    6874.1659    1032.2738   -213.33507    922.04172   -4253.7293 
36338000    84.085899   -5218.7273   -5050.5451   -5218.7273            0    7646.6356    17.853026    22.659437    19.071542    7715.1924    7534.4434    7376.0057    8029.4576    -1038.236    426.25351    204.51285   -4190.1597 
36339000    82.007921   -5228.7296   -5064.7036   -5228.7296            0    8416.3405     17.74476    22.705134    19.111818    7700.0967    9253.6985    8164.1304    7831.1925   -1418.6603   -177.01989    164.63948   -4119.5653 
36340000    82.124036   -5216.3524   -5052.0942   -5216.3524            0    8301.8302    17.828597    22.671902    19.060998    7704.6121    7770.8272      8291.95    8842.7134    613.56159    822.63929   -71.790257   -4119.2685 
36341000    78.660938    -5207.438   -5050.1064    -5207.438            0    8942.5926    17.846978    22.569245    19.045825    7671.5215    7180.3634    10130.613    9516.8013    528.17867    379.34676    456.57959   -4049.5977 
36342000    81.722301   -5217.9816   -5054.5269   -5217.9816            0    7693.5361     17.81056    22.662476    19.117896     7716.583     7507.673    7861.3452    7711.5902    231.31609    134.18221   -281.81232   -4188.7083 
36343000    86.456526   -5213.8183   -5040.8946   -5213.8183            0     8635.848    17.878114    22.555595    19.103604    7703.5567    8631.4803    9147.6649    8128.3988    111.51818    34.160834    196.34714   -4070.6703 
36344000    84.544277   -5215.1283   -5046.0293   -5215.1283            0     8673.295    17.729967     22.59957    19.194534    7691.0508    10205.577    8459.1704    7355.1377     267.2912   -944.97468   -1497.0174   -4073.1798 
36345000    82.255184   -5227.3698   -5062.8492   -5227.3698            0    8254.1071    17.745746    22.731343    19.096954     7703.418    8546.4194    8712.4683    7503.4335    534.46593    355.47596    125.43331   -4135.5296 
36346000    86.147789   -5217.6241   -5045.3178   -5217.6241            0    8565.9148     17.80458    22.626414    19.100027    7694.5183      7641.54    9008.8473     9047.357   -312.87912    18.216856   -675.29988   -4084.0795 
36347000    82.433824   -5215.2729   -5050.3951   -5215.2729            0    8441.2541    17.809605    22.603391    19.146692    7707.6437    8475.5759    8805.8933    8042.2931   -52.829264     887.2088   -782.59897     -4101.53 
36348000    83.636303   -5217.8655   -5050.5826   -5217.8655            0    7350.6575    17.825491    22.751027    19.062968    7730.9527    7483.0108    7068.9698    7499.9918    534.08161   -227.08817   -324.27644   -4221.8106 
36349000    82.161107   -5212.3698   -5048.0375   -5212.3698            0    8922.3049    17.801503    22.722643    18.981196    7677.8405    8871.1207    8574.9368    9320.8572    160.06257   -267.83805     -336.443   -4048.9764 
36350000    81.302865   -5212.4964   -5049.8806   -5212.4964            0    8583.8264    17.846188    22.570921    19.095781    7691.8741    8914.4612     8893.933    7943.0849   -846.71481    604.36335   -745.90477   -4086.9634 
36351000    80.800716     -5222.83   -5061.2186     -5222.83            0    8228.1984    17.820666    22.457028    19.230602    7696.0718    8943.5435    8511.9145    7229.1372    387.96565   -272.30178    206.35955   -4137.6913 
36352000    78.111827   -5206.9392   -5050.7059   -5206.9392            0    8184.8425    17.760945    22.707207      19.1476    7722.2546    7093.9638     8899.437    8561.1266    101.55284   -250.12003    859.93136   -4128.9194 
36353000    88.373505   -5220.9266   -5044.1687   -5220.9266            0    7703.9118    17.848595    22.795946    18.967655    7717.4763    7768.5239    6812.0283    8531.1832   -354.03042   -126.42967    205.12479    -4177.082 
36354000    86.058643   -5212.4689    -5040.341   -5212.4689            0     9330.136    17.881292    22.549657     19.03507    7675.2639    8367.8851    9341.9804    10280.542    179.07557   -250.78457   -1009.2568   -3995.9643 
36355000    85.056281   -5205.3168   -5035.1938   -5205.3168            0    7821.5666    17.858996    22.630689    19.101634    7720.1428    8651.3332    7476.3069    7337.0596    21.097633   -451.73398   -444.79358   -4154.5608 
36356000    80.877556   -5217.6034   -5055.8383   -5217.6034            0    9033.3033    17.682672    22.663475    19.132708    7667.4479    9485.1222    9181.5421    8433.2456     3.251552    396.27698   -817.62232   -4045.7175 
36357000    80.200098     -5200.73   -5040.3199     -5200.73            0    9208.3528     17.77033    22.600527    19.097747    7670.0149    9965.7012    9373.6904    8285.6668    112.79807    -793.4073    1330.2665     -4010.28 
36358000    83.888606   -5215.9341   -5048.1465   -5215.9341            0    7145.8307    17.759695    22.789816    19.093916    7728.0753    7357.6221    6225.8082    7854.0618   -189.39057   -596.18605    556.57638   -4242.7682 
36359000    80.058492   -5213.8257   -5053.6988   -5213.8257            0    7642.8531    17.803206    22.655448    19.129778    7715.7973    7005.4678    8276.6445    7646.4469   -313.18138    203.14046    404.31653   -4193.6716 
36360000    84.156719   -5211.1846   -5042.8608   -5211.1846            0    7602.7518    17.890552    22.547721    19.134643    7718.7461     7142.655    8444.4121    7221.1883   -113.67544   -831.70186    206.58345   -4187.0191 
36361000    84.582885   -5199.3794   -5030.2032   -5199.3794            0    9322.3244    17.816328    22.731144    18.950384    7674.6313     8477.751    9663.6594    9825.5629   -1341.4792    214.55763    -356.5505   -3986.7868 
36362000    81.209063   -5213.1332    -5050.705   -5213.1332            0    7030.1076      17.7463    22.890728    19.036201    7732.9944    6869.6575    5921.6036    8299.0617     124.6047   -200.02692    334.16986    -4257.865 
36363000    81.944871   -5216.8483   -5052.9484   -5216.8483            0    7938.9556    17.856677    22.547834    19.119431    7698.0449     7126.843    8218.6073    8471.4166     702.6084    136.11959    42.263864    -4161.657 
36364000    83.781638   -5211.8275   -5044.2538   -5211.8275            0    8177.7524    17.807855    22.583564    19.159082    7705.1091    8270.4671    8343.3739    7919.4161   -898.44564    329.35494    672.77095   -4125.3107 
36365000    80.903099   -5207.5439   -5045.7277   -5207.5439            0     9613.952    17.759349    22.650315    19.049473    7662.7433    8648.8037    9675.0549    10517.997     168.0702    167.49609    781.74975   -3971.3373 
36366000    81.981308   -5223.9913   -5060.0186   -5223.9913            0    7273.9524    17.817485    22.699417    19.101784    7725.6502    7493.0811    7025.1452     7303.631    1446.8288    166.32278   -158.89163   -4240.4574 
36367000    80.145721     -5217.47   -5057.1687     -5217.47            0    8033.0388    17.738068    22.710065    19.077984    7685.2356    8677.6266    8330.4335    7091.0561    72.118622   -384.88689   -804.58873   -4156.8154 
36368000     80.05613   -5216.1265   -5056.0044   -5216.1265            0    7958.7001    17.794868    22.706235    19.062895    7702.4478    8447.6351    7756.0638    7672.4016    453.25064    652.73545    128.67768   -4161.9853 
36369000    81.827622    -5223.228   -5059.5627    -5223.228            0    7163.5652    17.738499    22.627174    19.234618     7720.239    9509.9543    6307.1894    5673.5519   -419.43769   -335.28062    321.47919   -4253.0042 
36370000    81.875693   -5214.4195    -5050.658   -5214.4195            0    8873.9627    17.721562    22.646437    19.168594    7692.9365    9487.7273    8617.2995    8516.8613    592.27564   -98.324757    1317.8295   -4055.0563 
36371000    79.963582   -5219.6797   -5059.7427   -5219.6797            0    7966.7867    17.888047    22.516588    19.183487    7726.6826    8430.9473    8095.1108    7374.3018    841.37403    346.26061    1098.7572   -4161.9994 
36372000    85.942687   -5208.9899   -5037.0939   -5208.9899            0    8446.5476    17.729773    22.890305    18.944099    7688.2715    9278.0529    7026.8232    9034.7666   -472.83899   -1510.5764    97.080655   -4090.0201 
36373000    82.322881   -5214.7146   -5050.0587   -5214.7146            0    7998.6203    17.768142    22.699654    19.075991    7693.9324      7250.27     8778.785    7966.8058    712.71296    673.32329    105.06406   -4152.5486 
36374000    86.873461   -5219.0922   -5045.3346   -5219.0922            0    8840.3472    17.843665    22.571774    19.082746    7685.8272    8912.9201    8491.5544    9116.5671    904.46017   -156.96698   -157.34523   -4054.4209 
36375000    86.794913   -5213.6422   -5040.0416   -5213.6422            0    8535.1206    17.760141    22.676525    19.082941    7685.4309    8698.9264    8257.3214    8649.1141    -708.6114    63.825545     -505.557   -4083.3901 
36376000    80.464971   -5214.6625   -5053.7226   -5214.6625            0    8369.6147    17.801942     22.72119    19.023868    7694.7993    8618.8037     7827.967    8662.0734    103.52609    84.834737    452.30543   -4114.4781 
36377000    81.190541   -5219.8663   -5057.4752   -5219.8663            0    7698.5657    17.829455    22.603276    19.152307    7718.4581    7354.2892    7958.1496    7783.2584    1365.8192    98.886205   -180.26859     -4190.88 
36378000    85.171489   -5225.0167   -5054.6632   -5225.0167            0    8144.7549    17.907974    22.522474    19.093584    7701.0514    8400.6042    8332.7086     7700.952    1244.5369    -655.0013     192.5256     -4139.91 
36379000    86.742462   -5207.2127    -5033.717   -5207.2127            0    7930.8023    17.791893    22.754802    19.033835    7705.8676    7724.7154    8110.0023    7957.6892    1096.2176   -207.00638    976.48086   -4142.4362 
36380000    76.388036   -5214.3948   -5061.6092   -5214.3948            0    8100.5688    17.730867    22.829083    19.032689    7704.0409    9449.7004    7100.6644    7751.3416    349.91984   -236.85298    507.28662   -4151.4655 
36381000     80.12784   -5218.4869   -5058.2213   -5218.4869            0    8521.9531     17.75537    22.682621    19.078563    7683.6684    8599.8233     8397.947     8568.089    489.65165   -451.30353    67.242858   -4103.2647 
36382000    88.897173    -5216.724   -5038.9186    -5216.724            0    8038.6325    17.957987    22.400383    19.140221    7699.4559     7531.379    8700.1269    7884.3917    -238.3508    97.721432    808.20254   -4136.2713 
36383000    87.713907   -5214.4487     -5039.01   -5214.4487            0    9062.9886    17.903867    22.544228    19.025502    7679.2414    8189.7655    9156.9658    9842.2344   -214.07092   -467.80359    574.53636    -4024.011 
36384000    78.706126   -5215.1066   -5057.6847   -5215.1066            0    7866.8552    17.767017    22.815618    19.025328    7712.2108     7901.371     7255.246    8443.9485    476.76634   -49.737012    19.548577   -4172.8626 
36385000    81.949918   -5216.3956   -5052.4856   -5216.3956            0    8706.4284    17.631742    22.962715    18.981159    7684.9524    10273.288    7426.4927    8419.5046    177.77816    38.634359    1088.0291    -4076.694 
36386000    89.588896   -5224.4834   -5045.2945   -5224.4834            0    7368.5073    17.819622    22.597283    19.170752    7719.5832    7842.0163    7264.2113    6999.2945   -558.30158    -703.4785    390.03229   -4215.7318 
36387000    83.274052    -5219.128   -5052.5696    -5219.128            0    8377.8033     17.91079    22.421721    19.168272    7697.8003    8337.5308    8929.6738    7866.2052   -340.79538   -118.67395   -1063.9983   -4112.0395 
36388000    83.041308   -5219.1652   -5053.0723   -5219.1652            0     7551.943    17.768426    22.816205    19.042577     7720.014     8036.567    6719.2438    7900.0181   -712.34315   -296.10992   -211.65393   -4202.8105 
36389000    80.133736    -5214.827   -5054.5496    -5214.827            0    9091.4067    17.690253    22.766085     19.05801    7675.3812    8761.6795    9156.0418    9356.4986    1316.6264    693.05113    952.03535   -4036.8797 
36390000    86.493049   -5215.7682   -5042.7714   -5215.7682            0    8464.6166    17.821644    22.475719     19.18743    7685.6065    8264.6328    8901.7041     8227.513    641.52418    34.571369    593.09074   -4094.0006 
36391000    81.916641   -5214.8632   -5051.0198   -5214.8632            0    8274.0576    17.790636    22.594345    19.149344    7697.4191    7504.7258    8288.2926    9029.1544    152.18991   -412.84691   -813.48888   -4122.1826 
36392000    84.343088    -5221.634   -5052.9374    -5221.634            0    7540.9207     17.75913      22.8995    18.963216    7711.8698    7154.4769    6905.5713    8562.7139   -443.92398   -284.00096   -205.96799   -4204.8123 
36393000    81.960833   -5215.9796   -5052.0479   -5215.9796            0     8803.021    17.765712    22.745019      19.0414    7694.2765    9223.0176    8448.0103    8738.0351    266.54942   -154.85639    1252.1247   -4064.2333 
36394000    84.393898    -5216.707   -5047.9088    -5216.707            0    8264.3393    17.806968     22.70256    19.041445    7697.7665    7315.2684    8722.5246    8755.2248   -553.44904    24.067664    50.536735   -4120.1208 
36395000     83.08942   -5214.2371    -5048.048   -5214.2371            0    9194.8724    17.852005    22.523818    19.076234    7670.4644    8801.4598    9508.5758    9274.5817   -93.183358   -183.99939   -683.42271   -4019.4557 
36396000    81.847599   -5219.7968   -5056.0914   -5219.7968            0    7821.4268    17.847931    22.552129     19.21582    7734.5372    7782.7175    8713.0707     6968.492    -640.8735    122.56458    934.70184   -4173.8322 
36397000    82.091271    -5223.755   -5059.5624    -5223.755            0    8657.4225    17.759654    22.785672      19.0046     7690.509    9158.8583    8497.5702    8315.8392    168.67482    56.110645   -574.54979   -4088.5616 
36398000    85.540221   -5226.9505   -5055.8594   -5226.9505            0    7878.0857    17.803741     22.71662    19.050396    7704.7578    7857.6858    7777.5186    7999.0527    734.06781    96.021702    -56.67442   -4170.6306 
36399000    86.225644   -5210.8967   -5038.4348   -5210.8967            0     8872.704    17.861906    22.431568     19.20414    7694.5333    9000.5019    9436.7374    8180.8727   -103.39127   -172.87297   -873.05258   -4042.7677 
36400000    82.972781   -5221.7773   -5055.8215   -5221.7773            0     7499.829    17.741689    22.697158    19.155569    7713.6776     6284.226     8252.571      7962.69    527.38535    502.77714    1224.0898   -4212.1202 
36401000    88.030412   -5217.4641   -5041.3924   -5217.4641            0    6782.4074    17.799425    22.714299    19.169014    7750.0603     6469.116    7239.0385    6639.0675    331.77586    1029.3005   -262.32804   -4274.7994 
36402000    80.742444   -5210.7816   -5049.2867   -5210.7816            0    7556.9734    17.723204    22.781584    19.127238    7722.8647    7876.3488    6948.8876    7845.6837   -128.47661   -1166.2759    74.789133   -4198.1443 
36403000    86.985442   -5221.9249   -5047.9433   -5221.9249            0    7321.3752    17.845255      22.6607    19.108816    7727.3371    6340.3157    7990.4751    7633.3348   -625.33295    564.12268   -107.13703   -4222.8588 
36404000    82.042501   -5220.0667   -5055.9716   -5220.0667            0    6241.5689    17.801304    22.680451    19.195733    7750.1162    6008.7539    6234.0818     6481.871     250.9478     -688.957    1770.8248   -4350.5027 
36405000    84.767478   -5223.8967   -5054.3513   -5223.8967            0    8374.6364    17.950943     22.58741    18.993414    7701.1708    6796.5596     8623.637    9703.7127   -120.34073    372.78752    434.71965   -4113.7651 
36406000     76.56741   -5212.6596   -5059.5153   -5212.6596            0    7258.2166     17.83709    22.723762    19.001427    7701.7681     7072.987    7427.2736     7274.389   -532.51556    174.65258   -196.50707   -4244.2551 
36407000    81.540994   -5215.6916   -5052.5995   -5215.6916            0    8515.5755    17.779249    22.608168    19.147434    7696.4309    9476.9454    8569.9358    7499.8452    186.86724    127.00293    145.29075   -4096.7726 
36408000    80.961874   -5222.6566   -5060.7229   -5222.6566            0    8295.1356    17.801386    22.651232    19.083431    7694.8848    7504.5296    8793.8576    8587.0196   -62.209361    671.26764   -507.58068   -4129.8262 
36409000    84.889803   -5225.4205   -5055.6304   -5225.4205            0    7679.9098    17.799665    22.729352    19.050379    7707.3043    6704.8015     7918.252    8416.6759     691.9102   -216.96266   -565.18027   -4192.3845 
36410000    81.940361   -5210.9778    -5047.087   -5210.9778            0    8295.5728    17.935278    22.485893    19.099842    7702.7897    8232.3665    8830.7468     7823.605   -407.82742    841.57938   -1184.3284   -4115.1848 
36411000    81.644667    -5220.377   -5057.0776    -5220.377            0    8182.9556    17.720703    22.708436    19.082906    7679.1418    8628.2062    7771.6219    8149.0385    -644.0961   -842.38162   -1252.8396   -4140.6487 
36412000    84.399787   -5220.7816   -5051.9716   -5220.7816            0    7487.1515    17.787136    22.692487    19.111303    7713.9783    7110.8046    8231.0662    7119.5837    95.634456     442.3842     42.91108   -4209.6636 
36413000    81.178373   -5211.8909   -5049.5241   -5211.8909            0    8635.3951    17.916114    22.326337    19.219978    7688.0143    8382.1296    9322.7303    8201.3255   -242.30446    470.17215   -286.19841   -4081.3081 
36414000    83.525161   -5222.6474   -5055.5868   -5222.6474            0    8458.7572    17.802724    22.669666     19.06524    7694.3841    7601.3211    9223.8915    8551.0591    128.30597    1063.1179   -891.42999   -4106.3899 
36415000    82.060648   -5215.6338   -5051.5023   -5215.6338            0    8376.6844    17.713518    22.914767    18.949722    7691.7138    7798.2133    8427.2469     8904.593    -375.1303    353.15213    -77.33025   -4111.8414 
36416000    89.517799   -5214.2013   -5035.1547   -5214.2013            0    8852.0171    17.816589    22.668949    19.016253    7680.3481    8786.2886    8981.3715    8788.3911   -1118.6223     53.20184    571.09508   -4043.6402 
36417000    83.122789   -5220.5035   -5054.2476   -5220.5035            0    8275.5258    17.887996    22.459487    19.198506    7713.0998    8031.6755    8529.6808    8265.2212   -264.17904   -506.55575    -38.61627   -4123.3532 
36418000    85.607763   -5213.9463   -5042.7202   -5213.9463            0    8584.3788    17.857156    22.604486    19.061196    7694.0866    7811.2032     9146.538    8795.3953   -834.05399    14.797072    740.27876   -4079.4639 
36419000    87.501871    -5210.401   -5035.3864    -5210.401            0    8765.9096    17.742679    22.729726    19.088863    7698.2756    8462.2251    8472.5693    9362.9345   -141.76276   -279.09106    51.864022    -4051.225 
36420000      82.5221   -5217.7003    -5052.646   -5217.7003            0    7555.3671     17.74571    22.777561    19.109343    7724.0724    8003.9664    6956.4028    7705.7321     813.1824     8.999813    1034.2597   -4201.5514 
36421000     86.50914    -5220.253    -5047.224    -5220.253            0    7879.6218    17.755042     22.76324    19.087711    7714.5328    7832.2954    7229.8329    8576.7371   -54.813029   -84.241129    1088.1049   -4160.6992 
36422000    80.049793   -5213.1874   -5053.0779   -5213.1874            0    8113.0913    17.821686      22.5535    19.145858     7695.513      8431.19    8114.3194    7793.7644    983.56659   -174.25968    1133.3366   -4142.5362 
36423000    85.045007   -5228.1941   -5058.0936   -5228.1941            0    8278.9319    17.833798    22.530358    19.160198    7698.6027    7762.7994     8962.993    8111.0033    751.14044    31.695239    1043.1975   -4128.5664 
36424000    85.420007   -5222.4898   -5051.6392   -5222.4898            0    8177.1391    17.870391    22.558612    19.086262    7694.2684    8475.9844    8056.7863    7998.6467   -1679.6776   -466.52898   -1297.3928   -4134.0578 
36425000    80.392154   -5211.3912    -5050.597   -5211.3912            0    8735.9835    17.823009    22.673023    19.049692    7698.0087    8429.0092    8690.5994     9088.342    -274.1813    327.67785    146.35183   -4069.8294 
36426000    79.984439   -5206.4614   -5046.4826   -5206.4614            0    9866.6797    17.785576    22.632654    19.040026    7664.2731    7418.6721    10601.397     11579.97    284.46517    794.63878    491.52203   -3943.6289 
36427000    82.244261   -5204.4121   -5039.9134   -5204.4121            0    8002.9665    17.731559    22.806444    19.033573    7697.0591    7898.8827    7926.6621    8183.3547    128.66553   -462.73719    117.47646   -4141.5507 
36428000    84.727238    -5218.262   -5048.7971    -5218.262            0    7731.7087    17.846631    22.577048    19.163567    7721.4654    8133.7105     7806.405    7255.0107   -431.12175   -57.493254   -253.83961   -4178.1321 
36429000    86.112755   -5221.7041    -5049.468   -5221.7041            0    6867.2418    17.851439     22.59804    19.187702    7740.4637    5613.8976     7349.866    7637.9617    457.72445   -712.25881    581.26353   -4274.2476 
36430000    82.071036   -5209.2825   -5045.1303   -5209.2825            0    8863.5571    17.763732    22.777767    18.989264    7683.4007    9239.4792    8267.6863    9083.5058    64.330506    102.30346   -6.4533539   -4051.9287 
36431000    82.079574   -5216.6706   -5052.5013   -5216.6706            0      8527.54    17.813547    22.591336    19.103935    7688.0315    9052.3222    8373.8619    8156.4359   -155.37619    32.222306   -601.35336    -4096.376 
36432000    83.732262   -5214.2794   -5046.8045   -5214.2794            0    8671.3745    17.794712    22.581444    19.151988    7695.8491    8417.5818    9174.1763    8422.3653    494.67587    624.32701    -176.1963   -4073.5636 
36433000     82.45853   -5223.7731   -5058.8459   -5223.7731            0    8578.9934    17.791265    22.690371    19.082318    7703.3487    8029.8935    8828.7598    8878.3267   -189.23968     812.2984    360.11356   -4095.0351 
36434000     80.15454   -5221.1779   -5060.8589   -5221.1779            0    7545.1267    17.835313    22.680086    19.099251    7725.7698    8468.2636    6785.9147    7381.2019    1471.7929    -623.3333   -589.64642   -4210.7311 
36435000    85.849201   -5207.6626   -5035.9536   -5207.6626            0    9895.3355    17.775724    22.621208     19.05466    7662.0377    9470.6648    10377.099    9838.2427     -140.113    574.61676    728.00085   -3930.2195 
36436000    82.827853   -5209.2666   -5043.6006   -5209.2666            0    8622.5947    17.880781    22.544841    19.069397    7687.2436    9314.7998    7815.7566    8737.2276   -886.18018   -841.32502   -916.55996   -4076.9167 
36437000    84.568409   -5226.6197   -5057.4724   -5226.6197            0     7439.969    17.785465    22.728296    19.089098    7716.4493    6676.1494    7711.0014    7932.7562    928.01279   -125.86692   -186.75534   -4220.2044 
36438000    83.592622   -5213.8088   -5046.6132   -5213.8088            0    7887.8327    17.838099    22.768554    19.006479     7719.438    7887.8325    7159.0961    8616.5695    132.07424   -36.466201   -116.97635   -4158.6003 
36439000    78.115269   -5217.8964   -5061.6562   -5217.8964            0    7928.5834    17.913736    22.503579    19.126359    7710.2783    7793.2599    8800.3767    7192.1136   -19.245725    67.289677    916.28203   -4170.1148 
36440000    85.913317   -5201.7875   -5029.9503   -5201.7875            0    9389.4908    17.799775     22.65031    19.037256    7675.2586    8444.9164    9668.5491    10055.007    535.20078    157.97029    713.38142   -3978.9304 
36441000      82.7235   -5208.5953   -5043.1381   -5208.5953            0    8806.9613     17.68116    22.824816    19.042095    7684.8038     9091.207    8622.1838    8707.4932    302.54009   -441.32738    418.12713   -4056.0981 
36442000    89.067471   -5222.2198   -5044.0739   -5222.2198            0    8096.4509    17.894919    22.558339    19.094915    7708.2289    7893.7421    8045.8707    8349.7399    161.09892    400.21356    639.60436   -4133.8983 
36443000    83.497999   -5220.0923    -5053.086   -5220.0923            0    8018.0223    17.892941    22.571302    19.097101    7712.6881    6832.7878    8586.6636    8634.6155   -370.58425   -255.52358    -5.313304   -4151.2056 
36444000    84.733294    -5213.679   -5044.2019    -5213.679            0     8378.415    17.779829    22.844072    18.955012    7698.8379    8214.9614    8157.1969    8763.0868   -511.52579    540.26747    110.70878   -4103.4764 
36445000    81.465276   -5214.6876    -5051.747   -5214.6876            0    7586.4785    17.748275    22.747799    19.126456    7722.0044    6623.3312    8294.2723    7841.8319     819.4789    492.42437    1323.5983   -4197.3767 
36446000    82.586087     -5219.21   -5054.0277     -5219.21            0    8375.3367    17.851877     22.59581    19.086615    7699.1133    7707.2866    8412.2853    9006.4381    -1164.653    146.98107   -1009.5294   -4113.6141 
36447000    81.810062   -5212.1777   -5048.5475   -5212.1777            0    8145.9625     17.92321    22.549565    19.057551     7702.311     8361.082    7838.7823    8238.0234    90.081795   -195.58345    382.62525    -4133.509 
36448000    79.672495   -5207.6107   -5048.2559   -5207.6107            0    8302.8511    17.708726     22.69714     19.14126    7693.5893    8879.9673     8135.437     7893.149    990.28789   -437.09634    562.75743   -4116.6502 
36449000    85.693477   -5215.8261   -5044.4286   -5215.8261            0    7820.0146    17.733189     22.75724    19.111349    7712.5463    8402.8701    7874.2704    7182.9034   -242.19844    400.64555   -794.54958   -4164.8366 
36450000    80.131123   -5210.0233   -5049.7512   -5210.0233            0    9762.7952    17.777577    22.610797    19.095687    7675.8012     10984.87    9296.3657    9007.1498   -625.40324    557.15131   -755.03074   -3956.8679 
36451000    84.748403    -5218.518   -5049.0107    -5218.518            0    7798.1196    17.762587    22.650981     19.12771    7695.8428    7219.5704     8021.704    8153.0845    279.35282   -804.45804    9.1788284   -4173.7812 
36452000    82.390448   -5212.2156   -5047.4245   -5212.2156            0    9248.6025    17.780371     22.61416    19.062194    7664.6822    9233.7206    9115.5255    9396.5614    610.69909   -247.28614   -943.31065   -4013.6016 
36453000    81.196118   -5223.8612   -5061.4589   -5223.8612            0    7318.0813    17.810361    22.709966    19.086019    7719.7734    7520.4282    7432.9725    7000.8432   -65.765061   -60.654893    295.39693   -4237.5529 
36454000    81.300398   -5224.4803   -5061.8694   -5224.4803            0    8220.2362    17.820717    22.623056    19.097406    7699.2923    8461.5034    8209.4382     7989.767     603.5365   -209.80414   -763.08039   -4138.8497 
36455000     83.36532   -5224.2201   -5057.4791   -5224.2201            0    8594.7144    17.689921    22.748757    19.096174    7684.7532    8381.1138     8711.194    8691.8353    677.06991    314.72067    631.67396    -4094.233 
36456000    82.463062   -5219.9664   -5055.0301   -5219.9664            0    8785.3703    17.709471    22.722328    19.112257    7690.7799    8734.7657    8803.3587    8817.9865   -858.15225    665.15657    414.70733   -4069.6441 
36457000    80.969817   -5212.4855   -5050.5359   -5212.4855            0    7262.5911     17.84274    22.705093    19.042343    7714.4544    6171.3947    7270.2976    8346.0809    -197.6221    205.99609   -656.54106   -4233.4406 
36458000    83.236359   -5210.4473   -5043.9643   -5210.4473            0    7413.2089    17.754642    22.803137    19.091597    7729.4536    7798.3493    6735.9131    7705.3641   -1162.1099    166.01687   -1671.3247   -4208.3018 
36459000    84.763184   -5219.5097   -5049.9728   -5219.5097            0    8262.5139     17.74541    22.597918    19.207973     7702.576    8656.2095    8763.3602    7367.9719    926.87165    665.19081   -573.47535   -4121.8102 
36460000    83.554662   -5212.8768   -5045.7571   -5212.8768            0     8023.661    17.746285    22.733055    19.136615    7720.2323    7982.2067    7800.7666    8288.0096    276.73718     180.1693    494.05626   -4142.3598 
36461000    79.251065   -5203.5063   -5044.9944   -5203.5063            0    8859.4303    17.785119     22.67871    19.050838    7684.0329    8237.9909    8718.5581     9621.742   -513.20497   -38.234177   -1377.6435   -4052.1735 
36462000    80.248299    -5208.592   -5048.0855    -5208.592            0    8878.1487    17.884466    22.570299    19.047406    7688.6331    9209.2618    8885.6783    8539.5058   -111.74516   -441.66985    152.03354   -4052.5713 
36463000    81.224414   -5213.6501   -5051.1912   -5213.6501            0    8612.0337    17.866229    22.678709    19.006032    7700.9215    7018.1357    8453.8479    10364.118     297.1017    511.61006   -672.27957   -4083.9734 
36464000    82.571014   -5217.7346   -5052.5823   -5217.7346            0    8743.9765    17.764897    22.790054    19.024979    7702.5092    8653.6805    8322.8062     9255.443   -493.36571   -689.75918   -1031.5499   -4070.3435 
36465000    80.871356   -5225.4531   -5063.7004   -5225.4531            0    8688.0566    17.822184    22.739074    18.969285    7687.4917    8337.9654    8496.3609    9229.8436    146.56571    761.65862    237.29381   -4089.6461 
36466000     84.14404   -5225.5548   -5057.2563   -5225.5548            0    7003.2302    17.804154    22.715579    19.157421    7747.8674    7318.4654    6283.9009    7407.3242    154.95217   -907.02943   -452.49264   -4265.9284 
36467000    81.019588   -5217.9085   -5055.8594   -5217.9085            0    9781.6191    17.746862     22.44445    19.230562    7659.8896    10080.119    10293.323    8971.4144   -754.31147    275.95427    -790.8553   -3963.1387 
36468000    83.453941   -5208.3338   -5041.4156   -5208.3338            0    9008.4745    17.820352    22.535554    19.138792    7685.9762     9449.088    8853.3524    8722.9831    88.230148    392.80764   -57.502868   -4031.6369 
36469000    82.634577   -5218.1138   -5052.8344   -5218.1138            0    7801.1725    17.780127    22.702386    19.100826    7710.0735    8263.2253     7421.388    7718.9043    -305.4663    -554.3056    1087.1852   -4175.6432 
36470000    80.595908   -5220.2504   -5059.0486   -5220.2504            0    8556.5237    17.872342    22.653238    18.979817    7684.2906    8121.6537    8801.5924    8746.3251    209.84208    222.89086   -7.4680661   -4100.1404 
36471000    79.637394   -5214.5074   -5055.2227   -5214.5074            0    8095.2721     17.81435    22.695526     19.08187    7714.9153    9328.9656    7452.5827     7504.268   -397.67926   -554.67915   -715.01222   -4144.3903 
36472000    78.260249   -5220.1588   -5063.6286   -5220.1588            0    8103.3996    17.851644    22.609427     19.08089    7701.3419    8131.6302     8301.184    7877.3847   -84.334312    376.81271      310.389   -4153.4858 
36473000    78.169451   -5217.1864   -5060.8378   -5217.1864            0    7564.4635    17.742159    22.768802    19.106887    7718.5652    8253.9324    6804.2025    7635.2557   -949.41649   -243.49345     628.4232   -4209.3262 
36474000    81.342722   -5214.0719   -5051.3764   -5214.0719            0    8169.8421    17.676874     22.85895    19.071411    7706.2763    8800.0025     7558.927    8150.5968    637.97239    415.75332    436.50378   -4133.1831 
36475000    80.176949   -5211.2626   -5050.8988   -5211.2626            0    10229.965    17.751051    22.523252    19.176354    7666.9246    10645.456    10543.639    9500.7994   -12.529774    78.589037   -1642.7441   -3907.0432 
36476000    82.303427   -5217.8192   -5053.2022   -5217.8192            0    7430.1503    17.806762    22.537772    19.199878    7705.3859    8256.8444    7943.4737    6090.1328    675.67287   -502.33006     2075.359    -4218.238 
36477000    89.786882   -5209.2804   -5029.6956   -5209.2804            0     8324.213    17.776507    22.582707    19.187001    7702.4611    9442.1736    7982.0135    7548.4519   -679.14904   -507.95829   -943.21238    -4094.616 
36478000    87.954459   -5211.4358    -5035.516   -5211.4358            0    10073.211    17.760195    22.609495    19.060092    7653.5614    10054.365    10309.587    9855.6807    -98.85216    499.68151   -845.05741   -3911.1508 
36479000    83.006994   -5206.9956   -5040.9713   -5206.9956            0    9489.9853    17.732538    22.819724    18.967298     7675.148    9922.1032    8665.1017    9882.7511    565.64789    212.49736    79.627959   -3978.7178 
36480000    86.503384   -5211.0382   -5038.0208   -5211.0382            0    7239.8342    17.793903    22.650485    19.174182    7727.9725    7590.9196    6699.1175    7429.4656   -857.82484   -1255.9701   -1234.5858   -4222.0585 
36481000    85.286453   -5211.7521   -5041.1686   -5211.7521            0    8575.8744    17.814497    22.576461      19.1319    7694.6263    9569.0664    8404.4228    7754.1341    184.89198    209.37727   -344.63408   -4078.7992 
36482000    85.227883   -5214.6149   -5044.1486   -5214.6149            0    10014.691    17.691744     22.60024    19.161396    7661.4475    11172.426    9714.2419    9157.4058    705.46314    428.01019    363.36692   -3925.1636 
36483000    82.495896   -5219.8143   -5054.8123   -5219.8143            0    8921.5972    17.865908    22.407914     19.18937    7682.2289    8687.3051    9784.6398    8292.8466   -235.96614     377.5789   -835.14803   -4055.2595 
36484000    83.715929   -5211.4736   -5044.0314   -5211.4736            0    7654.9686     17.74786      22.7578    19.105612    7716.7994    7648.1682    7590.5522    7726.1854     36.65608   -344.46931     680.8343    -4182.529 
36485000     84.32245   -5224.5684   -5055.9131   -5224.5684            0    8392.2755    17.688093    22.816803    19.045701     7686.573    7908.0406     8537.823    8730.9631    747.31271    771.77481    427.28197   -4115.1325 
36486000    83.315989   -5223.5685   -5056.9263   -5223.5685            0    7297.1199    17.845654    22.707724    19.066291    7726.3132    7423.9816    6776.1761    7691.2021     66.51657   -283.03693   -185.35445   -4234.6842 
36487000    82.483522   -5215.7936   -5050.8164   -5215.7936            0    8849.4515    17.703076    22.683673    19.131669    7682.7196    8242.8497    9784.5771    8520.9276   -993.54955    230.15773   -333.88927   -4059.2833 
36488000    84.151445   -5210.3478   -5042.0345   -5210.3478            0    8429.4018    17.794063    22.590113    19.164255    7703.4537    8542.5447    8565.9982    8179.6625   -639.44823    506.56471    103.87886   -4095.0168 
36489000    86.111607   -5221.7154   -5049.4816   -5221.7154            0    7549.4961     17.72782     22.72339    19.147068    7713.1319    8244.2358    7341.1822    7063.0703    133.93495   -561.26278    455.60572    -4200.253 
36490000    83.620559   -5209.7263   -5042.4749   -5209.7263            0    8283.9019    17.837512     22.63709    19.067417    7699.2203    8272.2479    8191.0264    8388.4315   -607.40821    -274.7921    1613.0604   -4112.3151 
36491000    82.902281   -5221.3928    -5055.578   -5221.3928            0    8190.0378    17.795803    22.702433    19.052162    7697.2267    8539.9032    8046.5428    7983.6675   -1626.3527    76.886004   -1556.3404   -4136.1958 
36492000    81.534181    -5216.469   -5053.3906    -5216.469            0    8311.8931    17.707486    22.782904    19.093711    7702.9369    8953.1496     8490.775    7491.7547    196.16728   -117.68962    1443.2755   -4119.6372 
36493000     86.22305   -5212.2931   -5039.8363   -5212.2931            0    8433.1491    17.673532    22.785299    19.103113    7692.7608    8521.7893    8258.6872    8518.9707   -299.36274    160.69237   -113.70018   -4093.7127 
36494000    84.557026   -5214.3822   -5045.2577   -5214.3822            0    7738.4941    17.807502    22.671876    19.115419    7717.4585    7387.8412     8305.405    7522.2361    503.35855    251.16683   -16.895433   -4174.2807 
36495000    85.400086   -5213.0755   -5042.2648   -5213.0755            0    7288.7766    17.935649    22.629359    19.059963    7735.9098    6779.7627     7588.484    7498.0831   -1228.0158   -380.23475    -825.4904   -4219.9427 
36496000    83.303227   -5216.8547    -5050.238   -5216.8547            0    8112.3449    17.829572    22.666783    19.057705    7701.9627     7214.992    8149.7126      8972.33    1346.4855   -206.39032   -47.358052    -4139.017 
36497000    82.659858   -5218.7938   -5053.4638   -5218.7938            0    7891.7162    17.746718    22.752854    19.096084     7710.779    8047.5752     7864.903    7762.6704   -12.026928    893.95849    854.44094   -4166.0103 
36498000    81.392702   -5205.1774   -5042.3819   -5205.1774            0    7726.1017    17.723911    22.793385    19.078509    7707.4874    8290.0565    7056.6134    7831.6351   -561.32947   -366.59602   -386.04395   -4173.9233 
36499000    84.220938   -5224.8315   -5056.3792   -5224.8315            0    7759.4289    17.868379    22.661384    19.071883    7722.6288    7342.2503    8128.2508    7807.7857    344.83245    962.65484    407.71796    -4182.461 
36500000    83.969955   -5208.0759   -5040.1256   -5208.0759            0    7309.8975    17.877202    22.602409     19.10814    7720.9848    6634.3999    7257.9072    8037.3856    355.15576   -1135.5286   -1173.2893   -4217.0118 
Loop time of 570.419 on 64 procs for 250000 steps with 1008 atoms

Performance: 75.734 ns/day, 0.317 hours/ns, 438.275 timesteps/s
372.8% CPU use with 16 MPI tasks x 4 OpenMP threads

MPI task timing breakdown:
Section |  min time  |  avg time  |  max time  |%varavg| %total
---------------------------------------------------------------
Pair    | 41.227     | 43.906     | 47.566     |  24.8 |  7.70
Bond    | 1.5688     | 1.8577     | 2.7017     |  23.4 |  0.33
Kspace  | 274.98     | 284.08     | 300.37     |  36.7 | 49.80
Neigh   | 0.97528    | 1.0591     | 1.1276     |   4.1 |  0.19
Comm    | 64.945     | 84.222     | 90.843     |  65.1 | 14.77
Output  | 0.50442    | 0.5048     | 0.50636    |   0.1 |  0.09
Modify  | 118.97     | 123.08     | 134.18     |  33.0 | 21.58
Other   |            | 31.71      |            |       |  5.56

Nlocal:        63.0000 ave          65 max          60 min
Histogram: 2 0 0 0 2 0 6 0 4 2
Nghost:        3469.38 ave        3490 max        3448 min
Histogram: 1 0 4 1 0 3 4 1 1 1
Neighs:        21633.4 ave       22342 max       20585 min
Histogram: 2 0 0 0 2 3 3 4 0 2

Total # of neighbors = 346135
Ave neighs/atom = 343.38790
Ave special neighs/atom = 2.0000000
Neighbor list builds = 1997
Dangerous builds = 0

unfix		3
unfix		2
unfix		1

write_data	data.final.${pid}
write_data	data.final.1
System init for write_data ...
PPPM initialization ...
  extracting TIP4P info from pair style
  using 12-bit tables for long-range coulomb (../kspace.cpp:340)
  G vector (1/distance) = 0.38008484
  grid = 24 27 32
  stencil order = 5
  estimated absolute RMS force accuracy = 0.0023733456
  estimated relative force accuracy = 7.1472597e-06
  using double precision FFTW3
  3d grid and FFT values/proc = 7875 1344
Last active /omp style is kspace_style pppm/tip4p/omp
WARNING: Not all mixed pair coeffs generated from mixing. Use write_data with 'pair ij' option to store all pair coeffs. (../write_data.cpp:312)

write_restart   restart.lmp.${pid}
write_restart   restart.lmp.1
System init for write_restart ...
PPPM initialization ...
  extracting TIP4P info from pair style
  using 12-bit tables for long-range coulomb (../kspace.cpp:340)
  G vector (1/distance) = 0.38008484
  grid = 24 27 32
  stencil order = 5
  estimated absolute RMS force accuracy = 0.0023733456
  estimated relative force accuracy = 7.1472597e-06
  using double precision FFTW3
  3d grid and FFT values/proc = 7875 1344
Last active /omp style is kspace_style pppm/tip4p/omp
Total wall time: 0:09:30
