LAMMPS (30 Jul 2021)
  using 1 OpenMP thread(s) per MPI task
package omp 0
using multi-threaded neighbor list subroutines
echo both

include		in.partitions
variable        pid world 0
include		in.temp
variable        temperature equal 260.28
variable	tempDamp equal 100.0
include		in.pressure
variable        pressure equal 2875.0
variable        pressureDamp equal 1000.0 # This is 1 ps
include		in.seed
variable        seed world 745823

units		real
atom_style	full

read_restart	restart.lmp.${pid}
read_restart	restart.lmp.0
Reading restart file ...
  restart file = 30 Jul 2021, LAMMPS = 30 Jul 2021
  restoring atom style full from restart
  orthogonal box = (-0.099143751 -0.082718366 -0.032565434) to (20.099145 20.082719 20.732563)
  4 by 4 by 4 MPI processor grid
  restoring pair style lj/cut/tip4p/long/omp from restart
  restoring bond style harmonic/omp from restart
  restoring angle style harmonic/omp from restart
  972 atoms
  648 bonds
  324 angles
Finding 1-2 1-3 1-4 neighbors ...
  special bond factors lj:    0        0        0       
  special bond factors coul:  0        0        0       
     2 = max # of 1-2 neighbors
     1 = max # of 1-3 neighbors
     1 = max # of 1-4 neighbors
     2 = max # of special neighbors
  special bonds CPU = 1.562 seconds
  read_restart CPU = 1.892 seconds
include 	in.setup
variable	out_freq equal 1000
variable	out_freq2 equal 10000
variable	out_freq3 equal 1000

timestep	2.0

neigh_modify    delay 7 every 1

include		in.tip4p
# This is TIP4P/Ice

# create groups ###
group ox type 2
324 atoms in group ox
group hy type 1
648 atoms in group hy

# set charges - beside manually ###
set group ox charge -1.1794
Setting atom values ...
  324 settings made for charge
set group hy charge 0.5897
Setting atom values ...
  648 settings made for charge

# ### TIP3P Potential Parameters ###
pair_style lj/cut/tip4p/long/omp 2 1 1 1 0.1577 8.5
pair_coeff 1 1*2 0.000 0.000
pair_coeff 2 2 0.21084 3.1668
bond_style  harmonic
bond_coeff  1 450 0.9572
angle_style harmonic
angle_coeff 1 55 104.52
kspace_style pppm/tip4p/omp 1.0e-5
pair_modify tail yes

thermo          ${out_freq}
thermo          1000
thermo_style    custom step temp pe etotal epair emol press lx ly lz vol pxx pyy pzz pxy pxz pyz enthalpy

restart 	${out_freq3} restart.lmp.${pid} restart2.lmp.${pid}
restart 	1000 restart.lmp.${pid} restart2.lmp.${pid}
restart 	1000 restart.lmp.0 restart2.lmp.${pid}
restart 	1000 restart.lmp.0 restart2.lmp.0


include         in.dump
dump            myDump all atom ${out_freq2} dump.water.${pid}
dump            myDump all atom 10000 dump.water.${pid}
dump            myDump all atom 10000 dump.water.0
dump            myDump2 all dcd ${out_freq2} dump.dcd
dump            myDump2 all dcd 10000 dump.dcd
dump_modify     myDump append yes
dump_modify     myDump2 append yes


variable natoms 	equal  "count(all)"                        # NUMBER ATOMS
variable H      	equal  "enthalpy/v_natoms"                 # ENTHALPY-per-atom
variable Vol      	equal  "vol/v_natoms"                 # volume-per-atom
fix AVG all 		ave/time ${out_freq} 1 ${out_freq} v_Vol v_H file vol_enthalpy.dat
fix AVG all 		ave/time 1000 1 ${out_freq} v_Vol v_H file vol_enthalpy.dat
fix AVG all 		ave/time 1000 1 1000 v_Vol v_H file vol_enthalpy.dat


timer           timeout 02:55:00 every 1000
New timer settings: style=normal  mode=nosync  timeout=02:55:00

fix 		1 all shake 1e-6 200 0 b 1 a 1
       0 = # of size 2 clusters
       0 = # of size 3 clusters
       0 = # of size 4 clusters
     324 = # of frozen angles
  find clusters CPU = 0.356 seconds
fix             2 all nph aniso ${pressure} ${pressure} ${pressureDamp}
fix             2 all nph aniso 2875 ${pressure} ${pressureDamp}
fix             2 all nph aniso 2875 2875 ${pressureDamp}
fix             2 all nph aniso 2875 2875 1000
fix             3 all temp/csvr ${temperature} ${temperature} ${tempDamp} ${seed}
fix             3 all temp/csvr 260.28 ${temperature} ${tempDamp} ${seed}
fix             3 all temp/csvr 260.28 260.28 ${tempDamp} ${seed}
fix             3 all temp/csvr 260.28 260.28 100 ${seed}
fix             3 all temp/csvr 260.28 260.28 100 745823


run             250000
PPPM initialization ...
  extracting TIP4P info from pair style
  using 12-bit tables for long-range coulomb (../kspace.cpp:340)
  G vector (1/distance) = 0.37191341
  grid = 24 24 25
  stencil order = 5
  estimated absolute RMS force accuracy = 0.0034701509
  estimated relative force accuracy = 1.0450256e-05
  using double precision FFTW3
  3d grid and FFT values/proc = 2366 288
Last active /omp style is kspace_style pppm/tip4p/omp
Neighbor list info ...
  update every 1 steps, delay 7 steps, check yes
  max neighbors/atom: 2000, page size: 100000
  master list distance cutoff = 10.8154
  ghost atom cutoff = 10.8154
  binsize = 5.4077, bins = 4 4 4
  1 neighbor lists, perpetual/occasional/extra = 1 0 0
  (1) pair lj/cut/tip4p/long/omp, perpetual
      attributes: half, newton on, omp
      pair build: half/bin/newton/omp
      stencil: half/bin/3d
      bin: standard
Per MPI rank memory allocation (min/avg/max) = 9.224 | 9.228 | 9.235 Mbytes
Step Temp PotEng TotEng E_pair E_mol Press Lx Ly Lz Volume Pxx Pyy Pzz Pxy Pxz Pyz Enthalpy 
 4500000    270.93945   -4676.1236    -4153.594   -4676.1236            0    3536.9458    20.198289    20.165438    20.765129    8457.7892    2084.2339      3951.61    4574.9934   -556.71827    394.88177   -460.80639   -3717.3182 
 4501000    254.86423   -4700.5896   -4209.0625   -4700.5896            0    3953.9139    20.074561    20.153118    20.830912    8427.4577    5779.4553    2305.7895     3776.497   -282.82832    1436.7513    229.65916   -3723.1035 
 4502000    267.49833   -4710.0803   -4194.1873   -4710.0803            0    2805.0566    19.941909    20.205206    21.006983    8464.3517    4799.4726    1333.8097    2281.8875   -136.29971     1091.209   -441.62938   -3847.9202 
 4503000    261.30276   -4708.1681   -4204.2238   -4708.1681            0    2637.6856    19.925985    20.042686    21.076025    8417.1378    3618.7529    3932.6448    361.65915   -140.07498   -735.39679   -305.66123   -3880.4339 
 4504000    244.82838   -4701.3441   -4229.1719   -4701.3441            0    4094.1062    20.052622    20.138712    20.763219    8384.8931    5341.3432    1997.7288    4943.2466    193.50617   -829.17507    718.87695   -3728.5239 
 4505000    262.51631   -4708.0525   -4201.7677   -4708.0525            0    2761.3266    20.050035    20.376124    20.728162    8468.3247    4259.4901    1142.2411    2882.2486   -208.18235   -271.79806     627.0523   -3860.7388 
 4506000    261.24939   -4683.1233   -4179.2818   -4683.1233            0    4160.9902     20.04347    19.993531    20.943071    8392.7205      3722.55    5255.2031    3505.2174   -57.609256    241.58147    1432.3741   -3669.9799 
 4507000    261.55361   -4684.3164   -4179.8882   -4684.3164            0    3467.3317      19.9194    20.032281    21.127587    8430.5624    5435.8065    2189.2311    2776.9574     263.2412    158.91905   -1271.4623    -3753.576 
 4508000    260.56273   -4696.0739   -4193.5568   -4696.0739            0    1944.2999    20.289113     20.09441    20.832957    8493.5496    982.23671    1903.1436    2947.5195   -789.59108   -1519.3447   -1143.3856   -3952.7169 
 4509000    276.66908   -4698.5837   -4165.0041   -4698.5837            0    2096.6873    20.053754    20.345163    20.647378    8424.0659    1621.7431    1359.6595    3308.6592   -36.385731   -549.02726   -228.67327   -3907.4127 
 4510000    275.55847   -4707.5751   -4176.1374   -4707.5751            0    3825.5786    20.062426    20.132945     20.74191    8377.9832    2959.9503    4260.9463    4255.8392    363.59012   -214.25146    720.79908   -3708.7118 
 4511000    270.14929   -4726.0522   -4205.0465   -4726.0522            0    2024.1045    20.201422    20.013376    20.870366     8437.861     2633.817     1606.893    1831.6036    731.36844   -672.45926   -498.68991   -3955.9652 
 4512000    273.41374   -4676.4297   -4149.1283   -4676.4297            0     2625.083    20.141129    20.010311    20.962989    8448.7187    3422.7877    3094.5839    1357.8775    108.71329   -225.78791   -917.04562   -3825.6764 
 4513000    274.56249   -4674.9832   -4145.4663   -4674.9832            0    2847.3553    20.023421    19.965754    21.231786    8488.1004    4127.7215    3125.4664     1288.878   -215.55492    410.01336    1130.9588   -3792.9915 
 4514000    264.91697   -4717.7248   -4206.8101   -4717.7248            0    3254.5069    20.165784    20.146672    20.847802    8469.9081    2842.0615    3991.8475    2929.6118   -263.80916   -423.33808    1357.6377   -3804.7974 
 4515000    262.38885   -4706.0386   -4199.9996   -4706.0386            0    4077.3025    20.156837    20.107458    20.748259    8409.3267    3707.6214    4227.2403    4297.0457   -348.62032    273.92338    147.70465   -3699.9535 
 4516000    252.70871   -4682.2755   -4194.9055   -4682.2755            0    4440.2588    20.050706    20.119598    20.854058      8412.78    4803.1843    3976.5738    4541.0184   -133.51266      50.9141   -1400.7881   -3650.1223 
 4517000    257.31606   -4686.8628   -4190.6072   -4686.8628            0    2604.1822    20.047099    20.393905    20.629212    8434.0186    3609.1802    764.17736    3439.1891   -1064.0412    1936.2049    46.986079   -3870.2888 
 4518000    259.22455   -4720.2737   -4220.3373   -4720.2737            0    3157.5348    20.043379    20.184353    20.861798    8439.9043    3492.6995    3792.9361    2186.9688    -133.1934    594.21603    329.89534   -3831.6847 
 4519000    259.98865   -4700.2341   -4198.8241   -4700.2341            0    733.77204    20.060135    20.101637    21.113102    8513.6799    1654.5543    1098.7296   -551.96778   -235.76237    209.33992    803.14097   -4107.7166 
 4520000    261.34815   -4702.8609    -4198.829   -4702.8609            0    2523.5818    20.122017    20.236874    20.761429    8454.1932    2388.6875    1501.5082    3680.5497   -426.49201    1776.2045    591.42072   -3887.6821 
 4521000    259.80309   -4726.4699   -4225.4178   -4726.4699            0    1516.3995    20.189316    20.334513    20.774346    8528.6982    1293.9242    220.69537     3034.579   -642.89115    702.57832    -75.58163   -4036.8045 
 4522000     267.3202   -4719.4198   -4203.8703   -4719.4198            0    3283.2564    19.921652    20.356035    20.706969    8397.2111    3959.7186    3766.8696    2123.1809    -150.3838    420.01409    724.50116   -3801.7873 
 4523000    258.53584   -4717.2484   -4218.6403   -4717.2484            0    3583.2623    20.070299     19.99621    21.022416    8436.9244    5507.1748    3714.3379    1528.2742    432.07458   -381.31807     10.74263   -3777.7418 
 4524000    279.11528    -4684.278   -4145.9807    -4684.278            0    2632.6642    20.393985    20.136575    20.592822    8456.7513    1785.9046    2771.4471     3340.641   -271.81673   -863.96048   -152.83012   -3821.2862 
 4525000    265.75303    -4684.201    -4171.674    -4684.201            0    1745.1385    20.266192     20.17991    20.793529    8503.9282    1340.3124    1729.4639    2165.6391   -14.736121    -261.3173    214.77782     -3955.24 
 4526000    267.73923   -4686.8484   -4170.4908   -4686.8484            0    2350.0341    20.009505    20.117727    21.144866     8511.776    3159.0358    2819.0052    1072.0614   0.91312193     1236.864    539.83029   -3878.7681 
 4527000    259.75366   -4656.9935   -4156.0367   -4656.9935            0    2889.9605    20.341473    19.922804    20.860848    8454.0501    4046.8413    2080.0351    2543.0051   -184.34625    53.281169   -153.20458   -3799.7229 
 4528000     247.6868   -4687.1771   -4209.4922   -4687.1771            0    2140.8265    20.290039    20.119407    20.834958    8505.3206     83.55856    2575.4658    3763.4551   -460.80752    1402.0283   -377.68859   -3943.9412 
 4529000    263.21674   -4690.4174   -4182.7818   -4690.4174            0    2953.4417    20.094963    20.027108    21.081451    8484.1031    1230.0923    5349.5273    2280.7056   -461.26969    727.71304    534.19738   -3817.3467 
 4530000    264.96542   -4682.9135   -4171.9054   -4682.9135            0    3771.9805    20.107843    20.182436    20.688818    8396.0444    3480.5085    3522.6867    4312.7463   -196.20374   -424.19864    375.12079   -3710.0351 
 4531000    255.42511   -4658.8138    -4166.205   -4658.8138            0    2337.1331    20.300725    20.206403    20.770035    8519.9646    1963.3518      2919.36    2128.6876   -321.48056    587.86261    464.99847   -3875.8047 
 4532000    264.32695   -4692.7476   -4182.9709   -4692.7476            0    2721.2378    20.096728    20.236026    20.743612    8435.9688    2657.0642    1904.9785    3601.6707   -13.623251    199.24188   -324.49627   -3848.1772 
 4533000    258.48065   -4690.4798   -4191.9782   -4690.4798            0    4065.4694    19.980141    20.013491    21.004814    8399.2449    4213.2057     4640.429    3342.7735   -236.99623   -11.976612   -723.15155    -3693.981 
 4534000    250.99602   -4703.4419    -4219.375   -4703.4419            0    2629.0078     20.15887    19.994715    21.052592    8485.6865     2974.269    2649.6945    2263.0598   -678.94344   -441.20589   -153.18627    -3894.022 
 4535000    268.72896   -4762.3013   -4244.0349   -4762.3013            0    3982.5625    20.019572    20.203297    20.745578    8390.7844    3737.4367    3593.9259    4616.3249   -489.71979     245.5693    2048.6807   -3756.6848 
 4536000    254.62909   -4712.7899   -4221.7163   -4712.7899            0    1680.6359    20.193162     20.27696    20.861879    8542.0202    3222.3548    902.58595     916.9668   -558.05889    317.95627    484.04063   -4012.3484 
 4537000    254.53878   -4692.0652   -4201.1657   -4692.0652            0    1798.6004    20.176921    20.153684    20.860155    8482.5584    2452.4407    2573.7031    369.65728   -506.80633   -753.58561    566.74567   -3978.6619 
 4538000    261.73996   -4678.2096    -4173.422   -4678.2096            0    3699.7487    20.064084     20.11648      20.7765    8385.7851    4010.8114    4941.3464    2147.0882    723.61738   -40.285616    67.959636   -3720.9499 
 4539000    260.84392   -4720.2827   -4217.2232   -4720.2827            0    1602.7287      20.1524    19.981244    21.011823    8460.8309    756.75695    2639.5664    1411.8626   -855.48072    937.21463    1249.8683   -4019.4585 
 4540000     258.3255   -4701.4019   -4203.1995   -4701.4019            0    2271.7959    20.312739      19.8898     20.87769    8434.9271    1007.8699    2847.2227    2960.2949    110.66258    686.55358   -1519.7683   -3923.7351 
 4541000    262.23242   -4692.8536   -4187.1163   -4692.8536            0    2702.4698    20.160835    20.129543    20.722656    8409.8421    3225.5321    1695.9235    3185.9538    430.99604   -377.08966    405.18168   -3855.6613 
 4542000    253.54526   -4691.2373    -4202.254   -4691.2373            0    2989.2536    20.311828    19.896371    20.943928    8464.1044     3597.004    3537.6838     1833.073    1.3354857   -768.86117    836.03807   -3833.2597 
 4543000    267.70934   -4689.5983   -4173.2983   -4689.5983            0    2629.3014    20.071124    20.029582    20.990497    8438.5203    2774.0564     2935.473    2178.3747    689.16478    -1750.972   -817.56811   -3849.7177 
 4544000    254.14133   -4719.5325   -4229.3996   -4719.5325            0    4702.3904    20.066858    20.159812    20.715407    8380.2952    4918.0181    4325.1132    4864.0398   -54.964383    586.47377   -190.98821   -3654.6828 
 4545000    252.97097   -4723.6099   -4235.7341   -4723.6099            0    3471.9133    20.274337    20.240402    20.507618    8415.5208    4232.4055    1901.3059    4282.0284   -147.12163   -815.85205   -339.37593   -3809.6202 
 4546000    267.78813   -4728.1809    -4211.729   -4728.1809            0    4093.2184    20.018757    20.160062    20.793737    8391.9235    5586.5843    2819.5376    3873.5334   -210.91336   -901.72227   -627.06379   -3710.7698 
 4547000    252.15627   -4689.3173   -4203.0128   -4689.3173            0     3998.224    19.909391    20.155991     21.11238    8472.2608    6045.5823    3524.7582    2424.3314   -22.437339   -726.63096    1764.2045   -3708.9953 
 4548000     256.6343    -4713.987   -4219.0462    -4713.987            0     5174.947    20.087169    20.195494    20.636154    8371.4744    5619.6542    3750.4721    6154.7149    1252.0637    1384.7934   -408.18546   -3587.2402 
 4549000    272.65078   -4709.6784   -4183.8484   -4709.6784            0    2725.5282    20.247489    20.125175    20.831588    8488.5442    1120.5059    4778.5096    2277.5692    155.00152    172.73132    519.04662    -3846.437 
 4550000    244.85771   -4694.6817    -4222.453   -4694.6817            0    3010.1435    20.075745    20.127203    20.879624    8436.8003    3407.6156    1912.6746    3710.1404   -1179.0581   -165.18855    1499.7113   -3852.0787 
 4551000    284.16342   -4677.9159   -4129.8828   -4677.9159            0    1740.0948    20.237858    20.144768    20.889586     8516.412    691.21697    1267.5503    3261.5172   -524.54647   -1314.5408   -415.01197   -3913.7576 
 4552000    247.82912   -4698.0218   -4220.0625   -4698.0218            0      3969.98    19.956484    20.090507    21.018067    8426.8973    4647.4554     3774.324    3488.1608    111.87437    903.04213    310.48358   -3732.1612 
 4553000    242.59089   -4703.7802   -4235.9233   -4703.7802            0    2826.5374    19.966047    20.146861    21.014086    8452.9831    2641.4024    3240.2133    2597.9965   -574.88066   -94.375258   -942.62603   -3887.4732 
 4554000    261.37881   -4666.8481   -4162.7571   -4666.8481            0     3143.109    20.158262    20.074177    20.776265    8407.3343    1635.5274    3160.7584    4633.0412   -420.41557    2092.4455    1817.0672   -3777.3731 
 4555000    251.80316   -4676.2187   -4190.5952   -4676.2187            0     2323.599    20.318661    20.170321    20.709214    8487.3384   -210.61231    3970.7069    3210.7023   -249.62746    623.78248    554.21411   -3902.9821 
 4556000    281.48897   -4694.4132   -4151.5381   -4694.4132            0    4052.6848    19.980164    20.057369    21.074181    8445.4683    3593.9697     3646.171    4917.9138    588.50291    388.90652   -431.15628    -3652.375 
 4557000     249.9036   -4711.8183   -4229.8582   -4711.8183            0    1979.3005    20.076813     20.03573    21.015201    8453.4401    1677.2957    2732.3026    1528.3033    957.21837   -485.16809   -1785.0243   -3985.8406 
 4558000    264.74921   -4696.9242    -4186.333   -4696.9242            0    3391.0077    20.270207    20.098964    20.607788     8395.822    3892.9538     2033.668    4246.4013   -319.75271   -1355.8598   -811.18221    -3771.123 
 4559000    255.33914   -4694.2033   -4201.7603   -4694.2033            0    3209.2617    20.245357    20.169154    20.708256     8455.838    4278.8101    2439.3697    2909.6053    -664.7221     360.1794   -310.78681    -3805.995 
 4560000    259.39405   -4689.9491   -4189.6859   -4689.9491            0      3354.26    20.042355    20.035258    20.974922    8422.5589    2501.9345    5129.8303    2431.0153    6.9358891    919.71258   -673.76804   -3777.6674 
 4561000    259.23797    -4691.336   -4191.3738    -4691.336            0    2716.8781    20.024137    20.232159    21.075367    8538.2953    2787.1928     2853.568    2509.8735    1096.0682    812.40648    293.04603   -3853.0619 
 4562000    257.57029   -4650.8097   -4154.0638   -4650.8097            0    2843.2429    20.058454    20.207026    20.825013    8440.8297    4587.1866    1827.0269    2115.5153   -176.76413    463.51913   -1.1643827   -3804.0582 
 4563000    259.26031   -4669.9125   -4169.9072   -4669.9125            0    1716.3248    19.955459    20.251867    20.978239    8478.0469    2484.3612    2076.4696    588.14369   -666.75328      485.059   -953.24828   -3957.6946 
 4564000      262.802   -4688.6405   -4181.8048   -4688.6405            0     3685.878    20.216382    20.207991    20.476816    8365.4442    1313.7691    5681.6797    4062.1851       311.73   -247.41815     673.9803   -3732.1224 
 4565000      258.154   -4705.1132   -4207.2415   -4705.1132            0    5109.4982    20.075807    20.030507    20.842437    8381.3396    5545.3954    5021.8899    4761.2093    625.73733   -1004.3035   -619.28679    -3582.691 
 4566000    262.99026   -4660.4367   -4153.2379   -4660.4367            0    2404.2006    19.820832    20.188736    21.397297    8562.2897     3674.637     2043.774    1494.1909    623.71619   -302.37806    57.742506   -3853.0201 
 4567000    249.65254   -4698.0723   -4216.5963   -4698.0723            0     1693.466    20.219596    20.189654    20.723179    8459.7541    888.62301    1533.6459     2658.129    38.812171    1057.5089    553.12935   -4007.6619 
 4568000    256.13054   -4692.1114   -4198.1421   -4692.1114            0    2885.1401    20.001703    20.278204    20.770318    8424.4123     1087.871    4407.8077    3159.7415    72.630684    63.521103     270.8152   -3843.6697 
 4569000    251.29375   -4717.1959   -4232.5547   -4717.1959            0    1105.9836     20.25986    20.246586    20.717536    8498.1877   -181.26502    1744.8145    1754.4013    472.28118    375.39893    517.47867   -4095.4821 
 4570000    259.70893   -4690.1422   -4189.2717   -4690.1422            0    3476.8474    19.828724    20.269878     21.08672    8475.2974    5237.4283    2003.7163    3189.3977    44.992706   -1732.4241    -301.6233   -3759.5211 
 4571000    254.19435   -4682.8345   -4192.5993   -4682.8345            0    1988.3653    20.154527    20.221692    20.899079    8517.6002    3356.7438    1304.5076    1303.8446    -233.5702     1460.915   -425.21011   -3945.6036 
 4572000    278.08959   -4667.2362   -4130.9171   -4667.2362            0    2986.2263    20.275582    20.177917    20.604875    8429.8461    505.32793    4687.2876    3766.0632    747.51502    505.73359   -741.74403   -3763.7884 
 4573000    248.59424   -4709.3645   -4229.9296   -4709.3645            0     3618.556    20.190873    19.907177    21.022635    8449.9071    2832.9897    3829.0211    4193.6572    584.66558    34.778722   -432.87205   -3784.0033 
 4574000    245.64781   -4699.4355    -4225.683   -4699.4355            0    3029.0611    20.072255    19.963592     21.15973    8479.0067    3367.5513    2664.3772    3055.2548     193.7882     229.7447    1053.3848   -3851.1166 
 4575000    260.21473   -4707.1051   -4205.2591   -4707.1051            0    2527.6598    20.003793     19.99285     21.05334    8419.9222    3459.1307    3620.4666     503.3821   -1055.1789   -696.09473    640.64783   -3894.8728 
 4576000    268.83829   -4715.3837   -4196.9065   -4715.3837            0    4001.7362    20.187459    20.111804    20.775094     8434.817    4392.5124    4070.5809    3542.1152    475.24319   -965.97535    49.880654   -3704.6403 
 4577000    263.15394   -4742.8101   -4235.2956   -4742.8101            0    5015.6373    20.174718    20.069989    20.651349    8361.8626    5071.5103    5295.6175    4679.7842   -1056.0981   -269.49273    944.92773   -3623.6427 
 4578000    272.14044   -4684.9065   -4160.0607   -4684.9065            0     3387.511    20.027995    20.123181    21.071774    8492.4933     4438.051    3913.8053    1810.6766    700.99146    994.35404   -102.73609   -3740.5029 
 4579000    250.29676   -4701.7467   -4219.0283   -4701.7467            0    3206.7166    20.154458    19.976855    21.109266    8499.0695    3037.5184    4121.6541    2460.9772    357.47401   -122.45046    377.02396   -3821.5551 
 4580000    268.79498   -4695.7648    -4177.371   -4695.7648            0    2938.7616    20.125056    20.048832    20.861591    8417.3153    2970.4739    2953.9041    2891.9068    55.789104    890.15701    1059.6113   -3816.6148 
 4581000     267.6546    -4700.987   -4184.7926    -4700.987            0    3822.5019     20.21506    20.105076    20.655519    8394.9254     4459.423    2968.4958     4039.587    90.974022   -537.62955    658.14868   -3716.7984 
 4582000    259.46988   -4725.8783   -4225.4688   -4725.8783            0    4617.4158     20.25974    19.850133    20.844901    8382.9548    4639.9511    5232.1439    3980.1526   -178.43223   -517.72935   -283.73251   -3660.9584 
 4583000    267.93708   -4707.0319   -4190.2927   -4707.0319            0     1979.602    20.068814    20.185974    21.088811    8543.2581    2472.9075    2893.2487    572.64978   -106.59852   -353.84741    1207.4479   -3943.6449 
 4584000    272.74447   -4674.5828   -4148.5722   -4674.5828            0    1965.0727    20.210241    20.079708    20.820298    8449.2043    2972.5609     922.3585    2000.2988   -505.77413    420.00186    1653.4374   -3906.4301 
 4585000    258.02644   -4711.8553   -4214.2296   -4711.8553            0    2064.5046    20.362013    19.773414    21.107449    8498.4185    1149.0598    4182.5989      861.855   -109.73218    1199.7775    -332.1575   -3958.3534 
 4586000     263.4451   -4718.4138   -4210.3378   -4718.4138            0    3563.2365    20.048992    20.073354    20.921722    8419.9575    3454.5208    2435.9056     4799.283    158.05868     159.8486   -276.57402    -3772.785 
 4587000     265.3684   -4718.9908   -4207.2055   -4718.9908            0    2088.4534    20.001767    20.024104    21.016816    8417.6016    2339.5606    1532.6136     2393.186    491.30787    358.25894    514.27808   -3950.8226 
 4588000    260.45563   -4705.3364   -4203.0258   -4705.3364            0    2252.6449    20.169607    20.263091    20.720527    8468.4498    2248.1912    1883.6188    2626.1247   -375.69042    541.94861   -79.179963   -3924.8159 
 4589000    245.18801   -4719.2085   -4246.3428   -4719.2085            0    1166.4057    20.135307    20.286357     20.82876    8507.9659    1837.4269    423.20184    1238.5883    174.92292    847.99721   -115.79093   -4101.6152 
 4590000    263.63207    -4720.731   -4212.2943    -4720.731            0    4111.0839     20.09079    19.990812    20.889914    8390.0412    3772.6894    4857.9928    3702.5697    158.54643    705.65091    238.30567   -3709.2615 
 4591000    264.72444   -4718.4714   -4207.9281   -4718.4714            0    3194.3682    19.882596      20.2147    20.857654     8383.123    4648.7626    1898.0189     3036.323   -117.14118   -804.82694    1220.1602    -3817.387 
 4592000    266.30812   -4714.4935   -4200.8959   -4714.4935            0    2330.2438    20.159664    20.065208    20.990513    8490.8274     2449.394    1680.3322    2861.0053   -203.57745    1516.7622    946.40937   -3912.3418 
 4593000    263.81054   -4689.9219   -4181.1411   -4689.9219            0    2668.7117    20.035476    20.373623    20.899198    8530.9528    5176.1998    143.07254    2686.8628    135.70341   -987.37749   -225.77146   -3849.1128 
 4594000    262.24003   -4707.4264   -4201.6745   -4707.4264            0    1862.5397    20.275041    20.002492    20.873921    8465.4465    2609.1791    1516.0314    1462.4086   -176.02307    721.57447   -1103.8192   -3971.7256 
 4595000    238.20092     -4698.66   -4239.2695     -4698.66            0    3837.8066    19.942967    20.096564    20.953664    8397.9164    3596.8345    3731.4308    4185.1546    530.33777   -436.54074   -587.11741   -3769.2342 
 4596000    265.43868   -4699.5458   -4187.6249   -4699.5458            0    2444.4423    20.160592     20.00492    21.053601    8491.1496    1662.8895    2774.3432    2896.0941   -368.99115   -1187.2995    143.94701   -3884.9182 
 4597000    261.33662   -4697.1276    -4193.118   -4697.1276            0    2673.6562    20.124988    20.026241    20.868788    8410.7029    4151.6885    1844.7369    2024.5433    78.241145    1627.3132    445.81613   -3865.1633 
 4598000    257.68767   -4696.2068   -4199.2345   -4696.2068            0    2360.4028    20.223827     20.15457    20.817735    8485.3614    3912.3694    316.72199    2852.1169   -277.76176   -868.07671   -1290.3364   -3907.1339 
 4599000     256.9044   -4699.1393   -4203.6776   -4699.1393            0     3159.867    20.138817    20.015363    20.885524    8418.6565    1587.8021    3503.8985    4387.9004   -30.753557    650.77943   -374.83578   -3815.7171 
 4600000    272.76732   -4723.4617    -4197.407   -4723.4617            0      1916.34    20.165926    19.914737    21.105845    8476.0883    3108.2176    1849.8628    790.93957    -886.9302    713.47687    707.45896   -3960.5185 
 4601000    243.87396    -4713.942   -4243.6105    -4713.942            0    3673.4074    20.045691    20.080868    20.962133    8437.9894    5074.6632    2998.7982    2946.7607   -463.18735    -440.6076   -602.83022   -3791.5631 
 4602000    248.30706   -4673.0873   -4194.2063   -4673.0873            0     1994.711     20.16089    20.402046    20.810959    8560.0347    2982.8384   -293.67706    3294.9715   -936.02393   -509.51612    505.05481   -3945.1879 
 4603000     262.6301   -4686.6186   -4180.1143   -4686.6186            0    3887.9477    19.999474    20.133679    20.871608    8404.2241    3473.1916    4192.2565     3998.395    347.42685    110.18457   -298.87991   -3703.5803 
 4604000    261.85304   -4690.2508   -4185.2452   -4690.2508            0    2272.9046    20.151158    20.065404    20.959435    8474.7617    2980.6739    2444.5898    1393.4501    863.75715   -1270.4013   -930.14541   -3904.3239 
 4605000    261.31025   -4653.1893   -4149.2305   -4653.1893            0    3735.9308    20.239985    19.879123    21.058545     8472.972    3733.5692    4397.6388    3076.5846    -368.8818    320.29429   -824.47538    -3687.583 
 4606000    256.20013    -4714.546   -4220.4425    -4714.546            0    2455.4441    20.071057    20.235228    20.704436    8408.9493    3236.8448    1623.7258    2505.7618   -328.04191   -490.00213   -860.80489   -3919.3169 
 4607000    266.27446   -4710.4835   -4196.9508   -4710.4835            0    3390.5625    20.119552    20.050508    20.796011    8389.2611     3931.901    2358.8887    3880.8978   -94.043148    198.00427   -649.39022   -3782.1197 
 4608000    256.50231   -4668.4926   -4173.8063   -4668.4926            0    3118.7294    20.142344    20.125548    20.933869    8486.0819    1522.5668    4016.4805     3817.141   -203.02255    878.59881    1446.1773   -3787.8299 
 4609000     260.9972   -4693.5956   -4190.2406   -4693.5956            0    3934.3295    20.038067     20.06949    20.916814    8411.7758    3830.2594    3171.8077    4800.9214     96.48956    757.71142     395.2202   -3707.5884 
 4610000    273.25184   -4697.6876   -4170.6985   -4697.6876            0    2110.7616    20.144169    20.173678    20.835296    8467.0888    2107.0769    3057.1169    1168.0911   -508.13143      635.024   -44.396193   -3910.0536 
 4611000    266.99101   -4686.9641   -4172.0495   -4686.9641            0    2592.6997    20.196931    20.295758    20.785733    8520.3216    1958.2446    2035.6579    3784.1966    97.613013    370.60667     -897.161   -3849.8803 
 4612000    269.09113   -4696.4513   -4177.4864   -4696.4513            0    3137.3767    20.275027    20.039205    20.756164    8433.1346    4338.4152    1793.7809    3279.9341    44.581029   -440.04438     41.50332   -3791.6248 
 4613000    252.88278   -4713.2997    -4225.594   -4713.2997            0    2399.2649    19.942776    20.393262    20.780278    8451.3028    3319.1009    945.44939    2933.2444   -882.91696    346.44978   -386.05796    -3929.876 
 4614000     254.9471   -4687.0069     -4195.32   -4687.0069            0    655.25753    20.289394    20.177352    20.999546    8596.9256      -621.01    1290.2077    1296.5749    402.48829   -314.84689   -1109.2168   -4113.1655 
 4615000    262.19017   -4707.3562   -4201.7004   -4707.3562            0    2354.3105    20.030141    20.184875    20.803373     8410.926    1923.8934    2939.7308    2199.3075    648.98942   -869.41509    -811.0285   -3912.9096 
 4616000    248.88957   -4702.6732   -4222.6687   -4702.6732            0    3291.2556    20.089764    20.146608     20.94784    8478.4411     3135.417    3717.0295    3021.3203   -247.24216    218.95201    9.5714923   -3815.7071 
 4617000    254.87594   -4717.4154   -4225.8657   -4717.4154            0     2893.511    20.148047     20.13767    20.857771    8462.7219    123.21671     4640.804    3916.5123    295.03918    243.41473   -795.52814   -3868.7482 
 4618000    251.84723   -4700.5927   -4214.8842   -4700.5927            0    3764.5361     20.01419    20.379288    20.479739    8353.1723    3373.2729    2809.8931    5110.4422    -951.9698    1219.4737    134.12794   -3756.2792 
 4619000    248.60398   -4712.8375   -4233.3838   -4712.8375            0    578.87862     20.12892    20.287324    20.806429    8496.5533    1178.8088    193.51507      364.312   -654.78467   -35.467912   -1030.8515   -4161.6529 
 4620000     257.0872   -4695.7803    -4199.966   -4695.7803            0    1700.6746    20.163758    20.175433    20.974695    8532.7692    24.479694    3176.4622     1901.082   -306.57588    130.06601   -764.02539   -3988.3311 
 4621000    241.58874   -4697.6533   -4231.7291   -4697.6533            0    4226.3719    20.266347    19.993236    20.711506    8392.0921    2656.4023    5992.5985    4030.1148   -213.72778   -616.31042    12.250319   -3714.4632 
 4622000    266.73292   -4680.5978   -4166.1809   -4680.5978            0     3856.955    20.092257    20.238673    20.715256    8423.6647    3073.0698    4056.2979    4441.4973     -40.8734    580.00495   -1660.4319    -3692.352 
 4623000    263.15517   -4692.8468   -4185.3299   -4692.8468            0    3230.7608    19.942878    20.196448    20.949443    8437.9181    3907.6718    3329.6205      2454.99    170.97974    329.31544    1315.8119   -3787.7577 
 4624000    267.70185   -4709.2197   -4192.9341   -4709.2197            0    3090.8544    20.162725    20.013758    20.931247    8446.4259    3504.0603    2465.7174    3302.7856   -310.08212    353.41494   -199.10571   -3812.1951 
 4625000    263.99439   -4682.1431   -4173.0077   -4682.1431            0    3023.5535    20.227468    19.936312    20.965966    8454.7588    3864.0701     2320.522    2886.0683   -120.53295    1435.2611   -646.72945   -3800.1915 
 4626000    257.19014   -4723.6964   -4227.6836   -4723.6964            0    3065.5146    20.104569    20.151884    20.846791    8445.9718    2296.1192    3046.1089    3854.3155   -322.15863    326.07572    70.992582   -3850.0863 
 4627000     261.8519   -4701.2519   -4196.2484   -4701.2519            0    2717.2597    20.155452    20.322045    20.602379    8438.7345    4436.7213    411.11954    3303.9384   -339.03855    808.24693   -54.535934   -3861.8345 
 4628000     258.2047   -4711.0855    -4213.116   -4711.0855            0    3938.5418    20.149995     20.14781    20.793377    8441.6593    4342.7206    3517.2134    3955.6915    -268.4224   -294.17956     785.0495   -3728.2305 
 4629000    271.82992   -4681.9152   -4157.6683   -4681.9152            0    2970.4942    20.055096    19.966353    21.153758    8470.5383    3045.1743    2638.0372    3228.2712   -233.80004    424.99913   -521.07459    -3790.711 
 4630000    251.14873   -4704.0776   -4219.7161   -4704.0776            0    2896.0399    19.913131    20.019174    21.008891    8375.0773    2474.9026     4146.002    2067.2151    303.69735   -2191.5762    405.38959   -3865.9883 
 4631000    250.26795   -4726.9088    -4244.246   -4726.9088            0    2123.6799    20.198561    20.236266    20.791212    8498.2716    1834.1583    1300.7152    3236.1661    495.38894    579.83732   -923.77814   -3981.0401 
 4632000    264.02421    -4675.063   -4165.8701    -4675.063            0    2872.6257    20.167477    20.249366    20.689053    8448.9668     1703.656    1825.3785    5088.8425   -601.87998   -57.180335   -566.53124   -3811.9065 
 4633000    268.12869   -4674.0044   -4156.8957   -4674.0044            0    3721.1963    20.029504    20.192886    20.936095    8467.6768    1732.2364     6140.555    3290.7975   -509.90531   -122.42035   -354.89639   -3697.3563 
 4634000    255.00365   -4711.2644   -4219.4684   -4711.2644            0     4826.078    20.215561    20.022383    20.651766    8359.0855    4729.2608     5626.554    4122.4193    137.79251    158.20836    1133.6621   -3631.1276 
 4635000    254.56254   -4694.1421   -4203.1969   -4694.1421            0    3217.8529    20.114117    20.244035     20.83367    8483.2804    3894.5041    3158.3182    2600.7365   -470.30683     458.1604    327.34606   -3805.0843 
 4636000    274.16296   -4720.4754   -4191.7291   -4720.4754            0    3828.4763    19.995389    20.129178    20.880171    8404.0753    5805.0971    3075.0334    2605.2983    230.28973    312.33057    783.14105   -3722.4926 
 4637000    253.56585   -4702.7015   -4213.6784   -4702.7015            0    3320.2538    19.855539    20.106655    21.161699    8448.3528    2725.0147    4268.3785    2967.3681   -251.69122   -224.40523    588.93533   -3804.5881 
 4638000    266.32435   -4729.0064   -4215.3775   -4729.0064            0    1927.9362     20.24177    20.008819    21.048232    8524.8265    2508.3024    1944.6353    1330.8708   -557.39177   -256.83867   -605.48221   -3975.6852 
 4639000    245.11082   -4717.7055   -4244.9887   -4717.7055            0     3100.524    20.390859    19.998428    20.704436    8442.9611    470.85061    5186.6443     3644.077   -486.58045    787.87905   -1468.1647   -3863.2152 
 4640000    262.96961   -4690.1623   -4183.0033   -4690.1623            0    2545.1299     20.12139    20.068037    20.891014    8435.7248    2788.4545    1762.8186    3084.1167    -149.8355   -471.80388   -623.88911   -3869.8852 
 4641000    258.17625   -4705.3005   -4207.3858   -4705.3005            0    1227.8344    20.125499    20.195148    20.984646    8528.9454     598.3759    1316.1537    1768.9735   -503.01688   -382.84098     312.7684   -4054.6605 
 4642000    249.41147   -4683.0557   -4202.0447   -4683.0557            0     1933.364    20.012492    20.375703    20.828499     8493.208    2301.0875    1048.9312    2450.0732    410.07341    1126.5598    430.42983   -3962.5691 
 4643000    259.93129    -4708.359   -4207.0596    -4708.359            0     3240.579    20.167275    20.132222    20.656309    8386.7106    3354.2758    2853.2328    3514.2283    343.14409   -981.89948   -1611.9852   -3810.6993 
 4644000    265.90551   -4706.8276   -4194.0064   -4706.8276            0    2013.5754    20.148387    20.266546    20.758032    8476.2972    1679.3626    1798.1778    2563.1858    428.86767     838.8738    725.84294   -3945.0921 
 4645000    262.12073   -4703.0608    -4197.539   -4703.0608            0    2161.0063    20.164341    20.075061    20.885527    8454.4693     1729.115    2173.8163    2580.0876    -319.5777   -1095.5096    287.90745   -3931.0874 
 4646000    259.14893   -4715.4629   -4215.6724   -4715.4629            0    2828.3878    20.206681     20.10761    20.877348    8482.6346    2759.6023    3159.0864    2566.4745   -204.76551    1235.6849   -1086.9021   -3865.7711 
 4647000    240.06397   -4698.5026    -4235.519   -4698.5026            0    1219.8492    19.960922    20.283321    21.116411    8549.4815    2834.0631   -371.91398    1197.3985    343.47579   -411.62773    176.42317   -4083.4216 
 4648000    255.73964   -4702.6482   -4209.4328   -4702.6482            0    2605.9896    19.921913    20.215745    21.053156    8478.8702    4224.8213    1227.9354    2365.2119   -541.20723    1099.0209   -1468.3258   -3887.1876 
 4649000    263.72307    -4683.122   -4174.5099    -4683.122            0    2042.0289     20.24319    20.206699    20.793988    8505.7404    2466.7551    1491.8881    2167.4434    309.31455   -976.13737    240.85236   -3921.2013 
 4650000    256.04142   -4696.7982   -4203.0008   -4696.7982            0    4594.6837    20.029078    20.056397    20.810584    8359.8429    3603.5346     5842.865    4337.6515    311.52721    538.96137    668.64941   -3642.8182 
 4651000    268.61153   -4678.8782   -4160.8383   -4678.8782            0    2266.0005    20.039543    20.055962    21.193352    8517.8692    2704.4704    2538.6959    1554.8352    242.62977    2357.8155    508.45173   -3879.3457 
 4652000    271.85704   -4705.7298   -4181.4306   -4705.7298            0    4306.4272    19.838596    19.882861    21.147722     8341.678    5445.3612    3612.6151    3861.3055   -533.69453    1.0908681   -823.01301    -3657.533 
 4653000    251.91945   -4698.3045   -4212.4566   -4698.3045            0    2280.4324    20.074656    20.250537    20.873873    8485.6999    2943.5969    1784.6049    2113.0954    302.37213    813.33508    233.96538   -3930.2412 
 4654000    280.79132   -4740.9693   -4199.4396   -4740.9693            0    2671.7278    20.362231    19.942693    20.761395    8430.7399    475.06761    3893.7673    3646.3486   -80.964399   -62.990871    469.62642   -3870.9408 
 4655000    261.31727   -4716.6229   -4212.6506   -4716.6229            0    2836.6568     20.19881     20.22837    20.720986    8466.3671    2457.3551    2335.7743     3716.841   -24.113312   -71.892398    500.29003   -3862.3993 
 4656000    244.84089   -4696.9356   -4224.7394   -4696.9356            0    3585.4744    19.930277    20.130413     21.08135    8457.9366    4725.5634    3333.0589    2697.8009   -153.07241    -327.9628   -974.14264   -3782.4699 
 4657000    263.68927    -4704.405    -4195.858    -4704.405            0    2709.7644    20.115033    20.143486    20.993263     8506.195    3841.0801    2012.1306    2276.0825    101.57749    1280.3081    1072.2113   -3859.7006 
 4658000    243.61402   -4701.1076   -4231.2775   -4701.1076            0     2966.281    20.181544    20.250573    20.677445    8450.6198    2659.0929     2727.528    3512.2223   -196.38808   -634.55568   -1131.6055   -3865.7023 
 4659000    254.81902   -4711.8432   -4220.4033   -4711.8432            0    2608.9259    20.295369     20.12709    20.666544    8442.0085     1979.829    2338.3457    3508.6031    208.14134    744.82836    232.50394   -3899.1975 
 4660000    265.60994   -4703.9414   -4191.6903   -4703.9414            0     2335.497      20.1195    20.019565    21.065794    8484.9575    4473.2623    1052.3726    1480.8562   -509.74037   -416.25537   -17.031638   -3902.6856 
 4661000    261.51715   -4725.3087   -4220.9509   -4725.3087            0      2543.01    20.045091    20.022652    21.156782     8491.399    4528.4318    1156.1779    1944.4201    -891.6761   -175.57865    2217.5594   -3906.0288 
 4662000    264.76937   -4708.3286   -4197.6986   -4708.3286            0    1921.8233    20.160044    20.160467     20.86735    8481.2406    1862.6182    1879.1683    2023.6834    523.42189    601.12413    1091.8328   -3959.9879 
 4663000    261.19625   -4683.5743   -4179.8353   -4683.5743            0    1401.7012    20.382648    20.102157    20.692119    8478.2893   -207.43048     2581.473    1831.0609      1030.66    1089.4322     697.9485    -4006.519 
 4664000    263.27309   -4725.2466   -4217.5024   -4725.2466            0    2554.3299    20.018315    20.110447    21.061869    8479.0294    3755.3453    2421.9922    1485.6522   -325.37895    791.35522    350.15057   -3901.6392 
 4665000    248.50303   -4677.3886   -4198.1296   -4677.3886            0    3725.2548    20.047796    20.011626    21.104783    8467.0069    4018.7341    3164.0162     3993.014   -131.89658   -11.008169   -1533.8899   -3738.1254 
 4666000    269.23205   -4707.4696   -4188.2329   -4707.4696            0    2386.8755    20.205461    20.262324    20.660587    8458.6427    2187.0781    2283.2328    2690.3156    25.126052    214.12057     1776.134   -3893.7864 
 4667000    248.25975   -4674.7436   -4195.9538   -4674.7436            0    3617.8247    20.214095     20.18886    20.712174    8452.6285    2249.8604    3912.5815    4691.0322   -188.66329     1816.553   -314.28414    -3749.974 
 4668000    273.01863   -4695.1064    -4168.567   -4695.1064            0    2040.2171    20.193373    20.153919    20.855385    8487.6326    1289.5213    2214.1567    2616.9733    294.65263   -930.98972   -629.74894    -3916.022 
 4669000     261.0732   -4670.7861   -4167.2845   -4670.7861            0    4128.4166    20.065365    19.978271    21.125239    8468.5022    4600.1706    5042.6054    2742.4737   -56.803038    697.84109    30.043775   -3657.4068 
 4670000    263.89408   -4695.1204   -4186.1785   -4695.1204            0     2671.167    20.090917     20.18721    20.895166    8474.6522    1617.8517    3381.0804    3014.5689    184.48338    1610.5116    -213.0398    -3856.038 
 4671000    275.48792   -4706.4124   -4175.1108   -4706.4124            0    1352.0536    20.357965     20.07897    20.704512    8463.3204    -151.1864    2125.3224    2082.0247   -790.94587    -390.5431    197.78874   -4008.2283 
 4672000    261.99865   -4720.2556   -4214.9692   -4720.2556            0    3417.8303    20.159202    20.067433    20.790584    8410.6941    2078.7252    3883.3894    4291.3764   -279.28012    511.67761   -1299.5249   -3795.7335 
 4673000    257.98007   -4721.8853   -4224.3491   -4721.8853            0    3732.8277    20.226381    19.934475    20.863288    8412.1255    2692.4046    4681.4614     3824.617   -851.49172   -273.23292   -609.70451   -3766.3975 
 4674000     261.4456   -4706.9207   -4202.7009   -4706.9207            0    3752.9336    20.141323    20.149934    20.756627    8424.0008    2911.5393    2658.5636    5688.6979   -930.98225   -780.64982   -299.15545   -3741.6327 
 4675000    263.19255   -4713.2514   -4205.6624   -4713.2514            0    3928.6896    20.127509     20.08153    20.684592    8360.5298    4503.0521     3085.152    4197.8646   -284.82581    769.41052   -789.00402   -3726.6383 
 4676000    257.34181   -4719.7093   -4223.4039   -4719.7093            0    3264.3055    20.150967    19.955158    20.791794    8360.7077    2939.0782      3454.41    3399.4281    529.19136   -1651.6864     714.2108   -3825.3795 
 4677000    262.04914   -4700.7521   -4195.3683   -4700.7521            0    2719.2971    20.079219    20.260366    20.852951    8483.2375    2872.6107    2508.8603    2776.4204    694.51491    24.143839   -167.05961   -3858.9387 
 4678000    261.23658   -4700.8902   -4197.0735   -4700.8902            0    4850.3743     20.29994    20.139907    20.475562    8371.2066    5200.6823    3591.2205    5759.2203    391.80487    932.13646   -525.56243   -3604.9133 
 4679000    264.76527   -4678.4348   -4167.8127   -4678.4348            0    3639.9956    20.109147    20.065559     20.85552     8415.229    4204.8448    4225.2759    2489.8661    523.71819    204.13083    401.97137   -3721.0852 
 4680000    262.16217   -4680.7147   -4175.1129   -4680.7147            0    4035.5053    20.176549    19.810689         20.9    8353.9672    4084.4356    3972.8603    4049.2199    469.54923    -444.7729   -1064.6439   -3683.4509 
 4681000    258.56114   -4711.5874   -4212.9305   -4711.5874            0    3639.5572    20.022424    19.932908    21.164883    8447.0136    4659.2181    2705.7959    3553.6577   -165.50069     557.4265    23.449155   -3764.5697 
 4682000    255.52101   -4689.6982   -4196.9045   -4689.6982            0    2186.9904    20.084147    20.103661    21.050692      8499.53    3323.0191    1815.5725    1422.3796   -431.77834    360.07842    502.07769   -3925.8119 
 4683000    263.71523   -4730.2526   -4221.6556   -4730.2526            0    2562.6828    20.237419    20.064892    20.874237    8476.2268    1811.9575    2588.1604    3287.9306   -193.87933    555.96035    582.71602   -3904.8642 
 4684000    252.45524   -4709.1454   -4222.2642   -4709.1454            0    4275.5046    20.043219    20.153159    20.813512     8407.289     5171.173    4051.3382    3604.0025    188.61773   -693.77394     252.4584   -3698.0374 
 4685000    262.56446   -4676.1899   -4169.8122   -4676.1899            0    3090.8558    20.132091    20.030386    21.101414    8509.2202    2272.3965    3843.4247    3156.7463    -208.2033    584.76789    606.94018   -3786.2425 
 4686000    268.22643   -4688.4715   -4171.1742   -4688.4715            0    2353.3772    20.084705    20.195108    20.939191    8493.2038    1949.7762    3589.9736    1520.3817    725.27248    1313.5199    333.42536    -3879.674 
 4687000    263.50865   -4718.2794   -4210.0808   -4718.2794            0    1916.6956    20.163067    20.174898    20.844047    8479.1046    1760.8331     2025.346    1963.9077   -361.80292    -35.01073    466.98384   -3973.0641 
 4688000    267.74685   -4698.1754   -4181.8031   -4698.1754            0    3140.8528    20.019455    20.362441    20.694978    8436.2037     2175.701    3937.4617    3309.3958   -902.02721   -853.23559    -860.6051   -3795.3734 
 4689000    245.97201   -4705.8733   -4231.4956   -4705.8733            0    2440.8323    20.072205    20.229816    20.809103    8449.6823    2770.2161    889.58707    3662.6938    194.49047    752.07859   -317.66062   -3930.7119 
 4690000    271.04116   -4680.1749   -4157.4493   -4680.1749            0    2894.2467    20.169488    20.085077    20.886494    8461.2385    3311.1797      2343.81    3027.7503   -598.51922   -349.21214   -988.60314   -3800.3036 
 4691000    246.86503   -4668.5182   -4192.4183   -4668.5182            0    2259.3843    20.015017    20.108255    21.031648     8464.546    3301.8129    2034.6571     1441.683   -631.14627    379.82013   -251.52421   -3913.5047 
 4692000    271.86899   -4711.1796   -4186.8574   -4711.1796            0    3858.7669    20.340312    20.066751    20.600229    8408.2718    3102.3408    3163.0566    5310.9034   -230.89663    66.412093    1811.8811   -3713.6722 
 4693000    250.28954   -4674.3101   -4191.6057   -4674.3101            0    1710.2687    20.228785    20.231468    20.821385    8521.3188    2986.9003    459.60989     1684.296    397.21728   -617.56032     269.1658   -3979.0625 
 4694000    258.03852   -4676.3732   -4178.7242   -4676.3732            0    2514.8172    20.181818    20.119598    20.853423    8467.5337    542.08991    3401.6841    3600.6775   -356.97467     252.5922    211.33556   -3868.1687 
 4695000    260.13448   -4692.3648   -4190.6736   -4692.3648            0    3264.6551    20.030907    20.121423    21.083576    8497.7426    4660.6045    1730.8381    3402.5228   -279.64088    -1490.042   -786.04948    -3786.082 
 4696000    270.80128   -4720.6499   -4198.3868   -4720.6499            0     1639.283    19.956425    20.108271    21.155098    8489.3123    1683.0688     1919.768    1315.0121    318.11383    242.84138   -1012.0428   -3995.4306 
 4697000    255.17932   -4688.6229   -4196.4882   -4688.6229            0     2444.349    20.173634    19.943952    20.979966    8441.1215    2710.5941    3564.2606    1058.1924    25.472116   -660.97455    331.33367   -3895.5763 
 4698000    265.54133   -4695.3894   -4183.2706   -4695.3894            0    2681.1942    20.497674    20.088206    20.539071    8457.1984    1946.8394     2792.898    3303.8453    828.90729    653.12271   -676.49332   -3852.5733 
 4699000    274.47284   -4696.8288   -4167.4848   -4696.8288            0    2374.1659    20.141489    20.102205    21.002181    8503.5384    2331.7334    2354.7836    2435.9808   -357.76718    368.43849    575.63023   -3873.0518 
 4700000    260.96051   -4708.7866   -4205.5023   -4708.7866            0    718.97503    20.082117     20.06878    21.268351    8571.6475    1857.5536    1272.9714   -973.59987   -64.970508   -324.53602     585.5217   -4115.6242 
 4701000    245.69481   -4677.9026   -4204.0595   -4677.9026            0    2965.6097    20.226907    20.086297    20.831597    8463.5375    1046.4532    5472.4328    2377.9432   -755.53737    107.73214    79.874618   -3838.0084 
 4702000    270.51986   -4716.7759   -4195.0556   -4716.7759            0    3694.8526    20.185304     19.86146    20.972421    8408.0451    3140.3428    4122.4029    3821.8123   -612.70745   -167.62377    646.53945   -3741.9827 
 4703000    259.08471   -4728.8174   -4229.1508   -4728.8174            0    1411.3955    20.212613     20.12474    20.864429    8487.0987    1109.6545    1037.2471    2087.2848    597.85569    929.03944   -721.89782   -4054.4544 
 4704000    244.57787   -4699.2765   -4227.5875   -4699.2765            0    1975.5945    20.303717    20.154687    20.709951    8474.8238    1989.5893    1969.9902     1967.204     666.3853   -1337.9027    544.95429   -3983.4107 
 4705000     247.5737   -4718.6017    -4241.135   -4718.6017            0    4110.0069    19.962945    20.355306    20.708149    8414.7945     3427.622    4156.6602    4745.7387   -268.76387    1218.9656    215.06903   -3736.7503 
 4706000    253.26318    -4718.964   -4230.5247    -4718.964            0     2630.352    20.125902    20.034063    20.782757     8379.682    1489.7748    3972.4637    2428.8177    157.43684   -894.05192    -2486.074   -3909.0718 
 4707000    259.11784   -4694.4652   -4194.7347   -4694.4652            0    3210.0475    19.982105     20.03753    21.136495    8462.8839     4343.153    2564.5513    2722.4383   -33.483837     296.7274    -987.8636   -3798.5427 
 4708000    261.09537   -4690.7243   -4187.1799   -4690.7243            0    2773.1448    20.042764    20.104708    21.060452    8486.3921    1648.7284    3978.8787    2691.8272    596.65823    1478.7621    330.38921   -3843.9607 
 4709000    247.66239   -4678.8756   -4201.2379   -4678.8756            0    2334.8535     20.25912    20.047134    20.832789    8460.9724    3041.8211    2685.9929    1276.7464   -585.57367    1016.7954    175.23837   -3913.1295 
 4710000    266.15568   -4692.1429   -4178.8393   -4692.1429            0    2919.1095    20.254087    20.193657    20.773669    8496.5153    1567.0088    4237.2036     2953.116   -426.43233   -42.107544    357.56397   -3817.1238 
 4711000    257.54162   -4693.9568   -4197.2662   -4693.9568            0    3993.5648    20.075716    19.945978     21.02198    8417.8269     4021.096      4515.96    3443.6384    88.574497    372.38368    806.86884   -3706.9947 
 4712000     264.6041   -4705.9407   -4195.6295   -4705.9407            0    2397.6014    20.097432    20.016414    21.228525    8539.7794    3112.5487    2390.3531    1689.9025    434.86903    688.11014    871.07366   -3897.0228 
 4713000    263.65515   -4684.1525   -4175.6713   -4684.1525            0    1447.1257    20.105611    20.151833    20.974798    8498.2522   -308.52984    4191.9687    457.93816   -306.53727   -3.5411969    798.03463    -3996.317 
 4714000    261.90357   -4695.1312   -4190.0282   -4695.1312            0    2619.5679    20.190885    20.304005    20.553029    8425.8342    2282.3616    3162.5731    2413.7689   -11.331516   -732.51966    -1664.565     -3868.13 
 4715000    258.02185   -4747.4862   -4249.8693   -4747.4862            0    3821.3134     20.17958    20.139913    20.639965    8388.3908    3565.9478    4086.7074    3811.2849    245.58217    101.06206    -237.5906   -3782.3848 
 4716000    246.76635   -4698.4988   -4222.5891   -4698.4988            0    420.59607    20.173521    20.064482    21.238795    8596.8536    492.63177    705.29127    63.865162    -203.7134    107.88646   -1518.4127   -4169.8563 
 4717000    245.90243   -4708.3459   -4234.1024   -4708.3459            0    1440.0295    20.231249    19.946632    21.130716    8527.2009     1720.483    2163.6657    435.93971    440.33506   -826.61314    1085.8823   -4055.0196 
 4718000    257.94781   -4675.4759   -4178.0018   -4675.4759            0    3159.0666    20.089342    20.110168    20.726542    8373.5238    3966.3064    3015.2815    2495.6118   -318.54391   -143.32731   -357.58208    -3792.219 
 4719000    260.73057   -4684.9316   -4182.0908   -4684.9316            0    3059.7328    20.236728    20.109581    20.697879    8423.0454    2084.8875    2824.0052    4270.3058   -259.88501     152.9451   -1243.6018   -3806.2287 
 4720000    254.72652   -4717.6747   -4226.4131   -4717.6747            0    3636.6015    20.139135    20.097329    20.709169    8381.8877    2493.6101    3930.1402     4486.054    333.99728   -217.14944    -491.9522   -3781.8705 
 4721000     250.3849   -4692.0172   -4209.1288   -4692.0172            0    1866.2242    20.129372    20.139713    21.138943    8569.7229    3153.4503    1048.9519    1396.2704    5.8437666    65.530623    1410.0972    -3975.887 
 4722000    252.54061   -4709.6061   -4222.5603   -4709.6061            0    2027.9486    20.218912    20.061524    20.876935    8468.1477    2139.2185    1391.6113    2553.0161   -133.15004    69.760097   -637.23886   -3972.1101 
 4723000     259.9819   -4716.0247   -4214.6277   -4716.0247            0    1645.4115    20.142973    20.299826    20.687436    8459.0688    1677.2104    939.35148    2319.6724   -884.32155    1058.1501   -566.94287   -4011.6385 
 4724000    265.12931   -4708.7786   -4197.4544   -4708.7786            0    2200.3182    20.379548    20.121708    20.615674    8453.8964    678.12293    3221.6231    2701.2087   -213.74319   -1126.1037    359.50959   -3926.1741 
 4725000    261.24831   -4715.7327   -4211.8933   -4715.7327            0    2763.4358    20.159417    19.951955    20.966876    8433.2924    3762.6568    1435.1063    3092.5442    -142.9206   -10.635133    408.04516   -3872.0158 
 4726000    252.30868    -4686.868   -4200.2695    -4686.868            0    3772.4555     20.15088    19.894402    20.950529    8398.8518    2888.1992    6403.7361    2025.4313   -31.949054   -81.296951    302.03805   -3738.1866 
 4727000    266.62119   -4648.7308   -4134.5294   -4648.7308            0    3897.3631    20.119175    20.337607    20.704204    8471.6607    3511.1608    3197.8247    4983.1036    40.706084     124.6352    159.65774   -3653.0083 
 4728000    273.26942   -4700.3604   -4173.3374   -4700.3604            0    3283.7185    20.323584    20.131994    20.651996    8449.8524    1813.7417    3653.2915    4384.1224    644.13189   -1606.3208   -477.07623   -3768.6768 
 4729000    265.56292   -4695.9867   -4183.8263   -4695.9867            0    3621.4015    19.992256    20.123357    21.011165    8453.0294    3068.8801      4101.57    3693.7545    129.20123    440.01546   -681.15197   -3737.3844 
 4730000    267.05516   -4669.1026   -4154.0643   -4669.1026            0    2366.8812    20.113247    20.235206    20.952182    8527.4478    1555.1635    2903.0059    2642.4743   -431.29354    78.188823   -1784.1522   -3859.7093 
 4731000    264.38065   -4682.0289   -4172.1486   -4682.0289            0    2620.1375    20.153075    20.430199     20.60022     8481.756      4282.55     1153.522    2424.3407    -47.73703   -270.05623    201.16285   -3848.0435 
 4732000     262.2107   -4695.3859   -4189.6905   -4695.3859            0    2660.0319    20.284821    20.107662    20.814221    8489.7112    1190.9698    3264.8292    3524.2966   -253.44315   -153.62724   -365.23619   -3860.3421 
 4733000    263.71441   -4715.1856   -4206.5902   -4715.1856            0    2764.9685    19.998618     20.24452     20.93793     8476.981    4902.8856    151.85593    3240.1639    100.11101    169.38257   -41.961923   -3864.7625 
 4734000    268.37759   -4705.1862   -4187.5974   -4705.1862            0    2088.3573    20.037545     20.15214    20.861749     8423.962    671.36164    2164.5634    3429.1469   -61.049872   -490.00409   -134.48753   -3931.0326 
 4735000    245.82955   -4695.7329   -4221.6299   -4695.7329            0    2993.8962    20.175633    20.230353    20.649993    8428.5047    2859.2505    2539.1175    3583.3206    132.25052   -462.75223    109.71215   -3853.6169 
 4736000    259.02452    -4721.321   -4221.7704    -4721.321            0    1912.7642    20.266044    20.066738    20.893864    8496.9785    1503.0752    1732.7116    2502.5058   -46.912879   -1304.6252    647.12206   -3984.7412 
 4737000    257.12074   -4691.9722   -4196.0933   -4691.9722            0    3393.6127    19.980552    20.174477     20.87302    8413.8556    2314.5652    5141.3192    2724.9536    49.812991    -946.0479   -640.72083   -3779.6717 
 4738000    263.87156   -4690.0788   -4181.1803   -4690.0788            0    3058.7018    20.177258    19.902196    20.994046    8430.6156    3175.4177    3643.3579      2357.33   -879.61507    23.050234    99.747046   -3805.1071 
 4739000    246.14847   -4673.5858   -4198.8678   -4673.5858            0    2122.5806     20.12569    20.123272    20.917269    8471.3837    3031.6959     1093.262    2242.7838   -843.96022   -370.07119    26.833627   -3936.6305 
 4740000     260.3996   -4688.0621   -4185.8596   -4688.0621            0    1033.0889     20.32054    20.114763    20.684844     8454.782    2133.7626    455.56066    509.94354   -485.98014    -13.03903   -545.32409   -4058.4752 
 4741000    261.77948   -4725.6146   -4220.7509   -4725.6146            0    3056.8777    19.932937    20.276563    20.883709     8440.599    2184.6322    3541.0905    3444.9104    391.51276   0.40203755   -943.75212   -3844.4569 
 4742000    261.00426   -4698.5898   -4195.2212   -4698.5898            0    1461.7079    20.380511    19.962456     20.97175     8532.253    1002.5672    2718.8069     663.7498    14.222088    75.779265   -259.91552   -4013.3348 
 4743000    255.69611   -4666.0534   -4172.9219   -4666.0534            0     3590.899    20.220935    19.828225    21.057329     8442.836    3183.4245    4682.4525      2906.82     572.1264    235.19446   -70.829024   -3730.7742 
 4744000    258.95862   -4675.7615   -4176.3381   -4675.7615            0      3713.08    20.124466    20.046816    20.908609    8435.1911     2999.694    4979.1559    3160.3901    363.08426   -113.92747    126.48372   -3719.5601 
 4745000     267.8036   -4664.3295   -4147.8477   -4664.3295            0    3852.8013    20.402614    20.004244     20.59847    8407.0362    1087.2278    6097.4202     4373.756   -555.72377    119.79497    1180.7025   -3675.4634 
 4746000    255.74194   -4674.9887   -4181.7688   -4674.9887            0      3550.26    20.145066    20.026479    20.992164    8468.9682    5258.5959    2934.0204    2458.1636    340.69002    44.554207    30.414522   -3743.2719 
 4747000    244.88747   -4672.2154   -4199.9293   -4672.2154            0    2718.9142    19.925261    20.233263    21.111167    8511.0315    5078.3892    862.77204    2215.5814   -759.17543   -342.24107    1091.5742    -3862.445 
 4748000    267.96475   -4696.8449   -4180.0524   -4696.8449            0    2918.8081    20.132682    20.253175    20.767137    8467.8154    5627.0512    1094.8423    2034.5306   -124.98495   -433.87671     192.6965   -3819.5959 
 4749000    258.75132   -4721.1559   -4222.1323   -4721.1559            0    1598.8844    20.264443    20.078309     20.71585    8428.7769    609.12655    2188.6619    1998.8647   -71.703242   -197.13829    1226.6018   -4025.5893 
 4750000    264.82085   -4662.4704   -4151.7411   -4662.4704            0    3729.3595    20.084248    19.939344    21.142414    8466.8337    5833.8058    3126.6141    2227.6585    338.27506   -1954.4721    583.03833   -3691.2395 
Loop time of 459.682 on 64 procs for 250000 steps with 972 atoms

Performance: 93.978 ns/day, 0.255 hours/ns, 543.854 timesteps/s
99.0% CPU use with 64 MPI tasks x 1 OpenMP threads

MPI task timing breakdown:
Section |  min time  |  avg time  |  max time  |%varavg| %total
---------------------------------------------------------------
Pair    | 20.112     | 27.782     | 36.23      |  77.3 |  6.04
Bond    | 0.26265    | 0.2791     | 0.29344    |   0.9 |  0.06
Kspace  | 193.52     | 203.5      | 214.54     |  35.3 | 44.27
Neigh   | 3.2886     | 3.7266     | 4.2274     |  12.3 |  0.81
Comm    | 94.925     | 102.77     | 111.46     |  37.5 | 22.36
Output  | 1.2358     | 1.2386     | 1.25       |   0.4 |  0.27
Modify  | 109.91     | 112.48     | 116.95     |  15.6 | 24.47
Other   |            | 7.909      |            |       |  1.72

Nlocal:        15.1875 ave          20 max          10 min
Histogram: 1 1 4 5 11 13 15 7 4 3
Nghost:        2193.05 ave        2219 max        2162 min
Histogram: 1 3 8 6 8 10 10 8 6 4
Neighs:        4650.45 ave        6447 max        3040 min
Histogram: 1 6 7 14 8 7 13 2 4 2

Total # of neighbors = 297629
Ave neighs/atom = 306.20267
Ave special neighs/atom = 2.0000000
Neighbor list builds = 8131
Dangerous builds = 0

unfix		3
unfix		2
unfix		1

write_data	data.final.${pid}
write_data	data.final.0
System init for write_data ...
PPPM initialization ...
  extracting TIP4P info from pair style
  using 12-bit tables for long-range coulomb (../kspace.cpp:340)
  G vector (1/distance) = 0.37192189
  grid = 24 24 25
  stencil order = 5
  estimated absolute RMS force accuracy = 0.0034667082
  estimated relative force accuracy = 1.0439889e-05
  using double precision FFTW3
  3d grid and FFT values/proc = 2366 288
Last active /omp style is kspace_style pppm/tip4p/omp
WARNING: Not all mixed pair coeffs generated from mixing. Use write_data with 'pair ij' option to store all pair coeffs. (../write_data.cpp:312)

write_restart   restart.lmp.${pid}
write_restart   restart.lmp.0
System init for write_restart ...
PPPM initialization ...
  extracting TIP4P info from pair style
  using 12-bit tables for long-range coulomb (../kspace.cpp:340)
  G vector (1/distance) = 0.37192189
  grid = 24 24 25
  stencil order = 5
  estimated absolute RMS force accuracy = 0.0034667082
  estimated relative force accuracy = 1.0439889e-05
  using double precision FFTW3
  3d grid and FFT values/proc = 2366 288
Last active /omp style is kspace_style pppm/tip4p/omp
Total wall time: 0:07:43
