LAMMPS data file via write_data, version 30 Jul 2021, timestep = 1750000

1920 atoms
2 atom types
1280 bonds
1 bond types
640 angles
1 angle types

-0.13015123915791982 24.86015223915638 xlo xhi
-0.17378216376216038 24.90378316375992 ylo yhi
-0.06083789303914777 22.87083789304195 zlo zhi

Masses

1 1.008
2 15.999

Pair Coeffs # lj/cut/tip4p/long/omp

1 0 0
2 0.21084 3.1668

Bond Coeffs # harmonic/omp

1 450 0.9572

Angle Coeffs # harmonic/omp

1 55 104.52

Atoms # full

1 1 2 -1.1794 4.173122111308028 1.01700269496001 4.227979242033923 0 0 0
2 1 1 0.5897 4.396090170622874 1.8747995613292758 4.589567481344453 0 0 0
3 1 1 0.5897 4.951083646819366 0.7542741972340244 3.7361524266045314 0 0 0
4 2 2 -1.1794 2.858264249164272 1.0487903199957822 1.9426147292562956 0 0 0
5 2 1 0.5897 3.111234777537453 1.1153357272022684 2.8633548022439865 0 0 0
6 2 1 0.5897 1.9258336005169774 1.264701558506805 1.93373383168245 0 0 0
9 3 1 0.5897 4.832187952909423 4.458414618580211 3.614276452109788 0 0 0
10 4 2 -1.1794 2.9548204073055238 4.4799628476824624 3.43193145752389 0 0 0
11 4 1 0.5897 2.5949230839670756 5.21818145546824 3.923613790068311 0 0 0
12 4 1 0.5897 2.6257113122202287 4.6015033129311345 2.5413737271394816 0 0 0
13 5 2 -1.1794 1.4797018904179573 2.8429955414264954 5.023211605119725 0 0 0
14 5 1 0.5897 2.159028231149201 3.1883556382612985 4.444067780958031 0 0 0
15 5 1 0.5897 1.648717614013495 1.9013957353907318 5.05667878617574 0 0 0
20 7 1 0.5897 3.7041689093492574 2.7559177424017554 1.3096515374215363 0 0 0
22 8 2 -1.1794 1.443144864381208 4.6475831969155434 1.020583742061434 0 0 0
24 8 1 0.5897 1.1750008832735408 5.133872688478644 0.2409442189413588 0 0 0
21 7 1 0.5897 5.18440148953449 2.4780020160954206 1.4622455593179677 0 0 0
23 8 1 0.5897 0.6898020177300339 4.702338128985861 1.608477460566895 0 0 0
19 7 2 -1.1794 4.547733282339611 2.8887824648306184 0.877359992675371 0 0 0
27 9 1 0.5897 4.51227222001808 4.721095964391244 0.4253975187353139 0 0 0
25 9 2 -1.1794 4.3744200437180645 5.665616561263887 0.4974441861050556 0 0 0
98 33 1 0.5897 0.20955415114356296 5.354331907687095 3.6755900417143708 1 0 0
28 10 2 -1.1794 1.4065301021582637 0.056282755696488024 5.033800904761843 0 0 0
99 33 1 0.5897 0.13403478343304392 3.842982795697866 3.722510979415733 1 0 0
867 289 1 0.5897 4.467063236423509 0.1308784082878271 5.649274490876897 0 1 0
7 3 2 -1.1794 5.782335112940717 4.3752500028431465 3.534146299938754 0 0 0
16 6 2 -1.1794 0.05692581240416933 1.4362587600551426 1.8709067236623809 0 0 0
26 9 1 0.5897 5.132285526317447 5.981965746084963 0.9890955340881149 0 0 0
47 16 1 0.5897 5.891226277336863 0.49031728489914483 1.7459961038104421 0 0 0
496 166 2 -1.1794 0.3239806360731257 1.8183765435257104 7.82543327705118 0 0 0
578 193 1 0.5897 0.21857241640889802 3.7233250753251776 9.663917113842416 1 0 0
487 163 2 -1.1794 6.044595808467703 4.858136323150615 9.401460168261984 0 0 0
150 50 1 0.5897 1.4052159661913206 5.796530106628924 5.8622655467938385 0 0 0
505 169 2 -1.1794 4.587868690258941 5.7061468576427705 6.399856868176964 0 0 0
491 164 1 0.5897 2.8216403809072887 4.685584305557845 8.62654950531374 0 0 0
508 170 2 -1.1794 1.3874655899722999 0.06660886332989213 10.455423536129315 0 0 0
497 166 1 0.5897 0.08424860998939465 1.2376029659863257 7.1033112330979 0 0 0
483 161 1 0.5897 4.775104145042844 2.383694054217777 10.742474027441403 0 0 0
503 168 1 0.5897 0.7751240026954124 4.44444076409206 7.743407166301704 0 0 0
499 167 2 -1.1794 4.492592973671665 3.00831950663007 6.0238681404217145 0 0 0
492 164 1 0.5897 2.942197817630177 4.002396488134807 9.972123824634203 0 0 0
527 176 1 0.5897 5.7928390570424 0.8324616033874157 7.595321432370693 0 0 0
500 167 1 0.5897 3.7615917693864365 2.774386194432667 6.595768402848623 0 0 0
502 168 2 -1.1794 1.5699421735946673 4.423061346852274 7.210541117749381 0 0 0
490 164 2 -1.1794 3.2498839551930048 4.762976877439163 9.479069497489053 0 0 0
482 161 1 0.5897 5.226091159374572 1.6787338170369 9.480940947712737 0 0 0
489 163 1 0.5897 5.10877764424068 4.790755072826739 9.590731656313679 0 0 0
485 162 1 0.5897 3.5225127117629973 1.7303990440784751 8.584705447120314 0 0 0
498 166 1 0.5897 1.2811181194477197 1.8194992154232903 7.824854330767802 0 0 0
481 161 2 -1.1794 4.517481630895828 1.700030231856712 10.124029720209288 0 0 0
486 162 1 0.5897 3.5621613556204426 0.8872522792477735 7.327963400274991 0 0 0
493 165 2 -1.1794 1.7871287986600204 2.9269093023020414 11.016263820422324 0 0 0
504 168 1 0.5897 1.382408971957802 3.781399806701973 6.525458085039806 0 0 0
484 162 2 -1.1794 3.0778789794881742 1.5984205895383765 7.747416012690008 0 0 0
494 165 1 0.5897 1.7684482810854778 1.9808556096673944 10.871574178304405 0 0 0
501 167 1 0.5897 4.462780670613179 3.9638394807497654 5.974914361951589 0 0 0
579 193 1 0.5897 0.024715670529397965 5.2116960578443345 9.861991155022453 1 0 0
528 176 1 0.5897 5.8712614042318405 2.335757466384289 7.756671259336951 0 0 0
629 210 1 0.5897 2.0785295154771717 6.074697916446758 10.379454838884898 0 0 0
1347 449 1 0.5897 4.496260524182517 0.23435322199599545 11.260378868307246 0 1 0
961 321 2 -1.1794 4.658647830192099 1.5276925953426412 15.894966017287755 0 0 0
962 321 1 0.5897 5.312294578227608 1.4811618619324947 15.197304539335192 0 0 0
963 321 1 0.5897 4.9058798810602475 0.8304233556077203 16.502368242435097 0 0 0
964 322 2 -1.1794 2.922206636790281 1.1720107676944265 13.760429926306264 0 0 0
965 322 1 0.5897 3.3746713646237363 1.3264676807309537 14.589642013618873 0 0 0
966 322 1 0.5897 1.9924319789186096 1.1952121886394491 13.986472704216988 0 0 0
970 324 2 -1.1794 3.3524215576934795 4.763900566214628 15.142520099105429 0 0 0
971 324 1 0.5897 4.301827593235515 4.68982368282091 15.046302095130985 0 0 0
972 324 1 0.5897 3.0780230360786467 3.910754024881923 15.47885831790467 0 0 0
973 325 2 -1.1794 1.7882617196788764 2.8403184349314463 16.332277528339688 0 0 0
975 325 1 0.5897 0.9660867532221977 3.08470490617143 15.907494681354958 0 0 0
982 328 2 -1.1794 1.390757942804895 4.507819213123881 13.202940464618338 0 0 0
983 328 1 0.5897 1.374445320090873 5.18801054923312 12.529649512850158 0 0 0
984 328 1 0.5897 2.27432179788196 4.55285613495412 13.568197446074185 0 0 0
990 330 1 0.5897 1.6102726200533526 1.087351064097423 16.46437157718026 0 0 0
981 327 1 0.5897 5.479781107646081 2.905696310631161 12.850160164885757 0 0 0
980 327 1 0.5897 3.981093643052926 3.031393213602748 12.6777112012787 0 0 0
979 327 2 -1.1794 4.809990318549463 3.424660494438389 12.404911591274107 0 0 0
986 329 1 0.5897 4.632850287861612 5.117500536079626 12.24683928174391 0 0 0
1346 449 1 0.5897 3.7931541698402507 0.054888640200125516 12.588977866263196 0 1 0
976 326 2 -1.1794 -0.007877530795540641 1.2165673018096694 13.414800165556837 0 0 0
1110 370 1 0.5897 2.09776703764613 5.847422036863037 15.854337801600867 0 0 0
495 165 1 0.5897 1.4630149910716843 3.039466369245629 11.909832383724112 0 0 0
967 323 2 -1.1794 5.942744643239937 4.808403707372739 15.074766733463473 0 0 0
988 330 2 -1.1794 1.4347810574139224 0.14754786579867074 16.41673177941228 0 0 0
1109 370 1 0.5897 0.6047387901973014 5.751951431938309 15.623358879350887 0 0 0
1058 353 1 0.5897 -0.12706805254610667 4.143778344822191 14.384532028725857 1 0 0
985 329 2 -1.1794 4.591721354627727 6.052472938976203 12.045761653364412 0 0 0
1008 336 1 0.5897 5.655762667224961 0.9553288482233642 13.043861583485986 0 0 0
1455 485 1 0.5897 1.6233755338973008 3.1241874654460924 22.61940045681223 0 0 0
1460 487 1 0.5897 4.792484410496838 2.6561594164380975 17.314260801005368 0 0 0
1469 490 1 0.5897 1.4462471103584003 0.8379931374516258 22.176710003922118 0 0 0
1451 484 1 0.5897 4.252184871194086 4.352950228867552 20.60153259987527 0 0 0
989 330 1 0.5897 1.435659274852636 -0.1433012236966249 17.32865847971633 0 0 0
1459 487 2 -1.1794 4.731136181799913 3.1005739567288537 18.15980684840047 0 0 0
1826 609 1 0.5897 4.098572907005797 0.09885718249547698 18.187702469941648 0 1 0
1590 530 1 0.5897 2.1495561584824467 5.8574023486862785 21.373380484536547 0 0 0
1452 484 1 0.5897 3.156039528493032 4.8173476452193595 19.666371364422837 0 0 0
1466 489 1 0.5897 4.640783194767652 5.154272206229181 17.503489798114764 0 0 0
1450 484 2 -1.1794 3.3370466329731907 4.633093593201261 20.588040638417702 0 0 0
1461 487 1 0.5897 5.367495716567697 2.649600605795702 18.71464618576522 0 0 0
974 325 1 0.5897 1.7294682671969068 3.2236826319458047 17.207368257242678 0 0 0
1446 482 1 0.5897 3.356672412516969 1.9475224590090043 18.96484860649734 0 0 0
1441 481 2 -1.1794 4.3432847109821155 0.8676428405816676 21.535284735117678 0 0 0
1488 496 1 0.5897 5.875934395334068 0.4894654155578586 19.13388212130733 0 0 0
1464 488 1 0.5897 0.9991703416442903 4.479726771181533 19.048134687414823 0 0 0
1462 488 2 -1.1794 1.671369120250611 4.5437495929009755 18.369754393962864 0 0 0
1468 490 2 -1.1794 1.4850188824634771 -0.07832187516980604 21.9025589809361 0 0 0
1456 486 2 -1.1794 0.022819160125726018 1.3481804520951146 19.080461961121337 0 0 0
1463 488 1 0.5897 1.4806338011182918 5.366812530751934 17.91980130742742 0 0 0
1444 482 2 -1.1794 2.951360479242287 1.106800236659483 19.177438954808686 0 0 0
1454 485 1 0.5897 2.2249220288223417 3.1709441149586053 21.23098008519026 0 0 0
1442 481 1 0.5897 3.5423598548765023 0.9016391559070636 21.012303733474184 0 0 0
1443 481 1 0.5897 4.277399250537777 1.6193265950982394 22.124259555117234 0 0 0
1538 513 1 0.5897 0.0073188787904683306 3.638075064267689 20.94850531993088 1 0 0
1445 482 1 0.5897 2.010578216764355 1.2710895953021368 19.11376641787775 0 0 0
1453 485 2 -1.1794 1.5197355669018948 2.7676421958448345 21.73716607358049 0 0 0
1487 496 1 0.5897 5.747022142098581 1.2520974257218869 20.43528210197448 0 0 0
121 41 2 -1.1794 4.37984341373764 7.218557647901692 4.121284116211094 0 0 0
122 41 1 0.5897 3.5985929750339993 7.175896601788713 3.5699520179963438 0 0 0
123 41 1 0.5897 5.104151219764567 7.319082763991516 3.50368491709594 0 0 0
124 42 2 -1.1794 2.878294206558585 7.668754238462585 2.0135146055265447 0 0 0
125 42 1 0.5897 3.171694382727556 6.899683269244732 1.5249366771721935 0 0 0
126 42 1 0.5897 3.4078878638577788 8.388097799395398 1.669539047446734 0 0 0
129 43 1 0.5897 5.042356603483477 11.112594386373074 3.3138105233910338 0 0 0
130 44 2 -1.1794 3.0944806012872053 10.80231386417816 3.399117021693788 0 0 0
132 44 1 0.5897 2.7909639513412414 9.98443958217805 3.793101288017124 0 0 0
133 45 2 -1.1794 1.4932394929469208 8.930085188163618 5.024060717862378 0 0 0
135 45 1 0.5897 0.7983529711209808 9.490906590736358 4.67936675687579 0 0 0
137 46 1 0.5897 1.1016400467160063 7.5265682974922 2.128716958462198 0 0 0
139 47 2 -1.1794 4.738182987956154 9.250522725267286 0.7814128040954571 0 0 0
142 48 2 -1.1794 1.2167236125628376 10.710379690447182 1.422193647989697 0 0 0
143 48 1 0.5897 2.016769546430249 10.811956400455381 1.937707389723836 0 0 0
144 48 1 0.5897 1.3272694904104714 11.312562959278823 0.6864029608819588 0 0 0
149 50 1 0.5897 1.384500347338317 7.1797600259496885 5.247228175510797 0 0 0
131 44 1 0.5897 2.6882778524400024 11.488861429849058 3.928159316011839 0 0 0
140 47 1 0.5897 4.74996123480805 10.206066619923106 0.7256834066706791 0 0 0
621 207 1 0.5897 4.424988296917825 8.771631665681253 5.320341369805332 0 0 0
148 50 2 -1.1794 1.210633068543133 6.259859587048876 5.047604388447431 0 0 0
136 46 2 -1.1794 0.15684992171547124 7.671302767643657 2.0783194169514836 0 0 0
507 169 1 0.5897 4.716118769508041 6.238716421498571 5.614907164743563 0 0 0
168 56 1 0.5897 5.869140948936478 8.098352115590087 1.4446377338144094 0 0 0
145 49 2 -1.1794 4.717056213768302 12.102557342105573 0.7887976800075728 0 0 0
1574 525 1 0.5897 1.0420462697391608 9.039437984909442 0.16630788277957806 0 0 1
127 43 2 -1.1794 5.957569214195084 10.904760362241909 3.501737634389705 0 0 0
218 73 1 0.5897 0.22579502637475662 10.874927091383427 3.0196620125156204 1 0 0
270 90 1 0.5897 0.7337833826949648 12.261601654989594 4.701839885455512 0 0 0
607 203 2 -1.1794 5.775300708665265 10.962257119146742 9.425950954292068 0 0 0
134 45 1 0.5897 1.6188569634387309 9.229600191502861 5.924453169735417 0 0 0
1101 367 1 0.5897 4.429157567159367 8.849825892210983 11.113620834247959 0 0 0
613 205 2 -1.1794 1.444014205592389 9.289031570231359 10.551788229249398 0 0 0
602 201 1 0.5897 4.495140583685124 6.938753907707427 10.450257127378181 0 0 0
628 210 2 -1.1794 1.4349587908846118 6.266784624301443 11.061419983516087 0 0 0
614 205 1 0.5897 2.2175878144794763 9.583531650838356 10.071161699828707 0 0 0
616 206 2 -1.1794 0.17714140798428074 7.768646074229701 7.6619982825931725 0 0 0
646 216 2 -1.1794 6.114020596395942 7.624340979516248 7.6004529037924495 0 0 0
699 233 1 0.5897 0.1491420846168639 10.6311835247201 8.18656125661377 1 0 0
625 209 2 -1.1794 4.394742218318488 12.113060852897478 6.460575956876888 0 0 0
611 204 1 0.5897 4.076401271114619 10.88468821528096 9.340319433883115 0 0 0
606 202 1 0.5897 1.834375317475028 7.628291616243696 7.656049295927868 0 0 0
604 202 2 -1.1794 2.7706432792876736 7.435390912694619 7.704126857134643 0 0 0
630 210 1 0.5897 1.2958282814443105 7.211916715674356 11.000765996495883 0 0 0
619 207 2 -1.1794 4.416231974767767 9.188547956152684 6.181920846374206 0 0 0
601 201 2 -1.1794 4.571981279383201 7.687781636249072 9.859226740057098 0 0 0
624 208 1 0.5897 1.4965332341129176 11.287727368279603 6.4990161586175255 0 0 0
647 216 1 0.5897 5.762825655582843 7.568377687659042 8.489115087251378 0 0 0
612 204 1 0.5897 2.71277533112615 11.526251563997036 9.483847178225588 0 0 0
610 204 2 -1.1794 3.144779925406359 10.723902492708799 9.190825578305166 0 0 0
603 201 1 0.5897 3.8507995336290004 7.579295462491892 9.239320141169783 0 0 0
623 208 1 0.5897 2.2591919527062054 10.65713230051055 7.644662747805912 0 0 0
622 208 2 -1.1794 1.5244290920939005 10.5056563474532 7.050247293876623 0 0 0
620 207 1 0.5897 5.148840720495719 8.787888887439875 6.649820419185267 0 0 0
626 209 1 0.5897 4.46682890368355 11.165480759126561 6.575474436782106 0 0 0
605 202 1 0.5897 3.1904898095897654 8.171847745827593 7.259604309653697 0 0 0
615 205 1 0.5897 0.7309231876736784 9.830721171977524 10.21376535885954 0 0 0
648 216 1 0.5897 5.8147738526213395 6.821760903585674 7.173148148960361 0 0 0
608 203 1 0.5897 5.955403406367479 11.701521135636058 10.006735038430728 0 0 0
506 169 1 0.5897 3.9900483986273505 6.2196105187326145 6.9431385399371655 0 0 0
1081 361 2 -1.1794 4.8629906613589995 8.003862604528326 15.685154111215313 0 0 0
1082 361 1 0.5897 4.8419200792168455 8.738126095836794 16.298890666722045 0 0 0
1083 361 1 0.5897 4.596685936304713 7.246983894416135 16.20713927707215 0 0 0
1084 362 2 -1.1794 2.860713372127808 7.633975157058085 13.476407582912696 0 0 0
1085 362 1 0.5897 3.447930098638101 7.72141883819823 14.227205214179053 0 0 0
1086 362 1 0.5897 2.9738883256933177 8.448833964999263 12.987052323341594 0 0 0
1089 363 1 0.5897 4.737353666776301 10.737487494001988 15.15077918033089 0 0 0
1090 364 2 -1.1794 2.9874280685952037 10.52585393291143 15.131054297229271 0 0 0
1091 364 1 0.5897 2.3346466932654377 11.203462229883097 15.30692730816646 0 0 0
1092 364 1 0.5897 2.630601088763211 9.73701872896802 15.539306870943465 0 0 0
1095 365 1 0.5897 0.537875970423831 9.442403753583601 16.179623439065004 0 0 0
1097 366 1 0.5897 0.9089560458254222 7.490484565821339 13.92921189386688 0 0 0
1099 367 2 -1.1794 4.4146121311759705 9.355710449431497 11.926078337195237 0 0 0
1100 367 1 0.5897 5.120849347515443 8.982775673215391 12.453634130129899 0 0 0
1102 368 2 -1.1794 1.252107579062646 10.814075222761668 13.006574136642879 0 0 0
1104 368 1 0.5897 2.0692861215121723 10.812420550520281 13.504918482380871 0 0 0
1093 365 2 -1.1794 1.1983145240783524 9.0111001028433 16.72182209914166 0 0 0
1103 368 1 0.5897 1.3953908681086393 10.174963256313813 12.308546905587697 0 0 0
1094 365 1 0.5897 1.0975344034205214 8.079308658620203 16.527114593389868 0 0 0
1107 369 1 0.5897 4.416656113978881 11.099885904854322 12.079088158351256 0 0 0
1108 370 2 -1.1794 1.268531974931904 6.2690448756959745 16.07962523443591 0 0 0
1087 363 2 -1.1794 5.6873974420846025 10.835845911150612 15.088602726120731 0 0 0
1088 363 1 0.5897 5.888823862484997 11.582334760463148 15.65290362404629 0 0 0
1178 393 1 0.5897 0.21433564691049234 11.274043740945833 15.548547513357704 1 0 0
1096 366 2 -1.1794 0.012257973637986197 7.5410441379678765 13.598308801130708 0 0 0
1228 410 2 -1.1794 1.2212679590084967 12.27868102941759 16.498746194509863 0 0 0
987 329 1 0.5897 3.8928115660665465 6.388152558943187 12.607014564179554 0 0 0
1105 369 2 -1.1794 4.443420193682895 12.010434887566365 12.373159562914072 0 0 0
1127 376 1 0.5897 5.779823473910987 7.9511001250577085 14.111136646274486 0 0 0
1128 376 1 0.5897 5.828816534798992 7.06071761910516 12.887722600244095 0 0 0
1179 393 1 0.5897 -0.024570721646000493 10.581022125166912 14.223979423722092 1 0 0
750 250 1 0.5897 1.2248592467812045 11.968225365545923 11.52418571559132 0 0 0
1583 528 1 0.5897 0.8621819133392306 10.507542730117386 19.44081421218663 0 0 0
141 47 1 0.5897 4.726862481489555 8.95710684333242 22.802056043299018 0 0 -1
1710 570 1 0.5897 2.280107602884718 11.797956858318056 21.953871397342716 0 0 0
1467 489 1 0.5897 5.29556589145044 6.456504352689211 17.912649686060966 0 0 0
1230 410 1 0.5897 1.455786980083826 11.879150406107941 17.33634979487995 0 0 0
1658 553 1 0.5897 0.10567209386687443 10.034917493919275 21.336057761054896 1 0 0
1571 524 1 0.5897 2.702497785349976 10.458337790293815 20.2000466353946 0 0 0
1567 523 2 -1.1794 6.0313538773843876 10.654583623106047 20.911374036435774 0 0 0
1588 530 2 -1.1794 1.2431933700930462 6.11047980284851 21.548265260029417 0 0 0
1589 530 1 0.5897 1.2877869718551596 7.047996486857025 21.736342497981802 0 0 0
1566 522 1 0.5897 3.3158908347791836 6.8948627219629595 18.897924157545617 0 0 0
1579 527 2 -1.1794 4.652218809735356 9.466026606525936 18.04346615142108 0 0 0
1565 522 1 0.5897 1.9789443738435706 7.371956754940459 19.423884211532062 0 0 0
1564 522 2 -1.1794 2.8925739736934517 7.639609128972813 19.32500655672812 0 0 0
1572 524 1 0.5897 4.092946009333257 10.47300197284625 20.798431754590197 0 0 0
1582 528 2 -1.1794 1.5331123626227952 10.71823781724742 18.791494193958613 0 0 0
1587 529 1 0.5897 4.636084031029892 11.465588549962726 17.73275668365644 0 0 0
1561 521 2 -1.1794 4.8061731522248925 7.556669491096173 21.273742529021916 0 0 0
1563 521 1 0.5897 3.9620474885842514 7.731709811495618 20.85787180141744 0 0 0
1581 527 1 0.5897 5.281101750596797 8.748578366966152 18.12088134008828 0 0 0
1570 524 2 -1.1794 3.168299417351837 10.397951265334578 21.03404442530536 0 0 0
1580 527 1 0.5897 3.8488951269368825 9.12428079799637 18.435943839430358 0 0 0
1562 521 1 0.5897 4.69942771377767 6.696987101779906 21.68097157967977 0 0 0
1575 525 1 0.5897 2.170760872572367 9.152492211485274 22.095534976572743 0 0 0
1584 528 1 0.5897 1.4152283309713145 10.063324671468381 18.103430006484857 0 0 0
1573 525 2 -1.1794 1.3638839356819534 8.67013171848683 22.27565247588098 0 0 0
1709 570 1 0.5897 0.8522145075945554 12.169561726748622 21.6152526609335 0 0 0
1608 536 1 0.5897 5.99182397551337 7.516323205846796 19.830273614722294 0 0 0
1576 526 2 -1.1794 0.20749419103812988 7.337118830128052 19.14997219153934 0 0 0
1708 570 2 -1.1794 1.5543798029542961 12.352938039931246 22.239344642927684 0 0 0
1465 489 2 -1.1794 4.508199721833418 6.102272434607657 17.49946092127864 0 0 0
241 81 2 -1.1794 4.412242458835019 14.001130473600412 4.481941977092455 0 0 0
242 81 1 0.5897 4.180406524661626 13.219407393591739 4.9833634888576634 0 0 0
243 81 1 0.5897 3.6971403317269496 14.10440573526881 3.85416075621199 0 0 0
244 82 2 -1.1794 2.7460289198685683 13.785876748354651 1.9791576547329104 0 0 0
245 82 1 0.5897 1.8160266175462632 14.000830854061318 1.9083525325905903 0 0 0
246 82 1 0.5897 3.1931052545815484 14.504524147372772 1.532053144578536 0 0 0
250 84 2 -1.1794 3.2917226994026447 17.056958775203825 3.7592199819918926 0 0 0
251 84 1 0.5897 2.8085630111181414 17.208772210628204 2.9470140916719827 0 0 0
252 84 1 0.5897 4.211001636000212 17.04521032701812 3.4929391846930886 0 0 0
253 85 2 -1.1794 1.3267071147515153 15.310674503123895 5.173235855469008 0 0 0
255 85 1 0.5897 2.1563780125021874 15.591501359894382 4.78733009461375 0 0 0
259 87 2 -1.1794 4.483700305116176 15.651532735990708 0.8405453148299444 0 0 0
262 88 2 -1.1794 1.5820552960679266 17.08157350600954 1.5289549893229102 0 0 0
263 88 1 0.5897 1.6455422159432023 16.345342759577875 0.9205146499675637 0 0 0
264 88 1 0.5897 1.6799797552679503 17.857848672649304 0.9775144480024429 0 0 0
269 90 1 0.5897 1.4400025925982236 13.520678066707221 5.157820702969761 0 0 0
254 85 1 0.5897 0.6612062855183607 15.812692654144808 4.702845361603904 0 0 0
260 87 1 0.5897 4.35281353384405 16.591720689421884 0.7171908511034484 0 0 0
268 90 2 -1.1794 1.573223808770657 12.581061966966875 5.032633728842633 0 0 0
338 113 1 0.5897 0.0859628789181171 17.21487290409823 2.815333244521475 1 0 0
147 49 1 0.5897 3.9817247548012906 12.55515804677293 1.2018451198950553 0 0 0
261 87 1 0.5897 4.566939295147843 15.302341334311363 -0.0467753386916311 0 0 0
247 83 2 -1.1794 6.028800692846271 17.067658761669705 3.394411118828239 0 0 0
288 96 1 0.5897 5.807897938645322 14.72036711523248 1.9858343870346604 0 0 0
265 89 2 -1.1794 4.4452586330272705 18.315516519233732 0.5528847505824546 0 0 0
287 96 1 0.5897 5.99124029348025 13.854509191897305 3.2140661778114348 0 0 0
256 86 2 -1.1794 -0.01357710054470282 13.9282982076429 2.319797665061782 0 0 0
339 113 1 0.5897 -0.07993102911110839 17.967529328176454 4.118349360657034 1 0 0
389 130 1 0.5897 2.227171832243634 18.54473265168135 4.6604519089608845 0 0 0
146 49 1 0.5897 5.494354942742631 12.530559792390598 1.1476554246373138 0 0 0
736 246 2 -1.1794 0.05416400575635544 14.094472995774547 7.840367189781358 0 0 0
727 243 2 -1.1794 5.809171200531762 16.920054732828632 9.266450731100791 0 0 0
748 250 2 -1.1794 1.3829273944965235 12.407758156747834 10.6887001801306 0 0 0
818 273 1 0.5897 0.09626742472451835 16.908038660908524 8.498367751303864 1 0 0
740 247 1 0.5897 4.421856355128746 15.227620302705217 5.777217085078283 0 0 0
869 290 1 0.5897 0.595680683704471 18.32800848088396 10.383180310266713 0 0 0
733 245 2 -1.1794 1.3549291104238632 15.228532940374356 10.714694867159466 0 0 0
722 241 1 0.5897 3.6011787029991535 14.064265897757986 9.822410929605855 0 0 0
732 244 1 0.5897 2.411414418054786 16.35460355162334 9.651542965801992 0 0 0
730 244 2 -1.1794 2.98143198162445 17.011217592754733 9.251346974270426 0 0 0
739 247 2 -1.1794 4.680589876509686 15.825529953563375 6.4784921334910015 0 0 0
729 243 1 0.5897 5.9850086816559225 17.797603517170984 9.605968836897269 0 0 0
728 243 1 0.5897 4.855194059600583 16.843734664302744 9.281231278109967 0 0 0
731 244 1 0.5897 2.49289924471869 17.32025460926519 8.488444341816916 0 0 0
721 241 2 -1.1794 4.402797567622973 13.835938015160075 10.29296255456613 0 0 0
744 248 1 0.5897 1.3543775871478065 16.320347781399775 6.622493980818884 0 0 0
741 247 1 0.5897 4.437798630072265 16.69339367468183 6.15577828009049 0 0 0
737 246 1 0.5897 1.0066030300577387 14.026234146888232 7.906057966718637 0 0 0
725 242 1 0.5897 3.408032217457946 14.957603507375522 7.459178505692495 0 0 0
735 245 1 0.5897 0.5997224433884245 15.636000978874826 10.290674943429652 0 0 0
723 241 1 0.5897 5.106584276704366 14.017532396904997 9.67018042985062 0 0 0
743 248 1 0.5897 1.1825918642232858 17.815702684263222 6.459798405403959 0 0 0
742 248 2 -1.1794 1.3365427869190145 17.138695617301906 7.1187423990962575 0 0 0
726 242 1 0.5897 3.339652799836844 13.451822567620155 7.317633600804212 0 0 0
749 250 1 0.5897 1.2126182210769683 13.332502156232671 10.8679668504724 0 0 0
724 242 2 -1.1794 2.891652781831789 14.195349087867335 7.721018440056247 0 0 0
768 256 1 0.5897 5.949494636872324 14.710502933887314 7.368252177824162 0 0 0
745 249 2 -1.1794 4.344109361717178 18.578083082914688 6.2922408858250085 0 0 0
870 290 1 0.5897 2.062655076168503 18.255703353365462 10.749739035331919 0 0 0
627 209 1 0.5897 5.151679175305777 12.469483875736723 6.925512583970803 0 0 0
1201 401 2 -1.1794 4.398948658506016 14.414459157949777 15.710582925234537 0 0 0
1202 401 1 0.5897 5.058165761747319 14.340349646765226 15.020589598181829 0 0 0
1203 401 1 0.5897 4.605798151441856 13.703708357272632 16.317458708377444 0 0 0
1204 402 2 -1.1794 2.724597103250105 13.787824214676577 13.643267822992984 0 0 0
1205 402 1 0.5897 3.1300044402010068 13.930525917928588 14.4985194871844 0 0 0
1206 402 1 0.5897 3.3468156387285464 13.233646310758163 13.172171383189196 0 0 0
1210 404 2 -1.1794 3.188764469990513 17.18770085718232 14.934439461101187 0 0 0
1211 404 1 0.5897 2.72580161567649 17.87092595777481 15.419306530952655 0 0 0
1212 404 1 0.5897 4.110948297370687 17.32114165017584 15.153285527013827 0 0 0
1213 405 2 -1.1794 1.5910575733333838 15.080799194322147 16.418345950536704 0 0 0
1214 405 1 0.5897 0.8103092716304006 15.55494663636896 16.132356262350413 0 0 0
1215 405 1 0.5897 2.321126595240712 15.56948232385984 16.038395422975093 0 0 0
1218 406 1 0.5897 0.881877755355482 13.779784599168346 13.788803918820042 0 0 0
1219 407 2 -1.1794 4.514189385459823 15.560517393277104 12.328955401913504 0 0 0
1222 408 2 -1.1794 1.342193205233989 16.814201806371244 12.9693141185521 0 0 0
1223 408 1 0.5897 1.2890417551507027 17.519006514343225 12.323811881833409 0 0 0
1224 408 1 0.5897 2.0184844930851926 17.10122980837035 13.582832091764486 0 0 0
1229 410 1 0.5897 1.298989074836141 13.220387518899262 16.651870783833715 0 0 0
1220 407 1 0.5897 3.851954566814555 15.23013480437312 12.93596313306528 0 0 0
1227 409 1 0.5897 4.511867259174405 17.467015196240652 12.345403732566007 0 0 0
1106 369 1 0.5897 4.576468191325043 12.517505205014766 11.572283134626831 0 0 0
1350 450 1 0.5897 0.7824915186709467 18.31992804010325 16.089759500527407 0 0 0
1247 416 1 0.5897 5.778989044084824 14.317670515925224 13.002984916215444 0 0 0
1207 403 2 -1.1794 6.057024795316081 17.120056993628793 15.19391748086963 0 0 0
1298 433 1 0.5897 0.12488673792914506 16.67844055518291 14.40980443406819 1 0 0
734 245 1 0.5897 1.4184276875850506 15.666022249381324 11.563684792161489 0 0 0
1225 409 2 -1.1794 4.366679427328271 18.38644043153093 12.122079823243919 0 0 0
1221 407 1 0.5897 4.366788234575447 15.067873829368903 11.521615787246741 0 0 0
1216 406 2 -1.1794 -0.06826631709940126 13.893288921802581 13.810910257332086 0 0 0
1700 567 1 0.5897 4.691891405360463 15.347578138864721 17.143175349091848 0 0 0
1779 593 1 0.5897 0.3070895247015505 17.561657614064444 21.426517148215048 1 0 0
1701 567 1 0.5897 3.9722526602237 15.219131930997204 18.46882980974953 0 0 0
1705 569 2 -1.1794 4.17207169440769 18.43005050664012 17.939835158570382 0 0 0
1586 529 1 0.5897 5.578822717429443 12.59989022386536 18.074067806328216 0 0 0
1703 568 1 0.5897 1.32994123203371 16.114028296107534 18.045691243196217 0 0 0
1778 593 1 0.5897 0.25865232252107323 16.936265622046612 20.048703913702354 1 0 0
1683 561 1 0.5897 4.468870935037393 13.292302539324977 22.11553729372678 0 0 0
1692 564 1 0.5897 3.0034417752833953 16.79347722482388 19.90609016593546 0 0 0
1686 562 1 0.5897 3.643911968639409 14.020645937965242 20.179255669028436 0 0 0
1685 562 1 0.5897 3.539401611634291 13.23629357191004 18.88862257136163 0 0 0
1696 566 2 -1.1794 0.14344656716839294 13.886270394667795 19.327534362607736 0 0 0
1684 562 2 -1.1794 3.0487092833014677 13.833294903446614 19.453449596091893 0 0 0
1693 565 2 -1.1794 1.6589250893349363 15.201054732468963 22.40724638604224 0 0 0
1704 568 1 0.5897 1.6177662586750043 17.59980279723736 18.00455378843646 0 0 0
1689 563 1 0.5897 4.919008583119568 17.01102787054073 21.06778298838426 0 0 0
1687 563 2 -1.1794 5.853945714111879 17.18645409304066 21.173850913229273 0 0 0
1690 564 2 -1.1794 3.370497586340226 16.874285477016805 20.786383278340757 0 0 0
1695 565 1 0.5897 1.772499709997859 14.312301968743585 22.07034251893341 0 0 0
1691 564 1 0.5897 2.8233981360062104 16.305199423975452 21.327700931130586 0 0 0
1707 569 1 0.5897 4.449516070228559 17.52973677393642 17.77028875299277 0 0 0
1694 565 1 0.5897 0.8933263813844696 15.53806432738661 21.942020176694264 0 0 0
1699 567 2 -1.1794 4.618834593773198 15.752990816654435 18.00718477927534 0 0 0
1682 561 1 0.5897 5.489317021297703 13.832823478828404 21.136628809470317 0 0 0
1702 568 2 -1.1794 1.4310071347099167 16.88138541474951 18.608909087462294 0 0 0
1681 561 2 -1.1794 4.743187372519776 14.096629862245782 21.675001704040355 0 0 0
1697 566 1 0.5897 1.084150603954251 13.955093341262529 19.164877805041954 0 0 0
1728 576 1 0.5897 5.736593477496335 14.69307294081135 18.981165246904936 0 0 0
1830 610 1 0.5897 2.6251913691952224 18.52635008499218 22.0038302576194 0 0 0
1585 529 2 -1.1794 4.842465956792444 12.372489775143935 17.5064227946337 0 0 0
361 121 2 -1.1794 4.712775559297143 20.26365543516154 4.12357422707284 0 0 0
362 121 1 0.5897 3.918900807542486 20.036611319292348 3.639473303626327 0 0 0
363 121 1 0.5897 4.856160689248434 19.5215496741732 4.7109231433405006 0 0 0
364 122 2 -1.1794 2.8031033144594066 20.01139325163974 2.053130140255273 0 0 0
365 122 1 0.5897 2.9954750765978306 20.847438366073348 1.6285061061535908 0 0 0
366 122 1 0.5897 1.869511309826303 20.056207350081053 2.259342427384665 0 0 0
370 124 2 -1.1794 3.0081453124840074 23.26875515123257 3.4133861069086096 0 0 0
371 124 1 0.5897 3.957588285005812 23.151255053823327 3.3838825665556382 0 0 0
372 124 1 0.5897 2.6974451046254555 22.568686004124515 3.9875054252323423 0 0 0
373 125 2 -1.1794 1.482315109795703 21.63885099607542 5.0194681569184425 0 0 0
379 127 2 -1.1794 4.3409375927376175 21.729308162214103 0.6049035381816714 0 0 0
381 127 1 0.5897 5.087119878139854 21.235345595554953 0.9445835624216674 0 0 0
382 128 2 -1.1794 1.1087168463203978 23.410301477970826 1.2989698221543617 0 0 0
383 128 1 0.5897 2.0079760865031333 23.582971174959496 1.5776117546943231 0 0 0