LAMMPS (30 Jul 2021)
Processor partition = 1
  using 2 OpenMP thread(s) per MPI task
using multi-threaded neighbor list subroutines
variable        pid world 0 1
variable        phase world IceIh IceIII

shell cd ${phase}
shell cd IceIII
include Restart.lmp
echo both
log log.lammps
#include		in.partitions
include		in.temp
variable        temperature equal 180.22
variable	tempDamp equal 100.0
include		in.pressure
variable        pressure equal 1754.2
variable        pressureDamp equal 1000.0 # This is 1 ps
include		in.seed
variable        seed equal 745823

units		real
atom_style	full

read_restart	restart.lmp.${pid}
read_restart	restart.lmp.1
Reading restart file ...
  restart file = 30 Jul 2021, LAMMPS = 30 Jul 2021
  restoring atom style full from restart
  orthogonal box = (-0.0017413752 -0.024758070 -0.15606604) to (20.001742 20.024759 20.856064)
  2 by 4 by 4 MPI processor grid
  restoring pair style lj/cut/tip4p/long/omp from restart
  restoring bond style harmonic/omp from restart
  restoring angle style harmonic/omp from restart
  972 atoms
  648 bonds
  324 angles
Finding 1-2 1-3 1-4 neighbors ...
  special bond factors lj:    0        0        0       
  special bond factors coul:  0        0        0       
     2 = max # of 1-2 neighbors
     1 = max # of 1-3 neighbors
     1 = max # of 1-4 neighbors
     2 = max # of special neighbors
  special bonds CPU = 0.002 seconds
  read_restart CPU = 0.006 seconds
include 	in.setup
variable	out_freq equal 1000
variable	out_freq2 equal 10000
variable	out_freq3 equal 1000

timestep	2.0

neigh_modify    delay 7 every 1

include		in.tip4p
# This is TIP4P/Ice

# create groups ###
group ox type 2
324 atoms in group ox
group hy type 1
648 atoms in group hy

# set charges - beside manually ###
set group ox charge -1.1794
Setting atom values ...
  324 settings made for charge
set group hy charge 0.5897
Setting atom values ...
  648 settings made for charge

# ### TIP3P Potential Parameters ###
pair_style lj/cut/tip4p/long/omp 2 1 1 1 0.1577 8.5
pair_coeff 1 1*2 0.000 0.000
pair_coeff 2 2 0.21084 3.1668
bond_style  harmonic
bond_coeff  1 450 0.9572
angle_style harmonic
angle_coeff 1 55 104.52
kspace_style pppm/tip4p/omp 1.0e-5
pair_modify tail yes

thermo          ${out_freq}
thermo          1000
thermo_style    custom step temp pe etotal epair emol press lx ly lz vol pxx pyy pzz pxy pxz pyz enthalpy

restart 	${out_freq3} restart.lmp.${pid} restart2.lmp.${pid}
restart 	1000 restart.lmp.${pid} restart2.lmp.${pid}
restart 	1000 restart.lmp.1 restart2.lmp.${pid}
restart 	1000 restart.lmp.1 restart2.lmp.1


include         in.dump
dump            myDump all atom ${out_freq2} dump.water.${pid}
dump            myDump all atom 10000 dump.water.${pid}
dump            myDump all atom 10000 dump.water.1
dump            myDump2 all dcd ${out_freq2} dump.dcd
dump            myDump2 all dcd 10000 dump.dcd
dump_modify     myDump append yes
dump_modify     myDump2 append yes


variable natoms 	equal  "count(all)"                        # NUMBER ATOMS
variable H      	equal  "enthalpy/v_natoms"                 # ENTHALPY-per-atom
variable Vol      	equal  "vol/v_natoms"                 # volume-per-atom
fix AVG all 		ave/time ${out_freq} 1 ${out_freq} v_Vol v_H file vol_enthalpy.dat
fix AVG all 		ave/time 1000 1 ${out_freq} v_Vol v_H file vol_enthalpy.dat
fix AVG all 		ave/time 1000 1 1000 v_Vol v_H file vol_enthalpy.dat


timer           timeout 02:55:00 every 1000
New timer settings: style=normal  mode=nosync  timeout=02:55:00

fix 		1 all shake 1e-6 200 0 b 1 a 1
Finding SHAKE clusters ...
       0 = # of size 2 clusters
       0 = # of size 3 clusters
       0 = # of size 4 clusters
     324 = # of frozen angles
  find clusters CPU = 0.002 seconds
fix             2 all nph aniso ${pressure} ${pressure} ${pressureDamp}
fix             2 all nph aniso 1754.2 ${pressure} ${pressureDamp}
fix             2 all nph aniso 1754.2 1754.2 ${pressureDamp}
fix             2 all nph aniso 1754.2 1754.2 1000
fix             3 all temp/csvr ${temperature} ${temperature} ${tempDamp} ${seed}
fix             3 all temp/csvr 180.22 ${temperature} ${tempDamp} ${seed}
fix             3 all temp/csvr 180.22 180.22 ${tempDamp} ${seed}
fix             3 all temp/csvr 180.22 180.22 100 ${seed}
fix             3 all temp/csvr 180.22 180.22 100 745823


run             250000
PPPM initialization ...
  extracting TIP4P info from pair style
  using 12-bit tables for long-range coulomb (../kspace.cpp:340)
  G vector (1/distance) = 0.37205163
  grid = 24 24 25
  stencil order = 5
  estimated absolute RMS force accuracy = 0.0034506769
  estimated relative force accuracy = 1.0391611e-05
  using double precision FFTW3
  3d grid and FFT values/proc = 3458 576
Last active /omp style is kspace_style pppm/tip4p/omp
Neighbor list info ...
  update every 1 steps, delay 7 steps, check yes
  max neighbors/atom: 2000, page size: 100000
  master list distance cutoff = 10.8154
  ghost atom cutoff = 10.8154
  binsize = 5.4077, bins = 4 4 4
  1 neighbor lists, perpetual/occasional/extra = 1 0 0
  (1) pair lj/cut/tip4p/long/omp, perpetual
      attributes: half, newton on, omp
      pair build: half/bin/newton/omp
      stencil: half/bin/3d
      bin: standard
Setting up Verlet run ...
  Unit style    : real
  Current step  : 14500000
  Time step     : 2
  Walltime left : 2:54:59.92
Per MPI rank memory allocation (min/avg/max) = 10.19 | 10.19 | 10.20 Mbytes
Step Temp PotEng TotEng E_pair E_mol Press Lx Ly Lz Volume Pxx Pyy Pzz Pxy Pxz Pyz Enthalpy 
14500000     183.3581   -4842.7072   -4489.0857   -4842.7072            0    2318.1803    20.003484    20.049517     21.01213    8427.1289     1292.378    3842.6115    1819.5513   -296.20596   -443.24419    79.761226    -4204.179 
14501000    189.86364   -4896.0923   -4529.9243   -4896.0923            0    2469.3309    20.025734    20.195507    20.727597     8382.859    1923.7729    2212.3689    3271.8509    187.04431    773.58288   -719.38102   -4228.0353 
14502000    184.62423   -4887.6547   -4531.5914   -4887.6547            0    1855.2184    20.069286    20.062861    21.007808    8458.7372    3372.6157    1771.2911    421.74822   -365.44532    14.397803    1624.7624   -4302.7279 
14503000    180.21071   -4881.1631   -4533.6116   -4881.1631            0    1167.7782    20.105151    19.984452    20.841779    8374.0274    502.02843    1487.6859    1513.6202   -502.34687    -1000.461    303.50121   -4390.9948 
14504000    179.80728   -4898.6626   -4551.8891   -4898.6626            0    1538.6421    19.969627    20.000366    20.931171    8359.9067    1001.8004    1596.7353    2017.3905    144.81851    540.02616   -778.15529   -4364.2969 
14505000    172.62565   -4860.5529   -4527.6298   -4860.5529            0    3164.5227    19.946996    20.147539     20.85094    8379.6356    4841.4611    1674.3158     2977.791    360.64157   -231.09876    716.01485   -4140.8985 
14506000     191.2392   -4883.1695   -4514.3487   -4883.1695            0    2318.4305    19.951851    20.098846    20.812819    8346.1313     2361.027    2563.6168    2030.6476    185.94978    -166.6867   -333.77463   -4232.1499 
14507000    178.68368   -4872.3847   -4527.7782   -4872.3847            0     1564.937    19.946387    20.061734     20.95991     8387.299    859.95858    2299.0851    1535.7675    82.274268    1503.8274   -504.35234   -4336.3549 
14508000    186.16259   -4879.5636   -4520.5334   -4879.5636            0    1213.1339    19.991461    20.269475    20.959296    8493.0511    1934.5867    216.99298    1487.8222   -276.90885    867.86941   -535.47114   -4370.2717 
14509000    188.70431   -4870.7386   -4506.8065   -4870.7386            0    1879.6314     20.13584    20.038962    20.864303     8418.774    3319.2904    149.60926    2169.9944   -27.976256    2172.6384    854.10768   -4276.0269 
14510000    179.36725   -4863.7193   -4517.7944   -4863.7193            0    2876.1512    20.070845    19.868785    21.095542    8412.5499    3312.4058    3357.3299     1958.718   -302.78183    -588.6399   -961.24707    -4164.924 
14511000     179.6266   -4871.7013   -4525.2762   -4871.7013            0    2683.4204    20.049733    20.075675    20.740534     8348.312    2066.9679    1580.6536    4402.6398   -285.71584     281.9237    686.22421   -4198.5656 
14512000    184.56371   -4853.8941   -4497.9475   -4853.8941            0    1715.4789    20.015736    20.013479    21.104042    8453.9524    1290.1065    1404.1465    2452.1838    165.47303   -899.93158    612.51798   -4286.4423 
14513000    184.55078   -4857.6725   -4501.7508   -4857.6725            0    1507.6549    20.157602    20.054606    20.926292    8459.5113    719.18987    2334.9865    1468.7884    140.25757    848.81621   -145.01939   -4315.7465 
14514000    179.22926   -4882.9383   -4537.2797   -4882.9383            0    1735.3612    20.149307    20.000827    21.033628    8476.6114    771.55333    2202.9684    2231.5619    349.10327    159.65076     1292.726   -4322.7496 
14515000    182.41591   -4881.5424    -4529.738   -4881.5424            0    1864.7743    20.274995    19.868116    20.832748    8391.9716   -1247.2699    4174.4386    2667.1543    280.84021   -58.612745    597.42377   -4301.5114 
14516000    182.16918   -4877.8073   -4526.4787   -4877.8073            0    2427.8478    20.088746    20.007882    21.006565    8443.2374    2453.4059    2504.6995    2325.4382    20.469008   -320.67934   -817.57504   -4227.5233 
14517000    176.99498   -4870.3522   -4529.0025   -4870.3522            0    1659.6973    20.111533    20.017653    20.959396    8437.9526    1696.4113    1381.0643    1901.6163    -31.29893   -587.50903    538.08657    -4324.762 
14518000    176.23714    -4887.903   -4548.0149    -4887.903            0    642.75385    20.038614    20.196543    20.974108    8488.4466    1534.5757    456.66702    -62.98118    35.006247   -639.54894    98.260755    -4468.445 
14519000    179.17748   -4879.8716   -4534.3128   -4879.8716            0    446.60434     20.05062    20.105834    20.985553    8459.9986    733.08822    682.72241   -75.997615    132.91772    873.79945   -197.05327   -4479.2106 
14520000    181.05863   -4880.3597   -4531.1729   -4880.3597            0    2175.2315    19.935125    20.054161    20.946486    8374.0327     1976.194    3328.2342    1221.2663   -181.83076   -772.58132   -727.78462   -4265.5191 
14521000    174.82555   -4886.7549   -4549.5891   -4886.7549            0    122.63558    20.222514     20.06296    20.964786    8505.9064   -2038.9041    1046.0769    1360.7339    638.42228   -936.27891    479.23777   -4534.3762 
14522000    180.65104   -4874.6248   -4526.2241   -4874.6248            0    1790.0119    19.914795    20.106524    21.115315    8454.9373    2968.5704      1080.69    1320.7754   -355.97411    705.92129   -170.53212   -4305.5039 
14523000    171.67658   -4876.6385   -4545.5458   -4876.6385            0    1784.6404    20.125944    20.003849    20.824737    8383.9631    1356.0867    1523.3565     2474.478    -368.7054    788.69041   -817.66797   -4327.3352 
14524000    194.84752   -4868.2954   -4492.5156   -4868.2954            0    2918.8202    19.991796    19.877481    21.072489    8373.9233    3992.1881    2264.7575    2499.5151   -289.40675    1458.9366   -446.02382   -4136.0544 
14525000    185.28295   -4866.8926   -4509.5589   -4866.8926            0    811.77924    20.134639    20.099993    20.876879    8449.0005    241.92066    1330.6455    862.77151    23.817404    860.24432   -821.92535   -4409.5314 
14526000       187.23   -4869.5347   -4508.4459   -4869.5347            0    1755.8227    20.022973    20.062663    21.069628     8463.968    2143.3348    1028.2451    2095.8882   -195.26248    -131.0105    204.56664   -4291.7101 
14527000    190.09279   -4863.2171   -4496.6072   -4863.2171            0    2905.7882    19.971424    20.128841    20.802525    8362.6488    1532.8357    4704.6607    2479.8684   -314.25301    1325.7541    170.99284   -4142.2153 
14528000    181.26264   -4885.0953   -4535.5151   -4885.0953            0    1664.7159    20.015466    20.095177    20.958901    8429.9705     2256.528   -226.51378    2964.1334   -188.23101   -86.338699   -61.627119   -4330.8508 
14529000    185.28738   -4882.1365   -4524.7942   -4882.1365            0    1868.7522    20.116376    20.047145    20.994532    8466.5891    1902.5762    1893.3787    1810.3018   -741.26422   -737.29471    394.15816   -4294.0472 
14530000    188.97378    -4881.278   -4516.8262    -4881.278            0    1095.4368    20.118154    20.064228    20.915608    8442.6947    1322.6127    955.83654    1007.8613   -386.74657    513.05465   -122.23737   -4381.9472 
14531000    189.77263    -4877.886   -4511.8936    -4877.886            0    215.66299    20.151162    20.003326     21.09947    8504.9914   -249.08948    1288.8395   -392.76105   -167.99947   -1163.6558   -16.683751   -4485.1435 
14532000    180.09534   -4861.9045   -4514.5754   -4861.9045            0    1846.7964    20.079381    19.965044    20.871168    8366.9535     1790.365    1688.2047    2061.8195    119.11132   -344.03535   -530.00782    -4289.223 
14533000    176.27247   -4857.7901   -4517.8338   -4857.7901            0    2926.6348    19.874736    20.210899    20.782511    8348.0496    4131.3969    1900.2433    2748.2643   -227.25696    274.30481    109.39335   -4161.5226 
14534000    170.45131   -4869.8968   -4541.1671   -4869.8968            0    1176.4294    19.964737    20.085219    21.068717    8448.4736    2962.5851   -326.67558    893.37864    292.13434   -267.23479    -143.9251   -4396.2165 
14535000    181.37323   -4913.8043   -4564.0108   -4913.8043            0    925.90366    20.142419    20.169157    20.835025    8464.3456    729.85822    14.304534    2033.5482    92.063267      459.474   -332.53708   -4449.7137 
14536000    170.34727   -4876.9844   -4548.4554   -4876.9844            0    1618.1864    20.128942    19.923326     20.99264    8418.7933    774.90954    2931.3829    1148.2668   -569.67865     -551.102   -13.949506   -4349.7753 
14537000    180.86749     -4879.56   -4530.7418     -4879.56            0    1628.6701    20.339795    19.880384    21.026025    8502.1452    525.69733    2398.3542    1961.9589   -114.57714    674.73181    742.43982   -4328.7948 
14538000    185.73562    -4873.548   -4515.3413    -4873.548            0    2607.2792    20.165676    19.937223    20.845346    8380.8212    166.07399    4539.2729    3116.4907    -68.48309   -905.34225   -250.99036   -4196.6648 
14539000     178.8814   -4886.8655   -4541.8777   -4886.8655            0    987.67237    20.169687    19.868884    21.108118    8459.0609    675.58224    1288.4029    999.03197    194.26151   -225.03932   -528.21599   -4420.0318 
14540000    179.54593   -4876.2844   -4530.0149   -4876.2844            0    2132.9891    20.094542    19.999037    20.871803    8387.7826    1892.4456    3384.7543    1121.7675    71.598962    855.17143    346.42777   -4269.0923 
14541000    180.59601   -4869.9077   -4521.6131   -4869.9077            0    263.26125    20.079426    19.853414     21.19349     8448.682    791.37733     86.46228   -88.055866   -199.87905    150.79098    292.92288   -4489.1753 
14542000    177.61672   -4878.7581   -4536.2094   -4878.7581            0    2067.1023     20.15055    20.051131    20.909436    8448.2761    1926.5101      1275.96    2998.8367   -24.651252    1013.5642    184.38103   -4281.5228 
14543000     182.9683   -4865.2934   -4512.4237   -4865.2934            0    2337.1593    20.075978    19.986545    20.856676    8368.7297    2307.5661    1680.2177    3023.6941    413.50059    366.23786    620.08422   -4227.1749 
14544000    179.07596    -4894.351    -4548.988    -4894.351            0    1704.5902    20.128466    19.745743    21.069093    8373.9427    2125.0984    2380.3432    608.32898   -371.81573    -112.6344     527.3953   -4340.8143 
14545000    168.44247   -4877.8212   -4552.9657   -4877.8212            0    2505.4213    20.199267     19.95105    20.910437    8426.8347    1913.3779    2552.1477    3050.7382   -354.22288    133.84637   -216.03632   -4245.0576 
14546000    171.82163   -4876.1535   -4544.7811   -4876.1535            0    2227.5657    20.016899    19.966605    21.056325    8415.5716    2689.9694    2144.8518    1847.8761   -185.13644    510.27732    1014.4183   -4271.3864 
14547000    179.21095   -4878.8483   -4533.2249   -4878.8483            0    1859.0169    20.087893    20.143632    20.826687    8427.3753    2952.9147     1807.455    816.68083   -594.85681    -1071.383   -1234.6807   -4304.7432 
14548000    168.46745   -4873.4547    -4548.551   -4873.4547            0    2046.8824    19.937426    20.148289    21.022403    8444.8048    3038.5824    1743.5072    1358.5576     99.80354   -1821.0721    1139.2175   -4296.4594 
14549000     187.2279   -4878.3275   -4517.2427   -4878.3275            0    1681.0373    20.098236    20.136461    20.700916    8377.8125    1156.3953    1531.4583    2355.2584   -335.34057   -362.41445   -475.69906   -4311.8505 
14550000    178.10144   -4891.7084   -4548.2248   -4891.7084            0    2922.0145    20.042568    20.022834    20.861048    8371.7263    4091.5428    1924.8742    2749.6265    1043.2911    261.31781    1152.5932   -4191.4672 
14551000    195.92549    -4859.236   -4481.3772    -4859.236            0    872.14277    20.243856    20.043583    21.007141    8523.8454   -593.37188    1804.3487    1405.4515   -222.78907    948.59025   -187.05007   -4372.9598 
14552000    177.83403   -4889.1775   -4546.2096   -4889.1775            0    2886.3427    20.108382    20.073153    20.776705    8386.2809    2200.9912    3281.9475    3176.0896   -480.04615   -601.53888   -223.35101   -4193.1946 
14553000    173.56428   -4889.4378   -4554.7044   -4889.4378            0    1380.8533    19.905597    20.037588      21.1476    8434.9353    3120.1818    33.524088    988.85403    303.02306    69.466923    105.14871   -4384.8389 
14554000    187.50476   -4872.1767    -4510.558   -4872.1767            0    1181.0735    19.950625    20.132384    20.901913    8395.3295    2720.4092   -266.02956    1088.8408     434.7012   -694.35585    324.76925   -4365.9506 
14555000    184.25828   -4880.1896    -4524.832   -4880.1896            0      2558.27    19.981048     20.03068    20.908883    8368.4457    3756.9312    1829.4449    2088.4339   -423.00826   -469.61302    36.491138   -4212.6074 
14556000    195.39465   -4874.4489   -4497.6138   -4874.4489            0    777.89205    20.165932    20.109084    20.965404    8501.8574    1867.3456    402.86439    63.466158   -167.96829    1185.1199   -644.55863   -4401.1623 
14557000    175.29708   -4891.4949   -4553.4197   -4891.4949            0    803.88172    20.251442    20.148152    20.745778    8464.8816    809.59877   -726.13027    2328.1767    281.73449    286.70006    475.43134   -4454.1792 
14558000    182.25087   -4877.4958   -4526.0097   -4877.4958            0    2738.8463    20.034957    19.851391    20.962478    8337.2338    3384.5738     2975.411    1856.5541   -527.97718    863.11791   -22.400657   -4192.9934 
14559000    182.13111   -4883.2903   -4532.0351   -4883.2903            0    1696.8041    20.202486    19.893505    20.898628    8399.1224    389.71957     2926.877    1773.8158    465.98902    195.37242    148.18263   -4324.1892 
14560000    180.66136   -4877.0782   -4528.6576   -4877.0782            0    2570.2996    20.242462    19.937159    20.862438    8419.6039    2552.7968    2908.9087    2249.1932    130.52349    -1352.126   -531.19144   -4213.0472 
14561000    180.48134   -4869.6865   -4521.6131   -4869.6865            0    1773.0221     20.21997    19.970505    20.981603    8472.4344    2027.2147    1627.5753    1664.2764   -271.44969     482.1487   -505.59875   -4302.5353 
14562000    190.46791   -4868.6984    -4501.365   -4868.6984            0    1178.4867    20.174825     19.98762    21.090287    8504.5891   -702.18392    3220.0132    1017.6307   -904.34066    147.32145    1157.5504   -4355.1965 
14563000    185.86316   -4872.5743   -4514.1216   -4872.5743            0    1202.8639    20.183724    19.979859    21.010674    8472.9318    223.74056      2597.28    787.57119   -25.393234    1674.9789    675.17932   -4365.4849 
14564000     178.2225     -4874.91   -4531.1929     -4874.91            0    2099.8601    20.121042    19.852091    20.941219    8364.8601    2174.7166    1964.8282    2160.0355   -160.51967    498.42064    77.498333   -4275.0249 
14565000    178.38235   -4881.3418   -4537.3165   -4881.3418            0    2217.5976    20.190868    19.866146    21.032033    8436.2582   -160.54407    4075.1731    2738.1637   -408.28269   -283.10257    551.25906   -4264.4762 
14566000    187.77134    -4865.617   -4503.4842    -4865.617            0    585.17678    20.237563    20.023894    20.812295    8433.8667    1539.7339    -1503.187    1718.9835      -399.24   -133.93785   -51.989347   -4431.5078 
14567000    170.72544   -4869.1887   -4539.9303   -4869.1887            0    1011.9652    20.062662    19.886362    21.155531    8440.4935    1341.0143    1138.5843    556.29702   -528.68685   -494.58046   -607.66038   -4415.3615 
14568000    175.87784   -4871.6082    -4532.413   -4871.6082            0    2574.0711    20.072805    19.922588    20.842141    8334.8188    1075.9655    4090.8229    2555.4251    256.70509    692.81769   -1122.4719   -4219.5223 
14569000    173.00434   -4884.0342   -4550.3808   -4884.0342            0    1886.7022    20.057018    20.020173    20.814209    8357.8411    870.90509    3174.2715    1614.9299   -737.43783   -707.19977    173.82614   -4320.4097 
14570000     178.1352   -4864.6198   -4521.0711   -4864.6198            0    3769.8241    20.094933    20.064309    20.935092    8440.8398    4090.3647    3363.1678    3855.9397    -63.21055   -421.49906    1014.2286    -4057.002 
14571000    182.48884   -4878.3847   -4526.4396   -4878.3847            0    226.44039    20.170355    20.065374    20.932423      8471.89   -78.830608    1210.8427   -452.69091    198.19099    453.14873   -207.34265    -4498.462 
14572000    194.25526   -4866.3372   -4491.6996   -4866.3372            0    2299.7413    19.979819    20.097726    21.035723    8446.8723    2452.4256    2262.6988    2184.0994   -497.49483   -500.49485     921.5866   -4208.3968 
14573000    171.73518   -4889.6444   -4558.4387   -4889.6444            0    2125.5607    20.085621    20.055485    20.808562    8382.2482    3627.9194     783.1046    1965.6582   -80.494951   -259.05195   -1130.9199   -4298.5964 
14574000    177.23521   -4887.5631   -4545.7501   -4887.5631            0    437.56291    19.997888    20.117564    21.054876    8470.5619    545.59772    868.74505   -101.65403   -273.24789   -422.87252    392.37619    -4491.696 
14575000    184.51041   -4895.1711   -4539.3273   -4895.1711            0    919.77582    20.000602    20.155302    20.867243    8411.9649    2671.9377   -1050.2472     1137.637   -285.09898    304.87244   -558.76569   -4426.4893 
14576000    184.77369   -4887.6748   -4531.3232   -4887.6748            0     1355.299    20.053456    20.112468    20.833178    8402.5311    2371.7604   -10.497192    1704.6338    -15.13964   -317.77562    -748.2481   -4365.2418 
14577000    180.08453   -4901.8604   -4554.5522   -4901.8604            0    1038.9873    19.852488    20.220176    20.875621    8379.9087    3131.1813   -1643.6308    1629.4114    -199.6457    939.15919   -942.26119   -4427.5751 
14578000    191.85131   -4868.8679   -4498.8665   -4868.8679            0    3375.4186    20.051083    19.941073    20.849453    8336.4479    1971.4197     4571.462    3583.3741   -191.17395   -117.72409    446.39771   -4088.4881 
14579000    171.99968   -4876.3067   -4544.5909   -4876.3067            0    1449.6437    20.029643    20.043682    20.903189    8391.9573    1782.5626    1239.1766    1327.1919    -334.0779    1331.3539    1698.2874   -4367.1717 
14580000    185.81063   -4867.2864   -4508.9349   -4867.2864            0     1726.687    20.007094    20.076166    20.988611    8430.4061    1430.8528    1836.3339    1912.8742    39.232521   -665.23288    1119.6755   -4296.6408 
14581000     187.2984   -4886.0374   -4524.8166   -4886.0374            0    2492.9348     19.93396    20.086154    20.797939    8327.4238    2314.8695    2121.7181    3042.2167   -46.257719    656.26367   -167.11878   -4222.0574 
14582000    182.17215    -4894.839   -4543.5047    -4894.839            0    694.14097    19.923053    20.079654    20.989416    8396.7741    1270.5324    1515.7484   -703.85779    -325.3064    173.46368    8.6601108   -4458.5013 
14583000    184.15899   -4878.8518   -4523.6857   -4878.8518            0    2003.0615    20.055578     20.14862    20.818292    8412.5099    1106.3161    2252.4182    2650.4502    475.50662   -261.30237    348.16376   -4277.9344 
14584000    187.42113   -4863.1278   -4501.6704   -4863.1278            0    810.74954    19.970392    19.992391    21.150948    8444.6406    1502.7921    351.37106    578.08542   -344.60942   -256.39467    71.166566   -4401.8214 
14585000     172.2446   -4871.2268   -4539.0386   -4871.2268            0    3122.3597    20.001172    20.149293    20.674464    8332.0047    1420.6833    3044.6542    4901.7416   -801.38367   -409.63509    975.21259   -4159.6289 
14586000    179.39184   -4886.1113    -4540.139   -4886.1113            0    1859.8824    20.140031    19.804314    21.142152    8432.7483    1665.5565    3719.6422    194.44848    587.46996    268.62075   -982.71789   -4311.4051 
14587000    172.65913   -4873.4832   -4540.4955   -4873.4832            0    1028.3041    20.097875    20.005837    20.875939    8393.6894    927.09965    1632.1374    525.67523   -662.15512    31.494935   -49.290937   -4414.6174 
14588000     178.6769   -4874.5893   -4529.9958   -4874.5893            0    926.17102    20.171052    19.942345    20.947248    8426.1996    59.832844    1517.2332     1201.447     86.30076   -250.85185    -168.7993    -4416.181 
14589000    167.32207    -4888.628   -4565.9333    -4888.628            0    632.31045    20.188905    20.074192    20.845923     8448.351    1167.9991   -996.48217    1725.4144    8.6963648   -153.56208   -853.16929    -4488.026 
14590000    179.52303   -4886.3397   -4540.1145   -4886.3397            0    1350.0927    20.236013    19.931977    21.006389    8472.7953    1499.8131    1500.0427    1050.4224   -429.90275    755.75835     -207.125   -4373.2875 
14591000    174.01014   -4874.7821   -4539.1889   -4874.7821            0    930.62042    20.064487    20.067871    20.915251    8421.5581   -912.73777    3406.4864    298.11263    37.819336    373.09501   -421.22233   -4424.8903 
14592000    180.51405   -4888.0122   -4539.8757   -4888.0122            0    1633.3705    20.113256    19.995171    20.854903    8387.1745    2035.1044    1770.9025    1094.1048   -168.93232    476.57186      667.709   -4340.0845 
14593000    183.28464   -4863.2133   -4509.7335   -4863.2133            0    1019.8439    20.079885    20.062625    21.053494    8481.5097    1796.5947   -262.05108    1524.9881   -321.53265     557.6471    35.789902   -4383.5848 
14594000    182.51269   -4884.0573   -4532.0662   -4884.0573            0    231.13547    20.228328    20.033957    20.827955    8440.6003   -256.23144    -719.2766    1668.9145     -870.401   -388.01198    1343.2388    -4503.614 
14595000    172.08643   -4892.1806   -4560.2974   -4892.1806            0    2240.0069    19.949809    19.972649    21.192156    8444.0261    3700.5069    1696.0104    1323.5034   -119.73071    400.43626   -9.3229118   -4284.4463 
14596000     177.8677   -4862.1336   -4519.1008   -4862.1336            0    1785.2556    20.100264    20.073031    20.839362    8408.1246    2366.9134    424.37353    2564.4797    31.972267   -695.71673    609.23121   -4300.1859 
14597000    182.60181   -4880.7921   -4528.6291   -4880.7921            0    1640.4861    19.966632    20.081757    20.937314    8395.1312    1768.8945    1055.2629    2097.3011    81.865523   -153.39228    480.53194   -4327.7772 
14598000    181.11256   -4877.4525   -4528.1617   -4877.4525            0    1774.7485    19.953494    20.151396    20.972893    8433.0065      876.806    1851.5726     2595.867   -717.15557   -393.96437   -59.466942   -4309.8912 
14599000     177.6031   -4876.0812   -4533.5587   -4876.0812            0    2903.3654    20.047198     19.99954    20.816271    8345.9659    3000.7266    2981.7613    2727.6083   -12.700966   -725.19133   -844.06773   -4180.1688 
14600000    174.15844   -4868.8698   -4532.9906   -4868.8698            0    466.43237    19.963497    20.221745    21.179793    8550.2137    576.16692   -493.38185     1316.512   -265.33363   -459.20594   -343.11272   -4474.8283 
14601000    176.19907   -4901.9067   -4562.0919   -4901.9067            0    805.69166     20.09449    20.135668    20.840607    8432.4425   -50.489707    826.31438    1641.2503    118.45863    109.57839   -407.52961   -4463.0092 
14602000    179.20622   -4871.6642   -4526.0499   -4871.6642            0    1712.1353    19.957905    19.978853    21.006603    8376.0895    2026.4623    2445.6095     664.3341    284.32572   -683.89888    699.11982   -4316.9012 
14603000     181.1753   -4865.0757   -4515.6639   -4865.0757            0    2993.3963    20.093588     20.12471    20.606874    8332.9589    2223.6452    1967.2354    4789.3083     656.6947    122.46383   -699.45572   -4151.8834 
14604000    181.69731   -4870.6836   -4520.2651   -4870.6836            0    2045.0423    19.991362    20.016839    21.089341    8439.1922    2045.2929    2396.9749    1692.8593    98.233429   -1056.3778   -205.71274   -4268.5675 
14605000    186.98771   -4859.4481   -4498.8266   -4859.4481            0    1485.1089    20.110284    20.091929    20.946349    8463.4648    1486.3438    1167.9814    1801.0015    203.17283    2174.8165   -964.01924   -4315.5182 
14606000    175.56153   -4884.6834   -4546.0982   -4884.6834            0     1420.929    20.067931    20.112363    20.923816    8445.1346    1579.6324    1851.1925    831.96204   -600.14336    -1413.217    710.30566   -4371.0915 
14607000    177.11634   -4869.5952   -4528.0115   -4869.5952            0    2398.6521    20.053271    19.964934    21.063338    8432.9648    4090.9318    1739.9258    1365.0987    597.85338    474.64747   -515.86995   -4233.0105 
14608000     184.5389   -4869.8994   -4514.0006   -4869.8994            0    1484.0812    20.127956    20.208046    20.719707    8427.6714     1486.437    592.60672    2373.1999   -182.32596   -331.31942   -73.176803   -4331.5937 
14609000    173.78262   -4865.9716   -4530.8172   -4865.9716            0    1596.0764    20.088534     20.03616    20.911287    8416.7315    3533.3628   -610.32032    1865.1868    251.21741     923.7205    1064.3306   -4334.8998 
14610000    188.60172   -4875.2996   -4511.5654   -4875.2996            0   -30.254061     20.15886     20.10588    21.011675    8516.2757     54.38778   -388.38918    243.23922   -679.02185   -325.93718     292.6678    -4515.323 
14611000    186.27411   -4865.0029   -4505.7576   -4865.0029            0    2668.3962    20.026907    20.146225    20.657285    8334.5241    2806.6142    1737.9535     3460.621    361.63533    206.26409    95.746284   -4181.4127 
14612000    177.86863   -4862.1554   -4519.1208   -4862.1554            0    1707.3145    20.081215    19.910333    21.036705     8410.973    50.850363     3716.656    1354.4371    174.11507    179.91977    435.29418   -4309.6924 
14613000    177.20046   -4891.5327   -4549.7867   -4891.5327            0    3293.9524    19.906503     20.12203    20.741617    8308.2464    2687.1601    3165.8533    4028.8438    164.42369    542.20019   -616.86927   -4150.6675 
14614000     180.7198   -4870.5335   -4522.0002   -4870.5335            0    2451.2229    20.035584    19.993699    20.965814    8398.6002    2470.7233     1660.141    3222.8043    108.61097    430.95542    887.97415   -4221.7622 
14615000     183.5245   -4884.2709   -4530.3285   -4884.2709            0    678.80826     20.06329    20.012126    21.001771    8432.4021     363.9687    2290.2342   -617.77809   -196.21815    956.80023   -314.48388     -4446.85 
14616000    176.15824   -4889.0649   -4549.3289   -4889.0649            0    1495.0269    20.118183    20.187915    20.844548    8465.8915    617.92547    1357.0594    2510.0958    637.21932     328.5261    618.40023   -4364.7434 
14617000    176.42918   -4892.9815    -4552.723   -4892.9815            0    1692.5339    19.984613    20.105967    20.922009    8406.6717    1977.0332    978.84645    2121.7221     -325.853    146.16084   -1025.8505   -4345.2138 
14618000    176.27911   -4881.7149   -4541.7458   -4881.7149            0    2400.1701    19.959866    19.922408    21.040812    8366.8492    2963.3352    2073.1924    2163.9827   -478.40778   -419.98177    -1591.935   -4248.8724 
14619000    174.62317   -4883.3542   -4546.5788   -4883.3542            0    2746.1426    20.143284    19.922144    20.823049    8356.2355    2897.9374    2784.4917    2555.9987    248.32787    130.41295    537.82924   -4211.9143 
14620000    177.07774   -4862.7734   -4521.2641   -4862.7734            0    1580.4382    20.085478    19.856303     21.16084    8439.4367    1053.0012    2933.7348    754.57856   -146.98214   -255.85957    364.38973   -4326.7429 
14621000    176.41908   -4892.6528   -4552.4138   -4892.6528            0    1544.0802    20.197959    20.099629    20.735083    8417.8523     536.4442    1909.6625     2186.134    -531.6303    197.94499   -792.84872   -4362.8537 
14622000    181.58889   -4859.9782   -4509.7687   -4859.9782            0    1091.4751    20.164607     19.81657    21.274136    8501.0033    1433.4281    1607.1532    233.84398   -639.21682     505.6208    1061.2548   -4374.4494 
14623000    179.98632   -4872.5995   -4525.4807   -4872.5995            0    1494.8104    20.036469     20.01851    20.959364    8406.8059    2021.3615    1500.7785    962.29118    142.10403    1026.7837    43.143105   -4342.2101 
14624000     178.6053   -4874.3716   -4529.9163   -4874.3716            0    2282.7915    20.128151     20.21166    20.659755    8404.8706     2130.175    1425.6308    3292.5686   -56.721494    253.46012    21.853098   -4250.0999 
14625000    178.52291   -4852.0093   -4507.7129   -4852.0093            0    2144.3597    20.025111    20.030029    21.038787    8438.7319    2109.3329    2882.4758    1441.2704    99.714099    741.27183   -948.95848    -4243.806 
14626000    171.66021   -4885.4085   -4554.3473   -4885.4085            0    335.31357    20.247676    20.018914    20.874544    8461.2146   -890.57108    978.03346    918.47831    86.453936    -1.699779   -486.81908   -4512.9703 
14627000    177.74893   -4878.3154   -4535.5116   -4878.3154            0     2357.731    20.038874    19.962783    20.953968    8382.2516      2904.09    1422.4915    2746.6114   -637.83777   -468.57872    328.24855   -4247.2872 
14628000      183.335   -4895.2745   -4541.6975   -4895.2745            0    2805.4862    20.159432    19.982562    20.882482    8412.2389    1339.2243    4433.4641    2643.7702    554.39125   0.60455666    49.571516   -4197.5096 
14629000    190.53589   -4866.7831   -4499.3186   -4866.7831            0    1089.0667    20.063022    20.168969    20.849201    8436.6387    1879.3214    221.34198    1166.5368    105.06246    174.55122   -966.71328   -4365.3202 
14630000    172.43379   -4893.7081    -4561.155   -4893.7081            0    1993.8899    20.141389    19.826251    21.004345    8387.6278    1.1766532    4258.4239    1722.0693   -24.939044    837.38372   -163.99597   -4317.2525 
14631000    171.45685   -4890.4154   -4559.7465   -4890.4154            0    855.16664      20.0765    20.093439    20.858123    8414.2908    1057.3469     342.1032    1166.0498    150.54693    198.75053    559.52423   -4454.8057 
14632000    188.61979   -4871.0765   -4507.3074   -4871.0765            0     2187.811     20.02759      19.9047    21.086542     8406.006    1820.5514    3207.6507     1535.231    447.10989   -10.575379     889.9837   -4239.0971 
14633000    184.79757   -4866.5156   -4510.1179   -4866.5156            0    2524.3674    20.142572    19.948198    20.800717    8357.8945    1442.1819    3306.5319    2824.3884   -579.72379    334.17584   -616.30602   -4202.4195 
14634000    182.45164   -4893.7093   -4541.8359   -4893.7093            0    1522.9218    20.110906    19.984199    21.046683     8458.669    2018.2953    603.94841    1946.5217    145.19465   -96.119994   -548.43316   -4353.9667 
14635000    185.74304   -4889.3251   -4531.1041   -4889.3251            0    2343.6427     20.05375    19.982967     20.91635    8381.8805    3410.9872      1505.25    2114.6908   -10.735303    685.63339    622.04282   -4244.6145 
14636000    179.64784   -4871.7119    -4525.246   -4871.7119            0    1675.4998    20.078822    20.156133    20.871869    8447.0836    1773.9249    2100.6811    1151.8935   -291.66606    1815.4133   -1007.5172   -4318.8377 
14637000    167.81229   -4868.9824   -4545.3423   -4868.9824            0    818.47893    20.092636    20.103298    20.932886    8455.3841    305.59019    1079.1245    1070.7221    132.17933   -1113.7361    1023.1573   -4444.4131 
14638000    171.17931   -4872.6656   -4542.5319   -4872.6656            0    597.69878    20.116923    20.146524     21.00935    8514.7971    1702.4105   -1380.2459    1470.9318     86.27191     722.8837    1701.3905   -4468.3099 
14639000    169.22737   -4886.8896   -4560.5204   -4886.8896            0    3823.5339    19.926936    20.055757    20.730396    8284.8981    3533.3554    3642.4812    4294.7652    572.61498   -488.54946    1175.1143   -4098.5352 
14640000    187.22245   -4883.0161   -4521.9419   -4883.0161            0    415.26612     20.07935    20.051657    20.957795    8438.1161   -469.19864    950.48976    764.50724    46.062901    10.648495     18.94346   -4470.8387 
14641000    180.26455    -4877.316   -4529.6606    -4877.316            0    3073.3053    19.963108    20.118607    20.728098    8325.0244    2080.3903    2907.2076    4232.3181    338.12547    781.47161    262.58833   -4156.5247 
14642000    174.78423   -4871.5133   -4534.4272   -4871.5133            0    1881.5917     19.91448      19.9138    21.228346    8418.5884    1881.1683    2837.2576    926.34907   -960.84191   -137.34321   -744.95202   -4303.4121 
14643000    176.20272   -4878.7289   -4538.9072   -4878.7289            0    1873.0118    20.055268    20.152781    20.708535    8369.7567    1665.1509    1218.7018    2735.1827   -110.84821    156.61414    754.99223   -4310.2793 
14644000    186.51484   -4888.5773   -4528.8677   -4888.5773            0     944.9014    20.057922     20.13059    21.099031    8519.3204    3375.8432   -1879.3483    1338.2093   -362.58297    117.62766   -162.20806   -4411.4679 
14645000    186.59227   -4895.3074   -4535.4485   -4895.3074            0    1613.8427     20.19745    20.040503    20.821113    8427.7008    323.86834    2720.4508     1797.209   -270.93879   -270.93798   -342.47404   -4337.0922 
14646000    171.32601   -4870.6003   -4540.1837   -4870.6003            0    2148.1354    20.227799    19.836183    20.835525    8360.0945    435.61598    3093.7525    2915.0378   -214.05526    312.16356     479.6618   -4278.2757 
14647000    173.03208    -4883.318   -4549.6111    -4883.318            0    1658.6251    20.218456     19.91586    20.848343    8394.9593    1044.9554    2197.3967    1733.5231   -245.39622     233.8568   -198.74275   -4346.5425 
14648000    177.49168   -4888.9062   -4546.5986   -4888.9062            0    2184.3052    20.118124    19.895579    21.026501    8416.1036    1746.7001    3090.5864    1715.6292   -209.70093    -1215.675    323.20044   -4278.4964 
14649000    181.88946   -4869.2998   -4518.5106   -4869.2998            0    950.50304     20.17296    19.962101    20.946934    8435.2186    1453.5886    724.94105    672.97944   -319.57625   -796.89055   -821.07381   -4401.5807 
14650000    174.48338   -4873.9013   -4537.3955   -4873.9013            0    872.66261    20.134767    19.869917    20.976151    8392.0577   -508.15296    2640.5682    485.57263    265.20008    103.40907   -267.16403   -4430.5907 
14651000     182.6021    -4854.343   -4502.1795    -4854.343            0    2655.1262    20.145482     19.93078    20.806716    8354.2123    1283.2108    3121.8503    3560.3176   -978.68724   -60.294371    -221.7134   -4178.6853 
14652000    175.62279   -4855.2653    -4516.562   -4855.2653            0    1940.2598     20.27608    19.778608    20.932765    8394.7219    598.28925    2205.0311    3017.4591    9.8538225    1057.0521   -749.06376   -4279.0191 
14653000    183.24823   -4890.8397     -4537.43   -4890.8397            0    2049.7963    19.943386    20.114081    21.039405    8439.8076    1194.8097    3405.9444    1548.6348    330.19824    -87.16153    143.26268   -4285.1289 
14654000    184.64982   -4889.3066   -4533.1939   -4889.3066            0   -38.161271     20.12678    20.160477    20.878104    8471.6142   -512.16459    30.708343    366.97243   -204.17298    708.45419   -431.15825   -4537.9087 
14655000    178.68644   -4879.1963   -4534.5845   -4879.1963            0    1873.9017    20.075876    20.005375    21.107075    8477.1381    1775.9406    2415.5664    1430.1982   -41.631645    -39.54113    313.08389   -4302.9133 
14656000    178.25595   -4894.3977   -4550.6161   -4894.3977            0    2487.0654     20.02597    20.114945    20.773326     8367.938    2355.4075      2399.59    2706.1987   -389.66324    1140.8065   -580.49117   -4247.1001 
14657000    179.10755   -4870.0975   -4524.6736   -4870.0975            0    1335.4547    20.145346    20.000174     20.91501    8426.8755    856.48982    876.96022    2272.9141   -415.18922    361.73288    64.938542   -4360.5497 
14658000    173.00266   -4887.3857   -4553.7355   -4887.3857            0    1801.4166    19.932088    20.067872    20.983938    8393.4618    1157.0644    3178.2377    1068.9477   -160.83259   -839.03781   -31.464927   -4333.2241 
14659000    176.91766   -4884.4738   -4543.2732   -4884.4738            0    1084.9739    20.050345    20.006649    20.987172    8418.7987    832.38664    2525.5716    -103.0366   -128.93919    207.53231   -498.84639   -4410.0606 
14660000    184.58074   -4882.8993   -4526.9198   -4882.8993            0    1056.3422    20.213712    20.093051    20.885025    8482.5602    1109.1878    1191.6425    868.19626   -199.64349    -2.235986   -131.50091   -4396.2403 
14661000    177.27139   -4888.4886   -4546.6058   -4888.4886            0    720.99917    20.107134    19.957678    21.017588    8434.1841    1370.6838    637.66365    154.65009   -490.22321    669.29508   -81.184234   -4457.9201 
14662000    179.06573   -4869.9697   -4524.6264   -4869.9697            0    401.56111     20.22862    19.987896    20.842228    8427.0869   -756.27842    1178.3927    782.56901    176.22767    369.58294    200.16722   -4475.2743 
14663000    176.96161   -4869.1885   -4527.9032   -4869.1885            0    1427.2748    20.016181    19.997562    21.112795    8450.9203    1061.7527    1500.1659    1719.9058   -224.34177    420.91237    520.83909   -4351.9944 
14664000    178.69182   -4886.4876   -4541.8654   -4886.4876            0    3095.9163    20.202559    19.991735    20.690809    8356.6908    3368.1301    2731.9745    3187.6443   -281.28754   -737.47968   -684.18112   -4164.5544 
14665000    171.83261   -4869.7475   -4538.3538   -4869.7475            0    677.46519    20.040454     19.97133    21.230671    8497.2476    706.07708    1909.7464   -583.42796    34.982489    425.01226    186.69818   -4454.3999 
14666000    185.31232   -4882.4905   -4525.1001   -4882.4905            0    1317.6068    20.161688    20.103618    20.764178    8416.1963    1774.9561    1057.4816    1120.3829      96.5435    657.91579   -756.72365    -4363.375 
14667000    183.70825   -4880.4031   -4526.1063   -4880.4031            0    3584.6497    19.876168    19.962093    21.008491     8335.537    5609.4596    2810.6942    2333.7954   -76.178865    744.60274    201.89312   -4090.3374 
14668000    184.60622   -4857.9622   -4501.9336   -4857.9622            0    2010.6089    20.128322    20.059699    20.818772    8405.9559    1085.6332    2249.8937    2696.2999   -37.048969    -846.9063    1170.7586   -4255.4485 
14669000    183.35587   -4858.8921   -4505.2749   -4858.8921            0    1376.2743    20.151712    19.888462    21.067236    8443.4647    1201.7702    2165.3939    761.65892   -3.9792193    694.33613    295.22595   -4335.8014 
14670000    180.23127   -4870.7553   -4523.1642   -4870.7553            0     3083.289    20.076441    19.902582    20.970896    8379.4042    3204.1001    2451.9698    3593.7972    262.51725    387.79673   -63.972224   -4146.3708 
14671000    186.29902   -4875.2796   -4515.9863   -4875.2796            0    1270.2171     20.15661    20.087735    20.882272    8455.2451    1680.4088    670.96294    1459.2795   -390.64639   -74.578927     338.0432   -4359.3544 
14672000    180.95649   -4889.0241   -4540.0342   -4889.0241            0    991.66452    20.110414    19.931009    21.138753    8472.8525    1122.4369    1737.3613    115.19536    499.02688   -225.32813   -403.46167   -4417.4964 
14673000    173.12203   -4881.2198   -4547.3394   -4881.2198            0    2306.1527    20.039966    20.162055    20.775421    8394.2446    2966.0513    1547.8781    2404.5286   -213.06808   -757.60662    852.55627   -4265.0169 
14674000    185.60604   -4893.6369     -4535.68   -4893.6369            0    847.07966    20.000589    20.140586    21.116831    8506.3577    664.30308    2388.4104   -511.47451   -265.59138   -512.29012    82.211238   -4430.5943 
14675000    181.89763   -4887.4872   -4536.6823   -4887.4872            0    1164.8273     19.99484    20.150809    20.861385    8405.3065    723.98164    1581.0276    1189.4726   -335.14881    913.46776    448.39709   -4393.8946 
14676000    183.39642   -4898.7993   -4545.1039   -4898.7993            0    4428.3911    19.928774    19.921765    20.982544    8330.4131    5633.6102    4511.8424    3139.7206   -295.31313    708.65074   -175.51515   -4007.0963 
14677000    181.95825   -4873.6473   -4522.7255   -4873.6473            0    1601.7029    20.060451    20.077414    20.784083    8371.0387    2143.8053    144.39367    2516.9097   -474.50285    368.43402   -781.29394   -4327.1848 
14678000    171.69176   -4860.8372   -4529.7152   -4860.8372            0    1979.4539    19.930399    20.192942    21.008837    8455.0779    2578.7369    1877.6611    1481.9637    350.36136    787.30036   -241.17892   -4285.6315 
14679000    173.53687   -4849.2291   -4514.5486   -4849.2291            0    615.70903    20.011185     20.17182    21.025111    8487.0385    974.83711    5.3443111    866.94567   -277.50441    823.22892   -258.24287   -4438.3394 
14680000    179.01849   -4861.9193   -4516.6671   -4861.9193            0    1787.7672    19.986567    20.146639    20.835371    8389.6152    2877.4926    377.16221    2108.6469   -263.88636    606.56335   -424.37464   -4297.9268 
14681000    178.74996   -4885.7005   -4540.9662   -4885.7005            0    2621.7143    20.047249    20.049524    20.901573    8401.1318    2014.5076     3428.251    2422.3842   -78.492003    -62.80445    86.563195   -4219.7488 
14682000    183.68568   -4887.3533      -4533.1   -4887.3533            0     1520.546    20.098305    19.981414    20.956438    8415.9495    2806.6688    648.94334     1106.026    20.037648   -887.69225   -293.39166   -4346.4713 
14683000    180.15518   -4900.3433   -4552.8989   -4900.3433            0    2031.9471    20.057963    20.071736    20.881959    8407.0372    1364.8566    3870.0644     860.9204   -542.51772   -370.92556    311.79718   -4303.7659 
14684000    183.69179   -4906.3681    -4552.103   -4906.3681            0     1780.043    20.069593    20.005346    21.057976    8454.7598    1199.3402    2144.9557    1995.8331   -137.64786    1359.5498    562.42278   -4332.6166 
14685000     181.5893     -4868.95   -4518.7397     -4868.95            0    2493.9504    20.172298    20.036211    20.857634    8430.1638    3039.9537    1983.6734     2458.224    85.488336    1918.6822   -154.68155   -4212.1203 
14686000     187.2726   -4874.6706   -4513.4997   -4874.6706            0    1245.7284    20.107985    20.047975    20.986439    8460.1454    2454.9865   -532.83043     1815.029   -505.51035     524.7139    441.78979   -4359.7985 
14687000    180.59521   -4887.6323   -4539.3392   -4887.6323            0    1963.6009    19.979481    20.179219    20.894925    8424.2137    3977.1485    851.09218    1062.5618  -0.97969916    458.31932    233.95719   -4298.0941 
14688000    175.64552   -4860.5261   -4521.7789   -4860.5261            0    495.13752    19.857616    20.250466    21.019714    8452.5733    2673.1789   -1037.6645   -150.10183    123.93874   -115.39685    128.73155   -4460.7422 
14689000     174.6992   -4888.7267   -4551.8046   -4888.7267            0    1903.0711    20.057203    20.073737    20.969785     8442.918     2263.074    1237.7079    2208.4313   -253.44236    786.70569    688.65625    -4317.477 
14690000    178.73252   -4844.2746   -4499.5739   -4844.2746            0    2663.7337    20.056839    20.137659    20.895582    8439.6793    2111.3742    2297.8472    3581.9796    559.93431    702.39875    36.857405   -4171.7107 
14691000    175.37922   -4860.6385   -4522.4049   -4860.6385            0    1503.1741    20.035056    20.072355    20.899305    8404.6717    1378.4133    1738.2699    1392.8392    206.68579   -342.38558    253.17778   -4338.1556 
14692000    178.24428   -4864.6415   -4520.8824   -4864.6415            0    1757.5461    20.038193    20.061063    21.055112    8463.8909    2578.5028    1733.0558    961.07961     -263.008   -579.95155    118.01395   -4303.9359 
14693000    180.49734   -4877.0218   -4528.9175   -4877.0218            0    2275.2384    20.125104    19.931961    21.034079    8437.4587    2241.8842    2614.2271    1969.6038   -115.48296   -150.88025    34.598323   -4248.9456 
14694000     190.4349     -4885.17   -4517.9003     -4885.17            0    1293.3881    20.276826    19.855411    20.917788    8421.6002    1080.5613    1564.1582    1235.4447    -243.3449    275.63972   -941.17916   -4359.0458 
14695000    183.15874   -4881.3987   -4528.1617   -4881.3987            0    1321.7341    20.163863    19.893721    21.071876    8452.6515    1994.6805    1350.8415    619.68044   -360.56099    66.302204   -567.87333   -4365.2272 
14696000    187.96185   -4899.9409   -4537.4406   -4899.9409            0    476.38086    20.224306    20.002332    20.891571    8451.3354    408.86425    674.79298    345.48535   -615.78703    136.40607   -115.36113   -4478.7248 
14697000    183.58674   -4886.2334    -4532.171   -4886.2334            0    1616.5394    20.160576    19.983457    20.933074    8433.4747     1850.387    1078.2278    1921.0033   -313.73373   -460.01983   -350.37251    -4333.347 
14698000    180.69924   -4876.5573   -4528.0637   -4876.5573            0    2128.4315    20.113204    19.978992     20.99181    8435.3811     905.8379    3590.1406     1889.316   -645.95665    111.37448   -306.81067   -4266.2211 
14699000     185.1818    -4867.286   -4510.1473    -4867.286            0    723.34582    20.127128    20.227083    20.801883     8468.719    1564.6577   -1466.7238    2072.1036   -89.103528    1202.1466    -334.6199   -4420.8086 
14700000    173.29935   -4870.0664    -4535.844   -4870.0664            0    2568.2783    19.915332    19.962847    21.142359    8405.4981    4054.6484    2217.7526     1432.434    -358.0695     75.00881   -397.72767   -4221.0102 
14701000    180.70867   -4886.7616   -4538.2497   -4886.7616            0    798.10699    20.045237    20.122198    20.914305    8435.8733    966.44904   -292.33791    1720.2098    151.15506   -24.468708   -441.38001   -4440.0598 
14702000    172.03117   -4860.6511   -4528.8745   -4860.6511            0    3357.1926    19.970031    20.090729    20.867645    8372.3598     4545.401    2488.9699    3037.2067   -325.66263     504.3835    1353.7388   -4118.9536 
14703000    174.27528   -4886.8931   -4550.7885   -4886.8931            0    1942.9935    19.963473    20.073196    20.944243    8393.0016     2985.721    1230.1035    1613.1559   -303.00307   -207.55556   -167.48771   -4312.9597 
14704000    177.60625   -4889.4125   -4546.8839   -4889.4125            0    2395.8694    20.148828    19.917663    20.873499    8376.9017     449.3823    4173.3486    2564.8773   -231.02775   -125.80378    -125.5918    -4254.184 
14705000    171.75248   -4885.9938   -4554.7547   -4885.9938            0    43.467611    20.135546     20.04939    21.025188    8487.9824   -352.01823    729.20111   -246.78004     58.69713    200.92333    366.68341   -4549.3739 
14706000    172.77917     -4885.77   -4552.5509     -4885.77            0    819.14344    20.114626    20.097529    21.010365    8493.5297    -221.3084    1182.7023    1496.0364    25.336749   -348.02471   -213.69848    -4451.084 
14707000    177.13114    -4873.551   -4531.9387    -4873.551            0     415.9371    20.143873    20.185129    20.798644    8456.8676    1054.0291   -656.88888    850.67112    502.47883   -608.73515   -36.227448   -4480.6392 
14708000    182.99255   -4875.2681   -4522.3516   -4875.2681            0    1980.6109    19.951822    19.944414    21.092273    8393.1934    373.87133    3633.4382    1934.5233     130.9631   -97.029534    203.27644   -4279.9127 
14709000    176.13576   -4877.1781   -4537.4855   -4877.1781            0    1682.9173    20.021169    20.190157    20.935487    8462.7631    1135.4222    1919.6356     1993.694   -548.09008    636.56352   -766.15773   -4329.7786 
14710000    180.90336   -4860.9502   -4512.0629   -4860.9502            0    2046.9174     19.99667     19.93018    21.151226     8429.551    2665.9007    2492.5656    982.28587    70.112015   -122.67874   -1114.9189   -4260.4223 
14711000    179.77839    -4876.657   -4529.9393    -4876.657            0    2009.1199     20.13738    19.984267    20.787179    8365.4008    1713.5583    1818.5748    2495.2266    -673.2874    642.03232    695.72589   -4284.8251 
14712000    179.91788   -4873.1579   -4526.1711   -4873.1579            0    3471.6647    20.044238    19.801217    21.012485    8339.8616    4871.2282    3229.8854    2313.8805    291.95616   -11.306194   -18.957322   -4103.9183 
14713000    188.40033   -4876.8779    -4513.532   -4876.8779            0    3249.4585    20.184666    19.970906    20.649629    8323.9907    2672.5049    3684.8961    3390.9743   -374.19822    6.2462494   -166.59965    -4119.058 
14714000    177.06982   -4870.5274   -4529.0334   -4870.5274            0    1177.9304    20.139885    20.108932    21.067313    8532.0843    2078.1302    1189.2842    266.37685    320.22275   -501.83928   -128.17498   -4382.4615 
14715000     172.5633   -4901.1884   -4568.3856   -4901.1884            0    1751.4817    20.053937    20.156641    20.887503    8443.1468    2423.5703    675.34909    2155.5258   -260.57812   -443.47836   -288.51431   -4352.7175 
14716000     172.4511   -4877.3957   -4544.8092   -4877.3957            0    1450.6007    20.057833    20.056199    20.926841    8418.5312    1537.1974    1963.9454    850.65924    12.212857    119.32147    291.81817   -4366.7108 
14717000    176.24721   -4896.7431   -4556.8356   -4896.7431            0    1556.8647    20.000181    20.184097    20.800765    8396.9694    2185.1941    1492.9519    992.44791   -219.77255   -228.51394    1048.7763   -4366.1801 
14718000    187.53595   -4879.7295   -4518.0507   -4879.7295            0    1609.4596    20.142523    19.969046    20.944923    8424.6132   -110.63357    3614.8855     1324.127    13.128121    692.65386   -858.42501   -4320.3055 
14719000    181.94376    -4869.425   -4518.5311    -4869.425            0     1977.838    20.223815    19.838366    20.962027    8410.1213    2485.5309    1453.1866    1994.7965    334.44188    906.42624   -38.664593   -4275.9434 
14720000    172.08909   -4880.2702   -4548.3819   -4880.2702            0    1859.8802    20.165678    19.922163     20.78895    8351.8347    1937.5054    1784.6998    1857.4354   -233.92306    375.96586   -244.33294    -4321.843 
14721000    181.00733   -4884.5145   -4535.4267   -4884.5145            0    2926.5392    20.040796    19.848022    21.101802    8393.6669    2100.9709    3967.9172    2710.7296   -70.657667    704.96889    87.789032   -4177.1802 
14722000    179.53007   -4897.6494   -4551.4106   -4897.6494            0    1360.4861    20.202434    20.088506    20.678378    8392.0449    857.59361    859.17648    2364.6881   -438.71174    1366.1327    450.73047   -4384.9016 
14723000    176.50564   -4883.0855   -4542.6795   -4883.0855            0    2341.2757    19.976718    20.033344    21.005454    8406.3921    3085.4953    1351.8556    2586.4763   -465.70055    523.50053   -587.26363   -4255.6423 
14724000    183.54418   -4885.8866   -4531.9062   -4885.8866            0    2420.5667    20.033004    19.993015    21.059162    8434.6185    3895.6447    1660.2796    1705.7759     688.4016   -751.17817    973.44894   -4234.1517 
14725000    182.76432     -4899.78   -4547.3036     -4899.78            0    1821.0526    20.099929    19.944834    20.904061     8380.224    1392.5089    2029.2386    2041.4101     19.42255   -5.3567599    734.15579   -4324.7401 
14726000    176.93414   -4876.8494   -4535.6171   -4876.8494            0     3148.125    20.080439    19.967882    20.782399    8332.9901    3049.9991    3167.3488    3227.0269      330.329    50.310406    233.90915   -4153.0314 
14727000    190.55482   -4852.8331   -4485.3321   -4852.8331            0    1900.4917    20.158028    20.093899    20.883532    8458.9454    436.30494    3190.6139    2074.5564     346.3729   -108.89229   -1050.6598   -4250.8778 
14728000    174.72071   -4849.5019   -4512.5383   -4849.5019            0    1908.8636    20.036743    20.193441    20.992123    8493.6393    3018.1474     1122.048    1586.3954   -368.92182    402.92296    431.44955   -4276.0854 
14729000     180.2874   -4871.1377   -4523.4383   -4871.1377            0      1436.47    20.009165    20.100502    21.050514    8466.3961    2944.6699    137.57502     1227.165    270.64095     15.86482    1131.5898   -4346.0721 
14730000     182.5733   -4860.3479   -4508.2399   -4860.3479            0    1119.6128    20.116757    20.165354    20.795307    8435.8561    1725.5484    211.83507    1421.4551    208.37682   -87.616513    39.778628   -4370.4958 
14731000    186.73043   -4874.7023    -4514.577   -4874.7023            0     3011.509    20.048241     19.95526    20.950027    8381.4324    5274.5495    2111.4166    1648.5609   -272.21468   -898.77557    17.925133   -4146.4664 
14732000    189.41358   -4891.9013   -4526.6012   -4891.9013            0    568.07443    20.106978    20.145223    20.823181    8434.6281    100.97083    289.65141    1313.6011   -386.72431    519.72253    657.54252   -4456.7222 
14733000    179.04632   -4888.9631   -4543.6572   -4888.9631            0    2344.3884    19.982626    19.939267    21.061624    8391.7705    4404.2797    1089.2684    1539.6171    246.50277   -527.39134    275.54368   -4256.7383 
14734000    191.27369   -4883.1981   -4514.3107   -4883.1981            0    2479.4701    20.083971    20.221434    20.685405    8400.8953    2713.0683     1705.475     3019.867   -815.35481   -974.26983    477.10684   -4210.5298 
14735000    172.40613   -4881.4222   -4548.9224   -4881.4222            0    826.14533    20.147666    20.027547    20.930398    8445.5898    2407.5151   -389.94386    460.86479    665.66109   -327.70974   -11.510169   -4447.1659 
14736000    172.19241   -4876.8806    -4544.793   -4876.8806            0    2182.9877    20.077107     20.06718    20.754782    8361.9134    320.53466    3102.4761    3125.9524   -140.27756    202.89106    425.82578   -4278.5778 
14737000    183.49703    -4882.439   -4528.5495    -4882.439            0    2280.7975    20.031036     19.97073    21.054744     8422.622    2724.3921    2450.3707    1667.6296   -54.524713    265.22776    594.18228   -4248.3871 
14738000    179.71348   -4867.9314   -4521.3388   -4867.9314            0    2405.0517    20.209969    20.043278    20.725827    8395.4939     1454.332    3231.3443    2529.4787    123.16722    391.08942   -134.79366   -4226.8651 
14739000    177.32976   -4877.5231   -4535.5278   -4877.5231            0    1936.2475    20.102667     19.95706    21.029315    8436.7537    398.62491    3398.0995    2012.0181   -328.51879   -271.54516   -137.28824   -4297.2892 
14740000    190.97128   -4884.6957   -4516.3916   -4884.6957            0    1489.0731    20.228465    20.156822    20.740617    8456.8115    1022.2768    1291.8135     2153.129    301.81197   -71.834702    447.14956   -4332.7383 
14741000    172.06706   -4880.5748    -4548.729   -4880.5748            0    1807.7353    19.910097    19.972006    21.207061    8432.8729     2393.319    2082.9148    946.97208   -254.41473    660.16577    765.39389    -4326.405 
14742000    175.45091    -4865.505   -4527.1331    -4865.505            0    540.87361    19.998713    20.237304    20.723978     8387.409    -195.9328   -105.57708    1924.1307   -65.100312    22.430022    45.769239   -4460.9725 
14743000    190.24878   -4882.3804   -4515.4697   -4882.3804            0    2702.7478    19.999744     19.99493    20.890261    8353.8794    3430.5889    2093.3773    2584.2771   -149.99002    134.69091    403.98832   -4186.1864 
14744000    183.54276   -4872.0872   -4518.1096   -4872.0872            0    53.907963    19.896151    20.164652    21.211149    8509.8912    418.84475   -382.81258    125.69173    77.167373   -633.96767   -495.31386   -4511.4191 
14745000    190.77845   -4871.3663    -4503.434   -4871.3663            0    836.64913     20.10365     20.16397    20.890518    8468.3767    921.45291    632.64491    955.84955   -160.99842    1037.6907    709.29917   -4400.1057 
14746000    188.89817   -4883.0903   -4518.7843   -4883.0903            0     1644.153    20.103911    20.149376    20.764681    8411.3832    2186.5868    1010.7786    1735.0936   -636.30696   -27.093402    211.77955   -4317.0937 
14747000    182.58462   -4884.8227    -4532.693   -4884.8227            0    1587.2027    20.038565    20.005714    21.059512    8442.4593    2437.1842    1330.5255    993.89821    105.82794   -973.93131   -1372.5273   -4337.2692 
14748000     179.8135   -4861.0469   -4514.2614   -4861.0469            0     2120.557    20.125788    19.916701    20.979739    8409.5038    1590.0674    1860.6532    2910.9504   -423.56589   -461.86327    725.48755   -4254.1878 
14749000    178.87454   -4889.2621   -4544.2875   -4889.2621            0    1655.8502    20.235492    19.987658    20.828858    8424.4417     -150.189    2736.6995    2381.0401   -36.809014    784.34478   -127.00491   -4340.8467 
14750000    179.93388   -4846.7669   -4499.7493   -4846.7669            0    2489.7164     20.01836    19.830647    21.015058    8342.4958    2533.7781    3600.2001    1335.1709    535.60228    -439.9155   -578.32494   -4196.8336 
Loop time of 372.704 on 64 procs for 250000 steps with 972 atoms

Performance: 115.910 ns/day, 0.207 hours/ns, 670.773 timesteps/s
194.3% CPU use with 32 MPI tasks x 2 OpenMP threads

MPI task timing breakdown:
Section |  min time  |  avg time  |  max time  |%varavg| %total
---------------------------------------------------------------
Pair    | 27.302     | 35.169     | 44.915     |  70.0 |  9.44
Bond    | 0.90198    | 1.2679     | 2.0021     |  19.9 |  0.34
Kspace  | 165        | 177.43     | 184.86     |  36.1 | 47.61
Neigh   | 1.3675     | 1.4478     | 1.6298     |   6.8 |  0.39
Comm    | 62.501     | 68.275     | 71.532     |  28.4 | 18.32
Output  | 0.62134    | 0.62168    | 0.62309    |   0.0 |  0.17
Modify  | 70.228     | 72.383     | 75.62      |  15.5 | 19.42
Other   |            | 16.11      |            |       |  4.32

Nlocal:        30.3750 ave          36 max          25 min
Histogram: 2 4 5 2 2 6 1 6 2 2
Nghost:        2617.31 ave        2668 max        2581 min
Histogram: 2 6 6 2 6 2 3 3 0 2
Neighs:        9440.22 ave       11451 max        7399 min
Histogram: 2 5 2 1 5 5 5 1 3 3

Total # of neighbors = 302087
Ave neighs/atom = 310.78909
Ave special neighs/atom = 2.0000000
Neighbor list builds = 4303
Dangerous builds = 0

unfix		3
unfix		2
unfix		1

write_data	data.final.${pid}
write_data	data.final.1
System init for write_data ...
PPPM initialization ...
  extracting TIP4P info from pair style
  using 12-bit tables for long-range coulomb (../kspace.cpp:340)
  G vector (1/distance) = 0.37232878
  grid = 24 24 25
  stencil order = 5
  estimated absolute RMS force accuracy = 0.0034167374
  estimated relative force accuracy = 1.0289403e-05
  using double precision FFTW3
  3d grid and FFT values/proc = 3458 576
Last active /omp style is kspace_style pppm/tip4p/omp
WARNING: Not all mixed pair coeffs generated from mixing. Use write_data with 'pair ij' option to store all pair coeffs. (../write_data.cpp:312)

write_restart   restart.lmp.${pid}
write_restart   restart.lmp.1
System init for write_restart ...
PPPM initialization ...
  extracting TIP4P info from pair style
  using 12-bit tables for long-range coulomb (../kspace.cpp:340)
  G vector (1/distance) = 0.37232878
  grid = 24 24 25
  stencil order = 5
  estimated absolute RMS force accuracy = 0.0034167374
  estimated relative force accuracy = 1.0289403e-05
  using double precision FFTW3
  3d grid and FFT values/proc = 3458 576
Last active /omp style is kspace_style pppm/tip4p/omp
Total wall time: 0:06:12
