LAMMPS data file via write_data, version 30 Jul 2021, timestep = 17250000

1008 atoms
2 atom types
672 bonds
1 bond types
336 angles
1 angle types

-3.182894332506633 14.79289333206084 xlo xhi
-0.09452722274221692 22.674526222737242 ylo yhi
0.003186856895400325 19.226811143102353 zlo zhi
-0.474550712378233 -6.732238671082224 0.32296348290750343 xy xz yz

Masses

1 1.008
2 15.999

Pair Coeffs # lj/cut/tip4p/long/omp

1 0 0
2 0.21084 3.1668

Bond Coeffs # harmonic/omp

1 450 0.9572

Angle Coeffs # harmonic/omp

1 55 104.52

Atoms # full

21 7 1 0.5897 0.74610927520785 2.1893064984322206 0.9313240226110753 0 0 0
55 19 2 -1.1794 -0.5770877034371571 4.11402813477887 3.847089195039132 0 0 0
56 19 1 0.5897 -1.1929482530664557 3.6496919208684604 3.2802270118122863 0 0 0
57 19 1 0.5897 0.020437827867636038 4.554239877382961 3.242490463522866 0 0 0
121 41 2 -1.1794 -2.663077266953656 2.805862115403688 2.544922683660217 1 0 0
122 41 1 0.5897 -2.709346550521911 2.1622399902499416 1.837885847071073 1 0 0
86 29 1 0.5897 -2.373336667042796 1.9619567415170063 4.205252692717474 1 0 0
31 11 2 -1.1794 1.028010404677179 1.0535613903354766 2.5055587025887887 0 0 0
32 11 1 0.5897 1.0133039039124476 1.3750040458220048 3.407098806080582 0 0 0
46 16 2 -1.1794 1.7263912750939028 4.771195746451092 2.4171378652819455 0 0 0
123 41 1 0.5897 -3.5762340447504313 3.026203885679957 2.7291231708077133 1 0 0
33 11 1 0.5897 0.3610596308312113 0.3672832572906315 2.4846272269881204 0 0 0
54 18 1 0.5897 2.9685229836237887 3.4328422651662494 3.079123910757844 0 0 0
482 161 1 0.5897 -1.376595522032807 0.2068519190878832 1.0962708064953226 1 1 0
47 16 1 0.5897 1.9369152368093605 5.17487274912142 1.5750428996971761 0 0 0
53 18 1 0.5897 4.347705159707413 2.813202761468192 3.001325985484277 0 0 0
18 6 1 0.5897 4.781977996368439 4.161895986009282 0.22275147209702484 0 0 0
158 53 1 0.5897 -4.473128608555829 4.696586099498446 4.359014095920294 1 0 0
602 201 1 0.5897 -0.6633411222254462 5.281751120267546 0.6496898439807469 1 0 1
70 24 2 -1.1794 3.4161297598657745 0.39537823005463 1.2322352912772787 0 0 0
48 16 1 0.5897 1.9007022603925927 5.4566422345023495 3.062154664778681 0 0 0
16 6 2 -1.1794 5.504911560284137 4.771687513783199 0.37020767094902923 0 0 0
52 18 2 -1.1794 3.6778563203583827 3.093568409402707 3.6250762335426314 0 0 0
71 24 1 0.5897 2.681195142454719 0.5410098622827528 1.8280821595228083 0 0 0
78 26 1 0.5897 0.2863941854886445 2.809553583480893 4.606447718067397 0 0 0
101 34 1 0.5897 -2.5805452653813608 4.6884390996429 0.2354672236037122 1 0 0
72 24 1 0.5897 4.0909876457836285 -0.008643671420655835 1.7778287169523412 0 0 0
527 176 1 0.5897 3.5694160999500113 1.9023921694056325 0.560059680922598 0 0 1
19 7 2 -1.1794 0.7903120799149042 2.5728401458021324 0.05533961802425774 0 0 0
526 176 2 -1.1794 3.5282145482143186 2.7575084893402386 0.1317287599445882 0 0 1
528 176 1 0.5897 2.592089901277385 2.9353679114986537 0.04038258562701549 0 0 1
163 55 2 -1.1794 -2.6549878845552177 1.2849671914646337 0.355131206515832 1 0 0
6 2 1 0.5897 3.730194265965455 1.5850100137669025 4.722746510499987 0 0 0
165 55 1 0.5897 -3.1723359499608357 0.5007289916750918 0.17205098516528203 1 0 0
134 45 1 0.5897 -2.393326121379856 2.766904193956631 6.352201044316916 1 0 0
135 45 1 0.5897 -1.9988029243488619 4.019668716656649 7.105100856856273 1 0 0
98 33 1 0.5897 -4.10161140582454 5.18686698717404 8.630506739290093 1 0 0
34 12 2 -1.1794 0.20381835698253026 1.5864802989000295 7.498952179980465 0 0 0
35 12 1 0.5897 0.24948952434751615 2.1739027402967737 8.253369742106086 0 0 0
36 12 1 0.5897 -0.6883187509817077 1.240114596044504 7.518235111664007 0 0 0
401 134 1 0.5897 2.3354083075919396 0.40570965604171505 9.34882667001472 0 1 0
44 15 1 0.5897 -0.3520534382802385 5.144876705218543 8.242863529523243 0 0 0
124 42 2 -1.1794 -5.068442544110531 2.399822475802246 7.035851827367621 1 0 0
58 20 2 -1.1794 2.210344756742007 4.316107511425193 6.378350348811746 0 0 0
59 20 1 0.5897 1.8229956468157074 3.6385477592096955 5.824184768056227 0 0 0
5 2 1 0.5897 3.2201946613520622 0.34893381543696067 5.432848699065495 0 0 0
43 15 2 -1.1794 -0.36354172505067295 4.777427444614812 7.359032907110325 0 0 0
126 42 1 0.5897 -4.231001949156186 2.8604164743063416 7.088584547276383 1 0 0
45 15 1 0.5897 0.5517213840002202 4.565765837143895 7.175151862127326 0 0 0
133 45 2 -1.1794 -2.747440057588665 3.5882910707378817 6.693204721882272 1 0 0
60 20 1 0.5897 2.856237946539993 3.850908044418337 6.9101050455682556 0 0 0
159 53 1 0.5897 -3.3785775291447697 4.732147190211763 5.40433423342706 1 0 0
669 223 1 0.5897 -5.326157330044663 1.873692156624923 8.691282588113278 1 0 0
68 23 1 0.5897 -3.311668119539569 0.47492730688554885 7.8095208021791 0 0 0
77 26 1 0.5897 0.5909242301870612 1.8681158480725764 5.752441078373972 0 0 0
69 23 1 0.5897 -2.6704043134737177 1.3192330322627643 8.89019022578534 0 0 0
76 26 2 -1.1794 0.984900460943547 2.2710863040549643 4.978625444852339 0 0 0
67 23 2 -1.1794 -2.461342060493974 0.7156368905743073 8.177265016563727 0 0 0
522 174 1 0.5897 2.035269073982935 5.545150623182058 9.294706962163485 0 0 0
97 33 2 -1.1794 -4.363348847598479 4.804204059202627 9.468041533037866 1 0 0
402 134 1 0.5897 1.5392327097288607 0.347809890820296 8.062422506342125 0 1 0
667 223 2 -1.1794 -5.489586546911143 1.3936605208046466 9.503234805377877 1 0 0
157 53 2 -1.1794 -3.917363654174408 5.299512173739858 4.852790015119919 1 0 0
85 29 2 -1.1794 -2.466021288008536 1.4306574711693258 4.99615802941148 1 0 0
87 29 1 0.5897 -3.365512556003302 1.1050547342504846 4.962509419660502 1 0 0
606 202 1 0.5897 -6.131102227648185 4.854059418289184 9.524299274009113 1 0 0
523 175 2 -1.1794 -2.6848750569450086 2.768592723707642 10.161529176345832 0 0 0
525 175 1 0.5897 -1.8190406828370853 3.1372344584499343 9.986318597129529 0 0 0
560 187 1 0.5897 -4.820298957437206 4.107985174548145 12.963609585681791 0 0 0
551 184 1 0.5897 -1.65587967353079 5.527693172180398 12.848593365246536 0 0 0
627 209 1 0.5897 -6.943202549791322 3.3527200621338356 11.73315731060879 1 0 0
550 184 2 -1.1794 -1.9479178796113663 4.987694138225756 12.114168662586149 0 0 0
574 192 2 -1.1794 0.4203806459833608 0.7366379418766896 11.231631147498566 0 0 0
22 8 2 -1.1794 0.08704468160986645 3.1589319360347616 9.862249793099066 0 0 0
535 179 2 -1.1794 -2.0448358738432146 1.2871387788171884 12.326447281153115 0 0 0
536 179 1 0.5897 -2.231927897830009 1.7091213885460932 13.165053868608481 0 0 0
537 179 1 0.5897 -2.2984770839515454 1.935661370469186 11.669565885551373 0 0 0
576 192 1 0.5897 -0.3693770763963249 0.9246944713771177 11.738858952453144 0 0 0
625 209 2 -1.1794 -6.064970109489268 2.994557773127826 11.862659897162569 1 0 0
556 186 2 -1.1794 0.0790600349352184 3.52572554066975 13.05335799597361 0 0 0
561 187 1 0.5897 -3.6966947994160213 3.804189945479419 13.931776231635022 0 0 0
668 223 1 0.5897 -5.6272629389377276 2.0750428334712234 10.161330488961315 1 0 0
558 186 1 0.5897 -0.6722134334581709 3.8751217063689185 12.573944774757795 0 0 0
559 187 2 -1.1794 -4.116662649399892 4.524403460988612 13.461316627670666 0 0 0
23 8 1 0.5897 0.41102348348819495 2.4050634049874207 10.35531245102391 0 0 0
552 184 1 0.5897 -2.847416857960729 4.747012609219675 12.336120275473272 0 0 0
626 209 1 0.5897 -6.1572401608734815 2.394323754488466 12.60267267766669 1 0 0
557 186 1 0.5897 -0.29474650653564893 2.866183309736386 13.637846094183562 0 0 0
587 196 1 0.5897 -1.2738985525728896 5.753454118168867 10.545891575853442 0 0 0
524 175 1 0.5897 -3.297103403138893 3.4309500489692666 9.840893810409206 0 0 0
663 221 1 0.5897 -6.927412750182331 5.8171982755484635 13.752104110679012 1 0 0
662 221 1 0.5897 -7.9804603319683185 4.785172099015855 14.095665500803923 1 0 0
589 197 2 -1.1794 -6.004437437530756 1.1230915949120064 14.244328842186745 1 0 0
24 8 1 0.5897 0.7611072961947136 3.828711999287725 9.977424350932328 0 0 0
99 33 1 0.5897 -4.144237852030505 5.473297250332135 10.116554789364942 1 0 0
520 174 2 -1.1794 2.069184928521212 5.027917226707998 10.099520792284281 0 0 0
986 329 1 0.5897 -4.442857363159284 0.29603962476745976 10.627178991546081 1 1 0
575 192 1 0.5897 1.0498522279897822 0.41609386786594027 11.87767156108413 0 0 0
593 198 1 0.5897 -7.9760552663814455 0.92138024837224 14.403114000606825 1 0 0
547 183 2 -1.1794 -4.0354698539955205 4.809476898601717 16.91986096615722 0 0 0
581 194 1 0.5897 -3.1786427912190156 2.2621611455764494 15.42664581806327 0 0 0
508 170 2 -1.1794 0.28141268867886904 1.3539456204512708 14.876956859996408 0 0 0
590 197 1 0.5897 -5.880527589557918 1.7563112365538012 14.951409787373837 1 0 0
905 302 1 0.5897 -2.46371385637812 0.2660023464867898 17.54833905284683 0 1 0
563 188 1 0.5897 -1.2472970759086799 5.239388099478218 15.833732279548533 0 0 0
639 213 1 0.5897 -6.50365993377954 4.009392579711804 15.465906522577832 1 0 0
629 210 1 0.5897 -9.119467826958402 3.365361677573408 16.891460968648182 1 0 0
538 180 2 -1.1794 -3.517124770867593 1.6776403473066144 17.121511569382175 0 0 0
539 180 1 0.5897 -3.387603848842569 2.3802939805335606 17.75851527504857 0 0 0
20 7 1 0.5897 -6.357867086920325 2.2467865820112864 18.711531410753373 0 0 -1
540 180 1 0.5897 -4.437688956718576 1.4334732263494778 17.217506492663155 0 0 0
638 213 1 0.5897 -7.044436788103816 2.9381685194055542 16.389075567998482 1 0 0
549 183 1 0.5897 -4.852125165588429 4.334642632994382 16.765482232355428 0 0 0
562 188 2 -1.1794 -1.3356620235265533 4.4765807936201325 16.405323792246875 0 0 0
571 191 2 -1.1794 -6.165028631868918 0.6378776163069244 17.775753032621022 0 0 0
564 188 1 0.5897 -2.24955193467666 4.4942967267053 16.689601355686456 0 0 0
637 213 2 -1.1794 -6.235331101371625 3.250408331315672 15.98393210557307 1 0 0
164 55 1 0.5897 -9.093537448161669 1.9079828782108832 18.718457559509673 1 0 -1
628 210 2 -1.1794 -8.74720314765917 2.5040136068523675 17.080935341308802 1 0 0
661 221 2 -1.1794 -7.376755107362751 5.412136913682392 14.493992342185242 1 0 0
84 28 1 0.5897 -4.235437185731766 5.667174780580933 18.329948815302576 0 0 -1
582 194 1 0.5897 -2.115026659713979 3.304463142346627 15.15404071986968 0 0 0
603 201 1 0.5897 -7.02596455956953 4.31840461020481 19.165525309451034 1 0 0
591 197 1 0.5897 -5.379313666563766 0.4238999972125952 14.435974777138085 1 0 0
548 183 1 0.5897 -4.058306334075199 5.535354393887169 16.296177471225846 0 0 0
580 194 2 -1.1794 -2.618437928281427 2.608345447934866 14.731881061758695 0 0 0
630 210 1 0.5897 -8.880320645856361 2.002789443943695 16.27635461330817 1 0 0
601 201 2 -1.1794 -7.649483555058675 5.0443278244628935 19.139988967950885 1 0 0
289 97 2 -1.1794 -2.600967538481303 9.81218140913727 2.2794570795447395 1 0 0
255 85 1 0.5897 -2.350840900046438 8.971488502931676 3.988554396688972 1 0 0
146 49 1 0.5897 -1.2881829760788244 6.729329566011002 2.272231276141868 1 0 0
147 49 1 0.5897 -0.9112322905675305 7.250920956941013 0.9017671135032894 1 0 0
332 111 1 0.5897 -2.0819774327049227 8.970701296336905 0.7672754686749168 1 0 0
145 49 2 -1.1794 -0.5560971900369256 6.783320033580553 1.6578260137234715 1 0 0
112 38 2 -1.1794 -3.030033733105319 6.521416445192039 2.64767541841738 1 0 0
291 97 1 0.5897 -3.4977120049224286 10.102474222628635 2.4465592436356998 1 0 0
188 63 1 0.5897 0.7061016112176945 10.100993316153767 1.3766085808206416 0 0 0
290 97 1 0.5897 -2.0565076260932917 10.558225250168313 2.530805621516025 1 0 0
200 67 1 0.5897 0.3282313813667521 8.095805871384588 2.446704111027892 0 0 0
238 80 2 -1.1794 3.433227644105978 7.785637764623429 1.6404904704262024 0 0 0
174 58 1 0.5897 3.464052786562892 9.463695410003284 4.3311103302242655 0 0 0
113 38 1 0.5897 -3.2315157376587766 6.187505156952539 3.52192769463887 1 0 0
221 74 1 0.5897 4.054393945618974 10.693003429181134 2.4800137953371846 0 0 0
9 3 1 0.5897 -0.8056122695777033 5.77194150557852 4.698076167522704 0 0 0
199 67 2 -1.1794 0.919320608927527 8.804258562189968 2.701514119721804 0 0 0
245 82 1 0.5897 0.7273546017593508 9.609991250322482 4.2502888011156505 0 0 0
187 63 2 -1.1794 0.7273519845275302 10.692753191695523 0.6244263883716841 0 0 0
201 67 1 0.5897 1.7929002622068886 8.476626709968148 2.4873525198300834 0 0 0
173 58 1 0.5897 3.1928168344862478 7.986283741129714 4.520348272085902 0 0 0
220 74 2 -1.1794 3.4338900487406807 10.900465984830609 3.1787410793314104 0 0 0
239 80 1 0.5897 3.585155929573519 8.469807172796735 0.9883894302493035 0 0 0
224 75 1 0.5897 -0.4931383644010534 11.285700901933952 3.7083240662600763 0 0 0
240 80 1 0.5897 3.143034095252869 7.028892011513113 1.1311983342182765 0 0 0
10 4 2 -1.1794 1.9925623685366407 6.498335658191612 4.659913167409838 0 0 0
694 232 2 -1.1794 3.503197053502423 10.543176479020858 0.0947759748240793 0 0 1
189 63 1 0.5897 1.6587099284676894 10.807232904113413 0.4353618860970683 0 0 0
696 232 1 0.5897 4.2303772022922566 11.163470272693111 0.14644926366253377 0 0 1
114 38 1 0.5897 -3.2977365793120423 5.8190933602273285 2.0549385956014374 1 0 0
191 64 1 0.5897 0.09059780430499975 10.075660230582898 9.004848900147854 0 0 0
837 279 1 0.5897 -5.883155791991463 8.241464614984507 9.178508978593513 1 0 0
109 37 2 -1.1794 -4.358186092842816 6.612839141077396 7.24326206868095 1 0 0
11 4 1 0.5897 2.2058860326864345 5.852127218780225 5.333193791837279 0 0 0
293 98 1 0.5897 -4.185258458377588 10.358651298064858 7.342408651527669 1 0 0
111 37 1 0.5897 -5.256375511593767 6.897917774050015 7.411563614500646 1 0 0
292 98 2 -1.1794 -5.127783244174915 10.209215978340287 7.4170991762265475 1 0 0
228 76 1 0.5897 1.5717282371747991 11.326935139803483 5.809406082661759 0 0 0
246 82 1 0.5897 0.3758486937601444 9.725448496855977 5.718411625024301 0 0 0
294 98 1 0.5897 -5.235155443408907 9.770955153042388 8.261375767381148 1 0 0
301 101 2 -1.1794 -2.479629427613921 10.876680732211096 6.719749601455736 1 0 0
64 22 2 -1.1794 2.2323889041891114 6.988448642902679 8.052614206001602 0 0 0
244 82 2 -1.1794 0.4451431482982904 10.23956951918718 4.913867530807989 0 0 0
202 68 2 -1.1794 0.24524853990718798 8.894982852733074 7.458142070207986 0 0 0
203 68 1 0.5897 -0.5858927204182143 8.465038327697389 7.659712693651057 0 0 0
204 68 1 0.5897 0.903721917673681 8.209437101012325 7.5713432006815395 0 0 0
110 37 1 0.5897 -4.382662317377257 6.253223258307415 6.356473545002875 1 0 0
235 79 2 -1.1794 -2.2667830278450665 7.966476060531605 8.409803260631733 0 0 0
236 79 1 0.5897 -3.04674278696174 7.665014196196351 7.943966295804335 0 0 0
237 79 1 0.5897 -2.563663541250525 8.72907951366746 8.906436909491743 0 0 0
302 101 1 0.5897 -2.315005309618043 10.083811573617718 6.209270810709464 1 0 0
8 3 1 0.5897 -0.6881650896353944 6.064026331607919 6.178977638636148 0 0 0
254 85 1 0.5897 -1.8212036792151043 7.935315331069299 4.957135574638889 1 0 0
12 4 1 0.5897 1.0788348659772176 6.728240278803321 4.82886994562937 0 0 0
7 3 2 -1.1794 -0.7399574979529282 6.4926742440227105 5.324587808106328 0 0 0
257 86 1 0.5897 -4.247399685901675 8.555948111730697 4.886078293797158 1 0 0
588 196 1 0.5897 -1.4713833203901383 6.70235552766962 9.382730481848283 0 0 0
253 85 2 -1.1794 -2.3398242386064805 8.7389386876703 4.917099016343725 1 0 0
65 22 1 0.5897 2.430539392418515 7.7463263974814245 8.602713343354685 0 0 0
258 86 1 0.5897 -5.306904704957448 9.073151615664214 5.835922214719613 1 0 0
303 101 1 0.5897 -1.6107640600898567 11.170485389290736 6.993520969407085 1 0 0
172 58 2 -1.1794 3.672503245139004 8.722499810093636 4.899956351750476 0 0 0
724 242 2 -1.1794 0.37118475324387035 10.857937553193414 13.083497621160324 0 0 0
794 265 1 0.5897 -5.610922204808816 10.909496999920622 12.151748572057974 1 0 0
836 279 1 0.5897 -4.804382817961536 8.285558470484798 10.239795347808183 1 0 0
809 270 1 0.5897 -7.848262809711534 10.62968281795162 12.801758475666233 1 0 0
742 248 2 -1.1794 0.1452731580362201 8.124508449602336 11.429217609339737 0 0 0
586 196 2 -1.1794 -0.8217356832481615 6.1297424089242805 9.790685148085226 0 0 0
616 206 2 -1.1794 -6.578032882271026 6.560011046273581 12.133501192713334 1 0 0
693 231 1 0.5897 -2.745702369169845 9.939047254302597 10.9187645932916 0 0 0
649 217 2 -1.1794 -4.090841833871645 6.995588242743066 11.117398465334325 1 0 0
650 217 1 0.5897 -3.613334267250242 7.577376574422612 11.708771959868363 1 0 0
651 217 1 0.5897 -4.971215229130395 6.9448349761220864 11.489801465721067 1 0 0
795 265 1 0.5897 -6.182939705702389 9.777678394588458 11.324888873626039 1 0 0
744 248 1 0.5897 -0.09905165457357201 7.4774095123946855 10.767529105889798 0 0 0
793 265 2 -1.1794 -6.203186867660392 10.159240521304797 12.202574482475027 1 0 0
513 171 1 0.5897 -4.270205477026441 6.129656319043098 14.294998525879368 0 0 0
759 253 1 0.5897 -6.076258487369639 9.13013217159075 13.844601776423781 1 0 0
703 235 2 -1.1794 -2.612313683609673 8.718994170006379 12.497118299746315 0 0 0
704 235 1 0.5897 -1.7639167012597783 8.63322208613615 12.062131603564948 0 0 0
705 235 1 0.5897 -2.475736356836576 9.397909799307293 13.157941702114357 0 0 0
743 248 1 0.5897 0.29535810956416464 8.929623006304816 10.933580901504019 0 0 0
618 206 1 0.5897 -6.8672765805419065 5.993812715533234 11.417948183590505 1 0 0
692 231 1 0.5897 -1.6606207566459297 10.458914121201518 9.99980543970275 0 0 0
617 206 1 0.5897 -7.188411549895087 7.297287619005314 12.117924286805374 1 0 0
750 250 1 0.5897 -3.3196320184749144 10.930032000357892 14.220679774364392 0 0 0
678 226 1 0.5897 0.13209798143136897 9.355202437708355 14.053522899608785 0 0 0
691 231 2 -1.1794 -2.592004142056463 10.239277045743776 10.02287453132691 0 0 0
726 242 1 0.5897 -0.40546877784869206 11.36565401355097 12.848230808722288 0 0 0
190 64 2 -1.1794 0.1389766621405304 10.529882011305437 9.846067793995218 0 0 0
192 64 1 0.5897 0.8095479239608632 11.200885156924384 9.71819576150565 0 0 0
835 279 2 -1.1794 -5.417273316207602 8.842599808889858 9.759733932927245 1 0 0
516 172 1 0.5897 -0.9251739316901046 7.096507589294045 14.247852547276933 0 0 0
797 266 1 0.5897 -7.4389389047646635 11.037997637117007 16.897772736436224 1 0 0
695 232 1 0.5897 -3.2352095161122465 10.579194093027157 18.405188445249678 0 0 0
741 247 1 0.5897 -6.214898960438416 9.023436314382346 18.585012701701032 0 0 0
758 253 1 0.5897 -5.847892506802653 9.494891254100125 15.296123358163486 1 0 0
740 247 1 0.5897 -6.334189398583881 7.892638811582557 17.585461236128204 0 0 0
568 190 2 -1.1794 -1.3996816774676493 7.315650997548632 17.755518397635218 0 0 0
512 171 1 0.5897 -4.839592429536439 7.390800658947682 14.90942889279944 0 0 0
83 28 1 0.5897 -4.920478808057347 6.925034680925563 18.820600411298553 0 0 -1
757 253 2 -1.1794 -6.037306853724081 8.751881303709663 14.723121831770566 1 0 0
614 205 1 0.5897 -7.554656046722904 6.033715903422508 17.60596573743703 1 0 0
569 190 1 0.5897 -1.5939510303419766 6.645360437828496 18.41078196965349 0 0 0
749 250 1 0.5897 -2.842328307449109 10.09686526533453 15.391297381336427 0 0 0
515 172 1 0.5897 -2.383383940167591 6.739261525499644 14.442778248123638 0 0 0
613 205 2 -1.1794 -7.415924956280878 6.6664428449146085 16.90110947271215 1 0 0
796 266 2 -1.1794 -8.2867063905781 10.690455855765768 17.174890990708914 1 0 0
706 236 2 -1.1794 -3.2396219062220544 9.239476963204943 16.9302727506638 0 0 0
707 236 1 0.5897 -4.117454052490596 8.861904019761406 16.985990730630572 0 0 0
708 236 1 0.5897 -2.6503808484534135 8.500117680673343 17.080272112515157 0 0 0
739 247 2 -1.1794 -5.695156906291073 8.374605470909195 18.110396391484475 0 0 0
798 266 1 0.5897 -8.56131621303101 10.124339798649405 16.45352489945399 1 0 0
615 205 1 0.5897 -7.304810294690071 6.130431161342239 16.115830737313253 1 0 0
333 111 1 0.5897 -8.245131076586953 9.684993842057288 18.643563044094513 1 0 -1
805 269 2 -1.1794 -5.746763303679238 11.245278934486269 16.217867483564074 1 0 0
748 250 2 -1.1794 -2.5584146041656464 10.451007190372364 14.548454942789503 0 0 0
762 254 1 0.5897 -8.181838522341927 8.568857519468038 15.046667435018966 1 0 0
676 226 2 -1.1794 0.23301068479067144 8.549872577010557 14.561126685266101 0 0 0
570 190 1 0.5897 -0.5882762717797183 7.019693141550492 17.34273379969239 0 0 0
511 171 2 -1.1794 -4.170923063291243 6.718884192886923 15.042823618069747 0 0 0
677 226 1 0.5897 0.07784000700526583 8.816313740021252 15.467376055968288 0 0 0
331 111 2 -1.1794 -8.370986046508438 8.933273339955763 19.22276821338463 1 0 -1
82 28 2 -1.1794 -4.400682218385243 6.179573527908582 19.121435111900336 0 0 -1
514 172 2 -1.1794 -1.5029759531142979 6.363951995036736 14.461833728513287 0 0 0
280 94 2 -1.1794 -3.629655963537768 14.077893301396854 2.5790641080671683 1 0 0
281 94 1 0.5897 -3.6026743683762055 13.754983534939349 3.479845472741423 1 0 0
282 94 1 0.5897 -2.805993245138422 14.55315065311129 2.469659282230073 1 0 0
500 167 1 0.5897 -2.0706067147331284 15.966371815607113 0.4969259166940864 1 0 0
368 123 1 0.5897 1.7413218785415392 16.32113416246264 2.8845996316706106 0 0 0
216 72 1 0.5897 0.759233925976655 12.506874874998694 2.4292616201851165 0 0 0
313 105 2 -1.1794 -1.1760323333840712 15.134455073322451 1.6638855938012747 1 0 0
315 105 1 0.5897 -0.8503740484054143 14.42267165160096 1.1128456410595289 1 0 0
314 105 1 0.5897 -0.3863870582935798 15.569736690671967 1.9851354273941486 1 0 0
223 75 2 -1.1794 -0.8306155645677253 11.933781476998476 3.0898483570254878 0 0 0
252 84 1 0.5897 2.802071308211482 14.398952905304792 0.4456266710042527 0 0 0
269 90 1 0.5897 -3.754613509862933 12.917152991513273 1.035252028630276 1 0 0
423 141 1 0.5897 -2.7036441888543834 16.858191263529413 3.8471554087046633 1 0 0
180 60 1 0.5897 1.7350093353342029 14.034640964956381 4.1150773608947215 0 0 0
369 123 1 0.5897 0.6018068998863706 16.931874515272156 3.672479455881676 0 0 0
407 136 1 0.5897 4.096743880133193 15.325012941672512 2.4638216075991553 0 0 0
406 136 2 -1.1794 3.3101109274951552 15.517682042116284 1.9535271048868545 0 0 0
214 72 2 -1.1794 1.6214064427502386 12.898623887921968 2.5686295330989735 0 0 0
225 75 1 0.5897 -0.9620417040263947 12.722336974673889 3.616362237200147 0 0 0
770 257 1 0.5897 -1.6982908559664023 12.624061084241543 0.2454337926955785 1 0 1
408 136 1 0.5897 3.581355616502896 16.20448652206025 1.3443414531423477 0 0 0
367 123 2 -1.1794 0.8393947622340576 16.629341533528482 2.7959012089507587 0 0 0
215 72 1 0.5897 1.9251278096002853 13.129063106531358 1.6905370437719571 0 0 0
421 141 2 -1.1794 -2.6245664526044417 16.33188189964548 4.642868533968711 1 0 0
306 102 1 0.5897 -4.658929172354642 11.408056096199575 3.816652045018468 1 0 0
250 84 2 -1.1794 2.121194120732109 13.890596056673724 0.004973063115663259 0 0 0
771 257 1 0.5897 -0.30961027712833555 12.021391449892102 0.22211325995604048 1 0 1
222 74 1 0.5897 2.8867391894419034 11.596651312455926 2.8149348931127953 0 0 0
268 90 2 -1.1794 -3.443038929988641 12.401830659781528 0.29112928428394674 1 0 0
184 62 2 -1.1794 5.1922689042849495 12.575516305659423 0.5842671748188912 0 0 0
425 142 1 0.5897 -4.493164386043519 16.026013134777394 4.766910544994843 1 0 0
499 167 2 -1.1794 -2.7290157943198516 16.471138218309676 0.019340065757448153 1 0 0
404 135 1 0.5897 -1.8740790938098861 15.798896468619382 8.022545463639286 0 0 0
371 124 1 0.5897 -0.20870094977259024 17.037436908551676 8.0436596756509 0 0 0
756 252 1 0.5897 -1.760266955318417 14.24855724110858 9.581769764931474 0 0 0
327 109 1 0.5897 -4.254865722973717 13.006582469582641 5.536901615740399 1 0 0
175 59 2 -1.1794 -0.8788429075225839 13.927752981355365 4.92860435959243 0 0 0
211 71 2 -1.1794 -0.4901674124885633 12.655510085999923 7.446977250520682 0 0 0
227 76 1 0.5897 1.5315187938730102 12.078671041247036 7.122950665765991 0 0 0
213 71 1 0.5897 -0.6765986488397977 13.334409307642686 6.798325879985193 0 0 0
212 71 1 0.5897 -0.41343093799229935 13.129403198690202 8.27513506161602 0 0 0
1004 335 1 0.5897 -5.5251771478899085 16.64575532749555 9.047674712746256 1 0 0
232 78 2 -1.1794 1.7850312841595777 14.922134642306856 8.273103132390132 0 0 0
179 60 1 0.5897 1.9463289743395915 13.602451199316258 5.550645034191887 0 0 0
234 78 1 0.5897 1.1477924861583482 15.347908906013936 7.699514572101084 0 0 0
370 124 2 -1.1794 -0.29284549292974793 16.41313376303765 7.322935333479698 0 0 0
341 114 1 0.5897 2.824079150057921 15.782148151903364 5.036967446805829 0 0 0
277 93 2 -1.1794 -4.5207226219763665 13.966091693963332 7.051639691117297 1 0 0
278 93 1 0.5897 -3.9872775830949054 14.725650048449646 7.285552342989973 1 0 0
462 154 1 0.5897 -5.368647210408856 16.68065794348246 6.836938182450699 1 0 0
279 93 1 0.5897 -5.413615051980008 14.218252556596626 7.28722335874023 1 0 0
403 135 2 -1.1794 -2.7438908971531384 15.68029203454237 8.404222806691942 0 0 0
226 76 2 -1.1794 2.0874047312151873 11.915258038326312 6.360933262246145 0 0 0
267 89 1 0.5897 -3.850527453512559 12.855694053645896 8.604361057937481 1 0 0
326 109 1 0.5897 -3.1533411180574533 11.988677190824884 5.330195395817938 1 0 0
405 135 1 0.5897 -2.9104010389077843 16.49421320843554 8.879763156308384 0 0 0
176 59 1 0.5897 -1.3367350921914023 14.761979480038475 4.824845576795197 0 0 0
233 78 1 0.5897 2.516642718446567 14.7010739631556 7.696709500417137 0 0 0
690 230 1 0.5897 1.8116921320876322 13.532128462329606 9.396052854507259 0 0 0
372 124 1 0.5897 -0.23368096632618762 16.94976846285862 6.532405428445288 0 0 0
178 60 2 -1.1794 1.6983473633528963 14.356674395132757 5.015793053120401 0 0 0
266 89 1 0.5897 -3.4158484660410875 11.740175724254458 9.531188058468175 1 0 0
177 59 1 0.5897 0.04923454869749477 14.154250925663849 4.8685203466376965 0 0 0
325 109 2 -1.1794 -3.8148040100664535 12.49466776215362 4.858194242881915 1 0 0
340 114 2 -1.1794 3.3939333208120477 16.52014443567691 4.820407023674493 0 0 0
422 141 1 0.5897 -2.558497703034508 16.973967666927535 5.34972958745816 1 0 0
265 89 2 -1.1794 -3.969470163291272 12.520195673923856 9.493011783192596 1 0 0
772 258 2 -1.1794 -6.712569854054692 12.332959079008104 9.777455024351227 1 0 0
728 243 1 0.5897 -3.6328321888064883 12.22798876429916 12.38628486061524 0 0 0
872 291 1 0.5897 -2.7085835657311623 16.84580120931072 11.375845472465711 0 0 0
718 240 2 -1.1794 -1.789333134594031 12.464371455608548 12.245895459821208 0 0 0
912 304 1 0.5897 0.926923605459284 15.568614737890078 11.750068565444534 0 0 0
720 240 1 0.5897 -1.7981679404640643 13.083056931826704 12.976276514209955 0 0 0
831 277 1 0.5897 -8.110249659763065 12.354230814307167 14.360678577801705 1 0 0
962 321 1 0.5897 -6.160549002704711 17.05316169744639 12.75379912291346 1 0 0
785 262 1 0.5897 -7.574364481713948 14.55297070286697 12.104559065284592 1 0 0
784 262 2 -1.1794 -6.856296955651108 13.923127232876352 12.16828439737659 1 0 0
729 243 1 0.5897 -4.411680902867066 12.661392986578392 13.610138784125006 0 0 0
911 304 1 0.5897 -0.38425771369092576 16.319406470868444 11.653729464332514 0 0 0
910 304 2 -1.1794 0.3570431798239091 16.019971121741456 11.127272953217226 0 0 0
755 252 1 0.5897 -0.43675526776688134 14.617019947746838 10.217721346594312 0 0 0
727 243 2 -1.1794 -4.371128148412176 11.977409057590728 12.94168868611327 0 0 0
719 240 1 0.5897 -1.4050265853210915 12.9556901524232 11.519742250162201 0 0 0
786 262 1 0.5897 -6.820428961170769 13.693169028753386 13.096847560904116 1 0 0
817 273 2 -1.1794 -4.17908617420821 14.513798116679776 11.341920561717313 1 0 0
818 273 1 0.5897 -5.026738288416421 14.244214811940958 11.695644060671507 1 0 0
819 273 1 0.5897 -3.8860477148555765 13.764436397269762 10.823369160100533 1 0 0
873 291 1 0.5897 -2.850876710818727 15.522861871089269 12.098242417631527 0 0 0
871 291 2 -1.1794 -2.3529415680852264 16.34031645730842 12.106878200195426 0 0 0
1003 335 2 -1.1794 -5.822302089615933 16.143407030861283 9.806462319326272 1 0 0
1005 335 1 0.5897 -5.070323811020867 15.601065043522754 10.044708554759252 1 0 0
682 228 2 -1.1794 -1.5203750791094395 14.282625882214802 14.284520911576656 0 0 0
773 258 1 0.5897 -6.877254033417847 12.826172576140031 10.581167390314278 1 0 0
754 252 2 -1.1794 -0.9602777192978058 13.864912847162133 9.94117814744439 0 0 0
688 230 2 -1.1794 1.9821017204651064 12.643012012282616 9.707205326436954 0 0 0
846 282 1 0.5897 -0.1489662896202324 17.040540628486042 13.927331078197911 0 0 0
963 321 1 0.5897 -6.182812360996154 17.068383668109504 11.240023432963563 1 0 0
684 228 1 0.5897 -0.9810062902216421 15.067790919901118 14.378471159626812 0 0 0
925 309 2 -1.1794 -6.181693349165853 15.99387478385424 14.417276818254425 1 0 0
774 258 1 0.5897 -5.758942304692916 12.266483746623276 9.727726241838615 1 0 0
783 261 1 0.5897 -8.71268811284807 14.648592179446855 16.990827262041766 1 0 0
251 84 1 0.5897 -5.1380152912475845 14.86671040458223 18.768072118123776 0 0 -1
717 239 1 0.5897 -2.92061470786265 12.59115943491089 16.95809958133039 0 0 0
737 246 1 0.5897 -1.2589454235556676 15.557367580746336 18.376155954108707 0 0 0
683 228 1 0.5897 -1.2852017892875907 13.738475444058896 15.036181364664243 0 0 0
681 227 1 0.5897 -4.190103895853364 13.670209165713803 15.580806916195673 0 0 0
830 277 1 0.5897 -7.6019058528180254 13.351473512953506 15.379989260265718 1 0 0
927 309 1 0.5897 -5.983599910931279 16.864590586659624 14.76206000685782 1 0 0
715 239 2 -1.1794 -3.8309450185275242 12.88122039547218 17.017228141505417 0 0 0
716 239 1 0.5897 -3.924201902392813 13.197515874068962 17.915893037296662 0 0 0
874 292 2 -1.1794 -3.372276928201929 16.900865932622857 16.919934026746777 0 0 0
907 303 2 -1.1794 -5.790681750296347 16.173726902161775 17.91373177262284 0 0 0
806 269 1 0.5897 -6.251723732821453 11.73889555319462 15.571536281672298 1 0 0
876 292 1 0.5897 -2.774144920263309 16.16670953848562 17.060095847344684 0 0 0
736 246 2 -1.1794 -1.6052424697270595 14.871534333723202 17.805229508853508 0 0 0
909 303 1 0.5897 -5.020410628078522 16.46473361872397 17.42553933484993 0 0 0
781 261 2 -1.1794 -7.7876045996051655 14.473200897365984 16.818235676882384 1 0 0
782 261 1 0.5897 -7.539862592918734 13.82297410812513 17.475684469394217 1 0 0
730 244 2 -1.1794 -1.319678795050745 12.295580268016426 16.104422833944895 0 0 0