LAMMPS (30 Jul 2021)
  using 1 OpenMP thread(s) per MPI task
package omp 0
using multi-threaded neighbor list subroutines
echo both

include		in.partitions
variable        pid world 0
include		in.temp
variable        temperature equal 260.64
variable	tempDamp equal 100.0
include		in.pressure
variable        pressure equal 7625.0
variable        pressureDamp equal 1000.0 # This is 1 ps
include		in.seed
variable        seed world 745823

units		real
atom_style	full
read_restart    restart.lmp.${pid}
read_restart    restart.lmp.0
Reading restart file ...
  restart file = 30 Jul 2021, LAMMPS = 30 Jul 2021
  restoring atom style full from restart
  triclinic box = (-3.2006700 -0.18302119 -0.039773702) to (14.810669 22.763020 19.269772) with tilt (-0.25526376 -6.3899389 0.15793112)
  4 by 4 by 4 MPI processor grid
  restoring pair style lj/cut/tip4p/long/omp from restart
  restoring bond style harmonic/omp from restart
  restoring angle style harmonic/omp from restart
  1008 atoms
  672 bonds
  336 angles
Finding 1-2 1-3 1-4 neighbors ...
  special bond factors lj:    0        0        0       
  special bond factors coul:  0        0        0       
     2 = max # of 1-2 neighbors
     1 = max # of 1-3 neighbors
     1 = max # of 1-4 neighbors
     2 = max # of special neighbors
  special bonds CPU = 1.759 seconds
  read_restart CPU = 2.078 seconds

include 	in.setup
variable	out_freq equal 1000
variable	out_freq2 equal 10000
variable	out_freq3 equal 1000

timestep	2.0

neigh_modify    delay 7 every 1

include		in.tip4p
# This is TIP4P/Ice

# create groups ###
group ox type 2
336 atoms in group ox
group hy type 1
672 atoms in group hy

# set charges - beside manually ###
set group ox charge -1.1794
Setting atom values ...
  336 settings made for charge
set group hy charge 0.5897
Setting atom values ...
  672 settings made for charge

# ### TIP3P Potential Parameters ###
pair_style lj/cut/tip4p/long/omp 2 1 1 1 0.1577 8.5
pair_coeff 1 1*2 0.000 0.000
pair_coeff 2 2 0.21084 3.1668
bond_style  harmonic
bond_coeff  1 450 0.9572
angle_style harmonic
angle_coeff 1 55 104.52
kspace_style pppm/tip4p/omp 1.0e-5
pair_modify tail yes

thermo          ${out_freq}
thermo          1000
thermo_style    custom step temp pe etotal epair emol press lx ly lz vol pxx pyy pzz pxy pxz pyz enthalpy

restart 	${out_freq3} restart.lmp.${pid} restart2.lmp.${pid}
restart 	1000 restart.lmp.${pid} restart2.lmp.${pid}
restart 	1000 restart.lmp.0 restart2.lmp.${pid}
restart 	1000 restart.lmp.0 restart2.lmp.0


include         in.dump
dump            myDump all atom ${out_freq2} dump.water.${pid}
dump            myDump all atom 10000 dump.water.${pid}
dump            myDump all atom 10000 dump.water.0
dump            myDump2 all dcd ${out_freq2} dump.dcd
dump            myDump2 all dcd 10000 dump.dcd
dump_modify     myDump append yes
dump_modify     myDump2 append yes


variable natoms 	equal  "count(all)"                        # NUMBER ATOMS
variable H      	equal  "enthalpy/v_natoms"                 # ENTHALPY-per-atom
variable Vol      	equal  "vol/v_natoms"                 # volume-per-atom
fix AVG all 		ave/time ${out_freq} 1 ${out_freq} v_Vol v_H file vol_enthalpy.dat
fix AVG all 		ave/time 1000 1 ${out_freq} v_Vol v_H file vol_enthalpy.dat
fix AVG all 		ave/time 1000 1 1000 v_Vol v_H file vol_enthalpy.dat



fix 		1 all shake 1e-6 200 0 b 1 a 1
       0 = # of size 2 clusters
       0 = # of size 3 clusters
       0 = # of size 4 clusters
     336 = # of frozen angles
  find clusters CPU = 0.080 seconds
fix             2 all nph tri ${pressure} ${pressure} ${pressureDamp}
fix             2 all nph tri 7625 ${pressure} ${pressureDamp}
fix             2 all nph tri 7625 7625 ${pressureDamp}
fix             2 all nph tri 7625 7625 1000
fix             3 all temp/csvr ${temperature} ${temperature} ${tempDamp} ${seed}
fix             3 all temp/csvr 260.64 ${temperature} ${tempDamp} ${seed}
fix             3 all temp/csvr 260.64 260.64 ${tempDamp} ${seed}
fix             3 all temp/csvr 260.64 260.64 100 ${seed}
fix             3 all temp/csvr 260.64 260.64 100 745823


run             250000
PPPM initialization ...
  extracting TIP4P info from pair style
  using 12-bit tables for long-range coulomb (../kspace.cpp:340)
  G vector (1/distance) = 0.37926147
  grid = 24 27 32
  stencil order = 5
  estimated absolute RMS force accuracy = 0.0024422814
  estimated relative force accuracy = 7.3548578e-06
  using double precision FFTW3
  3d grid and FFT values/proc = 3825 384
Last active /omp style is kspace_style pppm/tip4p/omp
Neighbor list info ...
  update every 1 steps, delay 7 steps, check yes
  max neighbors/atom: 2000, page size: 100000
  master list distance cutoff = 10.8154
  ghost atom cutoff = 10.8154
  binsize = 5.4077, bins = 5 5 4
  1 neighbor lists, perpetual/occasional/extra = 1 0 0
  (1) pair lj/cut/tip4p/long/omp, perpetual
      attributes: half, newton on, omp
      pair build: half/bin/newton/tri/omp
      stencil: half/bin/3d/tri
      bin: standard
Per MPI rank memory allocation (min/avg/max) = 9.312 | 9.326 | 9.337 Mbytes
Step Temp PotEng TotEng E_pair E_mol Press Lx Ly Lz Volume Pxx Pyy Pzz Pxy Pxz Pyz Enthalpy 
14750000    270.28707   -4806.9004   -4266.2928   -4806.9004            0     7553.164    18.011339    22.946041    19.309545    7980.4213    8482.3246    8050.3099    6126.8574   -63.547531   -245.86995    641.48271   -3387.2083 
14751000    262.17539   -4826.0872    -4301.704   -4826.0872            0    7595.1393    18.052284    22.788435    19.403792    7982.3959    7919.5799    8245.2988    6620.5392   -482.07401   -352.68342   -1368.0398   -3417.5154 
14752000     257.9744   -4808.6135   -4292.6328   -4808.6135            0    6628.1499    18.065328    22.726923    19.523636    8015.8059    6520.9159    6922.0146    6441.5193    2533.5737   -516.51285    477.01257   -3517.7868 
14753000    257.51716   -4820.6888   -4305.6227   -4820.6888            0    7714.2839    18.138204    22.860701    19.237348    7976.8061    7247.0182     7997.514    7898.3194   -155.60708    20.340646   -413.48798   -3408.1928 
14754000     250.4698   -4830.7916   -4329.8211   -4830.7916            0    7892.2183    17.850305    22.771863    19.497573    7925.4647    8038.0704    7939.2621    7699.3225     744.7345    694.08402    1945.8685   -3417.6009 
14755000    259.93657   -4818.7808   -4298.8755   -4818.7808            0    8366.6358    18.043676    22.775162    19.406672    7975.1263    7178.0213    9006.1326    8915.7536   -408.79611   -321.10875   -152.45739   -3325.7602 
14756000    260.15673   -4797.3522   -4277.0066   -4797.3522            0    9778.0592    17.982343    22.776192    19.296743    7903.3531    11721.184    8381.4736    9231.5204     545.7242   -51.010931    1037.5278    -3149.965 
14757000    256.15688   -4813.5736   -4301.2282   -4813.5736            0    8710.5679    18.034438     22.83677    19.303813    7950.2426    9311.0802    9391.1759    7429.4475   -259.84021    1309.4288   -518.57488   -3291.2715 
14758000    260.71024   -4815.8743   -4294.4216   -4815.8743            0     8042.115    18.024787    22.863312    19.336938    7968.8744    7800.2275    8381.4751    7944.6423    732.43267    174.40739    1790.3726   -3359.7842 
14759000    261.84533    -4786.578    -4262.855    -4786.578            0    8030.3514    17.831029    22.933565    19.498995    7973.7058      8327.38     8991.164    6772.5101   -865.35259   -26.231939    -329.3131   -3329.0189 
14760000    264.57918   -4811.2556   -4282.0645   -4811.2556            0    7194.4213    18.119912    22.951626    19.219754    7993.1391    7860.4185    5084.2444    8638.6012    190.25151   -657.04996    305.74165   -3443.3984 
14761000     262.9326   -4833.7731   -4307.8754   -4833.7731            0    7881.3146    17.951674    22.788461    19.428355    7947.9659    7016.6107    8847.7543    7779.5788   -656.03993   -28.931274   -747.15521   -3394.3291 
14762000    271.27947    -4791.678   -4249.0856    -4791.678            0    7146.7527    18.073718    22.874316    19.399462    8020.2021     5258.468    8214.1252    7967.6649    -1446.869    1052.7591   -1469.4993   -3413.1555 
14763000     273.6813   -4807.1994    -4259.803   -4807.1994            0    8114.9937    17.983008    22.792048    19.433377    7965.1501    6216.0581    8690.8301     9438.093   -1946.8312     397.3255    1314.9546   -3317.1366 
14764000    259.31356   -4812.7531   -4294.0939   -4812.7531            0    7822.0459    18.158726    22.537202    19.442231    7956.6722    8365.9341    8534.6665    6565.5371   -1409.0216   -700.78106    1589.7644   -3386.4245 
14765000    249.50365   -4789.7098   -4290.6717   -4789.7098            0     9432.926    17.979042    22.636921    19.546738    7955.3299    8219.0964    9861.2673    10218.414   -445.29638    362.72069   -62.697873   -3196.2605 
14766000    260.95202   -4813.5932   -4291.6569   -4813.5932            0    7624.3634    18.143164    22.773609     19.32337     7984.133    7209.7736    8008.2478     7655.069   -191.08394    574.03137    -988.0988    -3403.873 
14767000    270.20406   -4832.4836   -4292.0421   -4832.4836            0    9473.0558    17.884161    22.754462    19.475364    7925.3912    9320.9962    10446.741      8651.43   -151.06828    998.91261    581.09519   -3197.1112 
14768000    258.14109   -4844.6149   -4328.3008   -4844.6149            0    4802.4351    18.383816    22.396544    19.575245     8059.793     4101.995    6143.0808    4162.2294    254.44722   -1306.1139    2467.6338   -3763.8042 
14769000    252.26178   -4792.9659   -4288.4111   -4792.9659            0    8729.5889    18.038827    22.703853    19.350624    7925.0651    8587.9119    8864.4859    8736.3688   -1357.4128    337.11848   -326.91071   -3279.4544 
14770000    258.31975   -4810.1867   -4293.5153   -4810.1867            0    7712.1212    18.056867    22.765679    19.384944    7968.7016    7595.2895    8867.8494    6673.2248   -911.24001   -258.35157   -725.12105   -3397.2485 
14771000    253.56436   -4828.0098   -4320.8497   -4828.0098            0    7089.8224    18.028236    22.863028    19.316683    7961.9514    5495.0637    7933.1001    7841.3035    -1371.221    142.65552   -917.57846   -3497.6016 
14772000    256.48498   -4812.7628   -4299.7612   -4812.7628            0     7669.208    18.009814    22.772782    19.502922    7998.8028    8645.8705    6688.4376    7673.3159    197.17277    870.88978    1680.8887   -3405.1148 
14773000    259.50536   -4851.4115   -4332.3687   -4851.4115            0    7540.5961     18.09806     22.83513     19.23945    7951.1174    7669.5396    6839.7166    8112.5322   -2070.4335   -508.92641    1686.0574   -3457.9695 
14774000     271.0019   -4802.6304   -4260.5932   -4802.6304            0    6885.0893    18.025216    22.990685    19.417706    8046.9313    4856.6754    6654.2154     9144.377   -294.93265    794.12735   -485.95695    -3452.585 
14775000    273.59257   -4814.5858   -4267.3668   -4814.5858            0    8945.4716    17.986863    22.946317    19.225984    7935.1837    8952.5909    9616.1414    8267.6825   -980.52645    421.70096   -280.47399   -3232.1386 
14776000    271.91042   -4817.0039   -4273.1494   -4817.0039            0    8290.9897    17.885262    22.981718    19.286531    7927.4212    10303.121    6951.7117    7618.1358   -2662.9236   -2390.6644   -673.33719   -3314.6007 
14777000    271.03955   -4805.8245   -4263.7119   -4805.8245            0    6295.5226    17.949598    23.034934     19.33986    7996.4096    7289.3318    6080.3476    5516.8883    116.70055    -497.2755    1557.2481   -3529.5317 
14778000    263.95311   -4842.1512   -4314.2124   -4842.1512            0    8418.3878    17.855229    23.097236    19.270922    7947.4524    9824.3028    7938.4213    7492.4393   -1728.4262    269.04099    265.17583   -3338.4754 
14779000    257.22355   -4807.7013   -4293.2224   -4807.7013            0     6913.921    17.901111    23.249472    19.248956    8011.2497    7412.2527    7018.0956    6311.4145    827.40835   -56.903986    401.34255   -3485.4285 
14780000    263.80941   -4796.9466   -4269.2952   -4796.9466            0    9425.0771    17.879092    23.126102    19.247388    7958.2885    9146.6381    8003.3153    11125.278   -1626.2534    135.11831   -1957.1209    -3175.388 
14781000    260.25176   -4780.6669   -4260.1313   -4780.6669            0    6868.4486    17.937121    23.086462    19.416657    8040.5283    9104.0719    5103.0973    6398.1765    898.23606   -610.24423     2399.575   -3454.7174 
14782000    258.88266    -4803.884   -4286.0867    -4803.884            0    8179.6719     17.88664    23.276977    19.077351     7942.796     8775.583    6264.9743    9498.4585   -78.854148   -1677.2147    240.02073   -3338.5737 
14783000    264.43114   -4822.3924   -4293.4974   -4822.3924            0    7821.0153    17.834653     23.05315    19.342922    7952.7443    8428.2079    8405.9003    6628.9378   -439.88834    1977.8763   -1251.3808   -3386.3956 
14784000    257.49764    -4845.693   -4330.6659    -4845.693            0    7592.9261    18.073072    22.930498     19.18692    7951.5304    7657.5099    7223.1881    7898.0804    -667.9392    380.79861    28.001098   -3450.1529 
14785000     260.9459   -4847.3514   -4325.4274   -4847.3514            0    9616.2477    17.988432    22.623748    19.398435    7894.4989    9509.4194    10559.359    8779.9647   -2063.5073    1031.1463    197.61692   -3218.2783 
14786000     271.4195   -4868.5699   -4325.6974   -4868.5699            0    8302.8067    18.049796    22.764909    19.301338    7930.9575      9029.18    8558.3195    7320.9208   -1006.1334   -1122.0575   -1641.4054   -3365.3542 
14787000    262.77954   -4819.9199   -4294.3283   -4819.9199            0    8325.8034    18.073793    22.684751    19.428163    7965.5369    6840.4096    7909.2343    10227.766    883.11984    538.51521    2007.8645   -3327.1265 
14788000    256.50341   -4814.7836   -4301.7451   -4814.7836            0    7723.2753    18.052358    22.780045    19.415341    7984.2389    8566.9373    7674.5012    6928.3874   -1189.6892    571.39145   -1044.7486    -3402.432 
14789000    246.37002   -4800.3327   -4307.5622   -4800.3327            0    7690.5159    18.190061    22.715597    19.343965    7992.8895    6897.4016     8248.323     7925.823   -847.98874    716.36343   -146.53001   -3411.0934 
14790000    267.54576   -4825.8326    -4290.708   -4825.8326            0    8048.2423    17.968804    22.801498    19.398912    7948.0375    7705.3506    8686.2694     7753.107    338.36897    600.42399    1380.7233   -3357.8042 
14791000    244.16382   -4781.2683   -4292.9105   -4781.2683            0    8363.4819     18.16546    22.725383    19.377437    7999.3357     7123.763    9095.7122    8870.9704   -867.84406   -130.76849   -1244.8495   -3317.2091 
14792000    251.81562   -4785.7224   -4282.0601   -4785.7224            0    10502.961    17.920193    22.663766    19.377868     7870.109     9728.232    10660.642     11120.01   -179.71294    146.26185     943.2609   -3076.5568 
14793000    263.46334   -4804.9761   -4278.0169   -4804.9761            0    7279.9222    18.077753    22.784281    19.361348    7974.7184    7675.9964    7613.7645    6550.0058    206.96225    348.36286   -1860.6652   -3431.3395 
14794000    251.75785   -4833.8934   -4330.3466   -4833.8934            0    7144.9139    18.165219    22.795059    19.273619    7980.7668    7425.1678    7480.3177    6529.2563    1406.8873   -371.27506    2041.6067   -3498.7408 
14795000    251.23414   -4838.5122   -4336.0129   -4838.5122            0    7127.0577    18.217491    22.737467    19.261905    7978.6585     6860.427    8277.7146    6243.0315   -185.75732    334.94985    820.72541   -3506.7045 
14796000    262.12072   -4840.2708    -4315.997   -4840.2708            0    8623.7915    18.014693    22.811231     19.38793    7967.2244    9013.8277    8602.3186     8255.228    1038.6638   -1054.1048    1475.3797   -3313.9659 
14797000    266.60382   -4823.6869   -4290.4463   -4823.6869            0    9225.0213    17.826897    22.842552    19.457205    7923.2039    8786.6392    11049.839    7838.5857    283.08446    417.32659    1876.0033   -3224.4785 
14798000    256.91889   -4834.1921   -4320.3225   -4834.1921            0    8042.3067    18.095538    22.669828    19.384346    7951.8998    8903.5581    6774.2333    8449.1286     176.5996   -479.63619    482.66977   -3387.6538 
14799000    271.19259    -4821.308   -4278.8893    -4821.308            0    8012.7181    17.994684    22.812101    19.438569     7979.465    7693.5795    8252.2441    8092.3306   -147.46147   -86.132652   -777.69241   -3346.4308 
14800000    253.93231   -4826.3955   -4318.4995   -4826.3955            0    8087.1124    18.099247    22.730955    19.312204     7945.295    6000.4742    9673.7355    8587.1277   -543.21219   -764.77666   -508.95776   -3381.4136 
14801000    279.29326   -4793.0915   -4234.4704   -4793.0915            0    7475.2706    18.090377    22.663757    19.517199    8001.9717    5808.5765    8827.6653      7789.57     637.6206    166.86551   -2187.3009   -3362.1023 
14802000    253.72569   -4831.8709   -4324.3882   -4831.8709            0    6802.4585    18.117956     22.73586    19.376618    7981.7583    6562.2217    6244.1613    7600.9926    161.00357      37.0397    729.66357   -3532.5429 
14803000    256.31444   -4852.1152   -4339.4547   -4852.1152            0    6596.4408    18.144909    22.775701    19.359665    8000.6333    5588.4441    7141.7102    7059.1682   -45.087446   -78.153828   -1180.8618   -3569.7752 
14804000    267.36082   -4807.8129   -4273.0582   -4807.8129            0    5607.9435    18.003932    22.865231     19.50319    8028.7622    6063.6183    5182.4974    5577.7148   -138.27452   -78.550982   -2155.3729   -3616.4171 
14805000    261.48358   -4798.9245   -4275.9251   -4798.9245            0    10229.928    18.003612    22.785507    19.283935    7910.6832    7927.6784    10385.945    12376.159   -86.950426   -722.03339   -1070.1456   -3095.7065 
14806000     270.5969   -4801.7146   -4260.4874   -4801.7146            0    7003.1421    18.017566    23.052612    19.302378    8017.2806    8869.7494    6588.2778     5551.399     786.5403   -40.199336   -699.87718   -3441.6533 
14807000    243.30103   -4813.4093   -4326.7772   -4813.4093            0    8271.4318    17.929899    23.082007    19.249786    7966.6791    9200.9147    7741.7259    7871.6548    872.26407    803.89714    911.74729   -3365.7539 
14808000    252.50915   -4808.3586   -4303.3091   -4808.3586            0    7335.2365    17.927852    22.939107    19.445887       7997.1    9251.3533    5992.2771    6762.0792    11.998985   -489.65904   -615.71957   -3447.8041 
14809000    259.15953   -4816.6086   -4298.2575   -4816.6086            0    7713.2083     18.01035    22.912736    19.352038    7985.9359     9462.681    5857.1167     7819.827    684.87527   -1239.7777     471.0525   -3399.9257 
14810000    266.86141   -4834.0244   -4300.2686   -4834.0244            0    8043.6671    17.998413    22.847863    19.380611    7969.7972    8398.4475    7560.5783    8171.9755    102.19822   -1.0124655   -1516.5884   -3365.3426 
14811000    266.92022   -4807.5022   -4273.6288   -4807.5022            0     8736.148    18.019254    22.981461    19.216111    7957.5604    8571.3506    10293.548    7343.5451    2630.2723    148.98092    3441.9171   -3259.7738 
14812000    275.98188   -4805.8037   -4253.8058   -4805.8037            0    6909.9697    18.016501    22.928501    19.424587    8024.1292     6261.161     7600.543    6868.2051    38.453175   -90.504923    1130.4433   -3445.1756 
14813000    264.14137   -4801.0895   -4272.7741   -4801.0895            0    6450.3255    18.017794    23.004051    19.297074    7998.2946    6678.8559    6520.2234    6151.8971    153.67146   -639.16135    114.21083   -3520.3635 
14814000    264.21826   -4837.8962    -4309.427   -4837.8962            0    6589.7229    17.888783    22.937404    19.470939    7989.3595    8273.5763    6112.9064    5382.6861   -811.24991    262.43726   -1876.5957   -3541.6148 
14815000    250.85239   -4818.4893   -4316.7535   -4818.4893            0    8094.2614    18.011839    22.871252    19.307175    7953.6548    7950.9573    8287.4176    8044.4094    -595.2049   -268.77465    1321.4658   -3377.8524 
14816000    272.19264   -4797.8259    -4253.407   -4797.8259            0    7287.2076     17.94767    22.891543    19.433155    7984.1092    7795.9612    7164.6538    6901.0079    434.81287    466.98238     1973.271   -3404.8842 
14817000    256.53836   -4829.7058   -4316.5974   -4829.7058            0    6731.3835    17.992237    23.008256    19.338604    8005.6018    6237.8095    6656.1742    7300.1669   -144.76763    345.58885   -119.74146   -3530.6849 
14818000    256.49415   -4815.9863   -4302.9663   -4815.9863            0    7101.0903    17.934031    23.003263     19.38669    7997.8093    7677.0516     7933.918    5692.3013   -534.33538    1341.4568   -585.01664   -3474.6962 
14819000    258.53742   -4853.8818    -4336.775   -4853.8818            0    8635.9017    18.102481    22.902599    19.138044    7934.5156    7409.9542    8941.3333    9556.4177    -529.5624    1206.2991    110.60239   -3337.4564 
14820000    262.25861   -4815.3414   -4290.7918   -4815.3414            0    5365.2066    17.866891    22.987174    19.543358    8026.6397    7633.8488    4790.1891     3671.582   -7.3256055   -583.93291    893.34331    -3662.739 
14821000    254.69083   -4800.5799   -4291.1668   -4800.5799            0    7582.8207    18.215318    22.986635    19.071976    7985.6054     5662.346    7634.6297    9451.4864    2197.0099    422.35304    2027.6748   -3408.0573 
14822000    266.67443    -4785.645   -4252.2632    -4785.645            0    4943.7298    17.801709    23.204998    19.495752    8053.4731    6364.2521    4895.0814    3571.8559   -1165.4752    520.58607    -1392.871    -3671.614 
14823000    258.23879   -4848.4596   -4331.9501   -4848.4596            0     8571.214    17.957875    22.988331    19.188228    7921.3146    7864.1012    7852.9037    9996.6371    257.55026    613.00844   -2399.2286    -3341.767 
14824000    250.26311   -4842.0534   -4341.4962   -4842.0534            0    7009.3607    17.890748    23.114643    19.271208    7969.3815    5583.3254    5997.2155    9447.5411    41.262331   -397.14103   -2526.5866   -3526.8315 
14825000    262.50297   -4829.6278   -4304.5894   -4829.6278            0    8119.2029    17.895509    22.984222    19.326939    7949.4476    6320.0112    8806.7909    9230.8066    1315.2013   -1002.3841    898.00701   -3363.2934 
14826000    262.88349   -4814.7143   -4288.9149   -4814.7143            0    7145.1637    17.699283    23.149194    19.435125    7963.0397    8215.9222     6995.184    6224.3848   -798.58187   -437.74147   -363.48068   -3459.1272 
14827000    243.59666   -4825.5892   -4338.3658   -4825.5892            0    8485.1544    18.045582    22.886176    19.169761    7917.0032    7546.9381    8380.6128    9527.9122    1039.4739    257.20616   -333.80263   -3358.6582 
14828000    268.05797   -4784.1409   -4247.9918   -4784.1409            0    8598.2388    17.941676    23.070073    19.209822    7951.2483    9202.2855    8048.9943    8543.4367     1819.401    267.77976   -450.18431   -3250.9332 
14829000    253.20579   -4825.8354   -4319.3925   -4825.8354            0    7046.1796    17.981815    23.121278    19.247783    8002.5073    6364.9185    6711.9455    8061.6749    1034.3108   -171.14592     223.2424   -3497.0444 
14830000    274.74633   -4814.1176   -4264.5909   -4814.1176            0    8606.6888    17.826185    22.978336    19.338294    7921.2758    8788.2315    8029.7902    9002.0447    1827.4464   -275.45301    1630.9473   -3270.3146 
14831000    247.00366   -4779.0093   -4284.9714   -4779.0093            0    7503.3361     17.82891    23.265583     19.21337    7969.7055     9416.035    5441.4455    7652.5279     122.9533   -2041.8082   -108.67415   -3412.8588 
14832000    244.93275   -4816.2403   -4326.3445   -4816.2403            0    6891.4171     17.89183    23.205346    19.239601    7988.0152    7646.2274    5862.8659    7165.1581   -362.40544   -800.23488   -1430.4065    -3523.515 
14833000    274.73541   -4829.4394   -4279.9347   -4829.4394            0    7508.8981    17.956349     22.99297     19.30295     7969.605    6223.8045    8027.9409    8274.9489    566.15898    606.80818   -768.00328   -3407.1866 
14834000    269.52864   -4805.9971   -4266.9065   -4805.9971            0    7372.9162    17.959034     23.23021    19.202122    8010.9742    7792.9053    7160.3234    7165.5198   -27.947258    1009.2714    1023.6058   -3405.5152 
14835000    252.63032   -4817.2956   -4312.0037   -4817.2956            0    7648.7299    17.885061     23.13106     19.26239    7968.8587    7666.3054    6833.9147    8445.9696   -1428.7558    359.99463    1078.1023   -3423.0865 
14836000    255.46385   -4816.2213   -4305.2621   -4816.2213            0    8957.2819    17.836526    23.094378    19.203613    7910.4194    9361.1851    9644.9027     7865.758     58.42985    340.67798    658.19318   -3271.9021 
14837000    251.86217   -4820.7512   -4316.9957   -4820.7512            0    7231.0406    17.862782    23.210065    19.211687    7965.0948    6995.2735    7523.8539    7173.9943   -1587.3739   -271.70177   -737.11189   -3477.0182 
14838000    254.17933   -4805.7898   -4297.3998   -4805.7898            0    6988.0262    17.833025    23.150529    19.292425    7964.7612    6854.9113     7047.056    7062.1113    1486.6406    1507.4975    2647.7406   -3485.6855 
14839000    246.31066   -4843.5125   -4350.8607   -4843.5125            0    7329.4413    17.995696    23.034273     19.19702    7957.5062    7139.1407    7783.5086    7065.6747    930.28451    1540.6508    1170.6654   -3500.2639 
14840000    255.26274    -4823.963    -4313.406    -4823.963            0    7156.6775     17.64013    23.442302    19.303665    7982.5534    9040.5633    6024.6452    6404.8239   -511.84709    435.95418   -1023.5822   -3480.2446 
14841000    255.00707   -4823.2576    -4313.212   -4823.2576            0    8054.7305    17.746696    23.318068    19.152143    7925.5143    7573.8902    7001.2373     9589.064   -462.04869   -612.65693   -1380.9182    -3382.202 
14842000     260.7592   -4828.0766    -4306.526   -4828.0766            0    7288.0283    17.785823    23.225976      19.1534    7912.1376    7450.3228    6518.1551    7895.6072   -1983.9496    -555.7739   -1680.8834   -3465.5574 
14843000    269.70502    -4825.429   -4285.9856    -4825.429            0    6376.6723    17.751729    23.293445    19.364103    8007.0356    8267.3249    5448.2409    5414.4512   -1018.8059    994.78786    262.44752   -3541.3536 
14844000    259.19972   -4822.8001   -4304.3686   -4822.8001            0    6845.6416    18.047861    23.080704    19.121384    7965.1528    7191.4644    6146.4674    7198.9929   -209.31897   -316.76131    2377.4365   -3509.1544 
14845000    244.29639    -4826.707   -4338.0841    -4826.707            0    6671.2369    17.549495    23.566217    19.288579    7977.2782     8540.802    5109.1484    6363.7605   -179.10963   -294.06142   -1190.0797   -3561.9496 
14846000     279.6886   -4837.8129   -4278.4011   -4837.8129            0    8499.8203    17.817211      23.2383    19.124849     7918.485    9280.9936    7120.5496    9097.9177    2130.9215   -1583.0477    3071.2504   -3296.8165 
14847000    256.02641   -4814.7497   -4302.6652   -4814.7497            0    7311.2669      17.8053    23.156294    19.291885    7954.1358    7431.3135    7248.5624    7253.9248   -619.88084   -63.486447   -49.067722    -3454.537 
14848000     264.6405    -4837.082   -4307.7683    -4837.082            0    6801.1121    17.967509    23.189725    19.203359     8001.302     8087.521     6073.257    6242.5584    265.48872   -177.10555    31.682976   -3514.1412 
14849000    255.19608   -4820.9531   -4310.5294   -4820.9531            0    7924.7809    17.811966    23.147659     19.30854    7961.0138    7599.1642    7234.5615    8940.6169    113.25177    1012.1037   -1197.7289   -3390.4368 
14850000    263.25796   -4826.1462   -4299.5978   -4826.1462            0    7693.7916    17.986363    23.028674    19.189124    7948.1751    4905.3266    8513.2126    9662.8356    250.00026    888.87645   -1146.7899   -3407.7644 
14851000    241.09197   -4836.0759   -4353.8622   -4836.0759            0    7006.3724    17.932565    23.117867    19.316313    8007.8218    6931.2581    6945.0211    7142.8379   -115.14692   -144.15101   -2075.8193   -3535.6169 
14852000    255.24901   -4803.5064   -4292.9769   -4803.5064            0    7496.2265    17.900813      23.2568    19.144577    7970.1864    6975.9839    6837.2093    8675.4865    2154.4033    299.55871   -708.86001    -3421.638 
14853000    252.40155   -4781.1771   -4276.3428   -4781.1771            0    8101.3155    17.704419     23.17169     19.35444    7939.9909    8410.5568    7399.5358     8493.854   -1960.2008    916.99321   -2586.3933   -3338.2378 
14854000    265.39296   -4815.6585   -4284.8398   -4815.6585            0    7925.8829    18.006475    23.154751    19.110558    7967.8692    8495.6826    7639.6818    7642.2843    601.25202    571.19214   -112.14782   -3363.8269 
14855000    276.60027   -4807.3947     -4254.16   -4807.3947            0      9136.87    17.830802    22.936551    19.338535    7909.0182    10971.202    9064.3038    7375.1039    -495.3035   -226.83072    -105.9496   -3200.2684 
14856000     263.1312   -4862.7483   -4336.4533   -4862.7483            0    5502.6222    17.959193    23.184902    19.319546    8044.3139    5167.5106    5640.5193    5699.8366    375.33703    1524.9122   -369.22093   -3690.8964 
14857000    267.68362   -4822.8142   -4287.4139   -4822.8142            0    8482.0855    17.904074    23.062826    19.245764    7946.9329    9591.8354    7759.6688    8094.7524   -731.17236   -1458.3597   -819.71028   -3304.3583 
14858000    261.54827   -4808.1879    -4285.059   -4808.1879            0     6630.699    17.826065    23.139822    19.429158     8014.372    6273.2867    7097.1774    6521.6327    2171.7127    1283.3276    561.48129   -3510.0537 
14859000      259.222   -4817.7311   -4299.2551   -4817.7311            0    10301.666    17.998065    23.015788    19.022242    7879.7668    8512.2342    10438.448    11954.316   -370.56204    142.32646   -214.03042    -3115.405 
14860000    262.31178   -4797.8828   -4273.2268   -4797.8828            0    7644.2064    17.907584    23.052511    19.369075    7995.8406     8543.179    6287.4469    8101.9932    1457.5681   -608.26164    264.18701   -3381.8273 
14861000    276.00769   -4806.4977   -4254.4482   -4806.4977            0     10234.18    18.140814    22.657364    19.276558    7923.1091    8522.5761    10799.612    11380.353   -260.19612   -474.72954   -2335.5058   -3071.8844 
14862000    262.33244   -4816.1112   -4291.4139   -4816.1112            0    7654.5045    18.012468    22.731007     19.45668    7966.3731    7714.3839    6751.7288    8497.4009    673.47155   -815.57528    2363.6518    -3402.103 
14863000     254.6859   -4829.4401   -4320.0368   -4829.4401            0     8214.867    18.046895    22.782859     19.29991    7935.3485    8287.3529     8380.813    7976.4353   -271.93953    -341.8859    -1015.517   -3369.3391 
14864000    270.45903   -4826.6657   -4285.7143   -4826.6657            0    6144.4087    18.023852    22.899228    19.405339      8009.21    5978.1616    7156.4917    5298.5728     324.2938    307.46029    -730.7153   -3568.0098 
14865000    258.97954   -4821.4193   -4303.4282   -4821.4193            0    8548.3387    18.238936    22.562802    19.389566    7979.2235    5163.1644    9642.0467    10839.805   -237.14246   -195.68495     1147.031   -3308.6684 
14866000    245.28786   -4818.5215   -4327.9155   -4818.5215            0    8223.5974    18.106136    22.577577     19.50448    7973.2889    7893.3114    8720.9049    8056.5759     893.7689    176.93635    446.28729   -3371.6572 
14867000    250.31603   -4837.5297   -4336.8667   -4837.5297            0    7982.9008    18.135672    22.687845    19.351883    7962.5123     5765.481    9946.2511    8236.9704   -57.559927    573.81942   -804.56773   -3409.8518 
14868000    249.71499   -4814.7554   -4315.2946   -4814.7554            0    8315.5365    17.971791    22.828773    19.430132    7971.6766    7237.6729    9216.9641    8491.9726   -764.43024    452.38549   -250.64239   -3348.5409 
14869000    253.22711   -4822.8049   -4316.3194   -4822.8049            0    8431.6965    17.927087    22.684659    19.479596    7921.7642    9553.8837    8975.7622    6765.4436    730.68408   -209.79171    899.54674   -3342.1987 
14870000    241.22438   -4793.2008   -4310.7223   -4793.2008            0    6871.2384    18.007488    23.061133    19.330156    8027.2934    5662.1547    7418.0333    7533.5272   -925.98846    32.682178   -1607.7903   -3506.3075 
14871000    263.29899   -4844.5873   -4317.9568   -4844.5873            0    7958.0576    18.032023    22.975708    19.179491    7946.0341    7966.7009    7292.9811    8614.4909   -276.04908    516.72758   -360.20858   -3395.7392 
14872000    268.30229    -4801.904   -4265.2663    -4801.904            0    9323.2871    17.945841    23.061751    19.239797    7962.6306    8264.0497    9805.5301    9900.2813    126.52327    1130.6818    1420.4376   -3182.5828 
14873000     262.4677   -4815.6188    -4290.651   -4815.6188            0    8950.5995    17.753228    22.998065    19.405788    7923.1869    11239.876    7629.3347    7982.5878    331.83879   -2039.8926   -75.929934   -3256.3953 
14874000     267.0193   -4821.3349   -4287.2633   -4821.3349            0    6007.1086    17.992499    22.912054    19.343309    7974.1844    4994.2157    6403.6522    6623.4579   -66.284297   -1738.6884    1229.2972   -3588.6648 
14875000    260.67441   -4794.8015   -4273.4205   -4794.8015            0    6489.8145    18.125046     22.93296     19.27766    8012.9705    5297.6443    6180.4372    7991.3619    -515.7472   -971.03355   -1629.4219   -3515.0146 
14876000    257.15242   -4825.9316    -4311.595   -4825.9316            0    9816.4458    18.019111    22.746145    19.321266    7919.1164    11568.048    9501.1696    8380.1199    438.50158    450.56535   -193.72588   -3177.8722 
14877000     256.8112   -4835.0473   -4321.3932   -4835.0473            0    8451.6532    18.016659     22.89231    19.278597    7951.3218    8530.3842     7945.492    8879.0834    1241.5124    1368.0042    2136.9304   -3341.3237 
14878000    250.94734   -4816.6872   -4314.7615   -4816.6872            0    9195.1755    17.907038    23.064671    19.239529    7946.3093    9601.5597    8583.8049    9400.1618   -571.44703   -430.12037    1954.3493   -3249.1439 
14879000    281.22412   -4805.0383   -4242.5553   -4805.0383            0    8237.1623    17.719215    23.227311    19.365437    7970.2277    8955.7087     7421.701    8334.0773   -745.87393   -551.52727   -666.09642   -3285.0874 
14880000    252.02116   -4846.6727   -4342.5993   -4846.6727            0    7838.9437    17.942415    23.195952    19.085133    7943.0686    9412.2037    6642.1877    7462.4396    970.85359   -35.736466    141.21152   -3434.5242 
14881000    257.39753   -4844.7938    -4329.967   -4844.7938            0    9741.5274     17.81228     23.13835    19.157291    7895.6156    9430.6295    8857.5969    10936.356    421.29039    994.08482    238.12559   -3208.2354 
14882000    270.46034   -4814.4773   -4273.5232   -4814.4773            0    6541.8046    17.948434    23.186872    19.293595    8029.3777    5976.0885    5254.4158    8394.9095    929.39914     94.63243     110.4191   -3507.4763 
14883000    261.59945   -4802.8729   -4279.6417   -4802.8729            0    5388.6647    17.917425    23.044987    19.369759    7997.9056    4920.5777     5077.423    6167.9933   -282.02967   -1042.2751   -529.72922   -3651.1011 
14884000    257.18033   -4846.6441   -4332.2517   -4846.6441            0    6361.9149    17.942273    23.158043    19.217771    7985.1361    6837.1022    5274.2154     6974.427   -263.87122   -241.90281   -1045.0091   -3591.3748 
14885000    253.74478   -4816.6119    -4309.091   -4816.6119            0     8946.782     17.94294    22.965817    19.256414    7935.0724    8496.6925    8238.1252    10105.528   -782.38223   -243.50253    1326.6618   -3273.7256 
14886000    271.73878   -4827.2155   -4283.7044   -4827.2155            0    6046.7132    17.940001    23.114841    19.325107    8013.7409    6872.8519    5062.6371    6204.6507    574.33528    135.33141    2609.8894   -3577.0118 
14887000    250.14051   -4814.3918   -4314.0799   -4814.3918            0    7107.1792    17.919562    23.030226    19.326342    7975.8184    9234.5579    6073.6513    6013.3285    441.89986   -394.05536    850.84612    -3487.379 
14888000    257.98869   -4818.0854   -4302.0761   -4818.0854            0    8597.2173    17.891904    23.027193    19.288116    7946.7101    8683.5477    8415.4569    8692.6472   -449.56191   -471.13046    1053.1042    -3305.705 
14889000    256.22628   -4844.9314   -4332.4472   -4844.9314            0    7760.3226    17.939255    22.926904    19.299508    7937.7249    7984.4047    8158.3888    7138.1743    59.245094    980.45464    1372.4248   -3434.0845 
14890000     270.8717   -4819.6031   -4277.8263   -4819.6031            0     8729.398    17.863652    23.030558    19.255836    7922.0406    8030.8644    9789.9877    8367.3419   -522.81649    1087.2606   -1189.0433   -3269.2767 
14891000    257.83143   -4823.7915   -4308.0968   -4823.7915            0    5451.6099    17.907381    23.203008    19.226542    7988.7264    3827.7603    5334.4508    7192.6188   -535.48752   -300.71457     834.2651    -3672.944 
14892000    258.29634   -4814.9335   -4298.3089   -4814.9335            0    8023.9073    17.962439    22.984908    19.262058    7952.6292    6313.2286    9044.6556    8713.8376     190.8175    29.429516   -250.53591   -3367.6886 
14893000    259.10563   -4839.6441   -4321.4008   -4839.6441            0    7401.6434    18.009765    23.112025    19.265995    8019.3188    5687.1726    8439.5686    8078.1891    1179.6708    695.96543    604.01521   -3455.7524 
14894000    257.94554    -4818.511   -4302.5881    -4818.511            0    8144.8891    17.947772    22.850515    19.464551    7982.7204    8243.1734    8461.2128    7730.2811    1011.4337     1602.486   -989.83881   -3354.3618 
14895000    268.59607    -4840.473   -4303.2476    -4840.473            0    8219.2229    18.170066    22.963787    19.057372    7951.7558    8779.8551    7577.6851    8300.1286    31.666574   -3.3357011   -1844.3602   -3350.0791 
14896000    263.02845    -4842.428   -4316.3386    -4842.428            0     7363.804    17.749474     23.02229    19.545165    7986.8099    8675.6292    7223.4034    6192.3795    1218.1854   -108.73608    749.77685   -3458.6069 
14897000    259.57479   -4853.0976   -4333.9159   -4853.0976            0    7272.0299    18.106828    22.829838     19.22668     7947.847    5209.5596    8078.9558    8527.5743   -807.39663    387.03214   -2292.2132   -3491.0062 
14898000    265.57202   -4839.1236   -4307.9467   -4839.1236            0    8119.3443    18.095229    22.705759    19.356976    7953.1216    8659.8553    8040.4501    7657.7275    2012.8847   -519.27462    2695.3605   -3366.1992 
14899000    261.54106   -4810.1552   -4287.0407   -4810.1552            0    5206.1862    18.154901    22.746113    19.537975    8068.2735    4377.1071    5798.9616    5442.4899    726.45152    173.07629    -1436.864   -3674.4418 
14900000    267.62421   -4852.2918   -4317.0103   -4852.2918            0    7773.2203    18.085174    22.650075    19.364555     7932.313    8333.9292    7926.2158    7059.5158   -381.22074   -1042.3893    1170.4786    -3417.768 
14901000    270.86613   -4802.1634   -4260.3977   -4802.1634            0    7255.4433    18.122796    22.782908     19.39612     8008.464    7161.2098    7095.5323    7509.5876    68.140175    151.92984   -493.40188   -3412.9965 
14902000    261.74382   -4824.9509   -4301.4309   -4824.9509            0    8229.6251    18.026886    22.818779    19.409088    7983.9579     7960.384    8291.6899    8436.8014    600.13026    489.63423   -165.89761   -3343.1911 
14903000    272.44087   -4834.9346   -4290.0192   -4834.9346            0    9081.7943    17.993569    22.873236    19.289654     7939.065    9084.5864    9149.8019    9010.9947    83.575591   -498.88577   -780.38906   -3238.5007 
14904000     262.4913   -4832.8339   -4307.8189   -4832.8339            0    6587.2199    18.035716    23.046996     19.23702    7996.2341    4409.7929    7695.5361    7656.3306   -427.16728   -1025.6043     469.4922   -3539.6379 
14905000    247.99902   -4809.1137   -4313.0851   -4809.1137            0    7662.0367      17.9704    22.925843    19.370575    7980.4166    7549.3929    9027.1322    6409.5849    1405.1563    1737.0721   -415.80478   -3421.3298 
14906000    247.01505   -4829.5659   -4335.5053   -4829.5659            0    7153.9414     18.03948    22.856687    19.283379    7950.9756    5115.0677    8557.6828    7789.0737    142.07804     270.4416   -792.25888    -3505.957 
14907000    262.79583   -4833.1496   -4307.5254   -4833.1496            0    8317.0577    17.855399    23.021385    19.347813    7953.0349     9126.049    7851.2266    7973.8975    655.81864    315.52672    864.28534   -3342.8561 
14908000    252.51291   -4836.1546   -4331.0976   -4836.1546            0    9293.3482    17.970505    22.953491    19.229645    7931.9561    7687.2246     10424.34    9768.4802   -169.50751   -21.386239    296.22869   -3256.0482 
14909000    252.08762   -4829.2669   -4325.0605   -4829.2669            0    7938.3032    17.791425    23.091208    19.289868    7924.7697    7728.2612    7739.1905    8347.4581   -100.50188    442.41347    1010.6685    -3407.594 
14910000     262.8802   -4817.9631   -4292.1702   -4817.9631            0    7110.1181    18.066905    23.013328    19.225185    7993.4396    6439.6152    7496.2752     7394.464    562.85378    77.625355   -29.325109   -3463.3002 
14911000    255.98841   -4837.4449   -4325.4365   -4837.4449            0    8037.9045    17.825329    23.010659    19.401205    7957.8419    7801.9488    8137.4327    8174.3322     -1495.09    -632.1651   -150.58455   -3392.5817 
14912000    253.77149   -4812.4648   -4304.8905   -4812.4648            0    7426.3912    17.967214    23.034042    19.302101    7988.3206    7108.8184    6540.0947    8630.2606    884.06075   -169.85476   -555.90677   -3439.7051 
14913000    263.11337   -4828.6381   -4302.3789   -4828.6381            0    8492.1069    17.891789       22.993    19.264352    7925.0831    8442.2223    9436.9391    7597.1593    -1251.143   -75.080995   -471.14425   -3320.8679 
14914000    261.71504   -4834.4619   -4310.9995   -4834.4619            0    8703.5748    17.882656    23.157447    19.133859    7923.6493    8031.7808    7384.5019    10694.442    244.28781    311.47302    272.11416   -3305.2292 
14915000    260.66829   -4836.9608    -4315.592   -4836.9608            0    6674.1851    17.957075    23.068727    19.270165    7982.6056    7739.0357    6191.3249    6092.1947   -1163.1529   -763.49994   -1128.9849    -3538.596 
14916000    272.69131   -4799.7394   -4254.3231   -4799.7394            0    8491.5154    17.881214    23.181003    19.159036    7941.5061    7516.4249    9088.4079    8869.7132    317.16808    323.02033    2271.9097   -3270.8467 
14917000    254.89683   -4829.8356   -4320.0104   -4829.8356            0    6737.1716    17.778019    23.225037    19.342778    7986.5392    5832.1027    7406.3828    6973.0292   -2495.7878    383.36785    1014.5008   -3535.2951 
14918000    261.22398   -4801.1851   -4278.7048   -4801.1851            0    7578.7294    17.862919    23.226241    19.191997    7962.5385    5604.9198    8173.9871    8957.2812   -2077.6388    -273.3879    1589.9174   -3398.6214 
14919000    269.72751    -4804.755   -4265.2667    -4804.755            0    7246.1931    17.864348    23.370103     19.19661    8014.4244    7567.2543    6061.1998    8110.1253    -204.3171    71.869815    1850.5255    -3418.316 
14920000     257.7171    -4808.248    -4292.782    -4808.248            0     6667.929    17.829476    23.294993    19.184615      7968.09    9003.4373    5110.1695    5890.1803   -992.49071   -20.199563   -1006.5296   -3517.9258 
14921000    266.07072   -4816.2357   -4284.0614   -4816.2357            0    8667.0746    17.999725    23.027202    19.148722    7936.8257    8206.2186    7884.6239    9910.3813   -78.836276    1086.5516    783.46241   -3280.8435 
14922000    253.81913   -4822.0241   -4314.3545   -4822.0241            0    7661.9954    17.915527    23.012279    19.381999    7990.7545    8252.2052    7264.7001    7469.0809   -2699.7588    1010.3646   -380.16513   -3421.4489 
14923000    255.18434   -4841.6861   -4331.2859   -4841.6861            0    6933.9462    17.960607    23.038914     19.25562     7967.838    6889.9025    7054.2952    6857.6408    138.95524    -76.04469    2921.0404   -3525.5423 
14924000     265.3466   -4851.0111   -4320.2851   -4851.0111            0    6558.9174    17.891972    23.215071    19.267511    8003.0187    6197.6936    6039.1676    7439.8909   -1023.4157    558.29306    -1038.292   -3554.7557 
14925000    245.65529   -4800.2013   -4308.8604   -4800.2013            0    7206.7429    17.937918    22.998936    19.349362    7982.6377    5371.6879    8502.1997    7746.3412   -322.56613    1711.8464    1817.0723   -3469.8616 
14926000    263.42909   -4832.4845   -4305.5938   -4832.4845            0    8369.7758      17.8525    23.055029    19.295702    7941.9164    9046.5718    7890.3468    8172.4089    972.52817    1389.0497    2107.6191    -3336.167 
14927000    264.73258   -4807.1175   -4277.6196   -4807.1175            0    7691.6021    17.948221    23.082031    19.199254    7953.8938    5636.2277    8332.6941    9105.8845   -1078.9302    19.179029    1325.4393   -3385.3985 
14928000    263.99397   -4818.3851   -4290.3645   -4818.3851            0    7888.5638    18.018397    22.943073    19.294573    7976.3264    8386.0519    8345.2069    6934.4326   -108.10088   -271.46634    62.618548   -3372.7152 
14929000    257.21503   -4798.4496   -4283.9878   -4798.4496            0    7548.6852     18.04459    22.996457    19.334695    8023.1568    7352.1755    7806.6982    7487.1819   -764.11138    500.96998    610.01856   -3400.7198 
14930000    252.01293   -4796.9202   -4292.8633   -4796.9202            0     8740.939    17.986856    22.835777    19.330608    7939.9276    8607.7491    9932.4119    7682.6558   -37.860911    312.02436    1624.2686   -3280.7001 
14931000    258.59207   -4832.7114   -4315.4954   -4832.7114            0    7554.7696    18.045437    22.889286    19.295109    7969.7903    6409.3039    8439.6677     7815.337   -987.54076    2040.7593    109.49613   -3437.3953 
14932000    276.44327    -4836.573   -4283.6523    -4836.573            0      10265.4    18.000364    22.771225     19.25843    7893.8444    9369.5858    10948.924    10477.691   -28.962653    506.01713   -403.90572   -3101.8623 
14933000    256.95806   -4828.0758   -4314.1279   -4828.0758            0    8711.4221    17.970142    22.764516    19.373374    7925.2906    9280.6582    8998.6626    7854.9454   -422.70548    364.86063   -822.81181   -3307.2423 
14934000    253.71883   -4838.0184   -4330.5494   -4838.0184            0    6087.1794    18.144989    22.786053    19.317296     7986.788    5577.6796    6298.2785      6385.58    -2634.919    67.743416    84.196157   -3621.5202 
14935000    266.32355   -4804.4073   -4271.7273   -4804.4073            0      8748.03     18.03137    22.679966    19.422554    7942.8703    9509.6777    8750.8162    7983.5961    55.848389   -577.62457    1749.1975   -3258.3676 
14936000    267.71951   -4815.4498   -4279.9777   -4815.4498            0    7741.8758    18.104347    22.766316    19.346051    7973.8485    8199.1704    6999.7433    8026.7136   -1073.0979   -456.08715    704.07787   -3379.6719 
14937000    253.22788   -4834.0564   -4327.5694   -4834.0564            0     7597.567    18.016696    22.637723    19.583913    7987.4357    8607.0338    7434.4318    6751.2354   -231.12014    474.95729   -624.48281   -3442.5398 
14938000    262.29716   -4799.9277    -4275.301   -4799.9277            0    8889.1194    18.106823    22.696318    19.336162    7946.3544     9942.169    9155.8117    7569.3774    149.67187   -232.68972    432.09382   -3245.1461 
14939000    263.90673   -4856.7427   -4328.8966   -4856.7427            0    7308.8918    18.036565    22.631548    19.473113    7948.8346    9852.2046    7122.8282    4951.6427   -572.77199   -239.60222     1270.218    -3481.609 
14940000     281.1399   -4813.0818   -4250.7672   -4813.0818            0    7018.2745    18.016621    22.818357    19.401118    7975.9877    4420.3631    8406.4944     8227.966    2452.8733   -409.28996    -712.4814   -3434.3903 
14941000    268.42518   -4823.5017   -4286.6182   -4823.5017            0     9210.274    17.904713    22.823265    19.412106    7932.6408    11784.624    7879.7525    7966.4452    1039.2907   -1611.1532   -1822.6682   -3221.0869 
14942000    264.10581   -4812.8993    -4284.655   -4812.8993            0    8196.2301    17.914818    22.975329    19.334552    7958.0793    8561.6326    8588.0647    7438.9929    323.91077    484.81742    1207.2085   -3333.3971 
14943000    250.18849   -4808.0734   -4307.6655   -4808.0734            0    6844.1205    18.094003     22.96848    19.263238    8005.6425    5271.8751    8529.2491    6731.2374    860.16752     962.3816   -1560.8653   -3508.5865 
14944000    263.66061   -4827.5558    -4300.202   -4827.5558            0    6559.9537    17.857341    23.183179     19.25987    7973.3925     6953.459    6035.9425    6690.4596    864.38553    145.91575   -910.31402    -3537.386 
14945000    251.20587   -4797.2632   -4294.8205   -4797.2632            0    9762.2527    17.921693    23.026355    19.236476    7938.3409    9730.3974    9148.3711     10407.99    975.74445   -348.02313   -411.64429   -3164.6195 
14946000    268.46236   -4850.4156   -4313.4577   -4850.4156            0    6055.7992    17.799487    23.307339    19.267454    7993.2708    6343.5827      5414.05    6409.7648    1701.6146   -462.44853    1172.4437   -3607.5111 
14947000    254.17639   -4817.3244   -4308.9403   -4817.3244            0    6765.7147    17.859379    23.273061    19.209698    7984.3654    7315.7194    6603.0252    6378.3994   -151.78713   -755.16721   -22.465549   -3521.1149 
14948000    253.45888   -4802.2173   -4295.2682   -4802.2173            0    7743.4941    17.769581    23.163434    19.332863    7957.4939    10430.323    6524.4377    6275.7218   -7.7389003    71.889656   -466.60875   -3396.6211 
14949000    258.68863   -4797.3624   -4279.9532   -4797.3624            0     5553.005    17.861535    23.289215    19.335455    8043.1843    6825.2402    4945.3694    4888.4053    1394.8181   -472.44907   -1666.8582   -3628.5769 
14950000    259.42911   -4829.8226   -4310.9323   -4829.8226            0     7888.739    17.819408     23.08696    19.343027    7957.6432    9285.5729    6798.8217    7581.8224   -307.53672   -972.79117   -537.96559   -3395.4121 
14951000    261.84154   -4825.1547   -4301.4393   -4825.1547            0    6961.1409    18.050712     22.95008     19.28018    7987.1091    6606.9379    6451.7235    7824.7613   -210.69379   -648.03303    379.61886   -3490.5792 
14952000     259.3579    -4820.747   -4301.9992    -4820.747            0    6420.7717    18.061669    22.750969    19.439418    7988.0546    6599.2023    7301.7923    5361.3204    274.05411   -553.10081   -454.45103   -3553.9948 
14953000    253.93968   -4836.5463   -4328.6355   -4836.5463            0    8910.1574    18.062173    22.514097    19.561625    7954.8034    8424.0551    9203.5707    9102.8465    1638.4788   -1166.6109    851.86786   -3294.9446 
14954000    245.73777   -4832.4994   -4340.9935   -4832.4994            0    6802.5492     18.13234    22.715231    19.386046    7984.7304    6463.4613    7078.1061    6866.0801    152.31538    1278.8909   -258.51439   -3548.8427 
14955000    264.50411   -4863.7008   -4334.6599   -4863.7008            0    7480.7209    17.965347    22.983879     19.27438     7958.649    9527.5057    6816.8137    6097.8435   -333.80043   -58.323961    627.15985   -3466.3822 
14956000    260.77219   -4842.0416    -4320.465   -4842.0416            0    6435.3731    18.050633    22.727387    19.501422    8000.3355    6277.5309    6488.4979    6540.0906   -326.95817   -1419.0599    624.96887    -3569.607 
14957000    253.56498   -4806.8729   -4299.7116   -4806.8729            0    7067.9901    18.073703    22.766808    19.445874    8001.5986    5729.7055    7828.4278    7645.8371    777.01161   -255.29451    2208.0237   -3474.9117 
14958000    273.85459   -4828.9259   -4281.1829   -4828.9259            0    7963.2003    17.974689    22.855429    19.388168    7965.0322    8789.0333    8301.1691    6799.3985    138.97706   -408.72297   -256.40716    -3356.163 
14959000    270.26406   -4852.9969   -4312.4354   -4852.9969            0    5015.7246    18.064575    22.936596    19.397671    8037.2284     4595.228    4745.0555    5706.8903   -1688.0413    500.74732     1310.112   -3724.5186 
14960000    262.91504   -4812.8351   -4286.9725   -4812.8351            0    6621.2382    18.105708    22.665008    19.398349     7960.423    5818.7481    7172.4774    6872.4891   -1190.2912    576.73245    1055.5262   -3518.2825 
14961000    267.06921   -4807.5903   -4273.4189   -4807.5903            0    9770.7678    17.974999    22.622065    19.442036    7905.7465    8715.0805    10594.167    10003.056   -570.65673   -654.16851   -485.75057   -3146.8767 
14962000     262.7468   -4820.1494   -4294.6234   -4820.1494            0    7240.0519    18.091787    22.690614    19.425491     7974.431    7659.8771    7194.0715    6866.2069   -1496.3099   -190.46034    663.80038   -3452.6133 
14963000    259.57987    -4824.565   -4305.3732    -4824.565            0     7578.304    18.072356    22.644727    19.481014    7972.4798    8396.1696     8244.279    6094.4634   -1845.4232    914.22769    836.82863   -3424.2405 
14964000    258.00394   -4829.0273   -4312.9875   -4829.0273            0    7617.8556    18.169482    22.781061     19.33733    8004.1092    5946.9318    8184.5248    8722.1102   -1314.1996   -170.66298    94.677495   -3423.7421 
14965000    248.93918    -4835.396   -4337.4869    -4835.396            0    8902.2016    17.920298    22.630322        19.54    7924.2927     8496.614    10390.584    7819.4063   -834.61547   -377.44669   -58.711721   -3308.6801 
14966000    258.30235   -4823.6067   -4306.9701   -4823.6067            0    7843.2176    18.155197    22.832621    19.152904    7939.4675    7243.8063    7712.1274    8573.7191    -809.3949   -1273.6361    9.5595342   -3398.8119 
14967000    252.13951   -4837.2238   -4332.9136   -4837.2238            0    8156.2514    17.848054    22.785696    19.512328    7935.2801    9333.0332    8765.7882    6369.9327    305.98765    47.969207    1324.2281   -3389.0076 
14968000    259.10117   -4800.7719   -4282.5375   -4800.7719            0    8020.4223    18.151508    22.910953    19.241535    8001.9457    6076.6321    8075.6409    9908.9938   -898.60158    703.12241   -792.63294   -3346.5529 
14969000    264.04503   -4835.1441   -4307.0214   -4835.1441            0    7030.5957    17.898119    22.918636      19.4389    7973.8458    9130.2092    6815.7486    5145.8293    617.61067    558.42858   -285.58435   -3489.4309 
14970000    254.41178   -4850.5737   -4341.7187   -4850.5737            0    7688.0333    18.092893    22.917731    19.178016    7952.1273    6010.4764    7589.6189    9464.0045    139.57507   -622.87795    94.457123   -3450.1096 
14971000    261.68502   -4840.0633   -4316.6609   -4840.0633            0    6982.0046    18.089016    22.878041    19.313793    7992.8441    6301.9673    7865.5061    6778.5403   -142.90651     666.4935    725.31515   -3502.7866 
14972000    236.92087   -4822.7491   -4348.8781   -4822.7491            0    7388.4904    17.907672    22.897278    19.427965    7966.1832     8120.931    7722.4166    6322.1236    -524.6397   -1674.5343    125.63183   -3490.4935 
14973000    256.35207   -4837.4317   -4324.6959   -4837.4317            0    7891.4988    18.025832    22.887571    19.198041    7920.4879     6331.658    8910.9413    8431.8971    194.92122    77.076761   -463.08179   -3413.1315 
14974000    269.53283   -4844.3203   -4305.2213   -4844.3203            0    6920.2207    17.979781    23.124806     19.30616    8027.0949    6088.4282    7039.2768    7632.9571    61.070817   -892.63584    1188.0664   -3495.0922 
14975000    258.44638    -4848.342   -4331.4173    -4848.342            0    8022.1816    17.916036    22.994868    19.311296    7955.8074    9148.2677    7967.9796    6950.2973    1507.3222    595.76908    1720.3035   -3400.6253 
14976000    257.28846   -4824.9582   -4310.3495   -4824.9582            0    6709.8659    18.243226    22.945226     19.13442    8009.5712    4718.0907    6768.9371    8642.5699   -112.76446   -35.905905   -372.33182   -3526.5608 
14977000    268.97437   -4775.5336   -4237.5517   -4775.5336            0     9009.827    17.855816    23.028407    19.320711    7944.5024    7655.8732    10209.028    9164.5801   -825.46313   -225.15326    603.80313   -3193.6513 
14978000    270.26002   -4817.1086   -4276.5552   -4817.1086            0    7288.3931     18.00373    23.006395    19.266899    7980.3672    6563.1251    8400.8348    6901.2195     651.4376   -500.29379   -405.43953   -3428.2921 
14979000    264.38662   -4817.8138   -4289.0079   -4817.8138            0    7133.3767    17.737554     23.08572    19.614719    8031.9173     8076.688    6344.2448    6979.1973    1806.5939   -1594.2893    38.427602   -3453.4236 
14980000    263.62871   -4787.7311   -4260.4411   -4787.7311            0    6729.2333    18.087985    23.099145    19.200975    8022.4937    7840.4725    5612.8397    6734.3875    1406.3587   -883.75534    318.90025   -3473.1219 
14981000    260.58391   -4792.4492   -4271.2492   -4792.4492            0    8530.3799    17.824162    23.016333    19.414908    7964.9049    6398.3391    8856.9928    10335.808   -350.82544   -202.35173   -1859.0003   -3280.3606 
14982000    255.54786   -4808.6433    -4297.516   -4808.6433            0    9075.4008    18.006882      22.8919    19.286996    7950.3259     9334.721    8911.9912    8979.4902    271.96642   -835.82867    1209.3547   -3245.2473 
14983000     252.5771   -4810.3363   -4305.1509   -4810.3363            0    8828.0142    17.875675    22.804833    19.437371    7923.6788    9847.1766    9099.2968    7537.5693    769.36075   -75.861949    972.67804   -3284.9968 
14984000    271.24602   -4815.8023   -4273.2767   -4815.8023            0     6679.772    18.002824    22.977634    19.325894    7994.3935     6888.166    5811.1992    7339.9507    307.23906    716.64289   -1088.6801   -3494.4819 
14985000    259.17236   -4847.9268     -4329.55   -4847.9268            0     7314.058    18.103709    22.862862    19.294557    7986.0674    5875.7025    7921.6586    8144.8128    154.79873    176.85181   -842.45108   -3477.6919 
14986000    259.11029   -4825.8521   -4307.5995   -4825.8521            0    8043.1481    17.765088    23.115011     19.33148    7938.2828    10050.128    7966.1675    6113.1484   -210.28523    227.53976    1733.8258   -3376.4305 
14987000    253.79919   -4816.2941   -4308.6644   -4816.2941            0    8189.6079    17.910545    23.085946     19.24488    7957.4089    8287.0927    7654.9506    8626.7803    334.42023   -30.009327    1595.9702   -3358.2551 
14988000    256.94555   -4791.7115   -4277.7887   -4791.7115            0    7198.3748    17.805508    23.157238     19.32249    7967.1725    9151.9765    5734.4487    6708.6992    1101.1884   -1338.2996   -579.44621   -3441.3876 
14989000    263.32786   -4824.1754   -4297.4872   -4824.1754            0     8357.721    17.978753     22.94956    19.221192    7930.7496     7661.264    8846.3172    8565.5818   -644.69487    181.20757     726.0507   -3330.8177 
14990000    258.88475   -4809.4254   -4291.6239   -4809.4254            0    6814.2885    17.951811    22.916305    19.407752    7984.1388    7290.9449    6212.9596    6938.9609   -76.943611   -575.91859    -913.1456   -3498.1649 
14991000    253.17605   -4827.6311   -4321.2478   -4827.6311            0    9157.2998    18.016664    22.875961    19.207059    7916.1606    8969.3934    9050.2534    9452.2526    -784.0921    120.55775   -992.28132   -3264.0459 
14992000    250.85424   -4816.2203   -4314.4808   -4816.2203            0    6115.5141    17.919208    22.860871    19.585052     8022.991    6476.6043    6863.9208    5006.0171    1197.4066    325.73654    1295.1282   -3598.9222 
14993000    269.03353    -4810.586   -4272.4857    -4810.586            0    5580.7424    18.165456    23.051696    19.255708     8063.223    3022.5643    5606.6588    8113.0039    274.09495    528.73232   -1674.8707   -3616.2248 
14994000    262.54752   -4800.6154   -4275.4879   -4800.6154            0    8786.8763    17.796699    23.042374    19.398333    7954.8333    8599.9709    9524.1683    8236.4896     484.0784    752.20862   -74.334088   -3256.0953 
14995000    271.16538   -4806.4613   -4264.0971   -4806.4613            0     7473.243    17.997941    23.113366    19.206013    7989.5668    8133.6919     6117.182     8168.855    1027.8504   -1451.5681    974.56593   -3393.3175 
14996000    258.67302   -4820.4993   -4303.1213   -4820.4993            0    8066.1072     17.88417    23.037442    19.266908    7938.0727    8568.4206    7490.4813    8139.4197   -1174.8714    780.35453    84.584964    -3369.319 
14997000    262.43593   -4830.9103    -4306.006   -4830.9103            0    8481.7932    18.041272    22.919457    19.200356    7939.2731    8350.9792    8097.9267    8996.4737   -238.61527    395.92346   -42.751825   -3323.9318 
14998000    271.67137   -4821.8127   -4278.4364   -4821.8127            0    6767.5151    17.920381    23.121513    19.273088    7985.7332    8041.9285    5716.3694    6544.2473    2490.4906    368.37335    2819.3352   -3490.2664 
14999000    259.41837   -4831.1592   -4312.2904   -4831.1592            0    7721.8766    17.785961    23.166128     19.29778       7951.3    8779.3427    7181.4699    7204.8173   -380.57147   -99.575495   -2244.6151   -3416.8496 
15000000    272.99353   -4808.3229   -4262.3021   -4808.3229            0    8418.4454    17.967437    23.261492     18.98876    7936.3407    9372.2223    6332.2673    9550.8465   -774.12059   -740.79579     -150.916   -3287.9227 
Loop time of 486.583 on 64 procs for 250000 steps with 1008 atoms

Performance: 88.782 ns/day, 0.270 hours/ns, 513.787 timesteps/s
99.1% CPU use with 64 MPI tasks x 1 OpenMP threads

MPI task timing breakdown:
Section |  min time  |  avg time  |  max time  |%varavg| %total
---------------------------------------------------------------
Pair    | 28.19      | 32.315     | 36.162     |  31.8 |  6.64
Bond    | 0.27343    | 0.28151    | 0.29992    |   0.9 |  0.06
Kspace  | 215.23     | 226.16     | 238.02     |  30.8 | 46.48
Neigh   | 4.2849     | 5.106      | 5.9468     |  16.8 |  1.05
Comm    | 92.497     | 105.19     | 116.86     |  46.8 | 21.62
Output  | 1.071      | 1.072      | 1.0736     |   0.1 |  0.22
Modify  | 106.21     | 109.45     | 114.31     |  22.8 | 22.49
Other   |            | 7.014      |            |       |  1.44

Nlocal:        15.7500 ave          20 max          13 min
Histogram: 11 9 9 0 12 10 0 7 4 2
Nghost:        2473.20 ave        2498 max        2456 min
Histogram: 3 5 12 15 6 11 9 0 2 1
Neighs:        5260.38 ave        6708 max        4301 min
Histogram: 11 9 6 5 10 10 2 5 4 2

Total # of neighbors = 336664
Ave neighs/atom = 333.99206
Ave special neighs/atom = 2.0000000
Neighbor list builds = 9676
Dangerous builds = 0

unfix		3
unfix		2
unfix		1

write_data	data.final.${pid}
write_data	data.final.0
System init for write_data ...
PPPM initialization ...
  extracting TIP4P info from pair style
  using 12-bit tables for long-range coulomb (../kspace.cpp:340)
  G vector (1/distance) = 0.38325747
  grid = 24 30 32
  stencil order = 5
  estimated absolute RMS force accuracy = 0.0019651878
  estimated relative force accuracy = 5.9181046e-06
  using double precision FFTW3
  3d grid and FFT values/proc = 3825 384
Last active /omp style is kspace_style pppm/tip4p/omp
WARNING: Not all mixed pair coeffs generated from mixing. Use write_data with 'pair ij' option to store all pair coeffs. (../write_data.cpp:312)

write_restart   restart.lmp.${pid}
write_restart   restart.lmp.0
System init for write_restart ...
PPPM initialization ...
  extracting TIP4P info from pair style
  using 12-bit tables for long-range coulomb (../kspace.cpp:340)
  G vector (1/distance) = 0.38325747
  grid = 24 30 32
  stencil order = 5
  estimated absolute RMS force accuracy = 0.0019651878
  estimated relative force accuracy = 5.9181046e-06
  using double precision FFTW3
  3d grid and FFT values/proc = 3825 384
Last active /omp style is kspace_style pppm/tip4p/omp
Total wall time: 0:08:09
