LAMMPS data file via write_data, version 30 Jul 2021, timestep = 23750000

1296 atoms
2 atom types
864 bonds
1 bond types
432 angles
1 angle types

-10.56014265843487 12.54014265843487 xlo xhi
-9.072043460191876 12.062041460191876 ylo yhi
0.15032875492004294 21.709670245078716 zlo zhi
-9.110904511113334 1.812630509982703 2.623568077603746 xy xz yz

Masses

1 1.008
2 15.999

Pair Coeffs # lj/cut/tip4p/long/omp

1 0 0
2 0.21084 3.1668

Bond Coeffs # harmonic/omp

1 450 0.9572

Angle Coeffs # harmonic/omp

1 55 104.52

Atoms # full

313 105 2 -1.1794 -8.90440740949937 -6.35124736530886 5.423769939050533 1 1 0
298 100 2 -1.1794 -5.929203403600118 -7.245156056755286 4.108367769235264 1 1 0
280 94 2 -1.1794 -9.560722849712896 -4.532389542901702 1.5060310179226397 1 1 0
299 100 1 0.5897 -6.4718309686280175 -8.033732571148622 4.1094893991765575 1 1 0
270 90 1 0.5897 -8.57208087968471 -7.389069024711807 2.189418589659622 1 1 0
163 55 2 -1.1794 -7.417702460217445 -8.022703023055566 0.9862414259099018 1 1 0
164 55 1 0.5897 -6.653937737318266 -8.387362467576134 1.433162286043698 1 1 0
269 90 1 0.5897 -9.377618944889043 -6.113495838594099 2.3139049380120698 1 1 0
268 90 2 -1.1794 -9.28497090948438 -6.989634048217891 2.687857515339073 1 1 0
282 94 1 0.5897 -10.448503899583375 -4.183389051978828 1.5846905682491834 1 1 0
324 108 1 0.5897 -7.003187291066283 -4.421492680875757 3.66152230597645 1 1 0
73 25 2 -1.1794 -8.350501563700885 -3.681251900367542 4.628259548162897 1 0 0
314 105 1 0.5897 -8.88890614088697 -6.562395360409684 4.4902891171364665 1 1 0
322 108 2 -1.1794 -6.3049772933721195 -4.814367067979377 3.137725508275158 1 1 0
323 108 1 0.5897 -6.190914012283957 -5.689602139281022 3.5078529001583174 1 1 0
259 87 2 -1.1794 -6.59983586782531 -5.3440252659493535 0.3811244082808821 1 1 0
315 105 1 0.5897 -8.934682818162091 -5.395024048353077 5.453146483558589 1 1 0
261 87 1 0.5897 -6.487195492451269 -5.151108276603203 1.3118742507960273 1 1 0
260 87 1 0.5897 -6.754577636831288 -6.288056086295969 0.348611325885191 1 1 0
300 100 1 0.5897 -5.043858857342332 -7.563187505652666 3.9317716787169745 1 1 0
281 94 1 0.5897 -8.995176336435659 -3.7610716782193414 1.5452486772987628 1 1 0
74 25 1 0.5897 -8.106990759083612 -3.1525940985654675 5.388190008103578 1 0 0
165 55 1 0.5897 -7.642721850022988 -8.67593243489062 0.32371313385505274 1 1 0
429 143 1 0.5897 -6.439987490758493 -7.496567653793964 8.456962507163695 1 0 0
428 143 1 0.5897 -6.649819114570384 -7.172673323597916 9.920830121492978 1 0 0
427 143 2 -1.1794 -5.964678457611995 -7.315782977582069 9.267878091138424 1 0 0
419 140 1 0.5897 -9.107446463897528 -5.401501137178374 8.60918508646881 1 0 0
418 140 2 -1.1794 -9.834949091339482 -5.850874423538141 9.039410167703174 1 0 0
413 138 1 0.5897 -7.699067414497749 -3.631338901803903 7.83164375381516 1 0 0
616 206 2 -1.1794 -7.381588781213008 -8.112855092060048 7.055277308978346 1 1 0
420 140 1 0.5897 -9.42641239969775 -6.339121088064566 9.754052263989392 1 0 0
618 206 1 0.5897 -7.887683231758457 -7.528866307347046 6.490647776898955 1 1 0
350 117 1 0.5897 -7.329255189299235 -4.066594036831631 9.811166979700015 0 0 0
414 138 1 0.5897 -6.915504017348659 -4.90053939362355 7.573371613864068 1 0 0
412 138 2 -1.1794 -7.626101022626759 -4.545040172643015 8.107121608365048 1 0 0
627 209 1 0.5897 -10.483873863008842 -6.965245705757736 6.382235655147313 1 1 0
351 117 1 0.5897 -7.068677648240412 -2.9231533847565565 10.768586033381737 0 0 0
349 117 2 -1.1794 -7.330484920135282 -3.84346709250189 10.741983209022 0 0 0
727 243 2 -1.1794 -8.151304589444266 -7.124534033625308 10.867064593593234 1 0 0
633 211 1 0.5897 -5.792136091221229 -6.2702259096421145 5.924970303127998 1 1 0
335 112 1 0.5897 -4.998833431964085 -5.7076902541477015 9.235077040050218 0 0 0
684 228 1 0.5897 -8.617487191209353 -6.43239060389904 14.227808317542834 0 0 0
740 247 1 0.5897 -10.886204042279576 -3.321195091871731 12.102591150363095 1 0 0
652 218 2 -1.1794 -5.881738361775999 -5.27868330014651 12.538954645261427 0 0 0
682 228 2 -1.1794 -7.9267286826824135 -6.7839824005918095 13.666163289415621 0 0 0
780 260 1 0.5897 -7.227320049287117 -4.156320687820689 15.229919887371981 0 0 0
779 260 1 0.5897 -7.055749664674437 -3.193591500487706 14.07439251225251 0 0 0
778 260 2 -1.1794 -7.722278303298358 -3.663430938980617 14.575652894517518 0 0 0
768 256 1 0.5897 -9.232060133747709 -2.7372795728342334 14.910321953036446 0 0 0
654 218 1 0.5897 -6.402202442451633 -4.762917594566202 11.923249501447195 0 0 0
653 218 1 0.5897 -6.526207549824859 -5.789848082661209 13.028477853824896 0 0 0
661 221 2 -1.1794 -9.518926813565566 -4.511807961796021 12.35953984472294 0 0 0
788 263 1 0.5897 -4.95630525922059 -4.611285679202102 15.24399994420202 0 0 0
662 221 1 0.5897 -9.042914581125128 -4.26193338708832 13.151496955221754 0 0 0
663 221 1 0.5897 -8.909026919104052 -4.328137140929127 11.645023530724442 0 0 0
729 243 1 0.5897 -8.02166597074996 -6.776032679118805 11.749093958170185 1 0 0
766 256 2 -1.1794 -10.086143026495705 -2.308005518299349 14.959024594828737 0 0 0
767 256 1 0.5897 -10.714120216607483 -3.028362503323139 15.014166470091912 0 0 0
1097 366 1 0.5897 -8.753880508773461 -5.692634234880476 18.573291053156677 0 0 0
1130 377 1 0.5897 -7.084299565805894 -1.5569843362941418 18.688108110442794 0 0 0
1129 377 2 -1.1794 -7.560829121095077 -1.7280822520152164 17.875803880485602 0 0 0
1121 374 1 0.5897 -4.767927271037546 -3.4199575492162584 18.50551986010252 0 0 0
1152 384 1 0.5897 -6.803430987377661 -4.13238289792646 19.634174112925766 0 0 0
1225 409 2 -1.1794 -8.003335697358162 -3.5947629610402547 20.844928555044124 0 0 0
1227 409 1 0.5897 -8.815643442245511 -3.242304881865122 20.481630684306918 0 0 0
1109 370 1 0.5897 -8.542128385232054 -3.4356885560895254 17.78411591062692 0 0 0
1108 370 2 -1.1794 -9.101933498411807 -4.201957667391038 17.65854429220276 0 0 0
1089 363 1 0.5897 -6.1081480496096745 -4.822628704080518 17.246642959053364 0 0 0
1219 407 2 -1.1794 -10.19196995941236 -2.064793922036513 20.213126656558835 0 0 0
1248 416 1 0.5897 -5.856827519350954 -1.5511174638869942 20.708247259692484 0 0 0
1141 381 2 -1.1794 -8.53524658735136 -6.046154761709987 21.702495280758786 0 0 0
1151 384 1 0.5897 -6.006784374454958 -5.39961366893216 19.408435467573625 0 0 0
1150 384 2 -1.1794 -6.080394976424672 -4.490275450044601 19.11907590583225 0 0 0
1096 366 2 -1.1794 -8.779323650068296 -6.5918982070051335 18.900033839051396 0 0 0
1142 381 1 0.5897 -8.480359506557242 -6.509156976292571 20.86651594103858 0 0 0
1143 381 1 0.5897 -8.269135601048362 -5.149677797016957 21.49829818130522 0 0 0
1088 363 1 0.5897 -6.588732852156855 -5.975017221689901 16.390428609326754 0 0 0
1087 363 2 -1.1794 -6.231786943303984 -5.088555803167329 16.335482274394995 0 0 0
1110 370 1 0.5897 -9.983898485622857 -3.8909344094431777 17.86245827266458 0 0 0
1221 407 1 0.5897 -10.635596158465233 -2.3367535247825195 19.409723986864552 0 0 0
1226 409 1 0.5897 -7.745627217490839 -2.9617960018691907 21.51517014680436 0 0 0
758 253 1 0.5897 -9.577682713499838 -5.437361550303043 16.344830726600186 0 0 0
99 33 1 0.5897 -11.488688092074002 1.5387114745757078 5.33127367849696 1 0 0
69 23 1 0.5897 -10.928813016080266 -2.3936465158486406 3.1984973964994636 1 0 0
272 91 1 0.5897 -9.324008151207575 -1.0313074535048372 1.2491127231853643 1 1 0
271 91 2 -1.1794 -10.116158714759086 -0.5466704347305846 1.017421212544981 1 1 0
82 28 2 -1.1794 -8.858354398638722 -0.12389721996640723 4.346847226254742 1 0 0
107 36 1 0.5897 -9.181624341827849 1.5288290798757966 3.589902785351119 1 0 0
258 86 1 0.5897 -12.455360678404613 -2.6510338201639243 1.4526219530241833 1 1 0
83 28 1 0.5897 -9.405553974563857 -0.8880256663898649 4.165177240795372 1 0 0
67 23 2 -1.1794 -10.510747699137745 -2.2238048799239873 4.042629074489421 1 0 0
301 101 2 -1.1794 -7.719748984766044 -2.3280074248752873 1.795253431365004 1 1 0
68 23 1 0.5897 -11.176055929198412 -2.455227543534166 4.6907513437841155 1 0 0
52 18 2 -1.1794 -12.080625329270342 0.14189051038006717 2.778391257656476 1 0 0
98 33 1 0.5897 -11.670189156670771 0.28489742568461907 4.502423271974377 1 0 0
53 18 1 0.5897 -12.205939208289402 0.9837489309244898 2.3406692187736433 1 0 0
54 18 1 0.5897 -11.357959151616075 -0.26967706769505817 2.3045068268948796 1 0 0
59 20 1 0.5897 -13.33708346872392 -0.7645420143172874 3.4016663051150817 1 0 0
97 33 2 -1.1794 -11.60912202435985 0.5921697050562162 5.40690150095258 1 0 0
256 86 2 -1.1794 -12.022485154085029 -3.3113796250468344 1.9934828509647573 1 1 0
273 91 1 0.5897 -10.46385067377969 -1.0063930346652654 0.2532003530868183 1 1 0
44 15 1 0.5897 -9.994542571424255 1.2224107112420448 0.5529719450375133 1 0 0
84 28 1 0.5897 -7.961073521385227 -0.4425257562964475 4.249311884661028 1 0 0
75 25 1 0.5897 -9.08460275254079 -3.210602811728201 4.233796245243893 1 0 0
1251 417 1 0.5897 -13.162212264714032 -0.8771748547077127 0.19508304580632246 0 0 1
527 176 1 0.5897 -11.747402403706179 1.5747430373142794 8.707628698140901 1 0 0
526 176 2 -1.1794 -12.464483328052118 1.1013665671017474 9.129534091699865 1 0 0
426 142 1 0.5897 -8.6334714958008 -1.627057451924908 7.049320982637955 1 0 0
411 137 1 0.5897 -13.345700772540809 0.17225229263924113 6.1475749497461045 1 0 0
424 142 2 -1.1794 -7.814207875137903 -2.1144331096896334 6.963475212655411 1 0 0
402 134 1 0.5897 -10.566556132668731 -0.3850335674228589 6.644009687466587 1 0 0
401 134 1 0.5897 -11.075544021319162 -1.28008961278001 7.753745471069177 1 0 0
400 134 2 -1.1794 -10.27030904326277 -0.9280896061250186 7.374295859450207 1 0 0
537 179 1 0.5897 -9.327149075977179 -0.14451635911971117 8.63395484712998 1 0 0
536 179 1 0.5897 -9.499193525482212 -0.11147281033075096 10.137643377334195 1 0 0
535 179 2 -1.1794 -8.850230648974065 0.022499078260979744 9.446879930470539 1 0 0
528 176 1 0.5897 -12.047984299444499 0.6257034007536575 9.848049172388041 1 0 0
435 145 1 0.5897 -7.342009255995423 -0.9376958879286796 9.693733995394053 0 0 0
522 174 1 0.5897 -9.80358982854361 2.107334386530148 7.413685695043192 1 0 0
417 139 1 0.5897 -8.68903634994565 0.9514439603782137 5.802263637065123 1 0 0
520 174 2 -1.1794 -10.460444029243034 2.4253348585964787 8.0330666797892 1 0 0
410 137 1 0.5897 -13.505833887560694 0.26801311279835893 7.649895872954878 1 0 0
790 264 2 -1.1794 -10.732720713348414 0.15129622202058002 13.888852936564925 0 0 0
771 257 1 0.5897 -11.445276454284466 2.782008305618575 11.779931367616753 0 0 0
762 254 1 0.5897 -9.12609836327064 2.151860847224441 12.322458840989851 0 0 0
761 254 1 0.5897 -9.332999050335665 1.2464206796776391 13.517831717207391 0 0 0
760 254 2 -1.1794 -8.650938805503063 1.6875210033630381 13.011374964284448 0 0 0
896 299 1 0.5897 -7.672074542548943 2.2943378176209883 15.700771323887007 0 0 0
792 264 1 0.5897 -11.32262173028362 0.6458419918700411 14.457725209310926 0 0 0
836 279 1 0.5897 -11.47158999591997 -1.228786459356133 11.33103617403467 1 0 0
837 279 1 0.5897 -11.130420786313257 0.026874153021404723 12.104950697238285 1 0 0
791 264 1 0.5897 -10.616386305862246 -0.6874214375166439 14.334985744107023 0 0 0
888 296 1 0.5897 -10.3548567042539 2.901286105165118 15.37254491583668 0 0 0
769 257 2 -1.1794 -12.157853068645741 2.5763273334656525 12.385066991747028 0 0 0
770 257 1 0.5897 -11.79118428624633 2.7436726221633307 13.253245860751838 0 0 0
865 289 2 -1.1794 -12.69544013429358 1.0358765445806917 15.594728572977958 0 0 0
835 279 2 -1.1794 -11.231211556515042 -0.3096334200590416 11.214538711735184 1 0 0
866 289 1 0.5897 -12.356257034883171 1.6033153996257319 16.28701229740287 0 0 0
1009 337 2 -1.1794 -10.993427652673065 3.592124880407976 20.886070689206107 0 -1 0
1260 420 1 0.5897 -9.717056560244316 2.922152250311619 19.802182486236315 0 0 0
1205 402 1 0.5897 -12.103130699468727 1.0743565668193167 18.47375328833753 0 0 0
1259 420 1 0.5897 -8.876617457379815 1.6826187182459496 19.58140808455824 0 0 0
1258 420 2 -1.1794 -9.104857258330952 2.522892676132079 19.184101822603022 0 0 0
1195 399 2 -1.1794 -9.58042526074969 1.7528100301069145 16.473894996047626 0 0 0
1250 417 1 0.5897 -11.638138974709026 0.6314726448191674 20.7717194193774 0 0 0
1249 417 2 -1.1794 -11.562259942812315 0.8142702440296343 21.708215596898462 0 0 0
1236 412 1 0.5897 -7.841861759857201 -0.1315559767965162 20.450479489506602 0 0 0
1216 406 2 -1.1794 -12.377919074288268 2.670590229551559 17.7337540953685 0 0 0
1235 412 1 0.5897 -9.324437171160229 -0.4381465632596626 20.450803768045958 0 0 0
1234 412 2 -1.1794 -8.701698142157433 0.288783824813585 20.46024769526548 0 0 0
1099 367 2 -1.1794 -10.097403821649694 -0.8686174591319133 17.272231423674473 0 0 0
1100 367 1 0.5897 -9.223945333178897 -1.05033444512366 17.618897337933873 0 0 0
1206 402 1 0.5897 -11.25358907835752 -0.17649412106503704 18.402289866084228 0 0 0
1131 377 1 0.5897 -6.971368206350141 -1.427691865198959 17.184034732664117 0 0 0
1197 399 1 0.5897 -9.428356083783324 2.150600249535108 17.331142079530277 0 0 0
1218 406 1 0.5897 -13.238566962733135 3.0883896755736995 17.762817562038457 0 0 0
1246 416 2 -1.1794 -6.306780996853716 -0.9273156374224971 20.138694822322663 0 0 0
1217 406 1 0.5897 -11.762286772600143 3.3960311762410136 17.628689235632777 0 0 0
1204 402 2 -1.1794 -11.878149276046997 0.2833131834655873 18.963276411566465 0 0 0
1101 367 1 0.5897 -10.164434873099157 -1.4173458766613862 16.490779762542594 0 0 0
1196 399 1 0.5897 -9.831846864725378 0.8501535336146961 16.669296330816664 0 0 0
1011 337 1 0.5897 -11.858749005530932 3.8367899238207865 20.558242209183412 0 -1 0
1229 410 1 0.5897 -7.731055825628142 3.4121520499887747 18.596402851069424 0 0 0
40 14 2 -1.1794 -15.137699012680574 3.7156141055675764 1.749052299094848 1 0 0
177 59 1 0.5897 -14.158228738554769 4.1582785639917486 3.171915204756148 1 0 0
42 14 1 0.5897 -15.507365911968648 4.351081179447915 1.1362656903279102 1 0 0
192 64 1 0.5897 -11.104987742819867 6.299421849240844 3.851964738202368 1 0 0
175 59 2 -1.1794 -13.719456925332523 4.536844342818725 3.933764440350521 1 0 0
55 19 2 -1.1794 -13.271928874856396 6.299943931825172 0.7707205049632517 1 0 0
56 19 1 0.5897 -12.47940011591509 5.9166192354139024 1.1462470688072484 1 0 0
66 22 1 0.5897 -13.67021036432471 2.8395280617007668 1.546351231497454 1 0 0
65 22 1 0.5897 -12.21874397281681 3.2500036263493435 1.4167446209470445 1 0 0
64 22 2 -1.1794 -12.780355022833369 2.48711159408286 1.5541402797805721 1 0 0
162 54 1 0.5897 -14.393439499466925 6.685752399511928 2.090697534029231 1 0 0
190 64 2 -1.1794 -11.915490853938277 6.685876719207846 4.183488830683966 1 0 0
191 64 1 0.5897 -12.547434418878304 5.967003276995635 4.169610845004404 1 0 0
108 36 1 0.5897 -9.951707179934964 2.808933072272259 3.834535263493049 1 0 0
183 61 1 0.5897 -12.185304256504168 3.6370793241179005 4.5796634863499825 1 0 0
181 61 2 -1.1794 -11.384464771814448 3.2695990458182376 4.953390271952904 1 0 0
176 59 1 0.5897 -14.419660086869769 4.668831194296514 4.572932969389057 1 0 0
85 29 2 -1.1794 -10.944052000689979 4.767912167271255 1.5337534084525273 1 0 0
43 15 2 -1.1794 -9.769806767437313 2.140110502195153 0.39967174345391526 1 0 0
167 56 1 0.5897 -16.586686355989144 6.322562249224026 3.1648645901324794 1 0 0
45 15 1 0.5897 -9.698449683508816 2.5193559029438113 1.2756352102865656 1 0 0
106 36 2 -1.1794 -9.315092377420621 2.410141523688038 3.2413201560613194 1 0 0
508 170 2 -1.1794 -13.539898489437054 6.033399325913049 7.230478537501708 1 0 0
645 215 1 0.5897 -12.454378974045545 6.801997339633363 8.642824367509762 1 0 0
644 215 1 0.5897 -12.788358469571715 6.639263357837995 10.110375939881356 1 0 0
643 215 2 -1.1794 -12.071123129483407 6.864144227598352 9.517700842423373 1 0 0
509 170 1 0.5897 -14.23975154870483 5.549321339621775 7.6688360234478825 1 0 0
636 212 1 0.5897 -15.187021399190343 7.351128693042776 9.915711500083688 1 0 0
532 178 2 -1.1794 -10.942598889323925 4.985424237432303 7.040383126631903 1 0 0
543 181 1 0.5897 -10.452557240259695 5.874744186311181 9.79943375064688 0 0 0
510 170 1 0.5897 -13.9901876996818 6.563295498573446 6.57287649543564 1 0 0
534 178 1 0.5897 -11.827635758303028 5.347934602180354 7.002700401396013 1 0 0
521 174 1 0.5897 -10.647991467326207 3.318939651807259 7.746151408524609 1 0 0
459 153 1 0.5897 -9.904896025492944 4.02606396389365 10.793562011531165 0 0 0
533 178 1 0.5897 -10.36781062101832 5.744420251210483 6.941166381110763 1 0 0
457 153 2 -1.1794 -9.960956663640264 3.070546302710774 10.791897790596993 0 0 0
518 173 1 0.5897 -16.666691439128936 7.582051563787212 7.834402763263157 1 0 0
458 153 1 0.5897 -10.009799295579791 2.8345252865462793 9.865549567472469 0 0 0
182 61 1 0.5897 -11.066207348259807 3.946013871625098 5.551277744181231 1 0 0
887 296 1 0.5897 -10.165508371681195 3.990055899054349 14.33801908584894 0 0 0
874 292 2 -1.1794 -13.233261022894933 4.841262672422927 15.073788640087027 0 0 0
876 292 1 0.5897 -12.351643796513397 4.468622164750295 15.075100561457992 0 0 0
848 283 1 0.5897 -13.59796183362248 3.490737443863418 12.060346517726382 1 0 0
945 315 1 0.5897 -14.067239657005326 6.793948022322063 12.019028558592069 1 0 0
869 290 1 0.5897 -12.674748447198589 8.156591536444106 13.389468423078794 0 0 0
900 300 1 0.5897 -14.809753297771099 7.523155591057696 14.344050519706398 0 0 0
899 300 1 0.5897 -13.895952418532625 6.321578230395515 14.231542573629806 0 0 0
898 300 2 -1.1794 -14.144414133948004 7.128298021372823 13.780468187682454 0 0 0
649 217 2 -1.1794 -15.906663573906396 8.290572711713532 15.617075973808022 0 -1 0
886 296 2 -1.1794 -10.841372496650616 3.505686797222257 14.812219435349071 0 0 0
943 315 2 -1.1794 -14.151706622216953 6.423394169169038 11.140511916425119 1 0 0
847 283 2 -1.1794 -14.37195305595079 3.86714399557909 11.641647936639904 1 0 0
875 292 1 0.5897 -13.814790808628533 4.08234117485585 15.120205921409793 0 0 0
894 298 1 0.5897 -10.486052659056604 7.788651525327088 12.540571629374263 0 0 0
965 322 1 0.5897 -16.261933118336188 8.069739596729706 12.329088541542017 1 0 0
944 315 1 0.5897 -14.206749194364681 5.478487927856417 11.282793387627148 1 0 0
1209 403 1 0.5897 -13.045438273890843 6.198602213616571 16.210102872597577 0 0 0
1018 340 2 -1.1794 -11.479969973320895 7.281059644180681 20.101017421212404 0 -1 0
1019 340 1 0.5897 -12.128895095763447 6.5801051891670355 20.16327781098487 0 -1 0
1020 340 1 0.5897 -10.638534590077638 6.826503969709561 20.062512067984645 0 -1 0
988 330 2 -1.1794 -14.887363930925375 7.493550439806297 18.91648762935256 0 -1 0
1237 413 2 -1.1794 -10.64882206453953 5.1397746498805255 17.588455653664447 0 0 0
1034 345 1 0.5897 -14.678713574027949 7.531731207607114 20.66042745802596 0 -1 0
1030 344 2 -1.1794 -9.136398257164997 5.901463594812444 19.75138938798577 0 -1 0
1032 344 1 0.5897 -8.642889134095661 5.504039897227264 20.46868692810981 0 -1 0
989 330 1 0.5897 -15.151497631179563 8.3607785425791 18.609628180886233 0 -1 0
1207 403 2 -1.1794 -12.843288487461017 6.784651986257414 16.93945465008447 0 0 0
1208 403 1 0.5897 -12.015350391912088 6.455698123008752 17.289296492242453 0 0 0
1239 413 1 0.5897 -9.930577353991604 5.1083016628743145 16.956486886020816 0 0 0
1238 413 1 0.5897 -10.241337449153942 5.4425067635794075 18.399953523942983 0 0 0
990 330 1 0.5897 -14.200752849736032 7.222274459498321 18.30722107884923 0 -1 0
1043 348 1 0.5897 -12.069787556923261 8.931995331474239 19.525704343714505 0 -1 0
1003 335 2 -1.1794 -13.308282608486252 4.8878619199544335 20.086030922460438 0 -1 0
1033 345 2 -1.1794 -14.681551379864295 7.928453941927794 21.531543043253084 0 -1 0
1010 337 1 0.5897 -10.844814738019512 4.175685005848324 21.630140373073854 0 -1 0
980 327 1 0.5897 -12.682523842264676 8.414556619961585 16.468940509891528 0 -1 0
1005 335 1 0.5897 -13.690122570079932 5.005876051429171 19.21633751277351 0 -1 0
1035 345 1 0.5897 -14.543701865324504 8.861870210185176 21.370669823314046 0 -1 0
57 19 1 0.5897 -11.669585352023734 8.35915397117473 21.58604991242695 1 0 -1
650 217 1 0.5897 -15.549331647579825 8.751232711445704 16.376269752006102 0 -1 0
291 97 1 0.5897 -15.324228676032218 10.737306822461251 4.546350693705702 1 0 0
174 58 1 0.5897 -16.429926605896032 9.862106860106076 1.6284430870216866 1 0 0
173 58 1 0.5897 -14.989712038614329 10.25576266735719 1.3777719020254506 1 0 0
172 58 2 -1.1794 -15.547394231577407 9.498640875857477 1.5566595374364942 1 0 0
283 95 2 -1.1794 -16.75517253481464 11.712359595852027 3.9975958911418075 1 0 0
161 54 1 0.5897 -15.167281280473173 7.969288011932646 2.303326341489144 1 0 0
214 72 2 -1.1794 -12.44106464450513 9.286863850157898 3.0709441490191858 1 0 0
193 65 2 -1.1794 -14.090205832234398 11.837418583021227 1.5273414970354546 1 0 0
285 95 1 0.5897 -17.10928500440939 11.548835064621516 3.123495539999515 1 0 0
148 50 2 -1.1794 -18.080244129443194 10.695982622365042 1.7038157272089502 1 0 0
289 97 2 -1.1794 -14.458347408455403 10.437082963421767 4.822404423695633 1 0 0
150 50 1 0.5897 -18.447905044446017 11.430489693537956 1.21259368704469 1 0 0
284 95 1 0.5897 -17.41198659277802 11.352511186354475 4.593721619388486 1 0 0
207 69 1 0.5897 -14.642428215146222 8.684840233075642 5.2770562644289205 1 0 0
216 72 1 0.5897 -13.069375852397142 9.660170675688045 3.6890802927407953 1 0 0
153 51 1 0.5897 -12.800877191164702 9.11318164397323 1.2618560006766462 1 0 0
151 51 2 -1.1794 -12.86466697902994 8.94661003146386 0.3214407790491576 1 0 0
215 72 1 0.5897 -12.285192052390704 8.39944530070622 3.3937902175316 1 0 0
152 51 1 0.5897 -12.98578939437045 7.999595349963359 0.2530316661858689 1 0 0
205 69 2 -1.1794 -14.838135850578592 7.748685309080136 5.315868030028373 1 0 0
194 65 1 0.5897 -13.691772633407805 11.830411960082033 2.397593177938752 1 0 0
160 54 2 -1.1794 -15.02358952314124 7.101019905498648 2.679480142380583 1 0 0
206 69 1 0.5897 -14.930576920478032 7.4845843615921 4.400486595492276 1 0 0
640 214 2 -1.1794 -13.960131571526873 11.888480103972293 6.97867202796912 1 0 0
630 210 1 0.5897 -13.01987367289214 9.023112461992389 7.6026127448848655 1 0 0
629 210 1 0.5897 -13.809296479382247 10.294484400785633 7.8305139678901945 1 0 0
628 210 2 -1.1794 -13.691725721385477 9.406100774641734 8.16665396322862 1 0 0
566 189 1 0.5897 -13.358068067420518 9.5426979861319 9.908528632094416 0 0 0
635 212 1 0.5897 -14.96539006719485 8.418047294194723 8.86494503334475 1 0 0
565 189 2 -1.1794 -13.241837044118663 9.862195338399127 10.80331328621742 0 0 0
617 206 1 0.5897 -17.138608069982194 12.647455350515168 7.6545191032101645 1 0 0
642 214 1 0.5897 -14.801099764608471 12.340226117118371 6.909476091555113 1 0 0
327 109 1 0.5897 -13.702145833170631 12.786693498039819 9.836867580564782 0 -1 0
634 212 2 -1.1794 -15.654657478596278 7.919974220070495 9.304396987252952 1 0 0
567 189 1 0.5897 -13.046630185571285 10.793774106945916 10.70214283885208 0 0 0
525 175 1 0.5897 -11.81448781270015 7.8188228948176235 5.5874178618836385 1 0 0
641 214 1 0.5897 -13.317187894109129 12.591275277689602 7.073718104731057 1 0 0
325 109 2 -1.1794 -12.863280402225946 12.490754276305191 10.190142357270812 0 -1 0
523 175 2 -1.1794 -11.618198242816604 8.533673984016692 6.193010233615177 1 0 0
519 173 1 0.5897 -16.266199801890252 7.570324325826972 6.374527441807316 1 0 0
290 97 1 0.5897 -14.26277720691521 10.954340610885323 5.603720678689201 1 0 0
658 220 2 -1.1794 -16.627882961966954 11.93956408767333 14.780041530180425 0 -1 0
870 290 1 0.5897 -12.47945659906304 9.086614521602863 12.211139720392318 0 0 0
868 290 2 -1.1794 -11.996215222494175 8.566246819877085 12.85276620641662 0 0 0
671 224 1 0.5897 -13.258044318575006 11.232737123902902 14.19236703928022 0 -1 0
670 224 2 -1.1794 -14.03955573571433 10.753991086650947 14.46864979664874 0 -1 0
672 224 1 0.5897 -13.736764480612932 10.190962208433776 15.180906182749423 0 -1 0
956 319 1 0.5897 -16.91012916209432 10.8331994144198 11.751341858787947 1 0 0
660 220 1 0.5897 -15.734606375628196 11.600255141291486 14.835130625890933 0 -1 0
879 293 1 0.5897 -14.79821480185873 9.710918309846742 11.623667687391006 0 0 0
878 293 1 0.5897 -14.991812369121227 10.151731840540327 13.058959713012046 0 0 0
877 293 2 -1.1794 -15.45571995213168 9.763043889026422 12.317370126100812 0 0 0
683 228 1 0.5897 -16.943051685382102 13.439085275329452 13.943916995611403 0 -1 0
680 227 1 0.5897 -11.08161722309772 9.71140624584073 15.555232035277625 0 -1 0
728 243 1 0.5897 -17.39651202027852 13.070832866950637 10.99716515850753 1 -1 0
659 220 1 0.5897 -17.177661662626434 11.158773611414285 14.713604878757572 0 -1 0
681 227 1 0.5897 -10.936409558478658 9.374266201499799 14.086525546584118 0 -1 0
993 331 1 0.5897 -16.55982929308614 12.927401981807511 16.261762570563498 0 -1 0
955 319 2 -1.1794 -17.706463981543763 11.31802668562406 11.534898869136985 1 0 0
1140 380 1 0.5897 -11.95500347500439 12.548585427809664 20.492552039972054 0 -1 0
1138 380 2 -1.1794 -12.381735170169886 13.167464537896231 19.900212199107926 0 -1 0
1128 376 1 0.5897 -14.158973725403023 13.704152927634548 20.245063409560625 0 -1 0
1127 376 1 0.5897 -15.625904716447362 13.3688601327919 20.411622955403814 0 -1 0
1022 341 1 0.5897 -13.416300066580304 12.401158470817775 18.524584445331065 0 -1 0
1119 373 1 0.5897 -15.058023718302515 10.791288562920384 20.526614005469042 0 -1 0
1117 373 2 -1.1794 -14.221920977274237 10.506171306440018 20.895034159253154 0 -1 0
1044 348 1 0.5897 -12.802692886417912 10.232250440066215 19.778124946522198 0 -1 0
1042 348 2 -1.1794 -12.211792327804392 9.804355514841626 19.15848413381056 0 -1 0
1126 376 2 -1.1794 -15.010083458132229 14.101513172462495 20.42904658753993 0 -1 0
981 327 1 0.5897 -12.81036206888081 9.666516234803838 17.31046029573873 0 -1 0
1002 334 1 0.5897 -16.32211933658557 10.250558933533425 17.710552830279198 0 -1 0
991 331 2 -1.1794 -16.264408454656586 13.491190543938425 16.976707045469006 0 -1 0
992 331 1 0.5897 -15.360903000744585 13.219925363022549 17.138602401783285 0 -1 0
1118 373 1 0.5897 -13.999371213441746 11.181294694271903 21.536100280774264 0 -1 0
1023 341 1 0.5897 -13.192116016744416 12.441197422132538 17.027959987741873 0 -1 0
1021 341 2 -1.1794 -13.862802385496444 12.267736599697196 17.68851279857989 0 -1 0
1001 334 1 0.5897 -14.865479778249453 10.658730786586483 17.650020103971553 0 -1 0
1000 334 2 -1.1794 -15.434194818531601 9.897842461907024 17.767952320783614 0 -1 0
1111 371 2 -1.1794 -16.542067173835207 11.841298337539262 20.202057124988713 0 -1 0
1098 366 1 0.5897 -17.40409596306435 14.036420536608228 18.24880916051442 0 -1 0
979 327 2 -1.1794 -12.695920349374767 9.369646301027773 16.407687746584692 0 -1 0
1013 338 1 0.5897 -10.864244366145256 10.679672475023066 18.610435136404174 0 -1 0
305 102 1 0.5897 -1.428845219770695 -6.120158015115735 2.2833988134523606 1 1 0
311 104 1 0.5897 -2.816594877000279 -7.733473424322319 3.3155798467577817 1 1 0
318 106 1 0.5897 -2.7933280334380086 -4.011851031533364 1.644495571284804 1 1 0
317 106 1 0.5897 -1.2935339978296412 -3.8160007430395613 1.7096399615237239 1 1 0
310 104 2 -1.1794 -3.4605190231130303 -8.204427986733329 3.8445646890129828 1 1 0
304 102 2 -1.1794 -1.3140011353323438 -7.031968770426979 2.5507369772442683 1 1 0
316 106 2 -1.1794 -1.9685286667962956 -4.494630049142615 1.6965384086414634 1 1 0
242 81 1 0.5897 -1.0468387322063748 -7.026473340959576 4.5941580274657605 0 1 0
306 102 1 0.5897 -0.7068944602988374 -7.396240595749715 1.906569623658013 1 1 0
241 81 2 -1.1794 -0.9176925934504361 -6.589239843402574 5.435822004890286 0 1 0
293 98 1 0.5897 -5.004853274162538 -3.7151944872431812 2.4061344277930634 1 1 0
3 1 1 0.5897 -1.3506655908924134 -3.68884514008315 4.26711290255764 0 0 0
243 81 1 0.5897 -0.8259024925414149 -5.6628117041160255 5.213491573330892 0 1 0
1 1 2 -1.1794 -0.5769776010135228 -3.995104906326243 4.740063348460431 0 0 0
199 67 2 -1.1794 0.48770743139028916 -7.920905398424056 0.8362979494041003 1 1 0
1262 421 1 0.5897 -2.043804623067164 -5.662070710283806 0.3139778542355214 0 0 1
195 65 1 0.5897 -4.301002050851737 -8.93675779519816 0.9558159603828461 1 1 0
404 135 1 0.5897 -5.139755729619274 -4.017350225411317 5.803471123379329 1 0 0
555 185 1 0.5897 -2.354755330977243 -6.846919972397493 6.248076011914808 0 1 0
554 185 1 0.5897 -2.597929452459038 -6.8289492923176685 7.742170248517823 0 1 0
553 185 2 -1.1794 -3.0389825641107784 -6.974436596132527 6.905217928569265 0 1 0
546 182 1 0.5897 -0.012712095232133791 -7.542592153036901 6.8666935944090115 0 1 0
359 120 1 0.5897 -4.549167198507103 -3.324602189381542 8.713254395181893 0 0 0
632 211 1 0.5897 -4.493734271420216 -6.105029688601546 6.6857064504026935 1 1 0
348 116 1 0.5897 -1.508838607807819 -6.353778763333178 9.89725300734726 0 0 0
347 116 1 0.5897 -1.2190801543396148 -5.495522903647261 8.684407726611568 0 0 0
346 116 2 -1.1794 -1.9390140122009036 -5.858982787846127 9.200030952750195 0 0 0
336 112 1 0.5897 -3.5685008239742206 -5.237456314620879 9.393501454793201 0 0 0
334 112 2 -1.1794 -4.4753660920893426 -4.938904257181644 9.46149890279058 0 0 0
356 119 1 0.5897 1.1480666999070088 -6.904227753415334 10.376073611186861 0 0 0
544 182 2 -1.1794 0.3450714659235352 -8.104864169471943 7.553590562207724 0 1 0
357 119 1 0.5897 1.2731636988754609 -7.1413839331263045 8.886130908702556 0 0 0
631 211 2 -1.1794 -5.338945574086219 -5.683562413414453 6.530567906627302 1 1 0
802 268 2 -1.1794 -2.5786547470562216 -2.2387538322707954 14.859923603960084 0 0 0
793 265 2 -1.1794 -2.1234821613567263 -5.864812649404207 15.654955915580555 0 0 0
795 265 1 0.5897 -2.8468835984643697 -5.474087121664661 15.165002051519412 0 0 0
803 268 1 0.5897 -3.246990337511302 -2.923978000212095 14.870802967215038 0 0 0
774 258 1 0.5897 -5.159542998137727 -2.496170174390043 12.921256321908803 0 0 0
678 226 1 0.5897 -4.318560235384947 -6.22230193547002 12.273174703334542 0 0 0
718 240 2 -1.1794 -0.1521777347485873 -6.731952150978307 13.90723732362522 0 0 0
699 233 1 0.5897 -0.894947679636779 -4.429726754119041 11.760855585931738 0 0 0
697 233 2 -1.1794 -1.5904810397281555 -4.662839540193249 12.375795134516803 0 0 0