LAMMPS (30 Jul 2021)
Processor partition = 1
  using 2 OpenMP thread(s) per MPI task
using multi-threaded neighbor list subroutines
variable        pid world 0 1
variable        phase world IceV IceIII

shell cd ${phase}
shell cd IceIII
include Restart.lmp
echo both
log log.lammps
#include		in.partitions
include		in.temp
variable        temperature equal 108.97
variable	tempDamp equal 100.0
include		in.pressure
variable        pressure equal 6961.4
variable        pressureDamp equal 1000.0 # This is 1 ps
include		in.seed
variable        seed equal 745823

units		real
atom_style	full

read_restart	restart.lmp.${pid}
read_restart	restart.lmp.1
Reading restart file ...
  restart file = 30 Jul 2021, LAMMPS = 30 Jul 2021
  restoring atom style full from restart
  orthogonal box = (0.14823498 0.13237266 0.14487810) to (19.851766 19.867628 20.555120)
  2 by 4 by 4 MPI processor grid
  restoring pair style lj/cut/tip4p/long/omp from restart
  restoring bond style harmonic/omp from restart
  restoring angle style harmonic/omp from restart
  972 atoms
  648 bonds
  324 angles
Finding 1-2 1-3 1-4 neighbors ...
  special bond factors lj:    0        0        0       
  special bond factors coul:  0        0        0       
     2 = max # of 1-2 neighbors
     1 = max # of 1-3 neighbors
     1 = max # of 1-4 neighbors
     2 = max # of special neighbors
  special bonds CPU = 0.002 seconds
  read_restart CPU = 0.009 seconds
include 	in.setup
variable	out_freq equal 1000
variable	out_freq2 equal 10000
variable	out_freq3 equal 1000

timestep	2.0

neigh_modify    delay 7 every 1

include		in.tip4p
# This is TIP4P/Ice

# create groups ###
group ox type 2
324 atoms in group ox
group hy type 1
648 atoms in group hy

# set charges - beside manually ###
set group ox charge -1.1794
Setting atom values ...
  324 settings made for charge
set group hy charge 0.5897
Setting atom values ...
  648 settings made for charge

# ### TIP3P Potential Parameters ###
pair_style lj/cut/tip4p/long/omp 2 1 1 1 0.1577 8.5
pair_coeff 1 1*2 0.000 0.000
pair_coeff 2 2 0.21084 3.1668
bond_style  harmonic
bond_coeff  1 450 0.9572
angle_style harmonic
angle_coeff 1 55 104.52
kspace_style pppm/tip4p/omp 1.0e-5
pair_modify tail yes

thermo          ${out_freq}
thermo          1000
thermo_style    custom step temp pe etotal epair emol press lx ly lz vol pxx pyy pzz pxy pxz pyz enthalpy

restart 	${out_freq3} restart.lmp.${pid} restart2.lmp.${pid}
restart 	1000 restart.lmp.${pid} restart2.lmp.${pid}
restart 	1000 restart.lmp.1 restart2.lmp.${pid}
restart 	1000 restart.lmp.1 restart2.lmp.1


include         in.dump
dump            myDump all atom ${out_freq2} dump.water.${pid}
dump            myDump all atom 10000 dump.water.${pid}
dump            myDump all atom 10000 dump.water.1
dump            myDump2 all dcd ${out_freq2} dump.dcd
dump            myDump2 all dcd 10000 dump.dcd
dump_modify     myDump append yes
dump_modify     myDump2 append yes


variable natoms 	equal  "count(all)"                        # NUMBER ATOMS
variable H      	equal  "enthalpy/v_natoms"                 # ENTHALPY-per-atom
variable Vol      	equal  "vol/v_natoms"                 # volume-per-atom
fix AVG all 		ave/time ${out_freq} 1 ${out_freq} v_Vol v_H file vol_enthalpy.dat
fix AVG all 		ave/time 1000 1 ${out_freq} v_Vol v_H file vol_enthalpy.dat
fix AVG all 		ave/time 1000 1 1000 v_Vol v_H file vol_enthalpy.dat


timer           timeout 02:55:00 every 1000
New timer settings: style=normal  mode=nosync  timeout=02:55:00

fix 		1 all shake 1e-6 200 0 b 1 a 1
Finding SHAKE clusters ...
       0 = # of size 2 clusters
       0 = # of size 3 clusters
       0 = # of size 4 clusters
     324 = # of frozen angles
  find clusters CPU = 0.000 seconds
fix             2 all nph aniso ${pressure} ${pressure} ${pressureDamp}
fix             2 all nph aniso 6961.4 ${pressure} ${pressureDamp}
fix             2 all nph aniso 6961.4 6961.4 ${pressureDamp}
fix             2 all nph aniso 6961.4 6961.4 1000
fix             3 all temp/csvr ${temperature} ${temperature} ${tempDamp} ${seed}
fix             3 all temp/csvr 108.97 ${temperature} ${tempDamp} ${seed}
fix             3 all temp/csvr 108.97 108.97 ${tempDamp} ${seed}
fix             3 all temp/csvr 108.97 108.97 100 ${seed}
fix             3 all temp/csvr 108.97 108.97 100 745823


run             250000
PPPM initialization ...
  extracting TIP4P info from pair style
  using 12-bit tables for long-range coulomb (../kspace.cpp:340)
  G vector (1/distance) = 0.37250841
  grid = 24 24 24
  stencil order = 5
  estimated absolute RMS force accuracy = 0.0034694716
  estimated relative force accuracy = 1.0448211e-05
  using double precision FFTW3
  3d grid and FFT values/proc = 3211 432
Last active /omp style is kspace_style pppm/tip4p/omp
Neighbor list info ...
  update every 1 steps, delay 7 steps, check yes
  max neighbors/atom: 2000, page size: 100000
  master list distance cutoff = 10.8154
  ghost atom cutoff = 10.8154
  binsize = 5.4077, bins = 4 4 4
  1 neighbor lists, perpetual/occasional/extra = 1 0 0
  (1) pair lj/cut/tip4p/long/omp, perpetual
      attributes: half, newton on, omp
      pair build: half/bin/newton/omp
      stencil: half/bin/3d
      bin: standard
Setting up Verlet run ...
  Unit style    : real
  Current step  : 30750000
  Time step     : 2
  Walltime left : 2:54:59.94
Per MPI rank memory allocation (min/avg/max) = 10.19 | 10.19 | 10.19 Mbytes
Step Temp PotEng TotEng E_pair E_mol Press Lx Ly Lz Volume Pxx Pyy Pzz Pxy Pxz Pyz Enthalpy 
30750000     113.8846   -5008.9794   -4789.3434   -5008.9794            0    7192.9975    19.703531    19.735256    20.410242    7936.6087    8060.9028    6750.6706    6767.4191   -545.72537   -649.73577   -22.321244   -3956.7734 
30751000    109.66308    -5025.213   -4813.7186    -5025.213            0    7433.6181    19.859325    19.655383    20.390361    7959.2275    7229.1828     7146.744    7924.9275    44.194634   -140.82018    720.47547   -3950.8452 
30752000    109.72423   -5025.6117   -4813.9993   -5025.6117            0    6458.4084    19.811398    19.697577    20.484408    7993.7646    7090.1312    6015.8565    6269.2374    187.89967     627.4797    586.05008   -4061.0725 
30753000    111.23701   -5038.3661   -4823.8361   -5038.3661            0    5415.7299    19.893208    19.787779    20.445497    8048.2149    4694.9231    6027.8893    5524.3774   -253.86722   -175.30595    1561.2629   -4188.1651 
30754000    104.36027   -5029.2047   -4827.9372   -5029.2047            0    6581.8447    19.781335     19.62062    20.525883     7966.548     6782.444     6580.716    6382.3742    125.55031    1279.4185     939.1377   -4063.2326 
30755000    107.31216   -5019.2449   -4812.2844   -5019.2449            0    6287.8319    19.790606    19.657452    20.511255    7979.5529    6770.2722     6094.457    5998.7664   -145.73289   -547.07719    249.19133   -4080.5468 
30756000    108.15235   -5016.1608   -4807.5799   -5016.1608            0    6782.4679    19.779074    19.666267    20.640588     8028.787    7886.7973    7678.3761    4782.2304   -487.41607   -6.5515115    98.839651   -4013.4097 
30757000    105.88267   -5018.9308   -4814.7272   -5018.9308            0    6623.6188    19.678531    19.851938    20.514648    8014.1905    8079.8938    6450.7604    5340.2023   -251.42395   -378.55516    686.60217   -4040.5669 
30758000    110.25186   -5022.1471   -4809.5171   -5022.1471            0     7271.847    19.679436    19.751299    20.549023    7987.2907    7361.5809    7812.9225    6641.0375   -416.16702    835.81037   -716.25594   -3962.4455 
30759000    112.34555   -5015.9423   -4799.2744   -5015.9423            0     7915.346    19.700927    19.706721    20.521979    7967.4672    7126.8545    8606.6796     8012.504   -479.83308    1238.3101    271.94909   -3879.5323 
30760000    108.32299   -5021.8896   -4812.9796   -5021.8896            0    5197.6783    19.863313    19.900564    20.444199    8081.4103    5738.5142    4629.9422    5224.5786   -579.13989     786.3045      254.852    -4200.386 
30761000    106.08802   -5025.6779   -4821.0782   -5025.6779            0    6111.1677    19.755285    19.746996    20.565499    8022.7563    5750.4557    6298.9524     6284.095   -272.73135    270.69659   -676.29816   -4106.0492 
30762000     114.3093   -5012.9474   -4792.4923   -5012.9474            0    7236.3417    19.724803    19.801581     20.41199    7972.5615    7308.3515    6899.3804    7501.2933   -34.580895    31.333116   -466.94406    -3951.111 
30763000    113.94711   -5014.8139   -4795.0573   -5014.8139            0    8329.5525     19.66951    19.799041     20.48655    7978.2295    9926.2294    6561.9163    8500.5118   -284.39974   -795.31347    460.00874   -3825.8781 
30764000    111.87301   -5038.2188   -4822.4623   -5038.2188            0    6017.7476    19.833147    19.852463    20.407653    8035.2443    6108.1787    5958.3528    5986.7112    309.96505    73.156701    20.180934   -4117.2677 
30765000    106.58689    -5024.255   -4818.6932    -5024.255            0    7025.9609    19.750298    19.784447    20.533891    8023.5917    6338.2332    6858.6327    7881.0167    443.92499    158.43886   -18.454901   -3996.5444 
30766000     106.0577   -5022.6215   -4818.0803   -5022.6215            0    6339.0859    19.802972    19.799772    20.426223    8009.0061    4992.6845    7477.6758    6546.8973   -184.36249    111.15445   -234.80781   -4077.6551 
30767000    109.93757   -5028.3523   -4816.3285   -5028.3523            0    6940.5491    19.838475    19.707639    20.501067    8015.2917    6656.4847    7139.1897    7025.9728    341.74626   -181.28695   -248.97889   -4005.0143 
30768000     104.8095   -5026.4484   -4824.3144   -5026.4484            0    6813.5716    19.686725    19.777581    20.552434    8002.2095    8301.9838    6334.3751    5804.3559    50.844481    401.14123    311.05692   -4029.1433 
30769000    106.89287   -5023.5126   -4817.3607   -5023.5126            0    6697.6985    19.707704    19.744508    20.546628    7995.0819    7070.7387    7002.9747    6019.3821    351.37723    442.76889   -1561.1019   -4036.4086 
30770000    108.14291   -5021.3572   -4812.7945   -5021.3572            0    7072.0948    19.676212    19.762017    20.465449    7957.8187    7708.4946    7273.0018    6234.7881    352.81494    720.06276    280.25836   -3992.0311 
30771000    108.44597   -5036.6866   -4827.5394   -5036.6866            0    7111.1298    19.852465    19.755909    20.377627    7992.1765    7569.6097    6727.5531    7036.2265   -338.17722    124.66387    52.164855   -3998.6825 
30772000    107.65334   -5025.1514   -4817.5329   -5025.1514            0      6308.17    19.677019    19.863858    20.498912    8012.2355    5815.1642     6362.238    6747.1078   -231.84901   -690.42638   -332.37703   -4080.4217 
30773000    105.07633   -5023.4028   -4820.7543   -5023.4028            0    7201.1619    19.783113    19.754195    20.344843    7950.7539    7480.5476    6425.8286    7697.1096    162.08852   -186.83594   -86.558831   -3985.7537 
30774000    113.99574   -5012.5065   -4792.6562   -5012.5065            0    7330.6773    19.855555    19.664169    20.437648    7979.7366    7517.7514    7512.7586    6961.5218   -93.504636    548.80689    488.12379   -3939.5393 
30775000    109.48989   -5016.5548   -4805.3944   -5016.5548            0    6332.1598    19.727269    19.914005    20.439948     8029.812    5729.4448    6480.1071    6786.9274   -279.22238   -770.20255    416.10835   -4063.8568 
30776000    110.63691   -5010.2418   -4796.8692   -5010.2418            0    7680.7375     19.62872    19.732581    20.538893    7955.2332    7633.2814    8401.1416    7007.7894   -343.34226    739.40141   -117.39054   -3905.7583 
30777000     111.7342   -5017.3928    -4801.904   -5017.3928            0     7194.895    19.944142    19.652341    20.461316    8019.7939    7574.8754    7528.0548    6481.7548    195.82186   -265.01583   -80.048196   -3960.3857 
30778000    110.19482   -5030.4739   -4817.9539   -5030.4739            0    7537.7495    19.665027    19.711543    20.517044    7952.9812    7443.8582    8093.8281    7075.5622   -125.27258    1136.9802    -415.0547   -3943.6799 
30779000    110.78393   -5026.0517   -4812.3956   -5026.0517            0    6323.0867    19.753965    19.794807    20.482131    8009.0441    6577.4293    6389.3299    6002.5008   -70.906494    162.17512    340.81789   -4073.8357 
30780000    114.71801   -5027.0005   -4805.7572   -5027.0005            0    6530.9288    19.874465    19.779054    20.377033    8010.1736     5292.912    7201.4782    7098.3962   -322.62388    189.67901    854.18555    -4042.813 
30781000    108.35955   -5007.7803   -4798.7998   -5007.7803            0    7628.8865    19.865837    19.699257    20.355664    7966.0311    7583.1121    7670.9634    7632.5839   -511.65871    458.38893     783.4229   -3912.5033 
30782000    109.21059   -5019.4827   -4808.8608   -5019.4827            0    6506.7234    19.721489    19.989317    20.300598    8002.8833    7343.3387    5401.7145    6775.1171   -620.52157   -1216.6318    312.40413   -4049.4361 
30783000    110.78382   -5022.8338   -4809.1779   -5022.8338            0    7632.3757    19.683011    19.799832    20.412981    7955.3533    7915.0986    6521.8743    8460.1542    270.72288   -308.62539   -244.52371   -3923.6645 
30784000    105.12341   -5024.9484   -4822.2091   -5024.9484            0    6606.7821    19.681509    19.991578    20.371947    8015.6367    5851.6991     6204.782    7763.8653   -672.69816    301.87192    400.54282   -4049.8773 
30785000    105.80592   -5033.2504   -4829.1948   -5033.2504            0    7444.4249    19.596532    19.858924    20.429322    7950.3982    7022.7541     7717.467    7593.0537   -290.21013    976.44325    1473.9873   -3966.0257 
30786000    105.23266   -5027.5976   -4824.6476   -5027.5976            0    6946.5904    19.868319    19.720913     20.38572    7987.5613    7257.9096    7458.0958    6123.7658   -74.215511    257.89625    146.54758   -4015.4366 
30787000    110.68455   -5038.1963   -4824.7318   -5038.1963            0    4485.0758    19.827012    19.898619    20.451113    8068.5807    5197.5981     3519.068    4738.5613    -281.1905   -37.263995    1376.8022   -4296.9641 
30788000    110.19939    -5016.982   -4804.4532    -5016.982            0    7268.7075    19.843447    19.754378    20.339787    7973.0937    6956.0113    6757.8815    8092.2298    96.083523   -1147.3143     -899.118   -3959.2523 
30789000    107.63637   -5031.2715   -4823.6857   -5031.2715            0    6881.4785    19.867674    19.747952    20.401063    8004.2727     6162.282    7134.5126    7347.6408   -82.434995   -589.75436    126.35799   -4020.3825 
30790000    111.26792   -5030.7474   -4816.1579   -5030.7474            0      6520.85    19.720934    19.854082    20.367554    7974.7332    7727.8326    5647.5015    6187.2159   -371.78006    1221.9987    49.880237   -4057.7615 
30791000    109.18714   -5020.0861   -4809.5095   -5020.0861            0    7587.8073    19.638475    19.787503    20.479346    7958.1997    7424.4418    7699.6785    7639.3016   -87.844419    175.21452    1313.2856    -3928.852 
30792000    107.98167      -5026.5   -4818.2483      -5026.5            0    7373.2609    19.771771    19.816611     20.41235    7997.7527    6745.6071    8001.5077    7372.6679   -307.88869   -708.25079   -1291.9033   -3958.2384 
30793000    105.33885   -5010.1998   -4807.0449   -5010.1998            0    6815.8747    19.785713    19.896418    20.357071    8013.8628    6654.3713    6868.9563    6924.2965    -176.5129    410.74084    1107.9286   -4010.4466 
30794000    107.69237   -5028.6231   -4820.9293   -5028.6231            0    7597.9827    19.612279    19.745891      20.5085    7942.1609    7537.0988    7899.2722     7357.577   -353.79346    -3.108264   -74.351909   -3940.8681 
30795000    108.01947   -5039.7463   -4831.4216   -5039.7463            0    6299.0556    19.623198      19.8759    20.540754    8011.4843    6870.2332    5888.5576    6138.3761   -181.02273   -206.99068    829.71074   -4095.4445 
30796000    105.14964   -5025.0237   -4822.2338   -5025.0237            0    6280.3629    19.828899    19.835677    20.328586    7995.6322    5966.6676    6000.3054    6874.1157   -143.02966    740.67175    413.24467   -4089.8926 
30797000    109.67014   -5030.3435   -4818.8355   -5030.3435            0    7282.0158    19.751803    19.801816    20.517924    8025.0025    8742.7319    6772.7645    6330.5509   -517.03724   -326.59563   -1109.4225   -3966.5743 
30798000    109.28577   -5038.3931   -4827.6263   -5038.3931            0    6372.4059    19.825644     19.72913    20.418244    7986.4475    6474.4258    6198.0285    6444.7632   -668.19851   -208.63058   -4.9603126   -4085.4058 
30799000    111.88413   -5022.0381   -4806.2601   -5022.0381            0    6805.0113    19.737353    19.760611    20.399367    7956.2049    6393.9908    7281.8176    6739.2254    105.42424   -156.60981   -376.30497   -4016.6537 
30800000    103.88426   -5025.0184   -4824.6689   -5025.0184            0    7224.9215    19.880112    19.769281    20.328108     7989.262    6673.5924    7544.7401    7456.4321    40.615431    453.70444   -33.124563   -3982.8558 
30801000    119.07266    -5018.199   -4788.5573    -5018.199            0     6122.559    19.711606    19.902681    20.468581    8030.1069    5731.3897    5998.4449    6637.8425   -119.05587    148.39742    27.526417   -4071.5391 
30802000    103.03916    -5022.031   -4823.3113    -5022.031            0    6431.4654    19.854998    19.616634     20.52224    7993.1708    6158.6914    6896.7538    6238.9511   -364.79743   -874.14091   -552.35655   -4073.5812 
30803000    106.16656   -5038.0055   -4833.2543   -5038.0055            0    5743.3255    19.685155    19.911749    20.509101    8038.8674    5907.3389    5531.4495     5791.188   -385.26226    400.65815    573.79125   -4159.9147 
30804000    114.51215   -5022.8562   -4802.0099   -5022.8562            0    7311.2382    19.743102    19.792493    20.442296     7988.138    7067.1609    7619.2275     7247.326    -155.0272    -424.3464    58.491197   -3950.2594 
30805000    115.65135   -5032.3505   -4809.3072   -5032.3505            0    6619.8374    19.660884    19.893864     20.41541    7985.0986    7012.5735     6291.412    6555.5266   -350.27728    81.101525    311.92191   -4038.3975 
30806000    113.52556   -5011.5252   -4792.5816   -5011.5252            0    7174.7474    19.877875    19.702987    20.366967    7976.7941    6540.2032     7640.983    7343.0558     82.93887   -82.050099    675.17186   -3957.9191 
30807000    104.50849   -5028.7434   -4827.1899   -5028.7434            0    7019.8858    19.719569    19.739636     20.51894    7987.1437    7915.7688    6885.5232    6258.3653   -15.827925    1053.1202    -264.6454   -4009.4835 
30808000    110.85894   -5023.7343   -4809.9335   -5023.7343            0    7001.1718    19.605411    19.703085    20.631557    7969.7036    7583.7769      7123.65    6296.0884   -220.16313   -373.01055   -104.27926   -3996.1877 
30809000    110.70016   -5030.5609   -4817.0663   -5030.5609            0    7329.6029    19.745189    19.752584    20.457666    7978.8681     8639.438    6058.2237    7291.1468   -318.94837    374.44008   -566.57178   -3964.1673 
30810000    106.35397   -5020.4821   -4815.3695   -5020.4821            0     8142.987     19.77432    19.708695    20.468575    7977.1369    7940.4009    8415.5748    8072.9852   -42.480051   -370.81391    236.41909   -3868.0278 
30811000     108.4563   -5015.5092   -4806.3421   -5015.5092            0    8259.3755    19.772147    19.631187    20.501493    7957.6693    8277.6714    8220.1847    8280.2704    -306.9185   -1.9349572    657.42792   -3847.8048 
30812000    114.72068   -5017.5172   -4796.2687   -5017.5172            0    7499.8686    19.824621    19.705434    20.458481    7992.1621    8368.0868    6977.3358    7154.1831   -57.745092    492.44116   -186.85721   -3922.1029 
30813000    110.70931   -5012.5989   -4799.0867   -5012.5989            0    8517.7086    19.813599    19.598827    20.468714    7948.4786    6628.5473     10540.33    8384.2484   -80.276334    646.92897   -495.73591   -3811.7105 
30814000    111.73343   -5032.1593   -4816.6719   -5032.1593            0    6109.9386    19.755084    19.699117    20.520292    7985.6295    6316.8073    6076.4721    5936.5363   -132.64716   -752.83827    730.54199   -4105.0949 
30815000    112.31228   -5038.2217    -4821.618   -5038.2217            0    5797.4323    19.856161    19.685816     20.51017    8017.1121    6279.1171    6301.5039     4811.676   -136.11579    485.25971   -150.08403   -4143.7744 
30816000    112.41855   -5014.5793   -4797.7707   -5014.5793            0    6505.9408    19.744624     19.68651    20.540533    7984.1612    6331.6981    6973.5885    6212.5359   -164.71572    167.86272    564.09766   -4040.2137 
30817000    102.64044   -5018.2621   -4820.3114   -5018.2621            0    6837.4777    19.698775    19.764615      20.5028    7982.5338    6636.8526    7162.4801    6713.1003   -3.1719749    172.42528   -337.90006   -4024.3123 
30818000    102.02195    -5010.564    -4813.806    -5010.564            0    7303.2208     19.77733     19.65455    20.525962    7978.7398    7024.1358     7567.161    7318.3655   -355.92312    436.53316   -49.351974   -3963.9906 
30819000    102.67234   -5025.9831   -4827.9708   -5025.9831            0    7509.1113    19.619357    19.797244    20.547588    7980.8721    8583.6418    6573.8416    7369.8506   -192.56978    605.54681   -414.70226   -3953.9641 
30820000     110.5115   -5029.6968   -4816.5661   -5029.6968            0     5786.837     19.87107    19.765633    20.526512    8062.0806    6349.4888    5173.7646    5837.2576    272.48976    -330.0729     387.1229   -4136.1661 
30821000    108.72213   -5019.1111   -4809.4314   -5019.1111            0    6509.8361    19.817229    19.844433     20.31569    7989.3824    7059.1317    5919.3192    6551.0575   -478.97662    369.71029    446.45085   -4050.9251 
30822000     120.4369   -5019.9342   -4787.6615   -5019.9342            0    6282.0572    19.732463    19.770225    20.425081    7968.1351    5976.2066    6442.5099    6427.4551    -240.8848   -231.42321    967.10107    -4057.642 
30823000    102.83341   -5027.9128   -4829.5899   -5027.9128            0    6550.5363    19.953014    19.727088     20.31892    7997.8289    5882.1572    6498.8747    7270.5769    304.36636   -535.82003   -346.54015   -4065.5345 
30824000    101.89389   -5024.0902   -4827.5793   -5024.0902            0    7107.4096      19.7607      19.8828    20.367591    8002.3864    7148.1215    6377.6545    7796.4529    42.375347   -65.618714    1406.5425   -3998.0977 
30825000    103.04999   -5025.7408   -4827.0003   -5025.7408            0    6155.6154    19.870112    19.844882    20.439826    8059.8326    7538.8988     4602.732    6325.2153    56.527723   -673.70616   -239.18073   -4103.4422 
30826000    107.79957   -5022.3832   -4814.4827   -5022.3832            0    6585.5202    19.654165    19.973993    20.336587     7983.578    7204.6918    6205.3284    6346.5403    182.80862   -60.446998   -303.68846   -4047.7154 
30827000    101.08534    -5023.637   -4828.6854    -5023.637            0    7891.6749    19.731761    19.771644    20.384004    7952.3985    7195.5417    8697.1038     7782.379   -291.56312   -535.73708    17.253566   -3913.4281 
30828000    112.09981   -5016.9532   -4800.7593   -5016.9532            0    5979.5078    19.658754    19.932785    20.488655     8028.556    7220.7247    5618.7127    5099.0861    113.15105    996.51405   -406.59498   -4100.6291 
30829000    107.33226   -5033.5539   -4826.5546   -5033.5539            0    6278.5034    19.687313    19.835159    20.499747    8005.1711    6428.5147    6179.3353    6227.6603    363.99712    249.75801    228.97406   -4093.5568 
30830000    106.37292    -5007.487   -4802.3379    -5007.487            0     7159.766    19.707257    19.770472    20.453167    7968.9994    5598.0643    8893.7671    6987.4665    15.806502    532.17867     8.287903   -3970.2321 
30831000    108.12546   -5020.4727   -4811.9436   -5020.4727            0    6616.0529    19.669816    19.748802    20.632486    8014.7984    7656.3956    6214.0319    5977.7312    -122.0805    769.56824     1967.642    -4038.609 
30832000    105.97665     -5028.43   -4824.0451     -5028.43            0    7753.2759     19.79179    19.651145    20.530525    7984.9644     8552.892    8269.1523    6437.7833    218.98266    129.73325   -1079.6445   -3921.1567 
30833000    108.95415   -5024.0503    -4813.923   -5024.0503            0    5915.8174    19.779889    19.847893    20.459926    8032.3441    5372.9548    5484.5598    6889.9377   -684.30968   -681.04256    308.03868   -4120.9235 
30834000    113.54618   -5012.1942   -4793.2108   -5012.1942            0    7624.7743    19.702832    19.832022    20.402405    7972.1782    7647.6295     7116.924    8109.7694   -570.57892    474.37442    372.44708   -3906.7085 
30835000    107.29564   -5028.6706    -4821.742   -5028.6706            0    6661.4312    19.832439    19.714267    20.448259    7994.9012    7621.3244    5763.8585    6599.1109   -311.14375    -675.8925   -519.89365   -4045.0362 
30836000    106.40092    -5026.245   -4821.0418    -5026.245            0    6761.4695    19.773545    19.810552    20.455602    8012.9674    6918.7755     6991.989    6373.6441   -478.62431     1367.875     212.2022   -4030.8903 
30837000    106.27849   -5025.9565   -4820.9894   -5025.9565            0    6072.4768    19.682738    19.819643     20.52238      8005.88    7024.3258    4600.5354    6592.5693   -18.350949    962.68759   -1692.3142   -4111.9819 
30838000    108.79417   -5019.9598   -4810.1411   -5019.9598            0    8775.3431     19.71858    19.715016    20.417049    7937.1707      8989.69    8977.8036    8358.5359   -383.85447   -1147.0279    26.586294    -3794.347 
30839000    101.89419   -5036.2548   -4839.7433   -5036.2548            0    6013.2991    19.743803    19.815073    20.474683    8010.2057    6651.4043    5399.7855    5988.7076    26.032343    532.02981    349.94688   -4137.2658 
30840000    105.21744    -5023.427   -4820.5063    -5023.427            0    6494.6965    19.761887    19.850324    20.391942     7999.348     5832.486    6348.2756    7303.3278    -185.2285     309.2571    1393.7247   -4062.8202 
30841000    102.29396   -5021.1457   -4823.8632   -5021.1457            0    6875.4294    19.620723    19.810066    20.609539    8010.6766    8106.0037    6637.8058    5882.4788   -209.98704   -8.8370127   -9.7073015   -4020.6239 
30842000    108.93099   -5029.5361   -4819.4535   -5029.5361            0    6496.5551    19.841775    19.670438    20.484616    7995.0719    5576.9648    7952.9323    5959.7682    11.875693    642.86403   -163.90769   -4061.9557 
30843000    112.72939   -5019.3343   -4801.9262   -5019.3343            0    8116.3408    19.708587    19.681459    20.566474    7977.6071    8507.0159    8562.2527    7279.7537   -176.42385    -100.5564    540.03993   -3857.6288 
30844000    109.58565   -5028.2502   -4816.9051   -5028.2502            0    7106.5215    19.748554    19.827482    20.430654    7999.9104    6642.9609    7558.6973    7117.9063    250.69068    57.718732   -157.97694   -3987.7837 
30845000     106.0645   -5030.5722   -4826.0179   -5030.5722            0    7733.7033    19.681948    19.695719    20.492488    7943.9153    7648.5962    9516.2393    6036.2744   -109.50166   -113.43063    108.00906   -3930.0385 
30846000    107.38599   -5019.6502   -4812.5472   -5019.6502            0    6796.5405    19.771564    19.747692    20.507797    8007.1205    7106.3922    6215.8102    7067.4192    79.719056    493.84923    -68.17903   -4018.8769 
30847000    112.68956   -5032.7305   -4815.3992   -5032.7305            0    7392.1407    19.739471    19.692687    20.503408     7970.151    7097.5632    8320.4204    6758.4387    -147.4539    144.28627     171.6877   -3956.1628 
30848000    107.84518   -5027.4908   -4819.5023   -5027.4908            0    6476.6486     19.61932    19.770584    20.658319    8013.0605    5573.6928    8324.0613    5532.1916   -214.33024   -83.010188    326.30261   -4062.6264 
30849000     112.8444   -5036.4237   -4818.7938   -5036.4237            0     7118.918    19.724362    19.842669    20.404571    7986.0224    7575.9831    6721.6844    7059.0865   -391.56502   -100.35245   -149.95916    -3989.668 
30850000    106.42631   -5018.8423   -4813.5902   -5018.8423            0    7714.2337    19.747629    19.638643    20.491795    7947.0589    6956.9765    8518.2797     7667.445   -91.701704   -356.92843    376.29627   -3919.5128 
30851000    103.45587   -5030.6489   -4831.1256   -5030.6489            0    7492.1387     19.74711    19.747512    20.420738    7963.1954    6712.8858    8764.1307    6999.3997    10.405959    202.57262    307.15487   -3961.0258 
30852000     105.1916   -5016.7193   -4813.8485   -5016.7193            0    7037.3658     19.72506    19.819165    20.432035    7987.5817    8668.7432    5370.2079    7073.1463   -404.84631   -663.07216    633.38547   -3994.0609 
30853000    110.08818   -5014.3394   -4802.0251   -5014.3394            0    7463.7293    19.749838    19.645014    20.501883    7954.4404    6779.6245    7930.5681    7680.9953    88.017216    145.47313    1072.9293   -3936.1776 
30854000    107.56411    -5016.045   -4808.5985    -5016.045            0    7423.8509    19.734897    19.811448    20.454869     7997.381    9017.4109    6492.5912    6761.5505    55.184263   -341.76544    476.47966   -3942.7281 
30855000    108.60554    -5006.743   -4797.2881    -5006.743            0    8046.1944    19.777639    19.661126     20.52321    7980.4636     8377.401    8851.5546    6909.6276   -74.947048    817.75098    133.81223   -3860.8167 
30856000    108.31327   -5035.9427   -4827.0514   -5035.9427            0    6519.2157    19.649151    19.843905    20.502278     7994.164    6595.3593    6513.6002    6448.6878    51.402915   -78.404159   -395.90365   -4066.9977 
30857000    107.09876   -5025.5918   -4819.0428   -5025.5918            0    5510.9168    19.806407    19.735582     20.56129    8037.2228    6371.8292     5683.719    4477.2022   -63.643917    77.282439    73.236814   -4173.0826 
30858000    107.75017   -5017.7508   -4809.9456   -5017.7508            0    6726.0947    19.734006     19.74445    20.595259     8024.677    6974.8763    7353.4854    5849.9224   -551.40067   -1095.1025   -951.67706   -4022.7794 
30859000    115.48814   -5037.9304   -4815.2018   -5037.9304            0    7727.6694    19.757954    19.868898    20.360737    7992.9898    7250.7458    7991.7321    7940.5303    552.87514    1110.1783    186.33427   -3914.3908 
30860000    108.68132   -5016.2245   -4806.6234   -5016.2245            0    6804.0636    19.830819    19.740698    20.492527    8022.2961    6964.6705    6331.9254     7115.595   -743.29289    544.69465    850.40582   -4010.5686 
30861000    109.08756    -5009.346   -4798.9614    -5009.346            0    7460.1748    19.723126    19.750923    20.455192    7968.3186    6546.8182    7669.5209    8164.1855    163.37431   -669.43865   -521.24341   -3932.0164 
30862000     105.4467    -5010.323   -4806.9601    -5010.323            0    7268.6793    19.493048    19.923394    20.579728    7992.5009    9378.7816    5467.7808    6959.4756   -6.0676036    351.42716   -163.09933   -3959.7052 
30863000    113.68466   -5043.2909   -4824.0405   -5043.2909            0    7731.2044     19.76127    19.741442    20.430588    7970.2985    7878.6635    7254.4778    8060.4719     88.05865    278.95763    9.9892393   -3925.3759 
30864000    107.87346     -5016.81   -4808.7669     -5016.81            0    6306.7895     19.90233    19.774548    20.336726    8003.7135    4623.4817    7685.0997     6611.787   -466.39097    352.85075    604.27668   -4072.6009 
30865000    109.07807   -5024.3438   -4813.9775   -5024.3438            0    6502.9146    19.779987    19.926561    20.310794    8005.4406     6101.316    5814.8815    7592.5462    36.882295   -791.18021    431.47936   -4054.7549 
30866000    109.79794   -5036.9001   -4825.1456   -5036.9001            0    6290.4131    19.712898    19.923198     20.32547     7982.706    5373.4141    5444.6784     8053.147     260.3027   -597.42734    416.58038   -4092.8183 
30867000    107.40803   -5035.1984    -4828.053   -5035.1984            0    5923.8157    19.661332    19.923157    20.417831    7997.9869    6540.7394    5364.7415    5865.9662    249.89696     1040.551     348.5297   -4137.0847 
30868000    109.05297   -5030.4647   -4820.1469   -5030.4647            0    7386.2994    19.690938    19.884522    20.415547    7993.6032    7804.0354     7455.819    6899.0439    55.549344   -953.16082    125.43601   -3959.0632 
30869000    106.58308   -5027.9761   -4822.4217   -5027.9761            0    7766.8958    19.653337    19.810853    20.475969    7972.3057    8807.8616    6904.5432    7588.2824   -48.056325     435.8091   -175.23967    -3919.381 
30870000    107.43276   -5014.1951    -4807.002   -5014.1951            0    7249.2987    19.584075    19.762641    20.522418    7942.8538    7906.3622    7377.6466    6463.8875   -317.46733   -34.405344    1251.8889    -3967.255 
30871000     102.4023   -5030.1562   -4832.6647   -5030.1562            0     6387.355    19.862916    19.768993    20.432576    8023.2566    6347.4455    6523.5614    6291.0579   -248.97707    525.50476    239.02574   -4085.2741 
30872000    114.35768   -5021.4254    -4800.877   -5021.4254            0    6534.8849    19.518084    19.851245    20.568546    7969.4532    6795.1877    6149.1338    6660.3333   -1.0197287    205.21719   -78.261593   -4041.3515 
30873000    109.68992   -5017.4157   -4805.8695   -5017.4157            0    7269.0246    19.710498    19.617234    20.532763      7939.31    8528.5082    6459.7184    6818.8472   -55.432659    488.75205    712.63736   -3964.2131 
30874000     106.2824   -5013.7005    -4808.726   -5013.7005            0    6575.0818    19.809479     19.74326    20.425633    7988.5405    6038.9215    5875.5776    7810.7465   -280.53813   -1150.3524   -11.858307   -4042.6982 
30875000    114.02275   -5028.3923   -4808.4899   -5028.3923            0    6898.5936    19.929777    19.717489    20.398913    8016.0619     5873.151    7766.3894    7056.2405   -325.37437    323.75946    23.120442   -4002.0026 
30876000      109.156   -5035.8485    -4825.332   -5035.8485            0    7278.4714    19.705178    19.741334    20.428289    7946.7368    6814.5395    7631.8529    7389.0218    30.043765    53.249139    352.66767   -3981.7935 
30877000    110.76489   -5028.1258   -4814.5064   -5028.1258            0     7628.873    19.713211    19.786027    20.387322    7951.9959    7832.0988    7325.4651     7729.055    113.04354   -517.86474    1000.3301    -3929.773 
30878000    107.99647   -5031.1896   -4822.9094   -5031.1896            0    6530.3297    19.830225    19.685291    20.493206     7999.805    6387.3993    6361.2259     6842.364   -262.56405    461.19408    802.99118   -4061.0226 
30879000    110.80464   -5015.9427   -4802.2466   -5015.9427            0    7173.9418    19.703968    19.953612    20.401589    8021.1974    7736.2179     5683.718    8101.8897    23.605812    155.11953     110.3686   -3963.0322 
30880000     103.1781   -5031.7774   -4832.7898   -5031.7774            0    6645.0474    19.829479    19.793303    20.364368    7992.8291     6854.611    5821.9365    7258.5946   -314.84297   -170.59362   -1042.4718   -4058.1951 
30881000    106.37033   -5038.3516   -4833.2075   -5038.3516            0    7856.3718    19.875307    19.717645    20.393462    7992.0809    8203.2517    6428.2228     8937.641   -452.73404    166.98451   -202.41308   -3917.4978 
30882000    117.17922   -5028.5803   -4802.5903   -5028.5803            0    7061.0553    19.694508    19.839882    20.460674    7994.7366    6985.1498    6638.5738    7559.4424   -186.21074   -932.28973   -965.77604   -3979.3063 
30883000    112.38234   -5020.0783   -4803.3395   -5020.0783            0    6971.2819    19.781167    19.749367    20.499207    8008.3336    6425.8912    7822.7765     6665.178    142.80062    157.66516   -151.57264   -3989.1403 
30884000    105.71812   -5020.5245   -4816.6382   -5020.5245            0    8019.9735    19.896699    19.631277    20.309323    7932.7731    6942.5245    9113.5604    8003.8357   -152.23381   -479.48357    780.51247   -3888.7965 
30885000    107.80186   -5025.4929    -4817.588   -5025.4929            0    8040.1073    19.784364    19.741436    20.453715    7988.6433    8329.3339    8094.1489    7696.8392    237.76381    390.50024    916.72681   -3880.8659 
30886000    109.90647   -5020.1912   -4808.2273   -5020.1912            0     7032.124    19.638098    19.666636    20.572847    7945.5489    7613.7586    6698.5864     6784.027   -41.582896    866.30594    1244.9999   -3993.3611 
30887000    108.10545   -5034.4757   -4825.9853   -5034.4757            0    6697.3264    19.781925    19.808435    20.417601    8000.6157    6132.0189    6766.1285    7193.8318   -258.27077   -49.250062   -715.30651    -4044.536 
30888000    106.76232   -5028.1753   -4822.2752   -5028.1753            0    7089.3695    19.776319    19.762513    20.441038     7988.966    8135.6154    6768.6239    6363.8694   -10.656146    405.58318    -31.51868   -3996.2865 
30889000    103.41341   -5030.7785    -4831.337   -5030.7785            0    7765.9487    19.718389    19.660221    20.491487    7943.8917     7272.294    7729.9341    8295.6179   -268.05395    -1021.425   -417.65961   -3931.6246 
30890000       112.31   -5021.9836   -4805.3843   -5021.9836            0    7640.7193    19.656118    19.851135    20.440924    7975.9719    7956.0395    7536.6823    7429.4361   -572.22991    247.77273    83.854556   -3916.6054 
30891000     110.5144   -5028.7873    -4815.651   -5028.7873            0    6925.1819    19.827709    19.717511     20.40248    7976.4124    7008.6838    7297.9035    6468.9584    75.474801   -151.77563    356.31278   -4010.0599 
30892000    105.35055   -5018.7518   -4815.5744   -5018.7518            0    6904.1015    19.660905    19.819148    20.482805    7981.3788    6614.6888    6911.3517    7186.2639    60.349826   -936.90611     1268.073   -4011.9354 
30893000    109.08917   -5029.6852   -4819.2976   -5029.6852            0    6770.0213    19.686712     19.78079    20.458429    7966.8956    6815.0445    7061.3472    6433.6722    43.345008   -1301.7916    199.70823   -4032.6956 
30894000     112.7103   -5029.9038   -4812.5325   -5029.9038            0    7178.2696    19.864222    19.831885    20.239004    7973.0538    6853.3685    6622.1776    8059.2627   -244.46367    544.35815    303.91193   -3977.8518 
30895000    107.86881   -5029.9086   -4821.8745   -5029.9086            0    6622.9611    19.820111    19.793908    20.389736     7999.249    6771.6646    5895.7937     7201.425   -431.81253   -490.60778    225.16652   -4049.2343 
30896000    106.93707   -5025.2252    -4818.988   -5025.2252            0    7472.5214    19.760748    19.772036    20.348407    7950.3308    6830.6901     7244.692    8342.1822    -209.9263    759.10953    342.55729   -3952.5685 
30897000      107.591    -5039.474   -4831.9757    -5039.474            0    6636.0185    19.811708    19.894113    20.322027    8009.6493    4426.4066     7945.111    7536.5378   -240.57162    27.961281       12.794   -4056.8057 
30898000    105.13516   -5022.7659   -4820.0039   -5022.7659            0    7507.8941    19.748989    19.899821    20.299502    7977.7315    6614.0973    8594.4985    7315.0863    74.360682    1197.4933    280.85875   -3946.4827 
30899000    110.56966   -5019.1972   -4805.9543   -5019.1972            0    6858.1295    19.713628    19.936932    20.289353    7974.3095    6736.4971    5502.8745    8335.0169    508.41812    598.03656    337.07938   -4008.3736 
30900000    106.53169   -5019.8903   -4814.4349   -5019.8903            0    7258.1292    19.778631    19.800523    20.292269    7947.0055    7603.4004    6517.4609    7653.5262    170.37772    -413.6976    694.32883   -3973.2256 
30901000    112.59419   -5016.3117   -4799.1643   -5016.3117            0    5804.2136    19.791648    19.830507    20.387531    8001.6655    5498.0939    5130.4894    6784.0573    249.28083   -506.12907    558.78673   -4121.8353 
30902000    113.82911   -5024.8187   -4805.2897   -5024.8187            0    7627.7788    19.684913    19.833728    20.408592    7968.0287    7743.6131    7795.4315    7344.2918    450.32393    135.10873   -49.741653   -3918.8997 
30903000    106.81304   -5022.4694   -4816.4714   -5022.4694            0    7708.2643    19.685815    19.942286    20.323451    7978.5832    7287.0924    7592.0632    8245.6372   -1.5064663   -291.86687    641.65991    -3919.542 
30904000    106.39474   -5020.5265   -4815.3353   -5020.5265            0    6758.3282    19.754839    19.756556    20.534765    8014.4641    7353.4428    7789.4392    5132.1026   -409.04545    303.53965   -279.62279   -4025.4034 
30905000     110.5532   -5028.6733   -4815.4622   -5028.6733            0    7178.9096    19.770385    19.790914     20.39185    7978.8009    6618.0544      7232.87    7685.8044   -25.146309    760.73764    10.570616   -3980.1054 
30906000    103.48159   -5021.5014   -4821.9285   -5021.5014            0    6542.4312    19.713007    19.834512    20.372062     7965.433    5632.0009    7441.1687    6554.1239   -53.970362    561.02626   -634.75537   -4061.9095 
30907000    108.84098   -5020.0454   -4810.1364   -5020.0454            0    7997.3887    19.755312    19.900964    20.246506    7959.9089    8095.3042    7237.6589     8659.203   -913.78675   -439.68151    828.84827   -3881.7427 
30908000    103.14634   -5026.5484    -4827.622   -5026.5484            0    6870.1051    19.728897    19.768467    20.421552    7964.6109    7177.7304    7337.2902    6095.2948     50.69253    1085.2297   -974.17188   -4029.6203 
30909000    108.45469   -5028.7169   -4819.5529   -5028.7169            0    7285.6721    19.738341    19.728346    20.456189    7965.7384     6819.032      8529.49    6508.4941    -55.51837    721.97062    174.54391   -3973.1609 
30910000    109.74653   -5026.5039   -4814.8485   -5026.5039            0    7335.6051    19.921778    19.720462    20.347536    7993.8684    6377.6331    8454.8015    7174.3806    36.294069    421.00594    691.47526   -3959.6463 
30911000    105.32567   -5025.4014   -4822.2719   -5025.4014            0     6373.267    19.809499    19.895924    20.289617     7996.712    6823.9134    5350.9668    6944.9208   -170.70775    403.26014    669.46301    -4078.997 
30912000    110.02948   -5025.1425   -4812.9414   -5025.1425            0    5754.3503    19.780076    19.900027    20.330283    8002.4881    6104.5026    4376.9434     6781.605    -228.1905   -578.77444   -504.22032   -4141.3623 
30913000    108.79004   -5023.7797    -4813.969   -5023.7797            0    6350.2654    19.877699    19.812667    20.341509     8011.101    5589.6744    6673.1277    6787.9942    455.78205    1342.8823   -62.906767    -4072.044 
30914000    111.22233   -5037.2981   -4822.7965   -5037.2981            0    6816.0659    19.846782    19.763318    20.348275    7981.3725    5956.5144    7577.0654    6914.6179    208.60627    432.79958    865.53153   -4029.4056 
30915000    113.15417   -5029.7588   -4811.5315   -5029.7588            0     8539.926    19.757364    19.754732     20.31052     7927.225    7470.7068    9630.7912      8518.28   -121.06144    569.99018     -154.365   -3824.2269 
30916000    106.74683   -5008.5624   -4802.6922   -5008.5624            0    7579.5066    19.667091    19.794749    20.417013    7948.4479      9276.15    5903.7019    7558.6679    157.82712   -144.33355   -177.20943   -3924.0761 
30917000    108.40296   -5022.9461   -4813.8818   -5022.9461            0     6899.954    19.597473    19.878294    20.471884    7975.1156    7094.7992    6665.0499    6940.0128    55.347494     346.3687   -308.42163   -4011.3559 
30918000    116.08834   -5026.0313   -4802.1452   -5026.0313            0    6602.9359    19.820972    19.702923    20.430639    7978.7995    6657.3712    7222.6101    5928.8265   -580.75175    93.628466    -806.5602   -4033.8103 
30919000    113.94334   -5022.6121   -4802.8628   -5022.6121            0    6515.9836    19.732641    19.724608    20.544482    7996.2943    7311.4076    5893.8108    6342.7323    -176.9956   -504.60722    252.01708   -4042.9835 
30920000     110.4622   -5035.5572   -4822.5216   -5035.5572            0    5278.2327    19.769172    19.998528    20.425626      8075.36    5047.5157    4893.8016    5893.3807    240.02529     1131.764   -194.40135   -4200.8997 
30921000    108.47611    -5014.697   -4805.4917    -5014.697            0    7534.0859    19.909876    19.728664    20.333265    7986.8098    6123.1473    8399.7387    8079.3718    180.66576    347.63764     174.9958   -3927.9257 
30922000    107.21502   -5027.0501   -4820.2769   -5027.0501            0     7173.116    19.872187    19.839078    20.284505    7997.0824    7002.7476    7611.8189    6904.7816    150.17878    194.32387   -60.876826   -3983.6818 
30923000    106.46497   -5028.3205   -4822.9939   -5028.3205            0    6876.0932    19.799069    19.791024    20.355784    7976.2886    6750.4572    6612.4844    7265.3379    151.29623    120.11962   -369.14632   -4023.1255 
30924000    102.52827   -5014.8509   -4817.1165   -5014.8509            0    5158.9843    19.626726    19.983097    20.473602    8029.8034     5326.791    5130.5437    5019.6183   -472.23107   -702.58478   -596.97195   -4212.9662 
30925000    108.84899   -5025.2223   -4815.2978   -5025.2223            0    7021.9047    19.659023    19.824205    20.376487    7941.2163    6178.0852    7824.9451    7062.6836    657.04746    949.63909   -44.794305   -4002.0595 
30926000    105.47531   -5020.4283   -4817.0103   -5020.4283            0    8393.8633    19.809831    19.853784    20.122941    7914.3548     7343.997    8262.0185    9575.5745    392.95553    -1278.987     -508.073   -3848.1676 
30927000    110.18562    -5029.865   -4817.3628    -5029.865            0    5011.5751    19.891581    19.884942    20.337131    8044.2083     4519.808    4989.1588    5525.7584   -572.04879     863.2348   -271.52948   -4229.4222 
30928000    107.07743   -5021.4812   -4814.9734   -5021.4812            0    7328.3933    19.554567    19.863389    20.518822    7969.9204    8089.4771    7433.3572    6462.3455    177.82995    693.91793    304.49097   -3963.1714 
30929000    109.83974   -5015.8648   -4804.0296   -5015.8648            0    6406.1781    19.889896    19.642865    20.500626    8009.4824    6102.0775    6968.9333    6147.5234   -119.63579    45.759302   -470.33551   -4055.7234 
30930000    106.98786   -5014.8949   -4808.5598   -5014.8949            0    7089.2218    19.765101    19.763586    20.516562    8014.3699    6698.6333    6841.3302    7727.7019     48.11462   -428.45128   -945.34147   -3979.9619 
30931000    110.34936   -5030.0644   -4817.2464   -5030.0644            0    7973.5855    19.678593    19.679732    20.578727    7969.5122     8095.963     8938.924    6885.8696    -272.6455    1481.5351    694.09932   -3890.4992 
30932000    107.12559   -5022.9921   -4816.3914   -5022.9921            0    7296.0045    19.733118    19.780029    20.502568    8002.5961    8391.7739    6446.3721    7049.8675    257.38018    560.49587   -109.00667   -3964.8773 
30933000    104.44909   -5024.3012   -4822.8624   -5024.3012            0    6911.6534    19.696132    19.684876    20.521982    7956.6991    7833.0241     5946.954    6954.9822   -126.26345    256.96198   -396.09717   -4020.8321 
30934000    103.72592   -5027.7603   -4827.7161   -5027.7603            0     7273.823    19.759542    19.745619    20.430242    7971.1529    6745.6729    7458.6689    7617.1273    65.246023     183.1175    1201.0973   -3982.1263 
30935000    104.80982   -5003.6861   -4801.5516   -5003.6861            0    8086.7985    19.792777    19.751736    20.345855    7954.0433    8241.3132    7015.7768    9003.3055   -71.256591   -276.19851    335.94697   -3863.4703 
30936000     111.3618    -5017.854   -4803.0834    -5017.854            0     7476.212    19.870946    19.698692     20.39869    7984.6928    7788.3335    6151.8311    8488.4714    300.85448   -300.58668    452.86004   -3932.4894 
30937000    106.74683   -5026.6623   -4820.7921   -5026.6623            0    6848.2632    19.824384    19.734154    20.383105    7974.2267    5913.7873    7818.7729    6812.2293   -186.03882    532.03351      885.168   -4024.3671 
30938000    110.57319   -5021.3585   -4808.1088   -5021.3585            0    7585.2854    19.700576    19.828979    20.395272    7967.2563    7450.1905    7439.6147     7866.051   -9.6048404    460.19689   -45.329993   -3926.7422 
30939000    105.25355    -5029.314   -4826.3237    -5029.314            0    7124.6187    19.743453    19.804111    20.413498     7981.709    7059.8362    7309.3395    7004.6803   -180.98218   -1097.2985    625.28586   -3996.9822 
30940000    115.88946   -5021.2386    -4797.736   -5021.2386            0    6781.5036    19.770717    19.752829     20.41465    7972.4841    6198.6536    7988.1064    6157.7507   -150.55279   -182.07388   -608.05103   -4009.2472 
30941000    107.63976   -5013.5464   -4805.9541   -5013.5464            0    8378.6113    19.676123    19.745132    20.436833    7939.8659    8775.9366    9024.4458    7335.4514   -166.90004    452.25423     182.6963   -3835.7545 
30942000    106.71569   -5019.0803   -4813.2701   -5019.0803            0    7381.2006    19.755405     19.80668    20.521143    8029.6972    8863.4753    6610.4603    6669.6661    366.04789   -579.66461    377.01862   -3948.8954 
30943000     112.6092   -5026.0182   -4808.8419   -5026.0182            0    6709.7692    19.740353    19.733313    20.469229     7973.636    7920.7321    5093.5353    7115.0402   -117.97809    239.85331    278.29046    -4028.581 
30944000     115.3238   -5025.7164   -4803.3047   -5025.7164            0    6795.9788    19.747613    19.843036    20.368276    7981.3621    6936.2336    6012.6018    7439.1009    -604.8168    475.99732    966.71277    -4012.253 
30945000    106.12098   -5016.7751   -4812.1119   -5016.7751            0     6286.934    19.772839    19.871907      20.3175    7983.2338    7046.9779    5748.6318    6065.1923   -252.67178    509.85807    517.01177   -4080.1413 
30946000    109.90992    -5024.207   -4812.2365    -5024.207            0    7656.6308    19.781307    19.815561     20.27465    7947.2104    6953.3025    8312.0826    7704.5073   -235.19566   -1028.3862   -550.14208   -3924.8183 
30947000    111.85096   -5029.2525   -4813.5385   -5029.2525            0     6993.677    19.936456    19.735061    20.265948    7973.5804     5935.056    6904.5181    8141.4568   -17.107373    949.80485   -63.915081   -4000.2683 
30948000    104.48754   -5016.4159   -4814.9029   -5016.4159            0    7587.1923    19.841163    19.842768     20.27867    7983.7852    7245.8968    8173.7724    7341.9079    71.244314    1477.2224   -256.92141   -3931.4858 
30949000    112.40847   -5020.2435   -4803.4543   -5020.2435            0    7760.0464    19.679728    19.835573    20.429539    7974.8476    7119.9285    8323.7813    7836.4294   -436.07307    367.44468    99.373035   -3900.9223 
30950000    110.18394   -5037.0576   -4824.5586   -5037.0576            0    6662.5292     19.90242    19.770576    20.408219    8030.2732     5871.515    7707.4866     6408.586    102.98931   -411.11855   -1005.6845   -4044.2879 
30951000    108.45068   -5024.5143    -4815.358   -5024.5143            0    7322.9442    19.785334    19.757137    20.404888    7976.3024    8161.8051     6541.489    7265.5385    -208.6064    794.57822   -107.74435   -3963.5078 
30952000    108.13292   -5028.4541   -4819.9106   -5028.4541            0    4743.7718    19.652918    19.945653    20.540855    8051.8153    5526.4796    4317.6376    4387.1981    -137.5904     521.5126    426.24473   -4262.8615 
30953000      105.673    -5028.844   -4825.0447    -5028.844            0    7200.6717    19.835109    19.619329    20.571756      8005.53    7520.6652    7453.6846    6627.6652   -599.31447   -164.12332    710.65766   -3984.3487 
30954000    107.08322   -5026.8496   -4820.3306   -5026.8496            0    7205.8555    19.710225    19.801121    20.391111    7958.3357    7393.6005    7011.7601    7212.2058    473.25336    49.730701   -584.36556    -3983.989 
30955000    101.74325   -5027.5567   -4831.3363   -5027.5567            0    6766.0751    19.707299    19.836478     20.52297    8022.9092    5568.4517    7762.3719    6967.4018    279.18121    289.72221   -648.30442   -4039.6656 
30956000    107.16684   -5032.7393   -4826.0591   -5032.7393            0    7920.9825    19.777618    19.699261    20.475413    7977.3123    7523.4419    8343.0476     7896.458    151.13949   -87.857264   -672.17631   -3904.5247 
30957000    108.23071   -5023.6472   -4814.9151   -5023.6472            0     7434.304    19.569633    19.880168     20.48583    7969.9629    8115.1829    7040.9295    7146.7995   -455.10596    496.22033    1238.5629   -3950.7982 
30958000    107.03774   -5018.9855   -4812.5542   -5018.9855            0    6390.1151    19.863552    19.658344    20.506507    8007.4736    4118.2118    8821.1384    6230.9952   -65.519615   -170.93697     737.1977   -4066.3116 
30959000     105.0522   -5019.1485   -4816.5465   -5019.1485            0    7043.2412    19.868623    19.674276    20.431227    7986.5824    6522.6377    8284.3364    6322.7495    375.03699   -348.25119   -104.04293   -3996.1771 
30960000     111.3977   -5017.2818   -4802.4419   -5017.2818            0    6441.8059    19.814477    19.712865    20.484154    8001.1125    5615.8651    7770.1373    5939.4153    250.69767    1109.8754   -105.82018   -4050.7604 
30961000    109.11045    -5023.834   -4813.4053    -5023.834            0    7612.2615    19.713741    19.752714    20.491469    7979.3758    7670.4159     8032.705    7133.6636    156.02012   -711.90924    76.757421   -3927.5587 
30962000    108.85003   -5029.8324   -4819.9059   -5029.8324            0    6788.2864    19.787364     19.86866    20.469676    8047.6205    7575.4903    6409.8777    6379.4911    20.113555    1003.8014    158.84587   -4023.1899 
30963000    114.79721   -5028.3968   -4807.0008   -5028.3968            0    7495.9491    19.699796    19.776306    20.550734    8006.3439    6766.8004    8441.2758    7279.7712   -9.3755395    -270.8023    927.98911   -3931.7414 
30964000    113.45742   -5027.7625   -4808.9504   -5027.7625            0    7972.2883    19.647227    19.701726    20.558464    7957.8583    7905.5416    8543.0128    7468.3105    66.066705    48.875242    692.02316   -3883.7089 
30965000    105.29407   -5037.1597   -4834.0912   -5037.1597            0    6187.2045    19.676695    19.847749    20.472942     7995.464    7660.7358    5214.4499    5686.4277   -130.46429    1014.8038    160.31865   -4112.6283 
30966000    109.65609   -5029.1081   -4817.6271   -5029.1081            0    8014.0741    19.823774    19.684824    20.372114     7949.759    6174.1901    9312.7994    8555.2329    78.282999    851.70911    478.93703   -3888.4827 
30967000    107.99081   -5040.9155   -4832.6461   -5040.9155            0     6689.665    19.689775    19.929709    20.417937    8012.2329    6746.1271    6451.8157    6871.0522    186.29503    480.21811   -343.59849   -4050.9574 
30968000    110.63413   -5016.6714   -4803.3042   -5016.6714            0    8102.6294    19.751227    19.830025    20.272215    7939.9641     8418.449    8319.9743    7569.4648   -497.08992   -210.99562   -1170.4566   -3865.0502 
30969000    107.99459   -5017.0341   -4808.7575   -5017.0341            0    7426.0146    19.877494    19.807683    20.258375    7976.2712    6618.4755     8322.445    7337.1233    -606.5974   -337.11129    419.04676   -3944.9209 
30970000    106.46277   -5033.0129   -4827.6905   -5033.0129            0    7211.4722    19.819628    19.757854    20.436815    8002.9204    7334.8146    6687.2668    7612.3352    -488.6873    1120.5118    1009.7079    -3986.008 
30971000    112.35505    -5036.266   -4819.5798    -5036.266            0    6971.2979    19.657985    19.790875    20.516355    7981.8617    6516.6388    8188.1634    6209.0914     -77.4496    172.34981    135.50777   -4008.0701 
30972000    107.58262   -5033.3421   -4825.8599   -5033.3421            0     6924.572    19.725268    19.723321    20.535796     7989.406    7034.1064    7420.6929    6318.9165    429.18143   -204.35493    342.24135   -4019.0276 
30973000    106.14502   -5026.0099   -4821.3003   -5026.0099            0    6786.9827    19.769399    19.701282    20.484971    7978.5378    5921.2578    7644.2284    6795.4617   -253.60509    505.48865    19.097698   -4031.5752 
30974000    108.36633   -5023.8195    -4814.826   -5023.8195            0    7972.0745    19.835936    19.758013    20.328998    7967.3141    8490.5193     7048.238    8377.4661    257.17036    78.349364    116.55311   -3888.5099 
30975000    105.45298   -5026.8414   -4823.4664   -5026.8414            0    6859.7005    19.730785    19.937024    20.305475    7987.6284    7299.7004    5775.4267    7503.9744   -175.91619     131.9447    -19.68397   -4024.3705 
30976000     110.7706   -5034.7814    -4821.151   -5034.7814            0      6233.43    19.839987    19.891588    20.358784    8034.5705    5992.9634    5807.9171    6899.4095    98.797638   -486.85313   -212.01231   -4090.7428 
30977000    112.69111   -5009.4149   -4792.0806   -5009.4149            0    6507.8468    19.718848    19.932688    20.365337    8004.5885    6966.0853    5938.5894    6618.8656   -152.13451   -7.2067863   -104.06455   -4032.3629 
30978000    108.17044   -5012.9531   -4804.3373   -5012.9531            0    6421.5654    19.775005    19.917522    20.342343    8012.2206     6072.951    5826.5378    7365.2073    -311.5733    149.43698   -368.22811   -4053.9773 
30979000    110.35663   -5028.0782   -4815.2462   -5028.0782            0    4975.5422    19.898246     19.83519    20.439191    8067.0522    5313.5044    4395.1899    5217.9323     163.9614    532.75033   -445.04809   -4229.8752 
30980000    111.38026   -5014.1226   -4799.3164   -5014.1226            0    6665.6772    19.681436    19.862844    20.401121    7975.3957    6825.3991    5205.1688    7966.4636    63.416046    1698.3218   -193.94141   -4024.0118 
30981000    113.67273   -5025.6894    -4806.462   -5025.6894            0     6113.931    19.740876    19.995556    20.278733    8004.6203    6785.5957    4732.9993    6823.1982   -169.23778    682.91244    502.04192   -4092.7267 
30982000    109.62074   -5028.7881   -4817.3753   -5028.7881            0    7383.9532    19.753839    19.827306    20.444278    8007.3166    7432.4599    7417.9363    7301.4635   -377.05187   -751.52435    313.91744   -3955.0883 
30983000    107.16857   -5032.2233   -4825.5397   -5032.2233            0     6962.863    19.755966    19.672993    20.666532    8032.2332    6689.4734    6818.1119    7381.0037   -750.39608     431.6511    1167.3444   -4009.8968 
30984000    110.09271   -5019.8432   -4807.5202   -5019.8432            0    6712.3567    19.624389    19.845843    20.483494    7977.5534    7773.9382    6307.7889    6055.3432   -594.62665    425.08503   -9.5354709   -4026.5748 
30985000    104.81514   -5026.2025   -4824.0577   -5026.2025            0    7911.8132    19.761674    19.793686    20.430183    7991.3964    7528.1928    8485.7707    7721.4762    123.81729   -844.18287   -354.85601    -3901.965 
30986000    102.11389   -5022.0316   -4825.0963   -5022.0316            0    7269.9446    19.712773     19.80375    20.433167    7976.8396    7529.7044    6127.6099    8152.5196    433.41419    997.67705    841.67133   -3979.3544 
30987000    106.56325   -5021.9384   -4816.4222   -5021.9384            0    6677.7828    19.795951    19.795831    20.427428    8005.0453    5523.8884    7144.7344    7364.7255    47.043282    1001.4979    661.34773    -4036.822 
30988000    106.23855   -5013.5737   -4808.6837   -5013.5737            0    5910.2976    19.764515    19.856565    20.388693     8001.652    4950.0395    6123.6848    6657.1684   -93.206812   -472.47359   -277.67061   -4118.9763 
30989000    106.66633   -5015.7172   -4810.0022   -5015.7172            0    8123.7744    19.646047    19.766962     20.36417    7908.2763    7590.3132    9229.1576    7551.8525    -174.6142    357.82046   -689.71444    -3873.054 
30990000    107.49865   -5020.8286   -4813.5084   -5020.8286            0    6572.8528     19.91011     19.72957    20.432932    8026.4217    6050.1353    7126.4435    6541.9796   -209.29495   -227.26007    1188.8458   -4044.1092 
30991000    104.91708   -5022.1598   -4819.8183   -5022.1598            0    7034.2847    19.729223    19.875419    20.309628    7963.9447    5920.0754    7497.5165     7685.262    -380.5049    294.90501    16.428687   -4002.8146 
30992000    107.74717   -5024.4506   -4816.6511   -5024.4506            0    6927.1102    19.663561    19.788529    20.526923    7987.2915    6343.1536    7952.6302    6485.5469   -139.44523   -894.57072   -733.83994   -4009.7366 
30993000    112.06929   -5029.3814   -4813.2463   -5029.3814            0    6241.2148    19.793606    19.853863    20.472369     8045.222     5705.227    6370.3015    6648.1157    211.76454   -227.80327   -604.63307   -4080.9564 
30994000    110.51644   -5019.7045   -4806.5642   -5019.7045            0    7493.8665    19.688952    19.851002    20.391253     7969.828    7711.8261     7670.741    7099.0324     15.96193    331.71037    150.27709   -3935.5389 
30995000    114.48533    -5018.102   -4797.3074    -5018.102            0    6549.6069    19.799316    19.791788    20.370886    7982.6139    5984.4446    6869.1455    6795.2306   -231.26027   -113.43311    938.65446   -4034.8137 
30996000    109.43071   -5017.1659   -4806.1196   -5017.1659            0    7618.2969    19.628872    19.835231    20.465745    7968.1989    7737.7956    7582.7143    7534.3809    231.76267    72.202416    152.27808   -3920.8125 
30997000    111.51499   -5033.2461   -4818.1801   -5033.2461            0    7364.5865    19.857381    19.710335    20.413292    7989.6733    6222.5031     8626.683    7244.5734    10.964557   -79.642187   -924.89174   -3960.0497 
30998000    112.97524   -5022.7518   -4804.8695   -5022.7518            0     7099.922    19.733227    19.713102    20.551289    7994.5158     7722.642    6793.4197    6783.7044   -97.033594    10.001728    173.16379   -3977.0767 
30999000    106.56508   -5030.8964   -4825.3767   -5030.8964            0    7642.0321    19.806338    19.693425    20.495126    7994.2189    6670.2664    8670.5571    7585.2726    321.97184     575.6656    438.02037   -3934.4114 
31000000    111.33526   -5008.4682   -4793.7488   -5008.4682            0    8275.9153    19.678739    19.751884    20.494997    7966.2445    6896.0746    10828.332    7103.3398   -287.01699    20.776365    945.72363   -3832.2571 
Loop time of 355.512 on 64 procs for 250000 steps with 972 atoms

Performance: 121.515 ns/day, 0.198 hours/ns, 703.211 timesteps/s
194.4% CPU use with 32 MPI tasks x 2 OpenMP threads

MPI task timing breakdown:
Section |  min time  |  avg time  |  max time  |%varavg| %total
---------------------------------------------------------------
Pair    | 27.425     | 35.49      | 45.53      |  71.8 |  9.98
Bond    | 0.97448    | 1.1957     | 1.5507     |  11.0 |  0.34
Kspace  | 151.56     | 163.06     | 169.5      |  34.1 | 45.87
Neigh   | 0.65282    | 0.68466    | 0.72982    |   2.8 |  0.19
Comm    | 62.704     | 66.952     | 70.543     |  24.0 | 18.83
Output  | 0.5727     | 0.5731     | 0.57491    |   0.0 |  0.16
Modify  | 70.849     | 72.643     | 75.023     |  11.9 | 20.43
Other   |            | 14.91      |            |       |  4.19

Nlocal:        30.3750 ave          38 max          26 min
Histogram: 4 5 5 3 5 6 1 2 0 1
Nghost:        2736.09 ave        2764 max        2715 min
Histogram: 3 3 3 4 6 6 4 2 0 1
Neighs:        9860.00 ave       12343 max        8191 min
Histogram: 5 4 4 4 3 3 3 3 2 1

Total # of neighbors = 315520
Ave neighs/atom = 324.60905
Ave special neighs/atom = 2.0000000
Neighbor list builds = 2046
Dangerous builds = 0

unfix		3
unfix		2
unfix		1

write_data	data.final.${pid}
write_data	data.final.1
System init for write_data ...
PPPM initialization ...
  extracting TIP4P info from pair style
  using 12-bit tables for long-range coulomb (../kspace.cpp:340)
  G vector (1/distance) = 0.37238415
  grid = 24 24 24
  stencil order = 5
  estimated absolute RMS force accuracy = 0.003486286
  estimated relative force accuracy = 1.0498847e-05
  using double precision FFTW3
  3d grid and FFT values/proc = 3211 432
Last active /omp style is kspace_style pppm/tip4p/omp
WARNING: Not all mixed pair coeffs generated from mixing. Use write_data with 'pair ij' option to store all pair coeffs. (../write_data.cpp:312)

write_restart   restart.lmp.${pid}
write_restart   restart.lmp.1
System init for write_restart ...
PPPM initialization ...
  extracting TIP4P info from pair style
  using 12-bit tables for long-range coulomb (../kspace.cpp:340)
  G vector (1/distance) = 0.37238415
  grid = 24 24 24
  stencil order = 5
  estimated absolute RMS force accuracy = 0.003486286
  estimated relative force accuracy = 1.0498847e-05
  using double precision FFTW3
  3d grid and FFT values/proc = 3211 432
Last active /omp style is kspace_style pppm/tip4p/omp
Total wall time: 0:05:55
