LAMMPS data file via write_data, version 30 Jul 2021, timestep = 7250000

1296 atoms
2 atom types
864 bonds
1 bond types
432 angles
1 angle types

-10.569766041303728 12.549766041303728 xlo xhi
-9.065270976778725 12.055268976778725 ylo yhi
0.3111545743248918 21.548844425681928 zlo zhi
-9.15194304722585 1.8412929775620226 2.7751426887975565 xy xz yz

Masses

1 1.008
2 15.999

Pair Coeffs # lj/cut/tip4p/long/omp

1 0 0
2 0.21084 3.1668

Bond Coeffs # harmonic/omp

1 450 0.9572

Angle Coeffs # harmonic/omp

1 55 104.52

Atoms # full

282 94 1 0.5897 -10.39761944635827 -3.985585797654891 1.8110204181463523 1 1 0
280 94 2 -1.1794 -9.502772612818323 -4.316704688707786 1.7341862704671338 1 1 0
299 100 1 0.5897 -6.5509355179248905 -7.808491119141653 4.155178763008019 1 1 0
163 55 2 -1.1794 -7.153646412552664 -7.836540619326517 0.9886858893094298 1 1 0
164 55 1 0.5897 -6.328860709403222 -8.204489580515508 1.3060036145214688 1 1 0
270 90 1 0.5897 -8.413685397960839 -7.226032542749872 2.2245480203585726 1 1 0
269 90 1 0.5897 -9.160892520673155 -5.932844816710869 2.471570314401393 1 1 0
268 90 2 -1.1794 -9.01609796381699 -6.805235333066058 2.837871679668755 1 1 0
324 108 1 0.5897 -7.092100452669504 -4.221423838096875 3.5648227113905064 1 1 0
73 25 2 -1.1794 -8.245685496183755 -3.592531431489503 4.822916257709039 1 0 0
298 100 2 -1.1794 -5.940878831610636 -7.071758610415217 4.1900386104310705 1 1 0
314 105 1 0.5897 -8.771593787971302 -6.429110199658129 4.575791866730245 1 1 0
323 108 1 0.5897 -6.259695138980533 -5.477077708466291 3.415890258072549 1 1 0
260 87 1 0.5897 -6.837784903086563 -6.150449713089349 0.45678703323660175 1 1 0
59 20 1 0.5897 -13.506372879531362 -0.8388884522558886 3.5216771170892187 1 0 0
315 105 1 0.5897 -8.550879491412589 -5.2235235724112785 5.464212935172758 1 1 0
259 87 2 -1.1794 -6.640718415170582 -5.218175873972994 0.36650781308951186 1 1 0
75 25 1 0.5897 -9.117088108425692 -3.326777010784812 4.529009432186488 1 0 0
97 33 2 -1.1794 -11.847637714850698 0.7712765665211432 5.518211663288587 1 0 0
275 92 1 0.5897 -10.34518924276999 -7.737166332259189 3.538219881761607 1 1 0
281 94 1 0.5897 -8.958744451628686 -3.530371608765468 1.690985189062064 1 1 0
44 15 1 0.5897 -9.985148370479388 0.8759018475465314 0.5998490150301937 1 0 0
54 18 1 0.5897 -11.396224937456479 -0.23259893471900206 2.337259289825227 1 0 0
261 87 1 0.5897 -6.670248464062777 -4.879032069019158 1.2610610762169576 1 1 0
322 108 2 -1.1794 -6.3720977707532604 -4.596538695183768 3.057812771767628 1 1 0
84 28 1 0.5897 -8.171008706262903 -0.42328718344060157 4.292981629316486 1 0 0
256 86 2 -1.1794 -12.016613375787443 -3.2672687711549067 2.056113748927416 1 1 0
82 28 2 -1.1794 -9.047928584322655 -0.043043792957007554 4.34507846414103 1 0 0
107 36 1 0.5897 -9.377261653789546 1.548086798591651 3.5888069859988163 1 0 0
301 101 2 -1.1794 -7.852436589444416 -2.106028591485674 1.6803606105826527 1 1 0
98 33 1 0.5897 -11.87056281535196 0.4465536296084096 4.618125970606899 1 0 0
83 28 1 0.5897 -9.634177715332122 -0.7978698744698907 4.397079817909949 1 0 0
67 23 2 -1.1794 -10.606493341779625 -2.356762562264344 4.192316918076406 1 0 0
68 23 1 0.5897 -11.295221392033957 -2.4786831240412077 4.845766359249775 1 0 0
69 23 1 0.5897 -11.018813837982174 -2.594657608032394 3.3618934990742635 1 0 0
272 91 1 0.5897 -9.354807813670108 -1.1267899269373798 1.45394496729375 1 1 0
271 91 2 -1.1794 -10.182825210297327 -0.8050838878996114 1.097227265557604 1 1 0
258 86 1 0.5897 -12.422811603491871 -2.695565903753603 1.4045919061650047 1 1 0
52 18 2 -1.1794 -12.142187246821445 0.09228527002786713 2.841421843289395 1 0 0
53 18 1 0.5897 -12.255149349973657 0.9961542226944218 2.5473980860227026 1 0 0
313 105 2 -1.1794 -8.735438704194276 -6.162218053748612 5.494269728388043 1 1 0
99 33 1 0.5897 -11.686558972452403 1.7106635353369857 5.430287555250856 1 0 0
300 100 1 0.5897 -5.0743294343003535 -7.478139615759548 4.205452299503744 1 1 0
74 25 1 0.5897 -8.050938269774726 -3.0082799671809948 5.555587416451129 1 0 0
273 91 1 0.5897 -10.358780310725757 -1.3743164270799433 0.3481619921525462 1 1 0
420 140 1 0.5897 -9.027519125430079 -6.3734325529949345 10.021516049040843 1 0 0
414 138 1 0.5897 -6.672555972008348 -4.754665627982579 7.524318582029109 1 0 0
413 138 1 0.5897 -7.568741478975074 -3.551636080467384 7.727639756388462 1 0 0
412 138 2 -1.1794 -7.375881756949371 -4.420163371038609 8.080746474907787 1 0 0
350 117 1 0.5897 -7.051643368717156 -4.151108330594001 9.887821233492303 0 0 0
429 143 1 0.5897 -6.411550194036047 -7.064047522759404 8.622330619167315 1 0 0
428 143 1 0.5897 -6.559299502790305 -6.95061407869497 10.124676219193926 1 0 0
427 143 2 -1.1794 -5.95063357031404 -6.770565544630214 9.40821549667126 1 0 0
627 209 1 0.5897 -10.225385324735619 -6.631998937737979 6.4180526493766195 1 1 0
618 206 1 0.5897 -7.716054498015803 -7.188626852206067 6.627206267481768 1 1 0
419 140 1 0.5897 -8.678671702502774 -5.481870197239741 8.848770788359955 1 0 0
418 140 2 -1.1794 -9.42279582787163 -5.864323014520343 9.313784973951655 1 0 0
616 206 2 -1.1794 -7.318946460327899 -7.779793443239295 7.266852032902769 1 1 0
351 117 1 0.5897 -6.931393168093557 -2.9370107541830155 10.783890686929755 0 0 0
349 117 2 -1.1794 -7.05454708354927 -3.8858982823876973 10.807490528368072 0 0 0
410 137 1 0.5897 -13.533890727009393 0.4424629404117031 7.970281194741222 1 0 0
535 179 2 -1.1794 -8.979062422903857 0.13425863469376154 9.530134073138429 1 0 0
528 176 1 0.5897 -12.14692500376482 0.67180888411702 9.948927867642931 1 0 0
424 142 2 -1.1794 -8.061984302340214 -2.005424119735455 7.0402016784839985 1 0 0
435 145 1 0.5897 -7.49081558797218 -0.8025826265039306 9.8185417594813 0 0 0
400 134 2 -1.1794 -10.474784542149093 -0.7575878670226395 7.401002987649259 1 0 0
411 137 1 0.5897 -13.255862887461813 0.30401481465457003 6.488641168023457 1 0 0
402 134 1 0.5897 -10.879967015634858 -0.1907849821482248 6.7445896473642435 1 0 0
401 134 1 0.5897 -11.210531376846152 -1.2063018155085068 7.817595021574731 1 0 0
527 176 1 0.5897 -11.932865838848459 1.6097294272030531 8.779992708311603 1 0 0
522 174 1 0.5897 -9.9544506336946 2.3191844312970264 7.526523139546275 1 0 0
426 142 1 0.5897 -8.911153957632305 -1.5679665425025435 7.102036565164942 1 0 0
526 176 2 -1.1794 -12.618446092241278 1.2250247020157996 9.32607262075202 1 0 0
537 179 1 0.5897 -9.384293729489404 -0.1105823321722692 8.698242853926084 1 0 0
536 179 1 0.5897 -9.671940194105392 0.01320187240745696 10.179343840532583 1 0 0
415 139 2 -1.1794 -8.658808222175919 1.667013238516276 6.481325205673266 1 0 0
425 142 1 0.5897 -7.423104143882616 -1.2928725132144772 7.05660371800577 1 0 0
626 209 1 0.5897 -10.358019908637814 -6.493612591661678 7.919717469074051 1 1 0
633 211 1 0.5897 -5.762689836425245 -6.00730235305636 5.657605769665089 1 1 0
417 139 1 0.5897 -8.96580438922545 1.1208954012944279 5.757712526862122 1 0 0
652 218 2 -1.1794 -5.637267728564261 -5.466285263546881 12.551661931148086 0 0 0
788 263 1 0.5897 -4.902845540454574 -4.449924918522112 15.407344137698201 0 0 0
780 260 1 0.5897 -7.3850487499125235 -3.8038692836727934 15.122070547285368 0 0 0
779 260 1 0.5897 -7.122279401183756 -2.7945546386391715 14.02473246858343 0 0 0
778 260 2 -1.1794 -7.830679166365437 -3.229893595169721 14.498940842288324 0 0 0
768 256 1 0.5897 -9.484885765073663 -2.545781861138548 14.684556775315201 0 0 0
654 218 1 0.5897 -6.082387630879859 -4.926695692440918 11.898186977621926 0 0 0
653 218 1 0.5897 -6.346017648228767 -5.869233915196364 13.053190940706637 0 0 0
766 256 2 -1.1794 -10.36498978315921 -2.184399679087112 14.789945358673256 0 0 0
740 247 1 0.5897 -10.739623721530627 -3.4126449914883796 12.151044974448915 1 0 0
729 243 1 0.5897 -7.9991090041415855 -7.1116093252482155 12.06013136562331 1 0 0
684 228 1 0.5897 -8.38998031714868 -6.430815853765978 14.286661820242895 0 0 0
682 228 2 -1.1794 -7.673091574821932 -6.795041126220651 13.76744057873189 0 0 0
663 221 1 0.5897 -8.641723386133332 -4.279151514123771 11.749658057535594 0 0 0
662 221 1 0.5897 -8.749070502730005 -4.151076926625351 13.254256656979353 0 0 0
661 221 2 -1.1794 -9.244135776439814 -4.419271209508988 12.480184753982245 0 0 0
770 257 1 0.5897 -11.956140358944692 2.865096397192154 13.248456307447283 0 0 0
739 247 2 -1.1794 -11.539489884133113 -3.0275831213709195 11.792861969355553 1 0 0
835 279 2 -1.1794 -11.287181883336125 -0.31694500225734856 11.084280031831307 1 0 0
769 257 2 -1.1794 -12.389508234190654 2.6643060478096654 12.418941476452911 0 0 0
761 254 1 0.5897 -9.432578204655716 1.2516805554877752 13.080677127373423 0 0 0
727 243 2 -1.1794 -8.063425164067773 -7.366071703358096 11.139665051696095 1 0 0
771 257 1 0.5897 -11.726587838474174 2.843957403640557 11.752252281955048 0 0 0
888 296 1 0.5897 -10.44047047784285 3.0821144832374276 15.20529399209167 0 0 0
762 254 1 0.5897 -9.186689349008553 2.2151200367257786 11.93907788884373 0 0 0
760 254 2 -1.1794 -8.747857976097128 1.7794623780867607 12.669803302972321 0 0 0
792 264 1 0.5897 -11.563932024672779 0.6484675737475367 14.180884976986537 0 0 0
837 279 1 0.5897 -11.155305296331152 -0.0500719456814096 11.99397150556503 1 0 0
896 299 1 0.5897 -8.075093361743392 2.510263212969564 15.561848669611752 0 0 0
791 264 1 0.5897 -10.653751339839863 -0.5604391948579419 14.136957500529922 0 0 0
790 264 2 -1.1794 -10.779224342381415 0.3069711470627574 13.752155418366849 0 0 0
757 253 2 -1.1794 -9.709266478183963 -5.781665993387904 15.468754228544753 0 0 0
836 279 1 0.5897 -11.382915237822584 -1.2684188738429922 11.124907860753265 1 0 0
767 256 1 0.5897 -10.941152770931446 -2.9486450222820446 14.779375527793698 0 0 0
758 253 1 0.5897 -9.443398223699862 -5.14312700132428 16.130317386506924 0 0 0
789 263 1 0.5897 -4.732797257546001 -4.716581035909833 13.926916113678464 0 0 0
866 289 1 0.5897 -12.57573681806424 1.6835186637106379 16.234093959579248 0 0 0
1089 363 1 0.5897 -6.576425450096872 -4.586532339448871 17.217388121091314 0 0 0
1152 384 1 0.5897 -6.790216335327588 -3.8778250813635733 19.73457866155941 0 0 0
1225 409 2 -1.1794 -8.094161671758282 -3.377239913522386 20.871611528145507 0 0 0
1227 409 1 0.5897 -8.908918208224005 -3.0754360151877904 20.469810444717787 0 0 0
1109 370 1 0.5897 -8.663511466523309 -3.3532001211162843 17.529021730179053 0 0 0
1219 407 2 -1.1794 -10.41526682131768 -1.951968411964991 20.219893866489134 0 0 0
1108 370 2 -1.1794 -9.251466456705938 -4.1083124999079645 17.512675335437876 0 0 0
1129 377 2 -1.1794 -7.634176814783922 -1.8710666636386062 17.549255026909623 0 0 0
1151 384 1 0.5897 -6.009534843871155 -5.124677047419475 19.377402050050673 0 0 0
1150 384 2 -1.1794 -6.242065190588255 -4.256739655408506 19.047494623635732 0 0 0
1088 363 1 0.5897 -6.666525391943582 -5.798941340157652 16.31551882129908 0 0 0
1248 416 1 0.5897 -5.8733691771019725 -1.4583310903832416 20.490216457245722 0 0 0
1097 366 1 0.5897 -8.882472652702617 -5.653879143479514 18.276940573201372 0 0 0
1087 363 2 -1.1794 -6.511489557222596 -4.854560746248044 16.30083340349792 0 0 0
1143 381 1 0.5897 -8.350879372518431 -5.115337333603572 21.228750416020784 0 0 0
1011 337 1 0.5897 -12.020182222783356 4.077934985173476 20.419905655935903 0 -1 0
1141 381 2 -1.1794 -8.39936185986065 -6.0688674300899095 21.296214356121457 0 0 0
1130 377 1 0.5897 -7.153376891403254 -1.659323196347735 18.349393594395565 0 0 0
1251 417 1 0.5897 -11.463343485428684 1.9399065140124865 21.292749417556774 0 0 0
1218 406 1 0.5897 -13.337482472659453 3.2394745910054112 17.495795386525685 0 0 0
1131 377 1 0.5897 -6.976246273459303 -1.827632699695564 16.8553992530769 0 0 0
1101 367 1 0.5897 -10.27579839652215 -1.135398299617707 16.30178548780051 0 0 0
1229 410 1 0.5897 -7.8787193164785645 3.508024966843159 18.453971815058257 0 0 0
1226 409 1 0.5897 -7.902751443670237 -2.724881522451561 21.54530395219576 0 0 0
1096 366 2 -1.1794 -8.742963491526924 -6.553256382302397 18.573352223838594 0 0 0
1142 381 1 0.5897 -8.479458613607814 -6.36960871578413 20.391076099677324 0 0 0
1246 416 2 -1.1794 -6.334594372610576 -0.9855721988469899 19.797321481098223 0 0 0
1195 399 2 -1.1794 -9.602732970155515 2.137683857434215 16.486934403076198 0 0 0
1250 417 1 0.5897 -11.714545874417539 0.695313713426172 20.46853334961532 0 0 0
1009 337 2 -1.1794 -11.241445726459355 3.6392224561702733 20.762610478451915 0 -1 0
1260 420 1 0.5897 -9.955852051034508 3.0843349730751797 19.687099401047124 0 0 0
1259 420 1 0.5897 -9.21591443017064 1.7733138490443796 19.52756910593934 0 0 0
1258 420 2 -1.1794 -9.28360575068821 2.6540246754420327 19.158819248405226 0 0 0
1100 367 1 0.5897 -9.145510887633248 -0.8752283313812868 17.274812953078214 0 0 0
1236 412 1 0.5897 -7.843297805029182 -0.23360218777822084 20.173850037587293 0 0 0
1235 412 1 0.5897 -9.324514417315578 -0.5421039311597387 20.227302910985756 0 0 0
1234 412 2 -1.1794 -8.701421303293046 0.1842116493700292 20.246887382801468 0 0 0
1205 402 1 0.5897 -12.223613307762424 1.2142052701957766 18.30463483030386 0 0 0
1197 399 1 0.5897 -9.579476311243678 2.355980737523355 17.418575724870635 0 0 0
1216 406 2 -1.1794 -12.501709886122736 2.784680227776562 17.600435541296626 0 0 0
1206 402 1 0.5897 -11.333360124477693 -0.002644108574509474 18.168540002255018 0 0 0
1099 367 2 -1.1794 -9.999988051714647 -0.5421674420371421 17.00042686919986 0 0 0
1196 399 1 0.5897 -9.82563390954933 1.207146773002174 16.46408852572175 0 0 0
1121 374 1 0.5897 -4.773084883270788 -3.34913057183954 18.42058948327812 0 0 0
1217 406 1 0.5897 -11.847408214609514 3.483262742502893 17.60672055978393 0 0 0
1249 417 2 -1.1794 -11.570652444010314 0.9917161691218705 21.367190856653753 0 0 0
1110 370 1 0.5897 -10.127986022022414 -3.731846856939949 17.591871304156292 0 0 0
165 55 1 0.5897 -5.542021130573989 -5.602873905132488 21.471291393630267 1 1 -1
1010 337 1 0.5897 -10.978445767009493 4.169698944733115 21.514628454047365 0 -1 0
40 14 2 -1.1794 -15.058578109350718 3.7354234432476847 1.995363152397149 1 0 0
177 59 1 0.5897 -14.038196437573355 4.483762946925355 3.3626136766407804 1 0 0
42 14 1 0.5897 -15.527697975898711 4.238691945952963 1.3297979029262414 1 0 0
85 29 2 -1.1794 -11.024091393994134 4.716932608433307 1.6811023375320944 1 0 0
55 19 2 -1.1794 -13.225841986839246 6.164240918385596 1.0017640645775718 1 0 0
56 19 1 0.5897 -12.399831632079053 5.825801291244087 1.3474767125971947 1 0 0
66 22 1 0.5897 -13.523978710589038 2.9102159590079353 1.688400388933326 1 0 0
65 22 1 0.5897 -12.058897010184257 3.287122716549936 1.7475865782658737 1 0 0
64 22 2 -1.1794 -12.646180095746576 2.531396263133356 1.736163788204013 1 0 0
191 64 1 0.5897 -12.544538475003069 6.200807760065905 4.255677877452696 1 0 0
190 64 2 -1.1794 -11.946496755067207 6.945732461278157 4.315551536691945 1 0 0
183 61 1 0.5897 -12.237889115346801 3.7631830736172454 4.574314494245624 1 0 0
181 61 2 -1.1794 -11.4287628125214 3.401940724649057 4.93648184193705 1 0 0
176 59 1 0.5897 -14.346951548174683 4.630839589957413 4.837319156201171 1 0 0
175 59 2 -1.1794 -13.646804592218473 4.747923080193599 4.195215977796668 1 0 0
108 36 1 0.5897 -10.220686773678453 2.7911356194576697 3.7764630135033834 1 0 0
162 54 1 0.5897 -14.462206624801063 6.840854197487314 2.1540492819648325 1 0 0
151 51 2 -1.1794 -12.703801612025641 8.793553730903822 0.4228058866575741 1 0 0
106 36 2 -1.1794 -9.529562288768137 2.421178168276475 3.2272402318137408 1 0 0
205 69 2 -1.1794 -14.85254412170772 7.7658153314844025 5.400524248283557 1 0 0
152 51 1 0.5897 -12.890592828311663 7.856638491165297 0.4812633518003383 1 0 0
207 69 1 0.5897 -14.719937800050033 8.712823665759496 5.359196024940498 1 0 0
160 54 2 -1.1794 -15.134361768409262 7.1918119434451935 2.738158754699795 1 0 0
192 64 1 0.5897 -11.081629899161971 6.573789758427344 4.142557426475136 1 0 0
206 69 1 0.5897 -14.891555266476413 7.48889022713273 4.4851404425655 1 0 0
214 72 2 -1.1794 -12.545160483755582 9.372922958051193 3.1621014555325146 1 0 0
45 15 1 0.5897 -9.641341710130416 2.1139431126393298 1.4001698008112697 1 0 0
43 15 2 -1.1794 -9.729256380892506 1.7930740917136205 0.5027030674922904 1 0 0
215 72 1 0.5897 -12.427069290040047 8.477295694740642 3.4785056492574777 1 0 0
174 58 1 0.5897 -16.418172977016066 10.00385036438214 1.686927145195733 1 0 0
173 58 1 0.5897 -14.975158334253525 10.435286065794555 1.5334359912049296 1 0 0
172 58 2 -1.1794 -15.527330001161863 9.658934942790472 1.6258771590219872 1 0 0
161 54 1 0.5897 -15.214937470038002 8.11163939013156 2.4859532865054406 1 0 0
193 65 2 -1.1794 -14.001987474432724 11.958194352299076 1.685478237689596 1 0 0
283 95 2 -1.1794 -16.754490306679152 11.853019666614268 4.102399618737791 1 0 0
285 95 1 0.5897 -17.182640045905877 11.535052606120841 3.3075592619672363 1 0 0
148 50 2 -1.1794 -18.00665192120995 10.720053353484447 1.9179742846922612 1 0 0
150 50 1 0.5897 -18.45884999402726 11.265231611706271 1.2740589360487133 1 0 0
289 97 2 -1.1794 -14.493939680312339 10.482899820240076 4.801490074599085 1 0 0
291 97 1 0.5897 -15.31872616992237 10.84953115755931 4.4826506071503545 1 0 0
284 95 1 0.5897 -17.404805922231816 11.724771720378827 4.792941904249233 1 0 0
216 72 1 0.5897 -13.227993555522799 9.738100427607206 3.724733364252918 1 0 0
153 51 1 0.5897 -12.74771289428238 9.103794211491985 1.3272083512778574 1 0 0
167 56 1 0.5897 -16.481258699470292 6.207525703349248 3.432937281504916 1 0 0
86 29 1 0.5897 -10.561676293838554 4.931331339767876 2.4913027249772757 1 0 0
290 97 1 0.5897 -14.223693859351796 11.074642902446863 5.503558446589155 1 0 0
532 178 2 -1.1794 -11.039368955640851 5.1137751642721625 7.0077685288817335 1 0 0
521 174 1 0.5897 -10.842960708263556 3.510332243450266 7.815407346069965 1 0 0
534 178 1 0.5897 -11.86125623034905 5.582847437617437 7.151758049840854 1 0 0
645 215 1 0.5897 -12.347263402105618 7.0827562826335555 8.73527672771458 1 0 0
644 215 1 0.5897 -12.602583531978265 7.09659363694456 10.227383872691972 1 0 0
643 215 2 -1.1794 -11.912847655470921 7.225092232601371 9.576262725692642 1 0 0
510 170 1 0.5897 -13.855815481898823 6.83718928309626 6.6157654454035235 1 0 0
508 170 2 -1.1794 -13.404691119347637 6.393749634609923 7.334222027942152 1 0 0
543 181 1 0.5897 -10.530015310637598 6.209672396647681 9.955321702310373 0 0 0
509 170 1 0.5897 -14.079711965963085 5.852615977584538 7.743780005995629 1 0 0
636 212 1 0.5897 -15.100391699329398 7.658554481607682 9.845553721074369 1 0 0
519 173 1 0.5897 -16.43189703283324 7.322412886224425 6.277625005436539 1 0 0
520 174 2 -1.1794 -10.613126805443597 2.6405058968077153 8.142202404345175 1 0 0
641 214 1 0.5897 -13.386943671436315 12.904532285445947 6.887487846941732 1 0 0
182 61 1 0.5897 -11.18907811875625 4.006625837669731 5.638615045063258 1 0 0
567 189 1 0.5897 -13.100715041412597 11.109282553941066 10.658462038979538 0 0 0
617 206 1 0.5897 -17.21424146369744 12.915103486036509 7.694032277478751 1 0 0
630 210 1 0.5897 -12.877181250477234 9.33588308683919 7.45861560599646 1 0 0
628 210 2 -1.1794 -13.582922279901368 9.647703839546372 8.025070272170929 1 0 0
629 210 1 0.5897 -13.744187461945463 10.545613702247705 7.73533415440967 1 0 0
533 178 1 0.5897 -10.365211762430286 5.791887453278919 7.050780091485622 1 0 0
634 212 2 -1.1794 -15.572625819520393 8.158392181611225 9.1796052021897 1 0 0
635 212 1 0.5897 -14.886528351839639 8.60364943307088 8.682375977050846 1 0 0
566 189 1 0.5897 -13.307433830304122 9.89139752343034 9.78355344229304 0 0 0
642 214 1 0.5897 -14.849864267100486 12.539997524764429 7.025273802359776 1 0 0
640 214 2 -1.1794 -13.983785725562548 12.156242402721526 6.8877465117456556 1 0 0
565 189 2 -1.1794 -13.2234548797997 10.160876823883436 10.698142716891955 0 0 0
327 109 1 0.5897 -13.687442496912219 13.235142828025753 9.766055115833634 0 -1 0
459 153 1 0.5897 -9.997370648089703 3.9998659313463616 10.737386629196013 0 0 0
518 173 1 0.5897 -16.54513480675719 7.4589168350667645 7.781048647822896 1 0 0
646 216 2 -1.1794 -18.455799926056162 11.824086714534404 8.342117185719063 1 0 0
538 180 2 -1.1794 -15.426457225071182 4.860661223196859 8.351765772373966 1 0 0
458 153 1 0.5897 -10.313692996047791 2.780838366384012 9.897525841887713 0 0 0
457 153 2 -1.1794 -10.21428475973742 3.0700485460485556 10.804508285274824 0 0 0
525 175 1 0.5897 -11.80734844070467 8.112221427352688 5.673002523174257 1 0 0
874 292 2 -1.1794 -13.45586965731447 4.723841463751109 14.95307098294784 0 0 0
887 296 1 0.5897 -10.222963872913349 4.155862893541448 14.160462182446867 0 0 0
876 292 1 0.5897 -12.60435888258242 4.294157013019268 14.87194694590381 0 0 0
945 315 1 0.5897 -14.209668023757986 6.916742421403997 11.987808984155892 1 0 0
848 283 1 0.5897 -13.814108431523875 3.630300222269348 12.005842601789256 1 0 0
900 300 1 0.5897 -14.523086284053921 7.563918098744965 14.269323295494202 0 0 0
899 300 1 0.5897 -13.769548035283464 6.259618028787154 14.118631077437055 0 0 0
898 300 2 -1.1794 -13.834291652330137 7.1427448589583715 13.75518045911024 0 0 0
886 296 2 -1.1794 -10.908365337266403 3.636266528343951 14.580538048586142 0 0 0
943 315 2 -1.1794 -14.218495039072115 6.669674678334488 11.063135597955986 1 0 0
869 290 1 0.5897 -12.559408830722322 8.219306260907478 13.043896884816585 0 0 0
944 315 1 0.5897 -14.335603013591554 5.719753231468156 11.06977236843303 1 0 0
728 243 1 0.5897 -17.397268321873394 12.815057486124322 11.162640766470764 1 -1 0
875 292 1 0.5897 -14.090464244192091 4.0083160637350055 14.914632948060333 0 0 0
680 227 1 0.5897 -11.089802940623862 9.326193455492126 15.467885752876557 0 -1 0
683 228 1 0.5897 -16.73073068204007 13.4275356065142 14.08519432470908 0 -1 0
658 220 2 -1.1794 -16.458471241917405 11.761544248889999 14.68718973790231 0 -1 0
672 224 1 0.5897 -13.510350770313057 10.042366180240643 15.129648123457192 0 -1 0
870 290 1 0.5897 -12.275465590429857 9.210764819997278 11.935608940996664 0 0 0
671 224 1 0.5897 -13.249726452822532 11.06674355784408 14.045844715403067 0 -1 0
868 290 2 -1.1794 -11.842525163909851 8.661745424873134 12.5894180025753 0 0 0
670 224 2 -1.1794 -13.952295644646444 10.567890884768689 14.46269058066884 0 -1 0
660 220 1 0.5897 -15.612211504197536 11.31522782830316 14.656721024326774 0 -1 0
956 319 1 0.5897 -16.91828194562326 10.677465605118998 12.050709997952893 1 0 0
877 293 2 -1.1794 -15.372786142549709 9.580432570240179 12.386193527268718 0 0 0
878 293 1 0.5897 -14.873496173582534 9.804806328740016 13.171424338664519 0 0 0
879 293 1 0.5897 -14.742451685688032 9.659757963223461 11.670250297673388 0 0 0
659 220 1 0.5897 -17.103548571755063 11.054728957778822 14.66588743867378 0 -1 0
650 217 1 0.5897 -15.534613684694866 8.84180749107833 16.181045931086366 0 -1 0
681 227 1 0.5897 -10.845996737483366 9.353364525885654 13.974034066252052 0 -1 0
649 217 2 -1.1794 -15.779093495254386 8.24138968890353 15.476903662015689 0 -1 0
955 319 2 -1.1794 -17.676186797207315 11.079663537898886 11.626247052458904 1 0 0
847 283 2 -1.1794 -14.58089819827158 4.0497412705667575 11.615389199869387 1 0 0
993 331 1 0.5897 -16.351634258258287 12.911313438620402 16.151354273403754 0 -1 0
1018 340 2 -1.1794 -11.753816125640114 7.2436671662510275 20.141057963529146 0 -1 0
1019 340 1 0.5897 -12.397254378921126 6.535630539879143 20.16999359911671 0 -1 0
1020 340 1 0.5897 -10.90943521465525 6.798059048638109 20.07222064760869 0 -1 0
1030 344 2 -1.1794 -9.347631889436464 5.933751859449066 19.88111091041082 0 -1 0
1043 348 1 0.5897 -12.101171607841463 8.78044562084058 19.352058278864526 0 -1 0
1032 344 1 0.5897 -8.91697435026866 5.443715031649861 20.581628629268085 0 -1 0
1239 413 1 0.5897 -10.1694458512886 5.200144064544512 17.059703894237696 0 0 0
1237 413 2 -1.1794 -10.81446303585045 5.06197198523207 17.753294596133003 0 0 0
1003 335 2 -1.1794 -13.531172054755785 5.057942299771504 20.035115911734405 0 -1 0
1208 403 1 0.5897 -12.223887243856776 6.028232100322185 17.34287623853373 0 0 0
1207 403 2 -1.1794 -13.056042668378879 6.392464223980889 17.040886705085903 0 0 0
1238 413 1 0.5897 -10.350269177834395 5.284178503794696 18.56036635901908 0 0 0
990 330 1 0.5897 -14.376974461744686 7.020698954229557 18.105479018912344 0 -1 0
989 330 1 0.5897 -15.075848284148783 8.348147260594695 18.308286863455116 0 -1 0
1209 403 1 0.5897 -13.305385938389412 5.839702052627613 16.300360233763215 0 0 0
980 327 1 0.5897 -12.738423600907584 8.114869645911002 16.47198795404889 0 -1 0
1034 345 1 0.5897 -14.727856866556454 7.726937107350091 20.416068081491026 0 -1 0
1035 345 1 0.5897 -14.470640947294138 8.915175922955695 21.31794594060747 0 -1 0
988 330 2 -1.1794 -15.050265871444545 7.448597866000961 18.63438476252853 0 -1 0
1033 345 2 -1.1794 -14.683569614727705 7.98222781819875 21.337484744858486 0 -1 0
1098 366 1 0.5897 -17.23265515390807 14.218095696729678 17.976989895507185 0 -1 0
992 331 1 0.5897 -15.192054021181805 13.220364662307736 17.074321728116683 0 -1 0
1001 334 1 0.5897 -14.752215276454823 10.678702977509962 17.566386700965477 0 -1 0
1000 334 2 -1.1794 -15.356481134274883 9.937276383172625 17.60257208378508 0 -1 0
979 327 2 -1.1794 -12.589581452780216 9.056421760920776 16.385689305365432 0 -1 0
991 331 2 -1.1794 -16.033529989348494 13.564436114595578 16.77451478913839 0 -1 0
1002 334 1 0.5897 -16.22665084481795 10.335204251230037 17.57505462502199 0 -1 0
1111 371 2 -1.1794 -16.38105320755028 12.059366300724973 19.95212309336179 0 -1 0
1023 341 1 0.5897 -13.054065101170549 12.189394764716285 16.86423997291735 0 -1 0
981 327 1 0.5897 -12.603604088570894 9.384874054920429 17.28460103037626 0 -1 0
1140 380 1 0.5897 -11.90038210021654 12.411383944902303 20.36893425408948 0 -1 0
1138 380 2 -1.1794 -12.337569572518742 13.046631576738259 19.801796113759497 0 -1 0
1128 376 1 0.5897 -13.898386610898473 13.990908920159468 20.060879901815472 0 -1 0
1022 341 1 0.5897 -13.332397033249917 12.370640384570878 18.341193479067257 0 -1 0
1127 376 1 0.5897 -15.37419854404071 13.668145336885958 20.159994592287212 0 -1 0
1126 376 2 -1.1794 -14.764088856916926 14.399380110582394 20.063934989845755 0 -1 0
1119 373 1 0.5897 -14.892536173205029 11.056031535296741 20.3992201985604 0 -1 0
1117 373 2 -1.1794 -14.100253799833808 10.664649114743566 20.76726238937597 0 -1 0
1044 348 1 0.5897 -12.835622220855651 10.079156036885275 19.608209370671233 0 -1 0
1042 348 2 -1.1794 -12.160034109702908 9.688200294324227 19.054230863624888 0 -1 0
1021 341 2 -1.1794 -13.753588473700706 12.133012238314267 17.51515768082188 0 -1 0
1013 338 1 0.5897 -10.821974221804783 10.558694650731509 18.31447661116021 0 -1 0
1118 373 1 0.5897 -13.81345447550141 11.286712673226356 21.435746652367666 0 -1 0
1113 371 1 0.5897 -16.79538624068583 11.936391554266264 19.098051769639977 0 -1 0
57 19 1 0.5897 -11.623497470366242 8.325685193131273 21.544930597234405 1 0 -1
3 1 1 0.5897 -1.594934936841124 -3.3235119387412757 4.507285407730825 0 0 0
306 102 1 0.5897 -0.7884622187454209 -7.4420019267066655 2.0389655063105137 1 1 0
309 103 1 0.5897 -2.7179488524513236 -1.4133662579209867 0.4631021552432436 1 1 0
241 81 2 -1.1794 -1.004333156179424 -6.468556607016554 5.357972691076112 0 1 0
25 9 2 -1.1794 -4.036439737929792 0.8098616091319037 5.557075877578606 0 0 0
305 102 1 0.5897 -1.569064599017544 -6.1633072242136615 2.256481564803519 1 1 0
293 98 1 0.5897 -5.029280246761115 -3.6138387355311234 2.3512876227785613 1 1 0
304 102 2 -1.1794 -1.4093533456507483 -7.026758641875388 2.6374749958029446 1 1 0
318 106 1 0.5897 -2.720319006601347 -4.147980828801663 1.5844985736903627 1 1 0
310 104 2 -1.1794 -3.4953832889000918 -8.236353873080791 3.8662178951007924 1 1 0
242 81 1 0.5897 -1.0331682050343076 -6.7986187787494785 4.460001930369119 0 1 0
311 104 1 0.5897 -2.767578708561464 -7.83952974953061 3.387617658394351 1 1 0
316 106 2 -1.1794 -1.8575566413217608 -4.56258060238805 1.5915922033390943 1 1 0
243 81 1 0.5897 -0.8952669724309246 -5.522465551635235 5.262396850232073 0 1 0
26 9 1 0.5897 -4.00305748056441 0.5264275783740047 4.643467469769207 0 0 0
96 32 1 0.5897 -6.201351606663163 -1.7768513514958952 4.48622225117835 1 0 0
88 30 2 -1.1794 -4.439785746922821 0.2163606027762377 2.892086473698362 1 0 0
94 32 2 -1.1794 -6.572449295228066 -1.1704200939015363 3.845254032923815 1 0 0
104 35 1 0.5897 -3.6948578141842585 -2.3483623954743598 4.7094456271141985 1 0 0
90 30 1 0.5897 -3.792092080188233 -0.15150264460379326 2.2909822720633857 1 0 0
89 30 1 0.5897 -4.624311629319695 1.0879130164996482 2.541984956852309 1 0 0
303 101 1 0.5897 -7.164939707052939 -1.8952322514962603 1.048593468350449 1 1 0
294 98 1 0.5897 -4.7444913585052175 -2.6220470676191425 1.2435146728158806 1 1 0
292 98 2 -1.1794 -4.311442233655896 -3.189709509271755 1.8811295766216196 1 1 0
27 9 1 0.5897 -3.9521653287874265 1.7623947766740056 5.515945854606281 0 0 0
105 35 1 0.5897 -3.3238253390175387 -2.5134772519845816 3.2510975568013234 1 0 0
103 35 2 -1.1794 -2.966734105135602 -2.2432773055766884 4.097066084156669 1 0 0
95 32 1 0.5897 -5.817189731980609 -0.6942696901284489 3.500159148465904 1 0 0
199 67 2 -1.1794 0.5129244036030798 -7.915051735346768 0.9768089614983355 1 1 0
1 1 2 -1.1794 -0.7930786421180844 -3.7340848638090307 4.831016992156908 0 0 0
317 106 1 0.5897 -1.2422097602834885 -3.83481310944196 1.6802478110794932 1 1 0
302 101 1 0.5897 -7.452726094519289 -1.9403023559335324 2.5341672971932527 1 1 0
404 135 1 0.5897 -5.267150423000957 -3.7107125707306823 5.8012306921318615 1 0 0
337 113 2 -1.1794 -6.337965125616446 0.2342974474588253 7.0029985406217685 0 0 0
632 211 1 0.5897 -4.641686055274468 -5.7060607325673285 6.629514798212771 1 1 0
356 119 1 0.5897 1.056090589231756 -6.981945952995068 10.18854154467581 0 0 0
359 120 1 0.5897 -4.61774081400095 -3.068099878701223 8.815796601403784 0 0 0
555 185 1 0.5897 -2.49040806368577 -6.7376891690081 6.32313629227806 0 1 0
554 185 1 0.5897 -2.790762813197124 -6.63352885760629 7.8032272540341 0 1 0
544 182 2 -1.1794 0.42634712517645035 -7.678082974030264 7.349395911156001 0 1 0
553 185 2 -1.1794 -3.210127688998038 -6.768446785430465 6.953425227022036 0 1 0