LAMMPS data file via write_data, version 30 Jul 2021, timestep = 10250000

864 atoms
2 atom types
576 bonds
1 bond types
288 angles
1 angle types

0.5914957585798515 17.61607664141207 xlo xhi
1.7882351434348536 21.84094265656054 ylo yhi
0.7216234438923372 21.491572356099432 zlo zhi

Masses

1 1.00794
2 15.9994

Pair Coeffs # lj/cut/tip4p/long/omp

1 0 0
2 0.21084 3.1668

Bond Coeffs # harmonic/omp

1 450 0.9572

Angle Coeffs # harmonic/omp

1 55 104.52

Atoms # full

106 1 2 -1.1794 4.08044129991282 6.154263460928074 3.8384124956059495 2 -3 3
183 1 1 0.5897 1.1407562981729655 4.920970134933465 2.1799958949767877 -5 1 -1
108 1 1 0.5897 4.502658559413996 6.748072646045655 4.459158683261073 2 -3 3
231 1 1 0.5897 3.1292316967441147 3.28686924073247 3.2902482953490733 1 5 2
107 1 1 0.5897 4.537149319416937 5.321148869628834 3.9546965475873437 2 -3 3
181 1 2 -1.1794 1.8550555560947273 4.284083796256931 2.160907433006949 -5 1 -1
859 1 2 -1.1794 1.5647601287250676 5.653407337901372 5.270108240657262 -3 -1 2
229 1 2 -1.1794 3.8859993061272906 2.998291495092554 3.8003533600083768 1 5 2
861 1 1 0.5897 2.4857319622918315 5.563409802329115 5.0252823694372335 -3 -1 2
860 1 1 0.5897 1.1948818196844204 4.780556020425301 5.137684816810858 -3 -1 2
182 1 1 0.5897 2.6211562097090075 4.790698552055394 1.8914296494301426 -4 1 -1
230 1 1 0.5897 4.019086187216708 2.087449670598013 3.5379222994978896 1 5 2
34 1 2 -1.1794 0.7244728451113454 3.101374476928574 4.958268802283937 -5 2 0
36 1 1 0.5897 0.6858916158615229 2.395251201013711 4.313211023953938 -5 2 0
35 1 1 0.5897 0.6325508043782402 2.6602371079035154 5.802743009874571 -5 2 0
305 1 1 0.5897 4.38922962861532 6.27202755638011 0.9770581357037472 7 -3 -4
837 1 1 0.5897 1.7288625334272407 5.562265592342388 7.243704914830359 0 3 -2
297 1 1 0.5897 3.0985472179286475 3.161372334694983 9.18085720968933 3 5 -2
49 1 2 -1.1794 3.557804324414901 3.229650448128369 7.479690157372061 10 1 -1
50 1 1 0.5897 3.254638036881122 2.5225293903065853 6.9102446579641725 10 1 -1
252 1 1 0.5897 4.836846869383379 4.6323912730463395 10.81059716986051 4 -2 3
449 1 1 0.5897 1.4900972867328348 4.335700649708631 10.442359393079911 4 -2 -5
835 1 2 -1.1794 1.5108421412980255 4.960805999359371 7.955674985682808 0 3 -2
51 1 1 0.5897 2.801192364924818 3.8095883019208707 7.565735627932972 10 1 -1
702 1 1 0.5897 4.380255620510586 6.774517650153285 7.166294604230746 4 2 1
448 1 2 -1.1794 0.951000639664815 4.944630247002419 10.947097301314582 4 -2 -5
450 1 1 0.5897 1.0860075491131869 5.792369528100397 10.52365470972983 4 -2 -5
295 1 2 -1.1794 2.7204936746069923 2.7968743410991697 9.981109420908412 3 5 -2
296 1 1 0.5897 2.0837959991292854 2.151745973870289 9.673523531247714 3 5 -2
619 1 2 -1.1794 4.3358816851527155 6.51609173221935 10.25293209452937 1 0 3
3 1 1 0.5897 4.721219989593544 4.445420054137173 6.8130517526240855 2 -3 2
30 1 1 0.5897 1.4218836054702702 4.387545616816988 12.507491862985452 -7 1 5
405 1 1 0.5897 2.708055033479489 2.8836889232830574 13.098599068896442 3 -3 -2
29 1 1 0.5897 1.5455558035705228 4.960636334663381 13.903223569397205 -7 1 5
403 1 2 -1.1794 3.2951036426100515 2.1834156348865403 12.813687940764774 3 -3 -2
28 1 2 -1.1794 1.585324963044163 4.137234273020441 13.416799775041246 -7 1 5
404 1 1 0.5897 3.350533854095781 2.288308552138721 11.863885345179854 3 -3 -2
267 1 1 0.5897 4.420551383444485 2.198027222948047 16.053155294881687 -1 2 -1
64 1 2 -1.1794 1.419674906086935 6.772037257541852 14.288446690650016 2 -2 -3
251 1 1 0.5897 4.847576177068051 3.827493865913824 12.092712176194679 4 -2 3
317 1 1 0.5897 2.887890476054476 3.3747700067721627 17.04032760057534 -5 -3 0
306 1 1 0.5897 4.211570045132624 5.192309953659921 20.7008519020642 7 -3 -5
258 1 1 0.5897 1.5713689103102222 2.0328942586006553 20.78094474897182 -2 1 -1
318 1 1 0.5897 1.592274565984491 4.061448254615728 16.663989559257168 -5 -3 1
256 1 2 -1.1794 1.411163292291027 2.941723374168614 20.52688615565458 -2 1 -1
257 1 1 0.5897 1.5075970856330985 3.4385754376283435 21.339302378963808 -2 1 -1
316 1 2 -1.1794 2.2565617743946773 4.023174313530209 17.352095449613024 -5 -3 1
304 1 2 -1.1794 3.724123468397124 5.724904011315935 21.329309098259216 7 -3 -5
530 1 1 0.5897 1.3024804749896899 5.037120635696896 20.242938516376096 -3 2 -5
484 1 2 -1.1794 4.415673784849304 2.0089849221428766 20.70726946977211 1 0 0
737 1 1 0.5897 2.456868366328629 6.001938690353242 17.22751622687302 4 -1 -1
529 1 2 -1.1794 0.6913717861480678 5.7004745987408665 19.922467811154124 -3 2 -5
265 1 2 -1.1794 4.77213770516432 2.9756029539452324 16.48667990487028 -1 2 -1
531 1 1 0.5897 1.0575365644191927 6.530942948339671 20.226542908652018 -3 2 -5
171 1 1 0.5897 4.449325902541113 3.8824215346342337 18.4034922454431 -3 4 -3
485 1 1 0.5897 4.557515838915754 2.6970745488867873 20.057180816954265 1 0 0
425 1 1 0.5897 3.428053430903673 10.436601293845007 2.2593590688372647 9 -3 1
795 1 1 0.5897 2.738778419456182 10.618869841030417 5.579380766319207 -2 2 7
374 1 1 0.5897 2.3062165208281087 8.950929728198929 2.5821533910733185 0 5 -1
426 1 1 0.5897 2.117400359536326 11.154770229970724 2.018075109703386 9 -4 1
793 1 2 -1.1794 2.1173389437258026 11.23616275159057 5.193445577570759 -2 2 7
373 1 2 -1.1794 1.9472074090174067 8.10984205674663 2.864771412541138 0 5 -1
424 1 2 -1.1794 2.66139282941289 10.440500632090508 1.6862906638433202 9 -3 1
375 1 1 0.5897 2.7135975379464368 7.593297135378046 3.1138052290803944 0 5 -1
794 1 1 0.5897 1.3720946510986334 10.695028926334388 4.932737496734966 -2 2 7
700 1 2 -1.1794 3.7382304781312596 7.2527596411535376 7.690959824537576 4 2 1
688 1 2 -1.1794 1.628629811596407 11.59769680271481 7.8707853642610655 5 -1 4
541 1 2 -1.1794 1.414504604864876 8.836679374182262 7.8791293522318995 0 0 3
543 1 1 0.5897 1.6277772683867522 9.76296615406071 7.991969792263846 0 0 3
67 1 2 -1.1794 4.047368210221719 10.037628956754698 6.515022975838376 4 0 -6
575 1 1 0.5897 4.026665818380242 10.274656595210129 10.937880755686713 1 -2 1
542 1 1 0.5897 2.2636144124973336 8.404165622615057 7.788982700150929 0 0 3
701 1 1 0.5897 3.8852432480097168 6.948100040166542 8.586364980617265 4 2 1
689 1 1 0.5897 1.6276328992933013 11.477040500174738 6.921246480217959 5 -1 4
69 1 1 0.5897 4.1941547324077515 9.979450968212344 7.459103972682903 4 0 -6
600 1 1 0.5897 0.9640928651247738 8.053353023415504 9.303907732461715 -1 -1 -4
68 1 1 0.5897 4.666995635979586 9.413692602844218 6.136916506422644 4 0 -6
620 1 1 0.5897 3.6044784154718075 6.8940975725332345 10.741171595336258 1 0 3
690 1 1 0.5897 0.709492826346195 11.742589185582055 8.09524886642254 5 -1 4
574 1 2 -1.1794 3.4538122093638313 10.64152144986607 11.611267484430705 1 -2 1
352 1 2 -1.1794 4.823232798702353 7.259438878908718 13.706718708165518 6 2 -3
366 1 1 0.5897 1.7757913622439314 9.968095305744107 14.729815345148948 4 4 1
353 1 1 0.5897 3.970217832977536 7.188594935193286 13.27829887876912 6 2 -3
132 1 1 0.5897 2.857469820164187 8.85741475986429 11.85637946066098 -3 2 2
130 1 2 -1.1794 2.6172610662979956 7.931394694273569 11.825228083272787 -3 2 2
515 1 1 0.5897 0.628695792868159 10.602667512893094 12.773717934917336 -2 -3 -2
365 1 1 0.5897 3.255772914440736 9.916674254567587 15.044137132174235 4 4 1
364 1 2 -1.1794 2.3978082327126087 10.021374758432502 15.45537891984203 4 4 1
131 1 1 0.5897 1.7973222350037106 7.91263515056496 11.331737911818806 -3 2 2
65 1 1 0.5897 1.5297820498522825 7.3512638683132066 13.53440893954527 2 -2 -3
576 1 1 0.5897 3.9799166108954465 10.621876123728631 12.410647646170947 1 -2 1
354 1 1 0.5897 4.646256273109821 7.739040446272488 14.51594486187511 6 2 -3
607 1 2 -1.1794 4.6947433269228585 10.527530606678855 14.173516501318764 7 2 0
738 1 1 0.5897 2.1116462239589993 6.984529861850914 16.128822016275205 4 -1 -1
315 1 1 0.5897 2.5709015010434717 11.802040387859705 15.896447699976951 2 -2 -3
6 1 1 0.5897 2.0243267819227846 9.87230007011624 17.303461277572787 2 -4 -2
764 1 1 0.5897 4.768977086485363 9.091926239570954 16.86633243173484 -4 -1 -4
4 1 2 -1.1794 1.843433722443744 10.043190999339545 18.22773141132136 2 -4 -2
421 1 2 -1.1794 1.5708652933419955 8.267252287993692 20.430734951169885 -3 1 4
765 1 1 0.5897 4.014765221236319 7.7886267235662485 16.710289883451733 -4 -1 -4
347 1 1 0.5897 4.408148776853087 9.254810757434882 19.002425413290336 -3 2 -3
5 1 1 0.5897 1.6909416370333343 9.177456279180117 18.60646356457445 2 -4 -2
763 1 2 -1.1794 4.803606415574936 8.246165265940366 16.41948249336592 -4 -1 -4
423 1 1 0.5897 2.5205704818410615 8.319653782774372 20.32349787167858 -3 1 4
346 1 2 -1.1794 4.257250876475803 8.584682518790142 19.669018816197173 -3 2 -3
422 1 1 0.5897 1.4092863527024424 8.610743272621 21.309454355496957 -3 1 4
684 1 1 0.5897 2.9639987128178604 11.273664685319844 20.94710031066728 4 -2 -6
736 1 2 -1.1794 2.5043558854580237 6.930482746125954 17.00005815506938 4 -1 -1
683 1 1 0.5897 2.848522908770878 11.188084354829977 19.440062174112057 4 -2 -6
348 1 1 0.5897 4.661769678291418 7.794548628632263 19.31085140747643 -3 2 -3
59 1 1 0.5897 4.833703322846558 11.559378177340049 18.150770184966778 5 -3 -2
669 1 1 0.5897 0.9620558281394445 7.694209302642433 17.150684510430104 -7 -1 1
716 1 1 0.5897 0.6745215273997365 11.304596691742766 17.88474421710486 5 -7 -2
682 1 2 -1.1794 3.120929937099166 11.773943767309534 20.146302394252782 4 -2 -6
9 1 1 0.5897 2.192904082314107 15.887852183083503 1.2461626318237518 2 -2 -1
787 1 2 -1.1794 3.497986410237398 12.991814848234489 3.147828308760449 0 -1 6
789 1 1 0.5897 2.972189256099373 13.553512309182576 2.578429064887613 0 -1 6
452 1 1 0.5897 3.2024388379016986 13.737689639007396 5.840747080206997 1 -2 5
788 1 1 0.5897 2.8556652182223594 12.50660499432266 3.665714925086854 0 -1 6
451 1 2 -1.1794 2.5584149813011177 14.42744268370148 5.680571760810937 1 -2 5
220 1 2 -1.1794 0.7943672912481203 12.461332773317958 2.012714063560262 5 -3 6
7 1 2 -1.1794 2.8514655096046564 15.307827920669682 1.6284298136434887 2 -2 -1
8 1 1 0.5897 3.66517955176558 15.541302274850358 1.1817313903644218 2 -2 -1
722 1 1 0.5897 0.9624013293952232 13.688670185325762 5.144356665459649 2 -2 1
262 1 2 -1.1794 4.42256754320506 16.512690526795843 5.45349688578109 4 -2 6
453 1 1 0.5897 3.0810997135768385 15.219569926770204 5.5559975284075485 1 -2 5
506 1 1 0.5897 4.655213156551583 12.958769099855818 1.5234987757768432 4 3 -2
222 1 1 0.5897 0.6322115570381374 13.047064184218398 1.2732401854321371 5 -3 6
18 1 1 0.5897 2.68470660735711 16.764411952816943 3.20346182477625 -2 2 1
733 1 2 -1.1794 3.2287856981298755 13.696323148489828 8.609484694005964 -1 -2 -4
153 1 1 0.5897 2.659107607225294 13.5523366408188 10.268124866905694 2 0 0
264 1 1 0.5897 4.759509094380441 16.192334809018718 6.290170608643377 4 -2 6
735 1 1 0.5897 4.092138484646029 13.315710767868989 8.770648297586295 -1 -2 -4
81 1 1 0.5897 3.0292296072404485 15.649562878821298 8.77453146897547 1 1 -4
734 1 1 0.5897 2.729197254351002 12.991842743203772 8.196807987711498 -1 -2 -4
79 1 2 -1.1794 2.4434603269542317 16.39670658549021 8.89632995064071 1 1 -4
241 1 2 -1.1794 4.5071919208107705 15.336201465615614 11.024904561325119 3 -4 3
54 1 1 0.5897 4.477955338461139 12.028096332617915 6.315710558150089 -6 0 2
162 1 1 0.5897 1.1594502248055325 15.685066582912802 6.47851565130712 6 6 0
242 1 1 0.5897 3.5562940857193115 15.444921647088211 11.038789813550695 3 -4 3
811 1 2 -1.1794 1.816905838030516 16.518680657457995 12.238034264766119 -3 2 -3
812 1 1 0.5897 0.8900545683404738 16.3604588690891 12.05888318776378 -3 2 -3
48 1 1 0.5897 2.0303222331245094 15.470202950968309 16.044659471765414 4 -1 -1
603 1 1 0.5897 2.7669022936971386 13.599633512811197 14.516094519563183 2 3 -2
601 1 2 -1.1794 2.620955486323971 14.181729265752375 13.770387569485626 2 3 -2
602 1 1 0.5897 2.514153826058055 13.59272956991594 13.023476465076975 2 3 -3
243 1 1 0.5897 4.653346703971029 14.457221711200193 11.374506065861256 3 -4 3
151 1 2 -1.1794 2.4789977356258865 13.239087882616605 11.154484275453147 2 0 0
813 1 1 0.5897 2.042448216384821 15.881677106792456 12.915926441322721 -3 2 -3
762 1 1 0.5897 4.025445134522617 16.146436880102634 14.159213317216546 2 -4 -2
760 1 2 -1.1794 4.722293093697738 16.42163009007898 13.563517304276123 2 -4 -2
46 1 2 -1.1794 1.1054191648954217 15.316768453109015 16.23754117794607 4 -1 -1
761 1 1 0.5897 4.477282159725043 16.046154546309264 12.717840644650872 2 -4 -2
313 1 2 -1.1794 2.5724384388751 12.759128120617946 15.911245794842833 2 -2 -3
152 1 1 0.5897 2.8067803378571 12.339815183424315 11.16243817297616 2 0 -1
203 1 1 0.5897 1.7508341583750582 14.064634366664787 19.444408029291615 -8 1 1
383 1 1 0.5897 4.472572927923045 15.479276717214946 16.94355964133798 -8 -4 -2
319 1 2 -1.1794 4.6110607232103025 13.763780044838166 17.730848510777275 0 -2 -1
204 1 1 0.5897 3.124221173584095 14.295115415098644 18.850708759101064 -8 1 1
324 1 1 0.5897 1.4539284775168109 16.27195698765037 18.80327969169423 5 -4 -1
202 1 2 -1.1794 2.325189903966713 14.753672448253527 19.11044357419494 -8 1 1
47 1 1 0.5897 1.1111563536566862 14.78870558402092 17.03585227163607 4 -1 -1
321 1 1 0.5897 4.546603193824642 13.606772354080702 16.78883926987296 0 -2 -1
507 1 1 0.5897 4.559920506262802 12.406470800139468 20.88712964761808 4 3 -3
314 1 1 0.5897 1.963043843382341 12.989232983454023 16.612614624235903 2 -2 -3
382 1 2 -1.1794 4.029632468846744 16.06979140061384 16.33420635361407 -8 -4 -2
208 1 2 -1.1794 2.356711905775579 20.46747759195937 1.0414523033378262 0 -3 3
564 1 1 0.5897 1.5785185757052498 20.127694734354417 2.6917173391548648 2 -1 4
23 1 1 0.5897 4.538952772829087 18.89369443041237 2.1081563302500435 -5 1 2
22 1 2 -1.1794 4.708110573252187 18.004874681196327 1.7957983587965602 -5 1 2
563 1 1 0.5897 1.750795493437093 19.00879401409267 3.696785943446696 2 -1 4
16 1 2 -1.1794 2.1911215711481455 17.264961355519006 3.853082912038666 -2 2 1
209 1 1 0.5897 3.074046564485303 21.09165206337441 0.931814161557757 0 -3 3
24 1 1 0.5897 4.5197147142950325 18.04014956783521 0.8580111388847158 -5 1 2
562 1 2 -1.1794 1.4085777156485135 19.898006868750436 3.6052541343610343 2 -1 4
17 1 1 0.5897 2.5937744313998 17.034385802252775 4.690277850750689 -2 2 1
38 1 1 0.5897 3.1804521204397274 21.817556401553464 4.989324176851793 1 2 -3
37 1 2 -1.1794 3.27135168019799 21.191461851565535 5.707605535685679 1 2 -3
39 1 1 0.5897 2.815689936422896 20.407309130207512 5.401549142806098 1 2 -3
210 1 1 0.5897 2.728114240289019 19.62607037934587 0.7762700883896656 0 -3 3
477 1 1 0.5897 2.4320755583880675 18.733430934393976 7.076017553506353 1 -2 -3
597 1 1 0.5897 3.2999454789311553 19.288635325803547 9.312069177311066 2 -4 3
475 1 2 -1.1794 1.7818439584385184 18.805486838986003 6.3773073179501365 1 -2 -3
622 1 2 -1.1794 0.6672385375289098 20.92505969379271 9.779911982528665 2 -2 -1
80 1 1 0.5897 3.005554799904057 17.16321964948339 8.783614813985073 1 1 -4
595 1 2 -1.1794 3.7429723264523616 18.926121326925816 8.544934161554405 2 -4 3
105 1 1 0.5897 0.8462792357839986 17.316489615004162 9.151172193069797 5 -1 6
596 1 1 0.5897 4.511828486630998 18.480243731938078 8.900229492597227 3 -4 3
476 1 1 0.5897 1.2688842879136444 18.0000229526733 6.442852369343802 1 -2 -3
648 1 1 0.5897 4.7017228222391285 20.85166666049466 6.742394041925652 -8 -2 -2
623 1 1 0.5897 0.8336381875737964 20.01763274839575 9.524821966129629 2 -2 -1
129 1 1 0.5897 2.0080305844164728 19.522555875319146 11.875890910942033 -1 0 -7
310 1 2 -1.1794 3.6752148961963362 18.804365409571204 14.153456774055181 -3 4 2
414 1 1 0.5897 3.2829669299887967 20.52521181480977 14.92596257271197 4 -2 2
331 1 2 -1.1794 1.2269716463586802 18.55731170689435 15.973817633979555 2 1 -3
128 1 1 0.5897 2.7576749589867497 18.27882580707726 11.44813110198299 -1 0 -7
412 1 2 -1.1794 2.8569284833581046 21.116373215417802 15.546620507230843 4 -2 2
127 1 2 -1.1794 2.8676884649176 19.22002777673402 11.583220287721183 -1 0 -7
332 1 1 0.5897 1.9121148786428932 18.452279144557906 15.313708525851872 2 1 -3
311 1 1 0.5897 4.188325195704579 18.003008762449365 14.049682077863881 -3 4 2
312 1 1 0.5897 3.2777202688621303 18.947722055083897 13.294576074884391 -3 4 2
413 1 1 0.5897 2.5634901677057518 20.546844542834794 16.257763441201142 4 -2 2
504 1 1 0.5897 1.2322995371830747 21.746405055581615 14.880957150917782 -6 -4 3
519 1 1 0.5897 4.76317338767929 21.372246295185136 13.508460005426079 1 -1 -5
174 1 1 0.5897 2.5282753975631445 17.765757571254934 19.982065608880454 3 -1 -2
280 1 2 -1.1794 2.6317621533402913 20.62960120203124 18.669013433742773 -1 -4 0
323 1 1 0.5897 0.8573816388256807 17.195494688465573 17.762551378759714 5 -4 -1
173 1 1 0.5897 3.3011133835989983 19.032604626900127 19.68274450372053 3 -1 -2
282 1 1 0.5897 2.636052330049384 21.502635414145633 19.061464860801525 -1 -4 0
281 1 1 0.5897 1.704587482918385 20.40193663619173 18.600316716247832 -1 -4 0
172 1 2 -1.1794 3.2758188264588743 18.284457919844314 20.279250944342323 3 -1 -2
322 1 2 -1.1794 1.0261529395950055 17.122206115245497 18.701919190427375 5 -4 -1
260 1 1 0.5897 3.3975244707076286 19.162038270258964 17.79757070030549 1 -2 7
259 1 2 -1.1794 3.936712025620392 18.579072551476667 17.26312576199367 1 -2 7
261 1 1 0.5897 4.6670611575403385 19.125914839779252 16.973670839765862 1 -2 7
384 1 1 0.5897 4.057913646046844 16.924228175596753 16.764694750362736 -8 -4 -2
326 1 1 0.5897 7.3196229716566945 4.843886801680108 4.161651780550475 2 -1 -2
832 1 2 -1.1794 8.71705762547638 5.9493944239290375 4.340139140295387 3 -3 2
278 1 1 0.5897 7.063988150511464 4.187745002842148 1.4410392235354392 0 -1 1
833 1 1 0.5897 8.88873112624256 6.191047098059517 5.250261320055427 3 -3 2
819 1 1 0.5897 8.96214664842689 4.223418394309208 2.416755577121326 5 -2 0
792 1 1 0.5897 6.583888950281686 6.256722688607156 1.8946605728457586 3 4 -3
277 1 2 -1.1794 7.597712006090827 4.978165806733104 1.3600638630680733 0 -1 1
469 1 2 -1.1794 6.366205539519945 2.5889366289993605 2.1285885800060793 4 -3 4
325 1 2 -1.1794 6.462967289220353 4.425900333249891 4.248935758786603 2 -1 -2
327 1 1 0.5897 6.43220443191342 3.790145777369749 3.5340372458236473 2 -1 -2
471 1 1 0.5897 6.067018417403054 2.5772303217884986 1.2194485164905484 4 -3 4
134 1 1 0.5897 6.935510332575726 2.913023181290137 5.325909501790716 0 -5 -1
470 1 1 0.5897 7.21411537070267 2.145297074461933 2.1079267127777506 4 -3 4
2 1 1 0.5897 5.713793421647254 4.955523321997064 5.7900237889896236 2 -3 2
791 1 1 0.5897 5.385112223489735 6.7240416340263 2.692355515133658 3 4 -3
834 1 1 0.5897 8.808541005394373 6.7682951440173715 3.8530572147921993 3 -3 2
661 1 2 -1.1794 7.636796856307805 5.401376575236194 8.283485251311658 -2 -5 1
1 1 2 -1.1794 5.2669015399799 5.202364411842424 6.599714796353518 2 -3 2
663 1 1 0.5897 8.366475118550667 5.335623948546683 7.667502196831312 -2 -5 1
482 1 1 0.5897 8.664810821154136 3.5207558005562394 6.660394320726031 -1 3 0
43 1 2 -1.1794 8.133836811793671 3.7757512896818453 10.542904586333432 2 8 0
133 1 2 -1.1794 7.367808449454526 2.324312461006392 5.94455902541866 0 -5 -1
662 1 1 0.5897 6.85871789963261 5.2300481539694434 7.75299141499238 -2 -5 1
510 1 1 0.5897 8.107915244481692 2.284275951186591 9.803972910003013 4 0 3
45 1 1 0.5897 7.768719722556143 4.272004525806098 9.810358275651707 2 8 0
537 1 1 0.5897 8.207039411676984 6.413407178903714 9.973419990964949 5 4 3
357 1 1 0.5897 4.918096398787503 1.9372389792705598 10.263026947013026 -1 0 5
44 1 1 0.5897 7.376237996650575 3.5554759228687915 11.08487070101667 2 8 0
544 1 2 -1.1794 7.618217346648527 2.7744923718445076 13.316580715120496 -6 5 0
546 1 1 0.5897 6.803408981618032 2.285103505968426 13.429620079958259 -6 5 0
62 1 1 0.5897 7.9760482741483285 4.700108432893592 13.104465397831728 -3 -1 6
330 1 1 0.5897 8.029090523674366 6.185012896367088 15.117433222858587 3 4 -1
778 1 2 -1.1794 8.444789766803641 3.607960289073552 15.922621341577583 -3 0 -3
294 1 1 0.5897 6.478653683053877 4.517811143248607 14.299850235395201 -5 1 1
61 1 2 -1.1794 8.07426683152843 5.634655023560613 13.28656931645474 -3 -1 6
293 1 1 0.5897 5.29831294839328 5.447513058206319 14.114792521486832 -5 1 1
63 1 1 0.5897 8.069643601266236 6.049059714489532 12.423745132510188 -3 -1 6
545 1 1 0.5897 8.18176178314323 2.188816174350234 12.811029599793732 -6 5 0
250 1 2 -1.1794 5.316281312017074 3.940194629589999 11.26578551955752 4 -2 3
779 1 1 0.5897 8.19435743822887 3.21166495449035 15.088099115103194 -3 0 -3
292 1 2 -1.1794 5.598246421725608 4.698174702133265 14.629306232187776 -5 1 1
328 1 2 -1.1794 7.951210293548904 6.74650702768034 15.888696897943946 3 4 -1
266 1 1 0.5897 5.015939243971701 3.5606659061184147 15.769425069411572 -1 2 -1
329 1 1 0.5897 7.317998535361263 6.297993211890884 16.449117408842625 3 4 -1
167 1 1 0.5897 6.160042777934987 2.2073826363353195 17.193657208046414 -1 1 6
279 1 1 0.5897 8.086649721565848 4.855266190864352 21.316368190103493 0 -1 0
780 1 1 0.5897 7.999281977704693 3.077739555230729 16.583355381032042 -3 0 -3
115 1 2 -1.1794 7.585641068392634 2.328786454659806 20.05895791520573 -5 -2 3
169 1 2 -1.1794 4.933553919001354 4.272761321071741 19.131061521148144 -3 4 -3
850 1 2 -1.1794 6.094089190962892 6.639447484382167 18.08517434914016 -10 0 -3
170 1 1 0.5897 5.382887809327385 5.024357892410312 18.744501304741178 -3 4 -3
168 1 1 0.5897 7.04091857588426 1.9143111054724384 18.389474921761007 -1 1 6
116 1 1 0.5897 8.453516065335457 2.6384302288669086 19.79988392134086 -5 -2 3
117 1 1 0.5897 7.742371470456707 1.8049971732217358 20.844625133682914 -5 -2 3
783 1 1 0.5897 7.426863069543404 8.139090578629546 2.6766765703767272 -7 -3 2
187 1 2 -1.1794 6.61088977617262 11.657523650220158 4.2852667905432416 -6 5 1
781 1 2 -1.1794 8.239123914104463 8.37573449773797 3.1243572368580557 -7 -3 2
693 1 1 0.5897 5.442896280034436 10.774130019023264 3.01716076681744 -2 -1 3
739 1 2 -1.1794 5.785988132284329 8.094271180265874 4.933933137366545 -1 1 6
782 1 1 0.5897 8.405071493033613 9.280093386553736 2.85831382028585 -7 -3 2
790 1 2 -1.1794 5.984937150167439 6.99617628521331 1.9978535912785664 3 4 -3
741 1 1 0.5897 5.533941978355398 8.751863268051864 4.285679588638521 -1 1 6
740 1 1 0.5897 6.735493228221191 8.186398839866023 5.012531386581929 -1 1 6
692 1 1 0.5897 5.626122601532876 9.794233520744879 1.8778588072099731 -2 -1 3
189 1 1 0.5897 6.94228846560764 10.953192115039942 4.84229549817828 -6 5 1
747 1 1 0.5897 8.638615952872708 9.967768947647826 5.658133403705195 5 3 -6
726 1 1 0.5897 8.91163017749309 11.410679925359796 1.4983783098832226 3 -6 3
691 1 2 -1.1794 5.237322072453339 9.878751469476034 2.748417266407121 -2 -1 3
361 1 2 -1.1794 4.869265396798594 10.01634802376553 9.222581671389579 1 -4 -3
406 1 2 -1.1794 7.105814065734181 8.432589478761727 8.283831109428068 -4 -2 3
363 1 1 0.5897 5.568415097353476 9.449215690315212 8.897358738934107 1 -4 -3
677 1 1 0.5897 8.181136272091559 9.417028204816262 9.228671252686093 -1 3 -3
408 1 1 0.5897 7.406250429268501 8.85460805147862 7.4789579573553215 -4 -2 3
407 1 1 0.5897 7.435034464133273 7.5359416510852055 8.22196792497509 -4 -2 3
362 1 1 0.5897 5.234521790684364 10.899740044292896 9.173515885384722 1 -4 -3
676 1 2 -1.1794 8.600387154833982 10.121310211543282 9.723044752790251 -1 3 -3
745 1 2 -1.1794 7.843455270837359 10.200597914032764 6.137558407937983 5 3 -6
621 1 1 0.5897 5.098981355753599 7.020161973327766 10.535415110920875 1 0 3
746 1 1 0.5897 7.94052638798136 11.13436567563556 6.324201801382795 5 3 -6
535 1 2 -1.1794 8.38375567025734 6.861279837522465 10.80070077742733 5 4 3
536 1 1 0.5897 7.608978650876389 7.4029953552069525 10.950583022169596 5 4 3
185 1 1 0.5897 8.423582447991063 11.77543980397019 9.161525871151005 -5 7 3
569 1 1 0.5897 8.032300859686718 10.692861880264376 12.846853190330497 2 -1 -1
57 1 1 0.5897 6.799687981748582 9.093439159979507 11.579235387302031 -4 -1 4
55 1 2 -1.1794 6.328124608566923 8.263861492165104 11.504283760598751 -4 -1 4
212 1 1 0.5897 7.042334077250782 8.07147526635481 14.72424824780234 3 1 4
211 1 2 -1.1794 7.085076753526878 9.02486899222145 14.650621224789202 3 1 4
570 1 1 0.5897 7.990418628601187 10.572797249505191 11.338331726177104 2 -1 -1
213 1 1 0.5897 7.2431087260421565 9.32777079864799 15.544767068327698 3 1 4
56 1 1 0.5897 6.14116581590423 8.011559177473206 12.408483334194933 -4 -1 4
609 1 1 0.5897 5.484526063865573 9.987614853335456 14.20386793332301 7 2 0
750 1 1 0.5897 8.648100384713697 9.80130500547845 14.285424466368863 0 5 -1
568 1 2 -1.1794 7.427115591454724 10.674820241835508 12.105466121501943 2 -1 -1
608 1 1 0.5897 5.013954368001965 11.425131517430847 14.266290521354632 7 2 0
381 1 1 0.5897 8.018482834903644 9.624683687060745 17.903386443191845 8 3 -1
806 1 1 0.5897 6.029386290336923 10.773542320445047 20.413211434536965 2 -1 -3
19 1 2 -1.1794 7.942795805155426 8.44586566514862 19.35812449504761 -4 -3 2
380 1 1 0.5897 8.383745506323372 10.775313346224843 16.989876365096205 8 3 -1
852 1 1 0.5897 5.696972131070806 7.149144674486986 17.378971568359002 -10 0 -3
20 1 1 0.5897 7.305669809661803 9.003727288625221 19.80427508066373 -4 -3 1
807 1 1 0.5897 5.619463937665912 9.33979926912118 20.674355207569196 2 -1 -3
379 1 2 -1.1794 7.754177087921663 10.061834406436827 17.093921023604427 8 3 -1
60 1 1 0.5897 5.974349773239483 10.71386969388196 17.625596669971312 5 -3 -2
58 1 2 -1.1794 5.074038143024379 10.655921346788487 17.94537989992138 5 -3 -2
805 1 2 -1.1794 6.319817045065537 9.969763160779063 20.844238277328287 2 -1 -3
851 1 1 0.5897 6.788030876964178 7.203138336517047 18.42706672534867 -10 0 -3
21 1 1 0.5897 8.547782900112853 8.17335207058736 20.048012229694734 -4 -3 2
565 1 2 -1.1794 8.965401380740596 11.590454029130882 19.562545138988753 -1 6 -9
566 1 1 0.5897 8.950303789743666 11.167498626981592 20.42108322666795 -1 6 -9
232 1 2 -1.1794 7.9480089183053275 12.987394967065548 1.9599588697282906 -1 1 1
53 1 1 0.5897 5.702123740187353 12.487442364565956 5.552696722421141 -6 0 2
233 1 1 0.5897 7.09010011788162 12.933007345014062 1.5389877916998767 -1 1 1
843 1 1 0.5897 7.132946936935395 15.15913953400847 4.569820197196135 -3 3 2
841 1 2 -1.1794 7.987990561279326 15.370995482921204 4.944297470514968 -3 3 2
234 1 1 0.5897 8.217800199019216 13.897651967824016 1.8381953548171037 -1 1 1
855 1 1 0.5897 8.575621038563204 16.625409127812738 1.3843009317367816 -2 0 3
14 1 1 0.5897 8.41003179952282 13.834601095931253 5.780431474173941 1 -6 -4
433 1 2 -1.1794 5.480646711380926 15.140533755860263 3.557454508174365 -2 4 -2
263 1 1 0.5897 4.879687646652634 15.989968453532796 4.794718888473327 4 -2 6
842 1 1 0.5897 8.603895438815268 15.245496096560936 4.222416310299846 -3 3 2
188 1 1 0.5897 7.397060861762038 12.080421897812142 3.939900715948639 -6 5 1
435 1 1 0.5897 5.4668658882235475 15.457390945908148 2.6543349805812593 -2 4 -2
434 1 1 0.5897 5.056842491750389 14.283213280631383 3.517442853690068 -2 4 -2
853 1 2 -1.1794 8.456880722758973 15.741286604858333 1.0372264156847344 -2 0 3
643 1 2 -1.1794 5.725119764444502 12.678151186995617 9.423370053966693 2 -2 0
186 1 1 0.5897 8.9116217901412 13.207231809081105 9.221612031795324 -5 7 3
196 1 2 -1.1794 5.973235587621959 15.32776678490436 7.473267992616199 -1 -4 -1
197 1 1 0.5897 6.928611879519765 15.382818875903347 7.452802204387753 -1 -4 -1
644 1 1 0.5897 5.850434706786057 12.755910468664224 10.369118274458394 2 -2 0
814 1 2 -1.1794 8.928261259711595 15.649482991609712 7.787567953035563 -3 7 -5
198 1 1 0.5897 5.7753801841521275 14.458903420685436 7.123818346162419 -1 -4 -1
13 1 2 -1.1794 8.787819816547826 12.99116842798451 6.029665482878354 1 -6 -4
184 1 2 -1.1794 8.385546001282108 12.608457591633936 8.691594493232355 -5 7 3
645 1 1 0.5897 6.584831323400509 12.873289745530037 9.050528352204728 2 -2 0
816 1 1 0.5897 8.875307810992963 16.403421344054394 8.374902879374734 -3 7 -5
15 1 1 0.5897 8.89610983548634 13.047872159915366 6.979004836097757 1 -6 -4
52 1 2 -1.1794 5.08058534325805 12.766212084597024 6.225130986732426 -6 0 2
557 1 1 0.5897 5.87892698384268 16.61162748536975 8.596281303439422 2 -1 2
744 1 1 0.5897 8.648364195406396 13.099275566896559 14.312126427532034 -5 -1 3
634 1 2 -1.1794 8.23480207622677 14.505677321782018 12.521934351388005 -8 2 0
77 1 1 0.5897 5.591268166364751 13.31137472227124 14.121796641069016 -7 -6 -1
76 1 2 -1.1794 5.520013966644071 12.994954347776975 15.022345684489192 -7 -6 -1
78 1 1 0.5897 6.425160200973901 12.93394867325868 15.327608136964399 -7 -6 -1
687 1 1 0.5897 6.767854985743085 13.504288102036908 12.09329843264955 6 -6 -4
636 1 1 0.5897 8.701283845588533 14.851189453138819 11.76085800744264 -8 2 0
635 1 1 0.5897 7.9773096112430775 15.28238197025874 13.018538340163028 -8 2 0
742 1 2 -1.1794 8.370762145209719 12.631459971599654 15.099696390646574 -5 -1 3
631 1 2 -1.1794 7.348865770740099 16.384790061427452 14.809655011701988 4 1 5
686 1 1 0.5897 6.456652203566288 12.023304196269844 12.051794352502828 6 -6 -4
633 1 1 0.5897 6.429210976729913 16.198356968017393 14.62073236568949 4 1 5
685 1 2 -1.1794 6.0435200294210505 12.881137181441153 12.150085531405283 6 -6 -4
743 1 1 0.5897 8.884884565242443 13.023550213969799 15.805475032508797 -5 -1 3
587 1 1 0.5897 6.714980074640048 16.107881938551994 17.81196894726689 -1 -1 3
840 1 1 0.5897 7.577201642408437 13.70842893059005 17.79197816946937 -2 -3 -5
838 1 2 -1.1794 7.112512490311861 13.0077390811729 18.249460956248342 -2 -3 -5
320 1 1 0.5897 5.477853640106198 13.435676632382735 17.9700562537515 0 -2 -1
154 1 2 -1.1794 5.63953065770636 15.604269906028263 21.23378302277778 6 2 -6
839 1 1 0.5897 7.788196255170393 12.569683550067191 18.76691984859109 -2 -3 -5
617 1 1 0.5897 5.504583772391188 16.734582186098002 19.774183637857867 -3 2 2
588 1 1 0.5897 7.391494406487766 15.965272089708225 16.465195984929878 -1 -1 3
854 1 1 0.5897 9.017746025040806 15.710366578772156 21.032143905495353 -2 0 2
350 1 1 0.5897 8.846028005300042 15.89016245083574 18.67833607223352 -9 -1 -3
586 1 2 -1.1794 7.2830971534929825 15.525071849923583 17.308204319603522 -1 -1 3
156 1 1 0.5897 5.591957882081397 14.649517318901465 21.185134611892796 6 2 -6