LAMMPS data file via write_data, version 30 Jul 2021, timestep = 20250000

864 atoms
2 atom types
576 bonds
1 bond types
288 angles
1 angle types

-0.006649196971089566 18.214221596978376 xlo xhi
0.17535053004046297 23.453827269971494 ylo yhi
0.12592952803206714 22.087266271965774 zlo zhi

Masses

1 1.00794
2 15.9994

Atoms # full

707 1 1 0.5897 3.0629048059077797 2.099036058485387 3.9500764050162576 0 0 0
706 1 2 -1.1794 3.2822659561787346 2.1203018105951537 3.0185611900395255 0 0 0
30 1 1 0.5897 5.387126070200381 4.250738450909313 2.466636249200632 0 0 0
708 1 1 0.5897 2.5362074421609986 2.5556996561921896 2.6061862571339782 0 0 0
29 1 1 0.5897 4.621626526964931 2.9491979250456106 2.3581920989776153 0 0 0
28 1 2 -1.1794 5.441080857927169 3.369420167011337 2.0971276772443987 0 0 0
3 1 1 0.5897 0.9443412867614328 4.126731371841175 2.340466189881635 0 0 0
846 1 1 0.5897 7.450779611309439 1.7055189729636413 4.840091424745003 0 0 0
495 1 1 0.5897 8.02390288231824 2.0073359762637697 2.837449862633919 0 0 0
494 1 1 0.5897 6.515721498153678 2.062797155105303 2.9571418833494394 0 0 0
493 1 2 -1.1794 7.263190311513518 1.4761900159286625 3.0729082025777297 0 0 0
2 1 1 0.5897 0.023972730546525156 2.9260104153327897 2.285255155964033 0 0 0
1 1 2 -1.1794 0.9034735616101913 3.21733183573136 2.044671849452628 0 0 0
20 1 1 0.5897 0.5051427003427269 2.974999637941128 0.21830881817482098 0 0 0
595 1 2 -1.1794 0.9678788912332132 5.751591738025135 2.9208907374399176 0 0 0
668 1 1 0.5897 5.392793152085437 3.2442309584241342 0.21808613942654964 0 0 0
597 1 1 0.5897 0.8902030505639056 5.700097840943051 3.8735660403147434 0 0 0
136 1 2 -1.1794 5.265122335512426 5.958095690264613 3.127637578891163 0 0 0
137 1 1 0.5897 5.145263721986314 5.779285675302961 4.060339676220583 0 0 0
83 1 1 0.5897 4.574353522075381 2.5439565545171745 6.674387740506197 0 0 0
784 1 2 -1.1794 0.6633919531905967 2.7655759775920408 6.6513983040943545 0 0 0
82 1 2 -1.1794 5.341868793316024 3.014599119832589 6.999460479821288 0 0 0
844 1 2 -1.1794 7.477150374532689 1.8705082658670553 5.782622340231736 0 0 0
674 1 1 0.5897 3.777122765538762 2.476887086310384 10.054994347349647 0 0 0
356 1 1 0.5897 7.643594812523588 0.944268443098484 10.382145441107163 0 0 0
489 1 1 0.5897 3.24436061019957 1.052711601176379 5.956844587007884 0 0 0
845 1 1 0.5897 7.561994181544749 1.0020607877046257 6.1760407139361835 0 0 0
488 1 1 0.5897 2.352997137803393 2.27602746012723 5.984872839762495 0 0 0
673 1 2 -1.1794 2.9714204809015556 2.019582933417626 10.295719689772172 0 0 0
419 1 1 0.5897 8.905630464677367 2.835997694689797 6.19163802171862 0 0 0
274 1 2 -1.1794 5.413749214843141 3.287934357272407 9.725608715307972 0 0 0
678 1 1 0.5897 5.3093764371256 5.086691077890338 10.162271637064727 0 0 0
183 1 1 0.5897 0.5969377133670472 4.6555083079230695 6.0749275300310375 0 0 0
36 1 1 0.5897 1.3672628718350885 2.6205345758126155 9.773195142155714 0 0 0
355 1 2 -1.1794 7.5268682526310196 1.8433712386794878 10.688972544417094 0 0 0
785 1 1 0.5897 0.5829281203278004 2.9036767378684005 7.5951892803210805 0 0 0
84 1 1 0.5897 6.085562277392488 2.573499733774351 6.588860534743323 0 0 0
276 1 1 0.5897 6.21025545677078 2.9051489962662207 10.0934413860404 0 0 0
675 1 1 0.5897 3.0386543881141552 1.1697774471641713 9.860422135569712 0 0 0
275 1 1 0.5897 5.476213991450069 3.1153333743895724 8.786152456531312 0 0 0
35 1 1 0.5897 0.5955996890197771 3.9203539157427474 9.691158368935119 0 0 0
34 1 2 -1.1794 0.5762169107892033 3.0089190047118817 9.39951324197025 0 0 0
686 1 1 0.5897 5.305644911055276 4.668354720794567 6.249155814940398 0 0 0
112 1 2 -1.1794 0.7434075075768387 5.614744561805172 10.26382383921065 0 0 0
685 1 2 -1.1794 5.173467808274619 5.518780535507506 5.830257969933417 0 0 0
181 1 2 -1.1794 0.6218943475805163 5.590478055219893 5.871565002603599 0 0 0
176 1 1 0.5897 8.859876942173942 2.795665280095385 9.774274514759208 0 0 0
687 1 1 0.5897 4.297399326614662 5.788496461883041 6.1059511142036405 0 0 0
676 1 2 -1.1794 5.302402738992961 5.987874592935851 10.48473221873253 0 0 0
487 1 2 -1.1794 3.206708165052653 1.9682985667367183 5.680347967562125 0 0 0
166 1 2 -1.1794 2.935794792417921 2.109075835534065 13.090082654852667 0 0 0
167 1 1 0.5897 2.874568821364085 2.2121173986940663 12.140395525144704 0 0 0
457 1 2 -1.1794 5.205839959621548 3.3606040139313786 13.966233259318091 0 0 0
458 1 1 0.5897 5.969042253673831 2.79681861475039 13.84022927053676 0 0 0
459 1 1 0.5897 4.46797892218188 2.8403329581128856 13.648280349006951 0 0 0
762 1 1 0.5897 5.233729633294742 5.067880658679168 13.587647024214146 0 0 0
594 1 1 0.5897 8.308228872319035 2.1205665744468343 13.670182569820968 0 0 0
168 1 1 0.5897 2.252373572183173 2.6817934878278527 13.438189760540658 0 0 0
365 1 1 0.5897 0.7092824711826552 5.174324688775172 13.269238845068685 0 0 0
468 1 1 0.5897 0.7177162636463706 3.505728292087662 15.01410575013043 0 0 0
593 1 1 0.5897 7.4810143461567105 0.8533871899196784 13.62860960457406 0 0 0
592 1 2 -1.1794 7.471330125267083 1.7726859340746721 13.362252436515845 0 0 0
761 1 1 0.5897 5.159451444661057 5.905807329360581 12.328973159676488 0 0 0
71 1 1 0.5897 4.960169075486806 3.439344860180177 15.801662165937238 0 0 0
466 1 2 -1.1794 0.7122992354350673 3.6214655471406294 14.06391385137865 0 0 0
760 1 2 -1.1794 5.216528200408835 5.974765751569317 13.282000458960244 0 0 0
467 1 1 0.5897 0.04381074086866121 3.0116797097878503 13.75165795392475 0 0 0
357 1 1 0.5897 7.429063175555536 1.7624125566440545 11.637740452638827 0 0 0
113 1 1 0.5897 0.7241049165153779 5.663659355854652 11.219603272684324 0 0 0
737 1 1 0.5897 2.6893425017714874 0.5293246821588786 13.733756339198608 0 1 0
754 1 2 -1.1794 7.3297427808801014 1.8560299263875644 17.341015619795737 0 0 0
19 1 2 -1.1794 0.5665823792456368 2.9344207990521474 21.225242502579032 0 0 0
648 1 1 0.5897 0.49063800614734826 5.559576556065437 19.63949624186849 0 0 0
755 1 1 0.5897 7.317077252293107 1.7787295006970045 18.295032898452902 0 0 0
290 1 1 0.5897 2.8493067842748414 1.1598224609943824 17.461255490635327 0 0 0
42 1 1 0.5897 7.420112405177244 1.1791973886602896 20.587007645330285 0 0 0
289 1 2 -1.1794 2.983269212638778 2.0303250262656203 17.836051706730526 0 0 0
41 1 1 0.5897 6.540277592797994 2.3937382742025046 20.380766546517503 0 0 0
143 1 1 0.5897 5.049944833520775 5.035681549350801 20.76298337299409 0 0 0
569 1 1 0.5897 2.099298148123027 2.152137895474759 20.782713285555587 0 0 0
571 1 2 -1.1794 0.3668917132443082 5.814913281551693 17.882762324190075 0 0 0
570 1 1 0.5897 3.0755195789382084 1.8272603686420539 19.672127627315096 0 0 0
40 1 2 -1.1794 7.407825442502355 2.044160598537218 20.177303757949606 0 0 0
291 1 1 0.5897 2.1953916521535297 2.5184126501263777 17.59680717177058 0 0 0
667 1 2 -1.1794 5.198484669274777 3.2353664994368807 21.242170226238798 0 0 0
72 1 1 0.5897 4.2986850289531615 2.9209847234873823 17.060923934120357 0 0 0
568 1 2 -1.1794 2.9894589121906563 1.8373255187322788 20.625420428246272 0 0 0
756 1 1 0.5897 6.536899554908836 2.3489280962431076 17.129645790148338 0 0 0
669 1 1 0.5897 4.439905560098516 2.6574597473157118 21.15980257507378 0 0 0
278 1 1 0.5897 4.969391658008941 5.082258770060916 17.4969947823189 0 0 0
360 1 1 0.5897 8.925417301982126 2.682393779355208 21.018965257977783 0 0 0
21 1 1 0.5897 0.6363291818744027 3.848539138026148 20.950162243601174 0 0 0
70 1 2 -1.1794 5.044997827322359 3.4365152322579293 16.755113220274705 0 0 0
646 1 2 -1.1794 0.4792210851735711 5.510022021869248 20.595365944231986 0 0 0
134 1 1 0.5897 0.6926310735863548 4.053132485056121 17.079975250358057 0 0 0
599 1 1 0.5897 8.946565682039381 2.7002464874651904 17.010831770791622 0 0 0
144 1 1 0.5897 5.189015211024291 5.93466892028955 19.552869340932556 0 0 0
142 1 2 -1.1794 5.0625690084734565 5.9563306591837115 20.501460098601772 0 0 0
81 1 1 0.5897 2.9814853057815434 0.34543078744431954 21.400630880340778 0 1 0
647 1 1 0.5897 1.277499294249576 5.962022744732736 20.868669319976117 0 0 0
711 1 1 0.5897 8.923292471493149 5.988929911648486 17.600487935049358 0 0 0
133 1 2 -1.1794 0.8070293250356789 3.169377970968168 16.730625897147963 0 0 0
253 1 2 -1.1794 3.131639674092666 7.154167420321603 2.1461810031296813 0 0 0
123 1 1 0.5897 3.0163650666404904 8.810966884806087 2.941931054652576 0 0 0
121 1 2 -1.1794 2.905626748065796 9.69177404093092 3.2998100462262254 0 0 0
122 1 1 0.5897 2.895704167736778 9.56583954333 4.24866116601968 0 0 0
44 1 1 0.5897 1.4767483425528738 10.511785665565414 2.5147106861655946 0 0 0
218 1 1 0.5897 5.798511145246047 10.825042307392774 2.5339421398498327 0 0 0
255 1 1 0.5897 2.387145524696534 6.7473763030034695 2.589442730948933 0 0 0
219 1 1 0.5897 4.293458138194889 10.82466691387549 2.6975281937060247 0 0 0
417 1 1 0.5897 8.267077230745937 6.924107965773694 2.3572802248814946 0 0 0
415 1 2 -1.1794 7.523543338695965 7.437942610809983 2.0420637499539875 0 0 0
396 1 1 0.5897 0.5654252554431553 10.989140339257867 0.5145547837008446 0 0 0
254 1 1 0.5897 2.8591154638854315 7.220402662839449 1.2309591310376338 0 0 0
217 1 2 -1.1794 5.001197960115846 11.239849687638312 2.204612399951445 0 0 0
66 1 1 0.5897 7.374728164680256 9.907323984373166 3.7059904162368453 0 0 0
65 1 1 0.5897 7.375160178603524 9.215650979432889 2.359319986024656 0 0 0
64 1 2 -1.1794 7.393742202563748 10.082346423789037 2.7650977147712092 0 0 0
416 1 1 0.5897 6.7545157287913264 6.982244552621326 2.3843628119044764 0 0 0
43 1 2 -1.1794 0.6392388984568654 10.920234917955659 2.2956709408481966 0 0 0
596 1 1 0.5897 0.22262773183991413 6.286666853594368 2.647917889723268 1 0 0
363 1 1 0.5897 4.857819980121516 10.980255748244465 0.44322840025290194 0 0 1
138 1 1 0.5897 4.416438247111581 6.2913116824183195 2.8361517777258736 0 0 0
773 1 1 0.5897 8.917881292052035 10.627204802468144 2.3452498895996965 0 0 0
45 1 1 0.5897 0.7054791252047609 11.807540295069684 2.648454046089852 0 0 0
712 1 2 -1.1794 7.392217342854729 9.570276096352746 5.507465259901792 0 0 0
162 1 1 0.5897 7.373898893287317 7.271421782137357 0.29429525175666527 0 0 1
551 1 1 0.5897 0.5306716381055301 10.715254909906855 7.2958812370330595 0 0 0
12 1 1 0.5897 2.879385455298776 7.609742267030554 6.650626967306362 0 0 0
10 1 2 -1.1794 2.8677623638979326 6.6987459417183635 6.944051964056557 0 0 0
714 1 1 0.5897 7.481781093100661 8.710132112449752 5.917698303488262 0 0 0
526 1 2 -1.1794 7.454221425283458 7.099537865419995 9.431401576984312 0 0 0
577 1 2 -1.1794 5.243179684936402 10.68631145144399 6.742815395038368 0 0 0
145 1 2 -1.1794 7.278982375590712 7.091795573183529 6.642787938518934 0 0 0
713 1 1 0.5897 8.09426115461827 10.094316369699143 5.893136722113564 0 0 0
256 1 2 -1.1794 2.7648555096235974 9.72673279320596 10.23808372137545 0 0 0
580 1 2 -1.1794 5.248244086112387 10.868517954859579 9.741334765574999 0 0 0
650 1 1 0.5897 3.001291121415431 6.888785527248919 8.763837213671062 0 0 0
822 1 1 0.5897 8.36412312271238 10.063488240360973 10.029068334670232 0 0 0
527 1 1 0.5897 7.515961296736877 8.00897852186339 9.723412412392705 0 0 0
15 1 1 0.5897 1.3630521577543413 10.614665429820214 9.479251139058347 0 0 0
582 1 1 0.5897 5.214428135017697 10.860346093895409 8.784739909021896 0 0 0
820 1 2 -1.1794 7.541193295257585 9.645606704260265 10.282821253922359 0 0 0
581 1 1 0.5897 6.0639023962325735 10.416166464383164 9.956511188391675 0 0 0
147 1 1 0.5897 7.340970434684988 7.06930428749642 7.597740289999023 0 0 0
649 1 2 -1.1794 2.9728198918711 7.045411212896972 9.707734445610225 0 0 0
552 1 1 0.5897 0.8035372925484154 11.538782399164674 6.055217095405821 0 0 0
794 1 1 0.5897 2.1843904625281096 9.808329580166276 6.208614988987071 0 0 0
258 1 1 0.5897 3.662501361096567 10.023389749220879 10.08809746493574 0 0 0
528 1 1 0.5897 8.260473391467169 6.691050403276611 9.746579265208892 0 0 0
257 1 1 0.5897 2.795118581993258 8.78266408098588 10.08330752434638 0 0 0
550 1 2 -1.1794 0.6609599567691136 10.639564790548476 6.350591815607526 0 0 0
578 1 1 0.5897 6.054111321349621 10.351275311148909 6.360212436491801 0 0 0
579 1 1 0.5897 5.12966298455863 11.550012535971717 6.34620022559836 0 0 0
13 1 2 -1.1794 0.617254124241646 11.051660686239574 9.06809634503132 0 0 0
146 1 1 0.5897 6.500655633759621 6.5726050242797145 6.440538066261887 0 0 0
11 1 1 0.5897 2.0252665017010454 6.359867117328725 6.641308540853656 0 0 0
651 1 1 0.5897 3.7749819529882545 6.644059694458285 10.041928659310095 0 0 0
795 1 1 0.5897 3.6972615292149547 9.801190492789809 6.264544197685476 0 0 0
114 1 1 0.5897 1.5297497426683688 6.100262982388071 10.014503266874142 0 0 0
793 1 2 -1.1794 2.948118106363475 9.281643439851928 5.97287937015007 0 0 0
165 1 1 0.5897 8.675578059681419 6.3040389596943 5.813519586866738 0 0 0
677 1 1 0.5897 6.090265268283997 6.382589557260623 10.110946445651084 0 0 0
826 1 2 -1.1794 7.644954348465969 6.812777769437499 14.143729505313015 0 0 0
827 1 1 0.5897 6.756746061119129 6.641045372697573 13.830940516302078 0 0 0
332 1 1 0.5897 2.9506041447416402 8.173694486665042 13.640144160597645 0 0 0
797 1 1 0.5897 2.821951888470524 9.679346549416849 11.982627178763448 0 0 0
796 1 2 -1.1794 2.9927938852981804 9.763076861955737 12.920749643951348 0 0 0
798 1 1 0.5897 2.161839706864007 10.061754167590841 13.290298562897915 0 0 0
722 1 1 0.5897 4.482997923524875 10.421900606002799 13.576370147317109 0 0 0
261 1 1 0.5897 0.6899026170011008 10.912698689849288 14.890121405198096 0 0 0
723 1 1 0.5897 5.186135221030579 10.663703680361673 14.895129995588832 0 0 0
828 1 1 0.5897 7.614098251442386 6.607956487923697 15.078268246652572 0 0 0
259 1 2 -1.1794 0.7079137358814658 10.820276187826206 13.937541790894267 0 0 0
331 1 2 -1.1794 2.8951768663108317 7.263114036541696 13.929831618417191 0 0 0
225 1 1 0.5897 2.769614929572776 6.870811617841624 15.717448102033154 0 0 0
721 1 2 -1.1794 5.325609324203469 10.682508624341144 13.948308423523587 0 0 0
475 1 2 -1.1794 7.622054081255943 9.36827956386937 13.099357111019687 0 0 0
476 1 1 0.5897 6.8225679563448685 9.776709289192244 13.431377988233898 0 0 0
477 1 1 0.5897 7.7025748846048545 8.5565119769406 13.600081494394706 0 0 0
333 1 1 0.5897 3.734315884093725 6.878984465398973 13.675793239889437 0 0 0
366 1 1 0.5897 1.3672808505049958 6.537148346431893 13.2306882096375 0 0 0
821 1 1 0.5897 7.596938996722864 9.564250133643606 11.23495412588503 0 0 0
364 1 2 -1.1794 0.6229651975803783 6.045855628819125 12.883043404543697 0 0 0
279 1 1 0.5897 4.276781790691674 6.426537870966594 17.42638766957644 0 0 0
141 1 1 0.5897 7.1744884455376265 8.970174464838873 20.73623340828788 0 0 0
246 1 1 0.5897 8.816499033802037 10.512207013902021 16.805195160686864 0 0 0
9 1 1 0.5897 6.659896412434565 10.102119008300864 17.26725686615838 0 0 0
4 1 2 -1.1794 2.5707285403822127 7.107058697006165 21.449500655134607 0 0 0
627 1 1 0.5897 2.0202234225273514 9.961299810426187 17.354398686097387 0 0 0
680 1 1 0.5897 4.417496518831747 10.313677194852835 17.056355054806136 0 0 0
446 1 1 0.5897 0.7689894235209235 11.796116612304273 17.18828360244229 0 0 0
140 1 1 0.5897 6.334405424340214 10.223983206391498 20.854492622323875 0 0 0
679 1 2 -1.1794 5.140416611554054 10.85776755586914 16.743999188819046 0 0 0
690 1 1 0.5897 1.8701732847217978 10.145095810032165 20.62241837667504 0 0 0
625 1 2 -1.1794 2.7469864737295167 9.417478480239076 17.658183257901786 0 0 0
688 1 2 -1.1794 2.6325069882898737 9.629216632817785 20.3598542807407 0 0 0
572 1 1 0.5897 1.0971096523129498 6.180429547731575 17.383344297844353 0 0 0
361 1 2 -1.1794 4.784471506602243 10.915194326981332 21.452378269718164 0 0 0
689 1 1 0.5897 3.3736622406345886 10.064927899373963 20.780658437994422 0 0 0
161 1 1 0.5897 6.489863957533146 6.840944056021331 21.10449081421177 0 0 0
626 1 1 0.5897 2.7857194394472335 9.573875786231428 18.6017459647758 0 0 0
139 1 2 -1.1794 7.1071896098731635 9.869276079546115 20.41490746537424 0 0 0
6 1 1 0.5897 2.623658930032831 8.023138212637608 21.177182103876618 0 0 0
521 1 1 0.5897 6.670898392562403 6.562862960731135 17.155231771790074 0 0 0
8 1 1 0.5897 7.294664515096955 9.58145378722022 18.53923229380021 0 0 0
7 1 2 -1.1794 7.39837305980356 9.584221272505168 17.587649207651303 0 0 0
160 1 2 -1.1794 7.322728633799532 7.2703917631509425 21.299773565376327 0 0 0
394 1 2 -1.1794 0.5849215493578251 11.055879519048526 21.521189967183567 0 0 0
5 1 1 0.5897 3.342282053105423 6.695905723581739 21.05976214106349 0 0 0
522 1 1 0.5897 7.4306465829770145 7.870613777800193 17.089647479161616 0 0 0
224 1 1 0.5897 2.629199346462503 7.729344711414055 16.956442725946342 0 0 0
287 1 1 0.5897 8.741639913911879 10.6716619881979 20.98385240370029 0 0 0
445 1 2 -1.1794 0.7097755760911696 10.932492040056562 16.77986440056 0 0 0
223 1 2 -1.1794 2.569480795849962 6.823728625446818 16.652335974503305 0 0 0
462 1 1 0.5897 8.89737773424675 6.0968996376452855 20.88801271724972 0 0 0
520 1 2 -1.1794 7.538491606727087 6.926172632324363 16.97767272905995 0 0 0
362 1 1 0.5897 4.893982150384636 11.813733390711622 21.14127459482394 0 0 0
681 1 1 0.5897 4.9108464270261525 11.744452361647156 17.021936210357076 0 0 0
277 1 2 -1.1794 5.081980956982482 6.004701384038291 17.726306847763524 0 0 0
200 1 1 0.5897 5.313438871928365 13.767562901621636 5.218952369503751 0 0 0
173 1 1 0.5897 4.401838156900054 14.137285628314775 2.9879487530929145 0 0 0
172 1 2 -1.1794 5.159826606215598 13.701603391583598 3.3776473508777705 0 0 0
374 1 1 0.5897 0.6329056596604691 13.523957680264994 4.070258796607405 0 0 0
558 1 1 0.5897 2.974203059410437 15.000373502403137 1.368252578096794 0 0 0
556 1 2 -1.1794 2.9605385026657363 14.968743935025996 2.3248690299904498 0 0 0
557 1 1 0.5897 2.1792731608205558 14.457972303980837 2.5369732315215106 0 0 0
478 1 2 -1.1794 7.3530443084327395 14.825678309237022 1.9531628664784857 0 0 0
174 1 1 0.5897 5.211872289597966 12.859945791370743 2.924794723620099 0 0 0
293 1 1 0.5897 3.074982377145732 16.642186025760473 2.9950519664881496 0 0 0
479 1 1 0.5897 8.121492398341507 14.267558939556956 2.0723490768467334 0 0 0
449 1 1 0.5897 7.56360049398984 16.50702119950504 2.6235976732316266 0 0 0
480 1 1 0.5897 6.658236728173618 14.385150079815581 2.4424589999163784 0 0 0
373 1 2 -1.1794 0.8310699226592639 13.597562576999682 3.136668382489319 0 0 0
317 1 1 0.5897 7.288813155605776 14.859902796189711 0.23131618552870148 0 0 0
448 1 2 -1.1794 7.6555984847352505 17.426775073156193 2.872098393222779 0 0 0
308 1 1 0.5897 7.311029257601621 17.2966516367129 4.622529640962161 0 0 0
292 1 2 -1.1794 3.0228688950881466 17.58114368178005 3.1733605701525884 0 0 0
375 1 1 0.5897 0.07751221863716432 14.057639671364198 2.7669176628783183 0 0 0
307 1 2 -1.1794 7.1619283337524005 17.26669564723324 5.567596123473648 0 0 0
384 1 1 0.5897 3.0747215840125888 16.803955865937667 10.251868821613193 0 0 0
766 1 2 -1.1794 0.9054394916144982 13.753610305605877 10.173299881652573 0 0 0
454 1 2 -1.1794 5.254361770597055 13.41131647113577 10.611002967466769 0 0 0
199 1 2 -1.1794 5.2271332034889495 13.631209573698944 6.162471874487748 0 0 0
811 1 2 -1.1794 3.2375044511298188 15.066024935093832 9.520307933130722 0 0 0
456 1 1 0.5897 5.298049375431839 12.49723870940189 10.330469265151429 0 0 0
813 1 1 0.5897 2.441358714140988 14.592242666550824 9.76094776964907 0 0 0
17 1 1 0.5897 2.764779308631457 14.731925711926237 7.741223428677921 0 0 0
239 1 1 0.5897 2.767347115670476 16.442031836407637 6.0900437356097585 0 0 0
238 1 2 -1.1794 2.77654315711161 17.37940637776468 5.896690219286037 0 0 0
377 1 1 0.5897 6.845110963324555 14.26283068519841 10.005577651884972 0 0 0
655 1 2 -1.1794 0.643276914361657 13.356530353791166 5.877436916079902 0 0 0
519 1 1 0.5897 8.188022936155901 14.688363418040398 6.494397630845476 0 0 0
812 1 1 0.5897 3.9490943882754044 14.459933206327316 9.72647899877853 0 0 0
18 1 1 0.5897 3.671201265894109 14.218471846943784 6.642723872907966 0 0 0
376 1 2 -1.1794 7.695206652016858 14.643272740867522 9.784572002369 0 0 0
16 1 2 -1.1794 2.800100385519038 14.5843770566235 6.7961018418253 0 0 0
517 1 2 -1.1794 7.528900922500316 15.054078668617755 7.084354463168515 0 0 0
186 1 1 0.5897 7.659144728378527 16.426654256782975 10.23688454519465 0 0 0
378 1 1 0.5897 7.6575031834150655 14.781554186993615 8.838135715851712 0 0 0
518 1 1 0.5897 7.339105263899699 15.920487490641646 6.724523552942975 0 0 0
201 1 1 0.5897 5.992300128901111 14.06610998495965 6.53880111679227 0 0 0
768 1 1 0.5897 0.12587161152182014 14.248037196346123 9.920234207411394 0 0 0
656 1 1 0.5897 1.4212006275784617 13.730420425370033 6.2912897914217725 0 0 0
14 1 1 0.5897 0.6528955829917034 11.949178234098616 9.39877436810814 0 0 0
184 1 2 -1.1794 7.392536999670105 17.34102110873158 10.33177773160544 0 0 0
296 1 1 0.5897 7.3812611113154265 14.74249378224075 14.861527829460194 0 0 0
232 1 2 -1.1794 2.677191240390014 14.735744569595294 13.93023710845904 0 0 0
234 1 1 0.5897 2.5147429742079477 14.741412023417103 14.873558275130847 0 0 0
606 1 1 0.5897 2.730246416446742 16.55923450588714 13.489457048000094 0 0 0
427 1 2 -1.1794 4.953371500079464 13.296446195867585 13.35163243096323 0 0 0
233 1 1 0.5897 3.4406858000829326 14.168753690028495 13.821599735580055 0 0 0
639 1 1 0.5897 1.3490698261760974 13.808659028468842 13.052796511245523 0 0 0
429 1 1 0.5897 5.666817277489503 13.886304485500322 13.595079043401407 0 0 0
428 1 1 0.5897 5.2754619347398 12.424025029500012 13.578204549028404 0 0 0
455 1 1 0.5897 5.247212714220621 13.368823727090584 11.567255699238832 0 0 0
637 1 2 -1.1794 0.6207690776051114 13.280041566271752 12.726672669623598 0 0 0
295 1 2 -1.1794 7.28311305401295 14.66552126835386 13.91245337565165 0 0 0
270 1 1 0.5897 7.2232615229582615 16.49097672564367 13.35361058248461 0 0 0
297 1 1 0.5897 8.095991649458409 14.253475775963423 13.6197543096204 0 0 0
638 1 1 0.5897 0.7633415098040619 12.413827702044037 13.108124883417812 0 0 0
605 1 1 0.5897 2.942913496519055 17.436688988566573 12.274231169482016 0 0 0
268 1 2 -1.1794 7.3668359251015065 17.406734554081552 13.11500098106737 0 0 0
767 1 1 0.5897 0.821692562621251 13.641637422699517 11.120256349736234 0 0 0
269 1 1 0.5897 7.291961543724756 17.420710484133217 12.160811897244963 0 0 0
604 1 2 -1.1794 2.8485262802385116 17.471845022352085 13.226145014166017 0 0 0
451 1 2 -1.1794 0.7402433059885384 13.718896347706002 20.589174384655003 0 0 0
664 1 2 -1.1794 2.9831305030733577 14.962589570419008 21.530065266236914 0 0 0
50 1 1 0.5897 7.564428261024759 15.543606872484343 16.919620319227253 0 0 0
49 1 2 -1.1794 7.458549622751094 14.622594336850074 16.68156344873785 0 0 0
824 1 1 0.5897 3.5280522744322997 14.729794740103443 17.04239832374754 0 0 0
53 1 1 0.5897 0.6619862471041563 13.54470892415164 18.78949288115937 0 0 0
125 1 1 0.5897 5.104443115139407 13.753869293701749 18.624635114812218 0 0 0
124 1 2 -1.1794 5.086621784075058 13.850631872156226 17.672482034440765 0 0 0
684 1 1 0.5897 4.4045877821335155 13.995700847320482 20.788582204237443 0 0 0
117 1 1 0.5897 8.830927380839011 14.028505844027892 20.767077487772713 0 0 0
666 1 1 0.5897 2.867174735757089 15.856221877997884 21.20734263829197 0 0 0
316 1 2 -1.1794 7.388621924626601 14.781857531155307 21.243848895707632 0 0 0
452 1 1 0.5897 0.6662878583924412 12.829694170659195 20.935587632839216 0 0 0
318 1 1 0.5897 7.401775890838684 15.685569800675658 20.928761415966765 0 0 0
665 1 1 0.5897 2.1422217162447272 14.536520136498481 21.364048758460747 0 0 0
584 1 1 0.5897 2.597268283704604 16.773553429080124 17.375001484799597 0 0 0
683 1 1 0.5897 5.909239153699704 13.969630955853953 20.623380880304794 0 0 0
126 1 1 0.5897 6.005943362691739 13.946928577104865 17.423789093362583 0 0 0
682 1 2 -1.1794 5.109466044382066 13.522543028290931 20.34643018150589 0 0 0
610 1 2 -1.1794 7.655211113065232 17.22520965566499 17.527084585646875 0 0 0
825 1 1 0.5897 2.0574104579460113 14.389035603031518 17.156464840854163 0 0 0
51 1 1 0.5897 8.094315682419333 14.159210915672551 17.226823603129663 0 0 0
52 1 2 -1.1794 0.5842751993526852 13.446463921881145 17.840500427251747 0 0 0
159 1 1 0.5897 7.4654475415127575 17.26731217257756 19.302271114267416 0 0 0
823 1 2 -1.1794 2.672086510465173 14.935066168335625 16.6663174247705 0 0 0
157 1 2 -1.1794 7.393355780704521 17.405932996465978 20.246653911752286 0 0 0
267 1 1 0.5897 6.22815609967074 21.55581365776316 2.500190785443859 0 0 0
696 1 1 0.5897 1.7744954543756646 21.666404455696657 2.782783081460733 0 0 0
266 1 1 0.5897 4.775688483731599 21.603826376609533 2.9244371783337924 0 0 0
265 1 2 -1.1794 5.601529838469962 21.153468942812566 3.101606321894128 0 0 0
344 1 1 0.5897 1.4021662323057984 18.279607999263533 2.618062088214362 0 0 0
228 1 1 0.5897 5.365523940206682 19.47082869923068 2.51493867421621 0 0 0
343 1 2 -1.1794 0.6198233599345996 18.77903950255402 2.3841097936489897 0 0 0
817 1 2 -1.1794 7.643760942804248 22.4289377470227 1.78402172083238 0 0 0
249 1 1 0.5897 5.578974616212366 21.043610716815472 5.090716080808863 0 0 0
226 1 2 -1.1794 5.3179156400857375 18.590696610250475 2.141757147917445 0 0 0
187 1 2 -1.1794 3.230336857413931 22.430365547879404 2.5040522630804847 0 0 0
819 1 1 0.5897 7.5143195799133995 23.234848361466923 2.2839540482387473 0 -1 0
695 1 1 0.5897 0.8361339963574284 20.48056666282951 2.711914558790135 0 0 0
818 1 1 0.5897 8.325730590654235 21.95701202874048 2.261965707214602 0 0 0
694 1 2 -1.1794 0.8953163971351925 21.380908064554255 3.0313490430180843 0 0 0
189 1 1 0.5897 3.3210541375142197 22.378442831321024 1.5525529874032356 0 0 0
413 1 1 0.5897 0.7368626026371031 21.29604887522938 4.8007128324407535 0 0 0
227 1 1 0.5897 4.486663699133482 18.23939492263652 2.460895928346372 0 0 0
345 1 1 0.5897 0.6286876176549216 18.80466474889012 1.4272646396878732 0 0 0
450 1 1 0.5897 6.8183691476874095 17.8246986941025 2.633494394503909 0 0 0
188 1 1 0.5897 3.184379265192144 23.3681752655969 2.6899207665749767 0 0 0
294 1 1 0.5897 2.9389274152802547 17.640410982735865 4.125050650901383 0 0 0
602 1 1 0.5897 5.198871225809185 18.724875871362713 0.19365535102863163 0 0 0
555 1 1 0.5897 5.048786896340447 20.51440670932869 10.130916737245155 0 0 0
404 1 1 0.5897 1.3844215122677335 18.51143532312546 9.864823395816776 0 0 0
87 1 1 0.5897 8.203318757810303 22.07390400675269 9.846317158091138 0 0 0
37 1 2 -1.1794 3.1610500040352263 22.805189322479215 9.000972797150562 0 0 0
86 1 1 0.5897 7.524580665832016 22.676145703629956 8.634478898100195 0 0 0
309 1 1 0.5897 7.854864540887921 17.813813420676638 5.9373470874891705 0 0 0
32 1 1 0.5897 8.30546899606973 22.086339476706087 6.394452747492173 0 0 0
247 1 2 -1.1794 5.408591682451579 21.123013801355448 6.029298525550164 0 0 0
39 1 1 0.5897 3.9451599227054195 22.48742105305324 9.448693613430578 0 0 0
553 1 2 -1.1794 5.077811832029851 21.43320305017 10.397609507950309 0 0 0
701 1 1 0.5897 3.159657486368127 22.769284681842088 7.2344900657713485 0 0 0
94 1 2 -1.1794 0.9211787926572085 21.68124189501406 9.980540031936446 0 0 0
387 1 1 0.5897 5.107773708434919 19.370324919797596 6.522390306177363 0 0 0
102 1 1 0.5897 4.941545139713401 18.72291967042969 8.623314763631994 0 0 0
700 1 2 -1.1794 3.2231652532461395 22.639439321649824 6.288245925969907 0 0 0
385 1 2 -1.1794 5.087541433629593 18.460785361164405 6.819857046147609 0 0 0
702 1 1 0.5897 2.350746604856951 22.34425402873125 6.027431977430645 0 0 0
38 1 1 0.5897 2.4546137572049926 22.25002473074271 9.331055463100943 0 0 0
386 1 1 0.5897 5.78773362281236 18.0318193844563 6.327962998285631 0 0 0
405 1 1 0.5897 0.714143199516512 19.867444156838268 9.804224702301063 0 0 0
33 1 1 0.5897 6.798994779908188 22.176494278767144 6.514164760508522 0 0 0
342 1 1 0.5897 0.49513476080507135 19.102823582842127 7.715049785004388 0 0 0
85 1 2 -1.1794 7.438777486280462 22.58643016346145 9.583618422105175 0 0 0
554 1 1 0.5897 5.9899351864300305 21.692345145564033 10.26678921497223 0 0 0
101 1 1 0.5897 5.833402154214713 18.4244704079966 9.809702419435553 0 0 0
341 1 1 0.5897 1.1197586446797398 18.359274585851175 6.553607985670824 0 0 0
31 1 2 -1.1794 7.607086179312007 22.61510508872137 6.780306619150329 0 0 0
100 1 2 -1.1794 5.021179173492862 18.868498739507984 9.566050544607352 0 0 0
340 1 2 -1.1794 0.3927865399489732 18.94040559814738 6.777267685867048 0 0 0
403 1 2 -1.1794 0.6312994407052988 18.96742463740317 9.48918339099857 0 0 0
383 1 1 0.5897 3.6357044180051523 18.207729907077606 10.171714165770936 0 0 0
248 1 1 0.5897 4.584740392907299 21.607319990613917 6.083517857231936 0 0 0
414 1 1 0.5897 0.6273831601044337 20.589115693312642 6.1349475317650315 0 0 0
185 1 1 0.5897 8.15021184240625 17.84408567604953 10.033323579871317 0 0 0
240 1 1 0.5897 3.623147192801305 17.68359073922995 6.223751247017207 0 0 0
412 1 2 -1.1794 0.7187717801243275 21.45798658740955 5.743961358866335 0 0 0
382 1 2 -1.1794 2.9110572419287917 17.702042874579533 10.539659366384821 0 0 0
95 1 1 0.5897 0.15870025675640775 22.21483597351923 9.756639051344743 1 0 0
96 1 1 0.5897 0.926996554349649 21.660597793830796 10.937526741289883 0 0 0
502 1 2 -1.1794 0.6800496720715299 18.95166103633491 14.128839290507544 0 0 0
88 1 2 -1.1794 4.7560081863478345 21.51841360430896 13.147503991548488 0 0 0
381 1 1 0.5897 1.4523172743002515 21.776862744283434 13.013418327017993 0 0 0
90 1 1 0.5897 4.850736872921568 20.596620363256008 13.387236472604815 0 0 0
763 1 2 -1.1794 5.153655402848415 18.95554839232568 13.946973864854106 0 0 0
738 1 1 0.5897 3.3200893707741215 22.433844134368215 13.812054035445643 0 0 0
89 1 1 0.5897 4.779498798444479 21.521176014927782 12.190572681222593 0 0 0
764 1 1 0.5897 4.445974000802869 18.357213915245815 13.707372596619113 0 0 0
474 1 1 0.5897 5.215558487113015 18.558707582894776 15.847493917407682 0 0 0
765 1 1 0.5897 5.952847265638122 18.500693499124125 13.681187903300602 0 0 0
350 1 1 0.5897 2.7297994979200992 22.753843918819875 15.91300429351471 0 0 0
736 1 2 -1.1794 2.5573914579641186 22.934250155551553 14.102080857194338 0 0 0
787 1 2 -1.1794 7.148574494931579 22.422544925713815 13.857626106156381 0 0 0