LAMMPS data file via write_data, version 30 Jul 2021, timestep = 8250000

864 atoms
2 atom types
576 bonds
1 bond types
288 angles
1 angle types

0.06912592121684469 18.138446478776977 xlo xhi
0.07252835601459928 23.55664944399866 ylo yhi
0.0831340646291725 22.130061735371854 zlo zhi

Masses

1 1.00794
2 15.9994

Atoms # full

707 1 1 0.5897 2.9417080649650513 1.792950967997171 3.743245718881859 0 0 0
706 1 2 -1.1794 3.1189899173486038 2.0002695857078154 2.825847623714914 0 0 0
846 1 1 0.5897 7.799154804788763 1.8197991998431844 5.1428274290017395 0 0 0
20 1 1 0.5897 1.1428143378654745 3.1804827747073565 0.25698359267075577 0 0 0
495 1 1 0.5897 8.335247225932132 2.3016113186577236 3.023891291455725 0 0 0
708 1 1 0.5897 2.3069180312591415 2.3946932439604027 2.507748470519335 0 0 0
29 1 1 0.5897 4.589326883424046 2.942211618041485 2.2001208928505367 0 0 0
28 1 2 -1.1794 5.431870600671279 3.288417635577492 1.9059953820444364 0 0 0
2 1 1 0.5897 0.10167534498715255 2.922810383985456 2.275563529079857 0 0 0
494 1 1 0.5897 6.827348938799701 2.294650669513204 2.8888370375630945 0 0 0
30 1 1 0.5897 5.364180102025431 4.233235153902696 2.043314179602456 0 0 0
493 1 2 -1.1794 7.550484053618178 1.8428498018286077 3.323746554931624 0 0 0
1 1 2 -1.1794 0.9397603882013948 3.317257075978826 2.0341953558841306 0 0 0
3 1 1 0.5897 0.8762092749226664 4.221889495637271 2.3403093199751415 0 0 0
188 1 1 0.5897 2.829400442966549 0.2120132051047953 2.4595052776667625 0 1 0
819 1 1 0.5897 7.441815295504544 0.1489273364764912 2.6727515860420383 0 0 0
595 1 2 -1.1794 0.7259527682626189 5.658538207001281 3.25193662792773 0 0 0
137 1 1 0.5897 5.141369433407828 5.6221916548385025 3.8433876053438234 0 0 0
597 1 1 0.5897 0.7686995338010464 5.644666248793626 4.207968451598157 0 0 0
136 1 2 -1.1794 5.351949718191783 5.828541113935716 2.932834348043358 0 0 0
685 1 2 -1.1794 4.705723996282187 5.25256214213843 5.517881366451477 0 0 0
668 1 1 0.5897 5.459052584419876 3.403974995654131 0.1953036623023081 0 0 0
785 1 1 0.5897 0.783869196233376 2.906624892100969 7.589246825936305 0 0 0
355 1 2 -1.1794 7.478875900364829 1.6503253834141884 10.304029802619272 0 0 0
36 1 1 0.5897 1.414014264631909 2.6331169217469417 9.991669760769005 0 0 0
784 1 2 -1.1794 0.9221183592252393 3.0143898819933197 6.648346356341837 0 0 0
83 1 1 0.5897 4.5139688240755955 2.299606870759929 6.45607176512162 0 0 0
678 1 1 0.5897 5.181725524091303 4.451264065529141 10.053305461935594 0 0 0
674 1 1 0.5897 3.4776529904634437 1.7837030664522584 10.148937014711793 0 0 0
675 1 1 0.5897 2.6326391257170276 0.5277333979784606 10.164078924234651 0 0 0
673 1 2 -1.1794 2.642559003096848 1.4369514188216472 10.462962804910513 0 0 0
356 1 1 0.5897 7.308401840861545 0.7594666966640962 9.9983899437632 0 0 0
274 1 2 -1.1794 5.006321012690501 2.704474103401152 9.493779830961824 0 0 0
34 1 2 -1.1794 0.7182762872213598 3.064869863125288 9.495977781297182 0 0 0
687 1 1 0.5897 4.255056231600187 5.834262444472762 6.129951908117239 0 0 0
82 1 2 -1.1794 5.225858942953452 2.857558857943929 6.769271650188554 0 0 0
488 1 1 0.5897 2.4127753302915917 1.972879876074907 6.065446622166184 0 0 0
489 1 1 0.5897 3.0465925048262594 0.6017847699602703 6.16567308284549 0 0 0
276 1 1 0.5897 5.861259148907269 2.305610751788221 9.65585792756554 0 0 0
84 1 1 0.5897 6.017555750196272 2.466964946212412 6.399322038791137 0 0 0
275 1 1 0.5897 4.918139017206141 2.704003151894139 8.540760890401204 0 0 0
183 1 1 0.5897 1.0672150081707603 4.794631191403349 6.252568081985076 0 0 0
35 1 1 0.5897 0.6835841504073077 3.95189290292142 9.853868294935179 0 0 0
845 1 1 0.5897 7.9167997792522 0.8486566964724812 6.298031047961807 0 0 0
686 1 1 0.5897 4.843798675582823 4.44459537058576 6.012082408849291 0 0 0
676 1 2 -1.1794 5.09274661625505 5.351164881559736 10.366933764710417 0 0 0
176 1 1 0.5897 8.997423540620314 2.468757666590928 9.866267406831739 0 0 0
844 1 2 -1.1794 7.8510210077259615 1.7822960867500495 6.097772520873293 0 0 0
487 1 2 -1.1794 3.0870971541222287 1.4199976978359474 5.670727865885725 0 0 0
112 1 2 -1.1794 0.5827903615011139 5.734050808276912 10.410399920052157 0 0 0
181 1 2 -1.1794 1.0205341302651625 5.701036160480821 5.948647146487173 0 0 0
677 1 1 0.5897 5.861803560843152 5.803323460937392 10.020080189384787 0 0 0
166 1 2 -1.1794 2.9539193036267717 1.879565191256584 13.28083706343142 0 0 0
167 1 1 0.5897 2.903517965133874 1.861073638569085 12.325224160719783 0 0 0
762 1 1 0.5897 5.217698722512661 4.892830561584388 13.493893871903133 0 0 0
459 1 1 0.5897 4.428761478137923 2.6285294833023123 13.842681636081938 0 0 0
168 1 1 0.5897 2.1888784563326382 2.3870960045904144 13.551686456930279 0 0 0
365 1 1 0.5897 0.5270049822658915 4.883791492151424 13.574352710391803 0 0 0
466 1 2 -1.1794 0.5494344586236302 3.3436257058209664 14.217747777216179 0 0 0
592 1 2 -1.1794 7.336874279472456 1.8942605241874417 13.055393366761962 0 0 0
458 1 1 0.5897 5.919829742793529 2.852477377394949 13.706469527298832 0 0 0
594 1 1 0.5897 8.195613032437706 2.1595429600308322 13.384684037398562 0 0 0
457 1 2 -1.1794 5.12882453207053 3.2336087178149775 14.087635769423846 0 0 0
593 1 1 0.5897 7.148886149289051 1.0730069418979231 13.509601529421184 0 0 0
468 1 1 0.5897 0.5693033715712911 3.508672873107772 15.160297822446632 0 0 0
71 1 1 0.5897 5.312196333820391 3.3146886774891717 15.763369453145295 0 0 0
364 1 2 -1.1794 0.5791393041415448 5.695519159508648 13.069909922924344 0 0 0
113 1 1 0.5897 0.47411394908121046 5.873291215259822 11.351050030425872 0 0 0
761 1 1 0.5897 5.193410868818033 5.5747455332066504 12.142656580490993 0 0 0
737 1 1 0.5897 2.690103016396035 0.32705592398877853 14.013435710099033 0 1 0
760 1 2 -1.1794 5.097076297145491 5.746980804308762 13.079186405804325 0 0 0
357 1 1 0.5897 7.401901056727213 1.5960694133422741 11.256474362604935 0 0 0
134 1 1 0.5897 0.310228663407617 4.597714419598423 17.40634943257863 0 0 0
19 1 2 -1.1794 0.8637128116387197 3.07689531806922 21.394263514599714 0 0 0
277 1 2 -1.1794 5.461043112812368 5.854199007373522 17.305262407112053 0 0 0
667 1 2 -1.1794 5.4045334006445005 3.3549192160688834 21.287955962515454 0 0 0
41 1 1 0.5897 7.06581884281647 2.8356897690432983 20.489342111003133 0 0 0
569 1 1 0.5897 2.3399684135395638 2.27110181735342 20.780146219451602 0 0 0
570 1 1 0.5897 3.0971815331427024 1.6819522101400421 19.609212821984087 0 0 0
568 1 2 -1.1794 3.18377708664213 1.8884456081147167 20.53974474664578 0 0 0
278 1 1 0.5897 5.417118327726716 4.934923977634318 17.04237325210756 0 0 0
143 1 1 0.5897 5.2836583846451175 4.833331001352649 20.474891468513135 0 0 0
756 1 1 0.5897 6.8098514353495165 2.329284270213061 17.204510490017597 0 0 0
669 1 1 0.5897 4.6205761592784205 2.8323654728506478 21.118930413199088 0 0 0
289 1 2 -1.1794 2.845483147324048 2.47703480493278 17.776761080493188 0 0 0
291 1 1 0.5897 1.9877470921647376 2.8699183783749187 17.614984781763077 0 0 0
323 1 1 0.5897 7.514559593268584 0.21776303327399485 17.28535462674482 0 1 0
72 1 1 0.5897 4.504202552915736 3.116589094355749 17.028063876623243 0 0 0
133 1 2 -1.1794 0.41709360914045346 3.7693673534413565 16.938880100457112 0 0 0
42 1 1 0.5897 7.875346345392283 1.5576535164492606 20.544156484736412 0 0 0
754 1 2 -1.1794 7.611336872903142 1.9341040914275278 17.547555392768366 0 0 0
40 1 2 -1.1794 7.908893580160296 2.4620674371551425 20.232677032212266 0 0 0
755 1 1 0.5897 7.603761307620263 2.147504318010753 18.48052691049672 0 0 0
290 1 1 0.5897 2.752294416272308 1.5696259375638333 17.486871420107505 0 0 0
70 1 2 -1.1794 5.394594079191811 3.2784453222773524 16.71621651483091 0 0 0
21 1 1 0.5897 0.8469965269042816 3.9680398909988805 21.04542454986342 0 0 0
646 1 2 -1.1794 0.4565672182619979 5.661329000403144 20.618157098343673 0 0 0
81 1 1 0.5897 3.030642003287805 0.3939240200790918 21.321045550990142 0 1 0
648 1 1 0.5897 0.4292157692900936 5.882988119131364 19.687491837946745 0 0 0
144 1 1 0.5897 5.247024191131598 5.564583672951452 19.149999002205682 0 0 0
142 1 2 -1.1794 5.157692340701703 5.7018882655873835 20.092969532477852 0 0 0
253 1 2 -1.1794 2.958504572766942 6.961738019332307 1.9472849995296029 0 0 0
123 1 1 0.5897 2.55610640244777 8.771975823237621 2.687672062046829 0 0 0
121 1 2 -1.1794 2.496198378129879 9.677004489662592 2.9933423836190842 0 0 0
122 1 1 0.5897 2.548472871332201 9.612183274668007 3.94680926140336 0 0 0
417 1 1 0.5897 8.1904813564397 6.966202183024589 2.2369763819633413 0 0 0
712 1 2 -1.1794 7.222242198857338 9.508822375343005 5.230239363961934 0 0 0
415 1 2 -1.1794 7.378490206911624 7.21141384164385 1.7934065525715273 0 0 0
44 1 1 0.5897 1.0855331180667218 10.420581161513715 2.0784871773498517 0 0 0
219 1 1 0.5897 4.287912834716759 10.375526867753482 2.4857885190088003 0 0 0
416 1 1 0.5897 6.698885056946616 6.707064213296353 2.2405701602013193 0 0 0
218 1 1 0.5897 5.773600470373826 10.507169927539001 2.2261219833885484 0 0 0
43 1 2 -1.1794 0.30389647568850775 10.844747509395772 1.7244258175602465 0 0 0
66 1 1 0.5897 7.154218180541916 9.83301784456637 3.514763658285048 0 0 0
65 1 1 0.5897 7.28951657170319 8.928378241286783 2.3086259817612067 0 0 0
64 1 2 -1.1794 7.210941676408863 9.848705102306951 2.559486552894214 0 0 0
217 1 2 -1.1794 4.939438128425182 10.95815939626974 2.0956103637536363 0 0 0
254 1 1 0.5897 2.866344748431575 6.815160752554261 1.0059886516146332 0 0 0
773 1 1 0.5897 8.837908490328413 10.777011905515744 1.9431895180942325 0 0 0
255 1 1 0.5897 2.2307518444124903 6.477938726586686 2.337827628007938 0 0 0
138 1 1 0.5897 4.600024679082293 6.332017668670134 2.620855353909998 0 0 0
363 1 1 0.5897 4.794824447194585 11.049313342002447 0.24238225382929587 0 0 1
45 1 1 0.5897 0.3608367818474042 11.748912175483689 2.033207051027105 0 0 0
794 1 1 0.5897 2.1692356270368895 9.953591631779688 6.030594249955719 0 0 0
822 1 1 0.5897 8.64313699855789 9.724699933607534 9.920289706920146 0 0 0
551 1 1 0.5897 0.7562071317043231 10.643812950074397 7.575808587867067 0 0 0
15 1 1 0.5897 1.672622381629556 10.120754923634141 9.568447232386927 0 0 0
550 1 2 -1.1794 0.8282901551441598 10.75900071853899 6.62841367355473 0 0 0
528 1 1 0.5897 8.05065119841301 6.25764211280591 9.538889790089407 0 0 0
256 1 2 -1.1794 3.1789535851480926 9.770326249904628 10.505909073550464 0 0 0
820 1 2 -1.1794 7.893440494721709 9.20270067017192 10.206220806845257 0 0 0
257 1 1 0.5897 3.214991689082736 8.813853969622336 10.509025768727083 0 0 0
145 1 2 -1.1794 7.2965150835382016 6.7517654216884955 6.489348094564279 0 0 0
526 1 2 -1.1794 7.324153262813582 6.802947178548632 9.237138241124454 0 0 0
650 1 1 0.5897 3.08979766418295 7.229768569726896 8.84565171328357 0 0 0
578 1 1 0.5897 5.890387592969928 10.653806035050218 6.058262060982509 0 0 0
580 1 2 -1.1794 5.654238700601641 10.753290360082449 9.485830220537963 0 0 0
581 1 1 0.5897 6.264488510581455 10.049640593595656 9.70638267272755 0 0 0
651 1 1 0.5897 3.9045564963701684 6.575899014118197 9.941229839801696 0 0 0
147 1 1 0.5897 7.4430767457887415 6.794082230487574 7.434203067914908 0 0 0
649 1 2 -1.1794 3.110253377514319 7.088815114008547 9.792092645860329 0 0 0
165 1 1 0.5897 9.05400218972827 6.200105906071973 5.657885400461092 0 0 0
146 1 1 0.5897 6.716288261626237 5.999925114566035 6.369931010355309 0 0 0
577 1 2 -1.1794 5.086731339156714 10.950543235784016 6.485220878930705 0 0 0
258 1 1 0.5897 3.98523548006914 10.039396930790318 10.065773618269711 0 0 0
795 1 1 0.5897 3.681610447595038 9.906534498651657 6.080870438640876 0 0 0
582 1 1 0.5897 5.603146706243221 10.735860225416484 8.530266774836427 0 0 0
10 1 2 -1.1794 3.174810335803868 7.062808626646542 6.888285317166176 0 0 0
13 1 2 -1.1794 0.8340432238943339 10.540985047665007 9.377578882825523 0 0 0
527 1 1 0.5897 7.469992666908056 7.6506866785801195 9.656884907958448 0 0 0
714 1 1 0.5897 7.026843363460964 8.659764884534713 5.6265017421274255 0 0 0
11 1 1 0.5897 2.434208523280308 6.536792762835 6.5865536275724 0 0 0
12 1 1 0.5897 3.092450907349365 7.888770641212506 6.411746066815809 0 0 0
182 1 1 0.5897 0.23880187688265408 6.056087087102914 6.371790307815965 1 0 0
713 1 1 0.5897 7.948132620942362 9.854689727095414 5.749503433748914 0 0 0
114 1 1 0.5897 1.3829751385893212 6.210064028558 10.188225823494063 0 0 0
552 1 1 0.5897 0.6958814313441581 11.696765791236976 6.489935449735619 0 0 0
793 1 2 -1.1794 2.9187438290040686 9.41578474510311 5.7752379216559815 0 0 0
14 1 1 0.5897 0.9161148761201622 11.419641546473562 9.748155690457628 0 0 0
476 1 1 0.5897 6.872805765555636 9.939525384646023 13.473039688230713 0 0 0
332 1 1 0.5897 2.958044403970736 7.929854679358498 13.809238854254936 0 0 0
797 1 1 0.5897 2.9232701357780884 9.618587069779112 12.289008450757578 0 0 0
796 1 2 -1.1794 2.9291856891454513 9.602880571678382 13.245964751756572 0 0 0
798 1 1 0.5897 2.199184496873162 10.167589643149833 13.49974162782424 0 0 0
828 1 1 0.5897 7.48716928881823 7.091220761084018 14.879812314437999 0 0 0
723 1 1 0.5897 5.420262303181721 10.858068121183877 15.069031245259078 0 0 0
331 1 2 -1.1794 2.8709679971506814 7.042567107667714 14.15744770381908 0 0 0
477 1 1 0.5897 7.590447944523323 8.620116285891855 13.28368844456474 0 0 0
259 1 2 -1.1794 0.8141373036985997 10.961937532163883 13.988149148609267 0 0 0
826 1 2 -1.1794 7.424562664342096 7.034263484733074 13.926455874003041 0 0 0
827 1 1 0.5897 6.549176074286549 6.682748835105692 13.764013202297416 0 0 0
722 1 1 0.5897 4.679904660162714 10.267593206312574 13.888034497953205 0 0 0
333 1 1 0.5897 3.4999119094905584 6.524773026995377 13.654967036623608 0 0 0
851 1 1 0.5897 8.925797879578086 5.961191953010331 13.330534799924088 0 0 0
721 1 2 -1.1794 5.512821852180918 10.669242516689346 14.13532993954211 0 0 0
475 1 2 -1.1794 7.558086646556874 9.518219796804573 12.954329578136164 0 0 0
366 1 1 0.5897 1.3694950875655025 6.128369777130405 13.392740130262425 0 0 0
261 1 1 0.5897 0.8528388688502586 10.871033961649307 14.940123258348102 0 0 0
225 1 1 0.5897 2.8796051553799766 6.979633121281006 15.917511879358937 0 0 0
260 1 1 0.5897 0.07912714172350732 10.408565947295063 13.723926099207596 0 0 0
104 1 1 0.5897 9.089643514594584 10.236632671069028 13.49042693736379 0 0 0
821 1 1 0.5897 7.746366459649881 9.470710345042573 11.113199772830574 0 0 0
689 1 1 0.5897 3.616433224339692 9.90952404296902 20.897890611713677 0 0 0
161 1 1 0.5897 6.401443245052423 6.758146030693498 20.739125748969983 0 0 0
626 1 1 0.5897 3.27061412066606 9.470498767080826 18.929705217631366 0 0 0
6 1 1 0.5897 2.7867455915405346 7.477710807825547 21.074475039744293 0 0 0
279 1 1 0.5897 4.579850666736155 6.1919815025910445 17.14505271393171 0 0 0
4 1 2 -1.1794 2.8774552352764604 6.563257056486813 21.34218290477461 0 0 0
462 1 1 0.5897 8.610775015575063 6.506449807618448 20.470344166535973 0 0 0
690 1 1 0.5897 2.112684917068742 9.87619031458123 20.725637839930947 0 0 0
679 1 2 -1.1794 5.190640597170169 11.024737402740298 16.721452889185727 0 0 0
688 1 2 -1.1794 2.882163800788371 9.308686689210909 20.771173792463927 0 0 0
7 1 2 -1.1794 7.52290674267575 10.050539873919794 17.555464350094816 0 0 0
361 1 2 -1.1794 4.943856775057026 11.195396107347726 21.35524645115965 0 0 0
522 1 1 0.5897 7.755459691695096 8.119050413501888 16.950019964493634 0 0 0
140 1 1 0.5897 6.803062456616591 10.644745401224025 20.752809177093724 0 0 0
5 1 1 0.5897 3.6516088059144782 6.2516067719686825 20.87328719005272 0 0 0
680 1 1 0.5897 4.568394974799028 10.419796591841013 17.1252082912644 0 0 0
9 1 1 0.5897 6.647704375954805 10.32066175117712 17.277377295251405 0 0 0
160 1 2 -1.1794 7.079954221886174 7.335690706860353 21.088768787163673 0 0 0
521 1 1 0.5897 7.01066287910385 6.809010498609689 17.094121927260773 0 0 0
625 1 2 -1.1794 3.3050634578878886 9.415213822295543 17.974834192712976 0 0 0
139 1 2 -1.1794 7.475243341724442 10.087982333450674 20.35990585614895 0 0 0
246 1 1 0.5897 8.99138070474801 10.989509765979339 16.9494011433368 0 0 0
141 1 1 0.5897 7.2676416187718225 9.20638982679836 20.669505593356803 0 0 0
8 1 1 0.5897 7.521896715307907 10.17412348100766 18.504539257046588 0 0 0
396 1 1 0.5897 0.6203353314118029 11.113202532568149 21.742925877768023 0 0 -1
223 1 2 -1.1794 2.8292544146951313 6.867604777894976 16.8666948296553 0 0 0
627 1 1 0.5897 2.5528305102963182 9.927054449099614 17.677551930167674 0 0 0
224 1 1 0.5897 3.003635186302023 7.739560121634998 17.220817072340317 0 0 0
394 1 2 -1.1794 0.7243810289833537 10.980690097735309 20.800783193479795 0 0 0
571 1 2 -1.1794 0.45916253550265596 6.221437283217689 18.077213363060565 0 0 0
445 1 2 -1.1794 1.283109140340481 10.898855446204108 16.877620815193445 0 0 0
447 1 1 0.5897 0.4192836903089488 10.582596843549384 17.142327450804487 1 0 0
287 1 1 0.5897 8.948836034895576 10.87894405896093 20.91556474519195 0 0 0
572 1 1 0.5897 1.2769974672470543 6.379415378615156 17.605596330332943 0 0 0
162 1 1 0.5897 7.232485019804703 7.015898006079531 21.977889329925013 0 0 0
647 1 1 0.5897 1.3034948892770555 5.991033969150108 20.91856059624945 0 0 0
520 1 2 -1.1794 7.83906680401991 7.179217690721029 16.789295201079604 0 0 0
557 1 1 0.5897 2.295016185541774 14.376734594416542 2.533220301396855 0 0 0
292 1 2 -1.1794 3.3811870243501607 17.457242948843508 2.8309508348815924 0 0 0
293 1 1 0.5897 3.3874269625878934 16.557939288137078 2.5033266948324626 0 0 0
558 1 1 0.5897 3.1512053636500656 14.802061739985067 1.35950185421728 0 0 0
556 1 2 -1.1794 3.1371643765140327 14.776615417981054 2.316150196107108 0 0 0
374 1 1 0.5897 0.7380984891507096 13.164502817346456 3.6746246425135376 0 0 0
173 1 1 0.5897 4.373443631279127 13.83354465395943 2.9861850646611185 0 0 0
479 1 1 0.5897 8.049801972560832 14.489573217780851 2.248481475119401 0 0 0
448 1 2 -1.1794 7.469435095210519 17.407044042195743 3.0526341594527366 0 0 0
480 1 1 0.5897 6.537888658617315 14.423824102365653 2.290984547039885 0 0 0
172 1 2 -1.1794 5.227317315191565 13.440865759031615 3.1676844570311067 0 0 0
478 1 2 -1.1794 7.265080698577667 14.823438570704127 1.81379140072948 0 0 0
449 1 1 0.5897 7.480034277968581 16.56029099083817 2.6065567810900396 0 0 0
174 1 1 0.5897 5.115560605683874 12.514458771339863 2.954574224496196 0 0 0
373 1 2 -1.1794 0.7573504910866995 13.320477254398314 2.7305212652719923 0 0 0
200 1 1 0.5897 5.411042731973856 13.897774991197556 4.989906811617869 0 0 0
308 1 1 0.5897 7.636757495830219 17.289114255818873 4.957961589864009 0 0 0
294 1 1 0.5897 3.2090521176742866 17.369909414726763 3.768384098919446 0 0 0
238 1 2 -1.1794 2.7311674522621585 17.220474825219938 5.546546800085237 0 0 0
317 1 1 0.5897 7.6262304778537935 15.282226880720604 0.09790736675410727 0 0 0
201 1 1 0.5897 6.175945633014238 14.082751919476648 6.283056528888052 0 0 0
811 1 2 -1.1794 2.8616756206949625 14.586277982535703 9.58503852223763 0 0 0
812 1 1 0.5897 3.6356426517509743 14.17939066622963 9.974420194668276 0 0 0
813 1 1 0.5897 2.1680001816006795 13.935780115192445 9.693969644088687 0 0 0
17 1 1 0.5897 2.674144283855556 14.93102186412027 7.678820214902601 0 0 0
307 1 2 -1.1794 7.490865163552765 17.214212319630263 5.9008962239919125 0 0 0
186 1 1 0.5897 7.386566882716273 16.659563586976702 9.992031403160246 0 0 0
518 1 1 0.5897 7.701278542100892 15.555344666867006 6.507920511105427 0 0 0
16 1 2 -1.1794 2.6267568343434395 14.774183555325555 6.735852436334465 0 0 0
517 1 2 -1.1794 7.728604590473046 14.64935356490846 6.815458440231101 0 0 0
18 1 1 0.5897 3.521423247193315 14.543200412393475 6.485796621503454 0 0 0
519 1 1 0.5897 8.62760849692241 14.366202421918498 6.648311578793842 0 0 0
384 1 1 0.5897 2.917452662652694 16.56885921887057 9.977678910725603 0 0 0
454 1 2 -1.1794 5.194777830881014 13.269848216905189 10.254794549667455 0 0 0
59 1 1 0.5897 8.960583150396777 14.182294551125864 10.226108248877111 0 0 0
376 1 2 -1.1794 7.472429308573711 14.774438854596116 9.512391951875358 0 0 0
378 1 1 0.5897 7.576198589985923 14.682423284890115 8.565404533243655 0 0 0
377 1 1 0.5897 6.7657767508752125 14.168882980616551 9.736325758657639 0 0 0
456 1 1 0.5897 5.341405178756551 12.381777970009617 9.929308563627313 0 0 0
579 1 1 0.5897 5.113089128382766 11.904346342209644 6.409894218631461 0 0 0
766 1 2 -1.1794 0.7332037314347332 13.029139624172736 10.574811629268092 0 0 0
656 1 1 0.5897 1.408998745871152 13.634977257080422 5.906510936331285 0 0 0
382 1 2 -1.1794 2.6480353549737394 17.412232642196727 10.341340946988241 0 0 0
199 1 2 -1.1794 5.306564170566086 13.874420018941523 5.940989774965401 0 0 0
239 1 1 0.5897 2.7417698767472523 16.31174100885262 5.846925076342582 0 0 0
184 1 2 -1.1794 7.288881169948433 17.557123453363843 10.309755828335046 0 0 0
309 1 1 0.5897 8.296295143483292 17.548450202765935 6.2955866330959465 0 0 0
240 1 1 0.5897 3.5652709643032057 17.58201569286654 5.846188183359454 0 0 0
655 1 2 -1.1794 0.6301128050791361 13.173118958128587 5.596287601389578 0 0 0
232 1 2 -1.1794 2.8013924221265363 14.785803003241744 13.63170533285397 0 0 0
234 1 1 0.5897 2.940949819385924 14.945282404249808 14.56504304822456 0 0 0
606 1 1 0.5897 3.0695544550005427 16.61101658320824 13.238245779420074 0 0 0
296 1 1 0.5897 7.0786372780188636 14.968524501143284 14.74687628224347 0 0 0
639 1 1 0.5897 1.2179739688862412 14.047913778025451 13.48887058480621 0 0 0
233 1 1 0.5897 3.423339688854109 14.092474105049874 13.41112008739198 0 0 0
427 1 2 -1.1794 5.016396106089465 13.224033998590674 13.063241094314234 0 0 0
297 1 1 0.5897 7.888674987009042 14.323550032092125 13.64256706689936 0 0 0
429 1 1 0.5897 5.7769472912675335 13.677149630695432 13.42718077318419 0 0 0
638 1 1 0.5897 0.5693873083703808 12.68021578520425 13.46856982935657 0 0 0
295 1 2 -1.1794 7.103222015417378 14.848178339640675 13.797691651294631 0 0 0
270 1 1 0.5897 7.0391294660541845 16.745614952292435 13.491679330097293 0 0 0
637 1 2 -1.1794 0.42035837603265996 13.592326229425138 13.219666789635454 0 0 0
428 1 1 0.5897 5.161028442197876 12.302429286375549 13.277361325692965 0 0 0
767 1 1 0.5897 0.7355341516014531 13.238466905318953 11.508758066324512 0 0 0
604 1 2 -1.1794 2.922295750439277 17.54289589939951 13.076918015236195 0 0 0
605 1 1 0.5897 2.7284291855380514 17.596734777202293 12.141214675511588 0 0 0
455 1 1 0.5897 5.31668950945182 13.201549873748949 11.201637876609823 0 0 0
823 1 2 -1.1794 3.1610010948647207 15.191196609327767 16.383584814738576 0 0 0
49 1 2 -1.1794 7.096218079186189 15.256761783580329 16.585242690496273 0 0 0
53 1 1 0.5897 1.192731229327651 13.602276136477128 18.498881521320868 0 0 0
683 1 1 0.5897 6.212731102618628 14.438284679265534 20.59294403803004 0 0 0
51 1 1 0.5897 7.816950772747142 14.669547440502072 16.813179451328814 0 0 0
824 1 1 0.5897 3.9290300771888864 14.76490959449002 16.76387889101084 0 0 0
446 1 1 0.5897 1.2829233884342945 11.825687483361433 17.116651456566778 0 0 0
54 1 1 0.5897 0.33617309522336203 14.05426337861206 17.335424784406122 0 0 0
666 1 1 0.5897 3.0270822718067145 16.084433011725082 21.45242955515927 0 0 0
452 1 1 0.5897 0.9701055286604562 12.774832873182795 20.410328098523642 0 0 0
665 1 1 0.5897 2.4430313164578954 14.694837070313525 21.312508857480438 0 0 0
681 1 1 0.5897 4.922709932328487 11.888739167087875 17.034224809573423 0 0 0
664 1 2 -1.1794 3.2252309947872746 15.160977566061264 21.60762577739999 0 0 0
316 1 2 -1.1794 7.898303433737256 15.283213600555582 21.22722189077799 0 0 0
453 1 1 0.5897 0.12570158919606875 13.980592839449482 20.7636467131301 0 0 0
451 1 2 -1.1794 0.9730925780290685 13.731837094142492 20.394494645212276 0 0 0
318 1 1 0.5897 7.736725950182562 16.178577006914765 20.93001182566674 0 0 0
684 1 1 0.5897 4.709290947019151 14.37429775509354 20.758980277395757 0 0 0
825 1 1 0.5897 2.4204652848549895 14.831980924351374 16.872220720014454 0 0 0
124 1 2 -1.1794 5.093969998392466 13.815462763416575 17.713996073031737 0 0 0
125 1 1 0.5897 5.256226401035133 13.821039134239744 18.657216420288954 0 0 0
682 1 2 -1.1794 5.454722897645784 13.88101507247991 20.41663543735074 0 0 0
52 1 2 -1.1794 1.1766263359732296 13.64578680256614 17.542891829496966 0 0 0
584 1 1 0.5897 2.9088194606476603 16.605115874221553 17.470741541206003 0 0 0
126 1 1 0.5897 5.820325955358409 14.316151581755985 17.342637165210952 0 0 0
50 1 1 0.5897 7.259759330850729 16.047853041234788 17.09858623252581 0 0 0
610 1 2 -1.1794 7.694269298320678 17.683254343106192 17.8345585774084 0 0 0
583 1 2 -1.1794 2.9468687382389818 17.326707125045893 18.098384135999552 0 0 0
362 1 1 0.5897 4.955625944739884 12.147746301119705 21.26016603879546 0 0 0
716 1 1 0.5897 2.62502078782008 17.327827238409427 19.879865782407116 0 0 0
715 1 2 -1.1794 2.5329756413508386 17.65301696420361 20.77531948095146 0 0 0
696 1 1 0.5897 1.2904750028675458 21.857023130117398 2.8002676330527474 0 0 0
187 1 2 -1.1794 2.8196742267892545 22.749406230032996 2.319032250265385 0 0 0
413 1 1 0.5897 0.6105925277568061 21.45971905544966 4.80086953856113 0 0 0
345 1 1 0.5897 0.867175172262951 19.076333914925762 1.4991481797497364 0 0 0
818 1 1 0.5897 8.197228954059257 22.335155295611642 2.481655267650878 0 0 0
266 1 1 0.5897 4.441225608900896 21.946818352887227 3.0545127102992597 0 0 0
226 1 2 -1.1794 5.46654068504905 19.00135898199968 1.9273196779568431 0 0 0
817 1 2 -1.1794 7.480036248334314 22.85419558925321 2.117759284979652 0 0 0
228 1 1 0.5897 5.409291942542384 19.855882800509356 2.354661061311166 0 0 0
344 1 1 0.5897 1.637296324159736 18.23733226395514 2.4965311029934942 0 0 0
227 1 1 0.5897 4.676298563108967 18.539534044937895 2.20742629878116 0 0 0
343 1 2 -1.1794 0.8598758423011804 18.789411956670108 2.412235798587206 0 0 0
189 1 1 0.5897 2.867661341131783 22.647337006544156 1.368614370389879 0 0 0
265 1 2 -1.1794 5.264451249069225 21.469899458144347 3.1597671261546227 0 0 0
267 1 1 0.5897 5.891104422708545 21.95039766002035 2.618861627141237 0 0 0
602 1 1 0.5897 5.195962080945562 19.32752080450762 0.22543552176408607 0 0 0
450 1 1 0.5897 6.718980977981662 17.86704109254144 2.676570001314887 0 0 0
249 1 1 0.5897 5.305420356664046 21.202621165793744 5.007108434950373 0 0 0
695 1 1 0.5897 0.7683636575434536 20.464689846147884 3.083908683589322 0 0 0
694 1 2 -1.1794 0.5213769450037453 21.38852033584952 3.1246871046189306 0 0 0
498 1 1 0.5897 7.586889810502279 23.207153445038493 0.3769739140601804 0 0 0
321 1 1 0.5897 8.896392028211123 18.300178543149066 2.167673132909249 0 0 0
39 1 1 0.5897 3.442885648414874 21.961064613234115 10.06700206541 0 0 0
341 1 1 0.5897 1.2413040529764008 18.45886464421782 6.233033900264757 0 0 0
554 1 1 0.5897 5.78046834058406 21.79007149575594 10.143622511263349 0 0 0
248 1 1 0.5897 4.822250405560204 21.71122569476809 6.348492316705175 0 0 0
386 1 1 0.5897 5.7278638272490365 18.112556660523936 6.538658556638347 0 0 0
37 1 2 -1.1794 2.66118364076304 22.306024586876617 9.635547148410627 0 0 0
404 1 1 0.5897 1.058923795622778 17.97013497602657 9.430666932775745 0 0 0
701 1 1 0.5897 2.8580081406806808 22.441637872832374 7.849618608508525 0 0 0
87 1 1 0.5897 8.007738062560911 22.160486633496525 9.919928085363404 0 0 0
38 1 1 0.5897 1.9335489690221042 21.844058163028677 10.05186777685711 0 0 0
31 1 2 -1.1794 8.031215188516754 22.402981055788445 6.5050725264559714 0 0 0
33 1 1 0.5897 7.202021648136045 21.956704860024715 6.33325037691261 0 0 0
86 1 1 0.5897 7.606056943432654 22.29091318849823 8.466288475033815 0 0 0
342 1 1 0.5897 0.4013300009466127 18.885098398284626 7.4180820275008115 0 0 0
700 1 2 -1.1794 3.0356520135092477 22.393825315836594 6.910371978677953 0 0 0
385 1 2 -1.1794 4.904102250416844 18.60001289825469 6.530795682541689 0 0 0
702 1 1 0.5897 2.305365543545265 21.888331763155946 6.553504616929466 0 0 0
555 1 1 0.5897 5.018777597694791 20.510117738807914 10.414320851697726 0 0 0
101 1 1 0.5897 5.756847874787468 18.38416375485847 9.551358932134526 0 0 0
383 1 1 0.5897 3.354124431884787 18.012918609397857 10.102937038031993 0 0 0
85 1 2 -1.1794 7.299701716752712 22.470149167377095 9.355144360447765 0 0 0
32 1 1 0.5897 8.680716647668904 21.900424302462113 6.013370370966582 0 0 0
340 1 2 -1.1794 0.47065543033693047 18.975785441362227 6.467821612154178 0 0 0
102 1 1 0.5897 4.895029934176592 18.710533577200614 8.350341439462728 0 0 0
94 1 2 -1.1794 0.44980962435399696 20.864417506806568 10.487814569726524 0 0 0
100 1 2 -1.1794 4.932114549144389 18.80143474568029 9.302388744823496 0 0 0
553 1 2 -1.1794 5.157693440185682 21.394371882040495 10.753322083292002 0 0 0
412 1 2 -1.1794 0.5060606111703017 21.43841799109785 5.751992526947864 0 0 0
403 1 2 -1.1794 0.31357892021658507 18.47992835213423 9.11313890438623 0 0 0
387 1 1 0.5897 5.133758130789133 19.453300374728585 6.163009048376306 0 0 0
185 1 1 0.5897 8.021927906818252 18.031589278635636 9.917692943057446 0 0 0
405 1 1 0.5897 0.3850934789001103 19.318700380825995 9.568615512043673 0 0 0
247 1 2 -1.1794 5.448024618277283 21.107284030665582 5.948700643718314 0 0 0
414 1 1 0.5897 0.5741837163878486 20.51137337744477 5.980178941968129 0 0 0
788 1 1 0.5897 7.097254014550693 23.065765693281627 15.205681620967386 0 0 0
381 1 1 0.5897 1.3455747599977432 21.680571863792515 13.645077953643094 0 0 0
736 1 2 -1.1794 2.5869525170109178 22.92316751240044 14.355339945098914 0 0 0
350 1 1 0.5897 2.5356125200236974 23.168525610088054 16.278250565078494 0 0 0
738 1 1 0.5897 3.396474121822245 22.475653429991333 14.109033852135802 0 0 0
380 1 1 0.5897 0.7965929761107432 20.27799276118546 13.796861341279335 0 0 0
503 1 1 0.5897 1.4865684368447605 18.161669720421607 14.070017012443133 0 0 0
474 1 1 0.5897 4.942216700057993 18.908601700697787 16.05262601188138 0 0 0
88 1 2 -1.1794 4.792413059164698 21.641025830899338 13.576560039624978 0 0 0
787 1 2 -1.1794 7.022318309202984 23.06081774327607 14.2515437757863 0 0 0
763 1 2 -1.1794 4.878494552978983 19.00665229314656 14.25867856883073 0 0 0
89 1 1 0.5897 4.966338109169375 21.694312786557717 12.63690509388505 0 0 0
502 1 2 -1.1794 0.6747820428486097 18.585864760916486 14.348040724016178 0 0 0
765 1 1 0.5897 5.656763372623113 18.716067931945886 13.783194690295343 0 0 0
789 1 1 0.5897 6.300243587668418 22.459067258183175 14.070657483453381 0 0 0