LAMMPS data file via write_data, version 30 Jul 2021, timestep = 41250000

972 atoms
2 atom types
648 bonds
1 bond types
324 angles
1 angle types

0.1280431416083747 19.871957858384373 xlo xhi
0.11324068773491547 19.886760312249294 ylo yhi
0.15064011978441982 20.549357880219862 zlo zhi

Masses

1 1.008
2 15.999

Pair Coeffs # lj/cut/tip4p/long/omp

1 0 0
2 0.21084 3.1668

Bond Coeffs # harmonic/omp

1 450 0.9572

Angle Coeffs # harmonic/omp

1 55 104.52

Atoms # full

10 4 2 -1.1794 1.4136583563447576 4.1534174822090515 4.013950149585856 0 0 0
11 4 1 0.5897 1.2732247565732906 3.385902101567277 3.4594449542266643 0 0 0
31 11 2 -1.1794 1.1381957735504202 2.1171685387475816 2.2272423938055077 0 0 0
33 11 1 0.5897 1.7752351629155787 2.3632581575313063 1.5565370336144495 0 0 0
23 8 1 0.5897 2.6525755388028114 1.082758935172352 4.466945934000242 0 0 0
12 4 1 0.5897 2.3652052721680117 4.22342900126992 4.090321437388486 0 0 0
16 6 2 -1.1794 4.134951281205121 3.9768964665488826 3.8306657657540057 0 0 0
18 6 1 0.5897 4.2033434831899985 3.0698882262800313 3.5324250682148617 0 0 0
4 2 2 -1.1794 4.16552689959652 1.3175573192394243 3.436661298796858 0 0 0
17 6 1 0.5897 4.318748453639569 4.500510812767885 3.0507216297553326 0 0 0
5 2 1 0.5897 4.3595934154062395 0.7272266979987707 2.7085729862299592 0 0 0
236 79 1 0.5897 1.1461868201820868 0.32914097386336294 2.2077756059238416 0 1 0
113 38 1 0.5897 4.99410631526788 7.526970312004622 4.117323804762565 0 0 0
111 37 1 0.5897 3.517502237947828 9.269335393153375 0.521307523803247 0 0 0
6 2 1 0.5897 4.843629160097656 1.129389699152279 4.08549441578668 0 0 0
13 5 2 -1.1794 4.812552677060465 5.714461222558862 1.7492979077487405 0 0 0
114 38 1 0.5897 3.4828290613141766 7.572495626339802 4.0416890074603185 0 0 0
112 38 2 -1.1794 4.271651582330482 7.723524171955927 3.520970418832066 0 0 0
130 44 2 -1.1794 2.085971211814507 7.537128785127597 5.196371811103288 0 0 0
674 225 1 0.5897 2.1242853122510668 5.8144767997657425 0.6731303505368018 0 0 1
22 8 2 -1.1794 1.9572539918606748 0.8717217398424549 5.090001391602343 0 0 0
126 42 1 0.5897 4.326486055190201 9.57688896252399 3.481405801643258 0 0 0
110 37 1 0.5897 2.0381791623533596 9.259588973675237 0.8426688204007534 0 0 0
20 7 1 0.5897 1.2440605349399765 5.504177335328081 2.895140730351585 0 0 0
139 47 2 -1.1794 0.8014503988683302 8.888798549578274 2.1128239061715393 0 0 0
141 47 1 0.5897 0.982850736457111 7.9904404688474555 2.3891004465485306 0 0 0
15 5 1 0.5897 4.627776431580836 6.538904932491766 2.1992150518273714 0 0 0
19 7 2 -1.1794 1.1268715760363461 6.1537945952207584 2.201932869736129 0 0 0
14 5 1 0.5897 4.198910873191093 5.699085847191796 1.0148433812632784 0 0 0
140 47 1 0.5897 1.1140708270999538 9.430514539167655 2.8374340992615252 0 0 0
21 7 1 0.5897 0.2081400112389923 6.069576169108141 1.9469488454672004 0 0 0
3 1 1 0.5897 3.698433211094711 2.5814721698258105 0.3870039147533091 0 0 0
32 11 1 0.5897 0.28690665373674884 2.270019957892511 1.8172024488715228 0 0 0
109 37 2 -1.1794 2.6617478929825 9.491290154759588 0.15441296801255774 0 0 0
132 44 1 0.5897 1.137991570316081 7.606345189955029 5.0836181735571495 0 0 0
325 109 2 -1.1794 2.655855825848116 2.534272854338326 7.213522231123794 0 0 0
326 109 1 0.5897 2.439710392663668 2.03555194814602 6.425601585633198 0 0 0
327 109 1 0.5897 3.594919165750381 2.394914726366644 7.33564858891635 0 0 0
355 119 2 -1.1794 0.976817387791417 2.017666702498404 9.26266362642351 0 0 0
356 119 1 0.5897 1.6876575301565875 2.2081091254421192 8.650580670151026 0 0 0
27 9 1 0.5897 2.70766890262173 4.353278234367005 6.71441712709015 0 0 0
330 110 1 0.5897 4.247231533448437 0.6677210582930694 9.43285064686086 0 0 0
328 110 2 -1.1794 3.9978885196318803 1.404364522018153 9.990922568777615 0 0 0
25 9 2 -1.1794 2.7156814082916334 5.310332320331232 6.731007259928802 0 0 0
342 114 1 0.5897 4.367474053463801 4.702543021358264 9.66702805875723 0 0 0
341 114 1 0.5897 4.215581043741892 3.238946884852868 10.023190652349747 0 0 0
131 44 1 0.5897 2.213433986081087 6.704314783981369 5.650726628381534 0 0 0
561 187 1 0.5897 0.9957564746622959 0.2029889418698675 9.065660459628162 0 1 0
438 146 1 0.5897 4.105139979146313 9.024604776905335 10.075232783823619 0 0 0
464 155 1 0.5897 1.4425648419875359 8.960410606002517 8.53877446761854 0 0 0
345 115 1 0.5897 0.9015964919383846 6.983294048553893 8.965434584934965 0 0 0
463 155 2 -1.1794 0.714880470268796 8.777094656891535 9.132967189411367 0 0 0
435 145 1 0.5897 2.380087375091126 8.764355378418069 6.445767864199229 0 0 0
26 9 1 0.5897 2.090257823797493 5.543717592816382 7.417002724835917 0 0 0
337 113 2 -1.1794 4.592091726839533 6.16793556074641 8.5138378742737 0 0 0
433 145 2 -1.1794 2.6668341387220997 9.201651626608273 7.247507033170606 0 0 0
344 115 1 0.5897 1.0082570588502966 5.537901862953941 9.403030329280503 0 0 0
468 156 1 0.5897 4.424383944619928 9.171569646108168 7.278170667082658 0 0 0
343 115 2 -1.1794 0.8830017322145599 6.087251118449671 8.629214143319329 0 0 0
437 146 1 0.5897 4.264440927833867 7.597594203552373 9.595338441397015 0 0 0
339 113 1 0.5897 4.136441087170014 5.772634401423678 7.77062455072882 0 0 0
357 119 1 0.5897 0.18332500190324907 2.28751201214328 8.800325177321927 0 0 0
335 112 1 0.5897 1.3812473361501938 3.4957330063677716 10.213711410120785 0 0 0
102 34 1 0.5897 0.23601279048324386 0.8736282957843495 5.277366214496006 1 0 0
649 217 2 -1.1794 2.478716939810819 2.6620771184322565 13.965831469584577 0 0 0
650 217 1 0.5897 2.294120223539979 2.012643441061729 13.287286533219092 0 0 0
348 116 1 0.5897 2.6443951435089152 1.0665801546026792 11.182505672843831 0 0 0
651 217 1 0.5897 1.933646083603716 2.3967656408224776 14.706602487376522 0 0 0
346 116 2 -1.1794 2.072255063271478 0.8498710337478143 11.918656825999781 0 0 0
683 228 1 0.5897 4.240516413617994 2.668398066376898 14.22367007781094 0 0 0
350 117 1 0.5897 2.462900857975716 4.427881138278255 13.579822160211998 0 0 0
347 116 1 0.5897 1.1892477272301405 1.0346953681669233 11.598780825176766 0 0 0
329 110 1 0.5897 4.511821267138577 1.2851381871412721 10.789596450939335 0 0 0
336 112 1 0.5897 2.4482483241753252 4.42241777660544 10.756519008400415 0 0 0
334 112 2 -1.1794 1.4992712954895706 4.308057123094223 10.70613053949936 0 0 0
533 178 1 0.5897 0.30736379763759514 7.550218588931779 12.037357381382934 1 0 0
340 114 2 -1.1794 4.180825057083481 4.11760843758187 10.40138606790685 0 0 0
789 263 1 0.5897 1.4861619462938183 8.85847089361557 15.292487342005048 0 0 0
757 253 2 -1.1794 2.7447272104689153 9.190980774881432 14.08594911628758 0 0 0
792 264 1 0.5897 4.612457976485457 9.20047829717644 14.277259235638935 0 0 0
456 152 1 0.5897 2.280955054758977 6.7449688589753976 12.414528443538565 0 0 0
455 152 1 0.5897 2.7377268245928343 7.741238038686564 11.370123829676785 0 0 0
454 152 2 -1.1794 2.0330649412544246 7.56863007103964 11.994520977102619 0 0 0
351 117 1 0.5897 3.3676382898997668 5.534835738125732 14.077854731552355 0 0 0
759 253 1 0.5897 2.50687059608868 8.69541809333849 13.302300649508847 0 0 0
668 223 1 0.5897 1.3533771195625888 5.773246389119179 14.739968647456468 0 0 0
349 117 2 -1.1794 2.5952753448185795 5.374879637779286 13.535567476683237 0 0 0
661 221 2 -1.1794 4.710327762388373 5.841023690813985 15.187960525953452 0 0 0
405 135 1 0.5897 0.27407193063861157 4.576596202519264 12.001540162667979 1 0 0
436 146 2 -1.1794 4.11713929511393 8.118816429035911 10.384575117016446 0 0 0
658 220 2 -1.1794 1.3254326398710736 4.048083658925904 17.509435405173488 0 0 0
664 222 2 -1.1794 4.054470731258519 4.0117347615366565 17.206099627583452 0 0 0
671 224 1 0.5897 2.2927890934728152 1.5814416473448325 19.069548295041727 0 0 0
653 218 1 0.5897 3.457420043350643 0.9702916341716841 17.27674353433978 0 0 0
670 224 2 -1.1794 2.0748022687734204 0.8340745117161037 18.512597578780113 0 0 0
652 218 2 -1.1794 4.290362645592939 1.1982434904773758 16.863906178400367 0 0 0
672 224 1 0.5897 1.1201073267872153 0.8541961321500461 18.446822297283177 0 0 0
665 222 1 0.5897 3.1335024444330495 4.071885780189652 17.459835865962432 0 0 0
666 222 1 0.5897 4.180243051363373 3.091253852211486 16.9754947434203 0 0 0
681 227 1 0.5897 0.9128989477191847 2.6780070555476625 16.468783055561268 0 0 0
659 220 1 0.5897 0.6511481983982947 4.16003597140051 18.17952944424305 0 0 0
654 218 1 0.5897 4.382835185645567 0.5703352259480499 16.147353379067418 0 0 0
679 227 2 -1.1794 0.7550410321316482 1.9265027571095064 15.897299264082486 0 0 0
660 220 1 0.5897 1.149225739519767 4.741443529240975 16.873452358009835 0 0 0
669 223 1 0.5897 0.935267987069437 6.796098257126278 15.774831501992233 0 0 0
858 286 1 0.5897 0.5301501078747166 7.508054157775845 18.655512315859486 1 0 0
1 1 2 -1.1794 2.7903299424327357 2.703863277084053 20.50904488897571 0 0 -1
762 254 1 0.5897 4.989095566669964 7.905118427739647 17.530136498661612 0 0 0
778 260 2 -1.1794 2.34757055681035 7.602476508958288 18.65683748757853 0 0 0
780 260 1 0.5897 3.01464262376336 7.802226577083336 18.00007631493137 0 0 0
779 260 1 0.5897 2.3776548042655246 8.343160833629133 19.262443849697373 0 0 0
787 263 2 -1.1794 0.8395901647954186 8.652126399334213 15.967457536131455 0 0 0
761 254 1 0.5897 4.208614437877196 8.963614262255074 16.780224163895895 0 0 0
675 225 1 0.5897 2.5486384295280895 6.160269703129423 19.66036038817306 0 0 0
788 263 1 0.5897 0.9876727570131802 9.306890949475267 16.649823623921208 0 0 0
760 254 2 -1.1794 4.3759594047308825 8.021437379824278 16.804365784866256 0 0 0
663 221 1 0.5897 4.563210419888609 6.66098747690079 15.659445354964289 0 0 0
662 221 1 0.5897 4.577227429408134 5.1586293523148115 15.84590884690022 0 0 0
2 1 1 0.5897 2.696949097743675 3.6507238165178255 20.40408721402246 0 0 -1
673 225 2 -1.1794 2.694968057507134 5.52401149189847 20.36038418361594 0 0 0
667 223 2 -1.1794 0.8209637885454795 5.878201328878287 15.528481883562335 0 0 0
240 80 1 0.5897 2.373351256608257 13.97681558785203 4.416374549108232 0 0 0
129 43 1 0.5897 0.9061912023666231 13.414571924112744 2.3744941927455114 0 0 0
120 40 1 0.5897 1.4347498408249828 11.394277467989754 3.330774847772471 0 0 0
118 40 2 -1.1794 1.6240631139182706 10.661764198511404 3.917170476886877 0 0 0
119 40 1 0.5897 2.579351719238971 10.602495158255598 3.9264534354721654 0 0 0
127 43 2 -1.1794 0.8486618472638274 12.513013546563258 2.057995938548781 0 0 0
124 42 2 -1.1794 4.313210821277756 10.529525398298086 3.5741323229983286 0 0 0
222 74 1 0.5897 4.02568280939178 13.872449151601622 2.464070143349607 0 0 0
220 74 2 -1.1794 3.9178250732650937 14.258604132629454 3.333273209013098 0 0 0
123 41 1 0.5897 4.138509120997262 12.27546164452011 0.9512537976378924 0 0 0
783 261 1 0.5897 1.971501115826472 12.346688627611375 0.7078821187315851 0 0 1
238 80 2 -1.1794 1.767365596471153 13.926034658633089 5.155583216351094 0 0 0
122 41 1 0.5897 4.725256028292997 11.669424680835432 2.2083904072647953 0 0 0
125 42 1 0.5897 4.851837780505411 10.703036012507646 4.346145738667771 0 0 0
232 78 2 -1.1794 4.446727511972213 16.9882571536885 3.6578595258412387 0 0 0
227 76 1 0.5897 1.530233867990687 18.02988028840128 3.3131166346673346 0 0 0
228 76 1 0.5897 0.9597765602904645 17.46693685980472 4.597488187117249 0 0 0
221 74 1 0.5897 4.128968691777544 15.184405068693062 3.2124794188923724 0 0 0
226 76 2 -1.1794 1.6856438060955679 17.363223679945463 3.982208645267862 0 0 0
247 83 2 -1.1794 1.1110489916756745 15.220610668960632 2.3152663572058474 0 0 0
229 77 2 -1.1794 4.783230305312659 19.01099432566168 1.7661948430340544 0 0 0
235 79 2 -1.1794 1.1218653858648993 19.183209984257864 1.942617306382246 0 0 0
890 297 1 0.5897 2.290757274798212 18.992081062663804 0.6309861672613339 0 0 1
230 77 1 0.5897 4.330185222619924 18.894259706114603 0.9311132545536507 0 0 0
233 78 1 0.5897 4.655909535167941 17.67774848713756 3.0276873451687765 0 0 0
234 78 1 0.5897 3.5375121098984823 17.15685117221569 3.9050205939662255 0 0 0
249 83 1 0.5897 1.6569972986899832 15.551379998013903 1.6019885686512483 0 0 0
248 83 1 0.5897 1.1971670001023218 15.876304475400119 3.0073096572623115 0 0 0
219 73 1 0.5897 3.5493837354153355 16.04489443462176 0.421243687846964 0 0 0
237 79 1 0.5897 0.21042091529026408 19.02910519340387 1.69421744076281 0 0 0
121 41 2 -1.1794 4.882011734122194 12.346266224975432 1.549918237582515 0 0 0
217 73 2 -1.1794 2.6159698987400644 16.090740009434793 0.21431957205654228 0 0 0
133 45 2 -1.1794 2.4930379180856335 11.863760119109815 6.77907582563729 0 0 0
134 45 1 0.5897 1.8770941480539123 12.140083780344774 7.457667263351739 0 0 0
135 45 1 0.5897 3.3550827471727502 12.077207008218714 7.136165724718965 0 0 0
453 151 1 0.5897 1.0400574123943227 12.20847450204058 9.574567180476254 0 0 0
451 151 2 -1.1794 0.9438696854486832 12.80686440296626 8.83365661695326 0 0 0
450 150 1 0.5897 4.244906159338349 11.380805670151291 9.406157070655379 0 0 0
446 149 1 0.5897 4.4616528664752995 13.342014233334126 8.735623320405056 0 0 0
544 182 2 -1.1794 4.1793144261749156 14.47702168883709 10.137588358623615 0 0 0
239 80 1 0.5897 2.051744959587758 13.155088673277467 5.646541891455344 0 0 0
445 149 2 -1.1794 4.714297512887589 12.603180439436441 8.181944164400795 0 0 0
573 191 1 0.5897 0.8689793423493439 14.631723517603245 9.330024128543146 0 0 0
553 185 2 -1.1794 4.601287225603441 18.89408786251147 8.637686060156822 0 0 0
576 192 1 0.5897 4.246468034741909 15.66297223247791 7.242385460461906 0 0 0
555 185 1 0.5897 4.1042573902775015 18.759139786583575 7.830851262774708 0 0 0
543 181 1 0.5897 2.235663745801207 15.264539004649231 6.242972160534646 0 0 0
551 184 1 0.5897 1.3870899211038885 18.060525380844556 10.2102783566504 0 0 0
572 191 1 0.5897 0.9595523004253802 16.050651381090063 9.850096899270637 0 0 0
558 186 1 0.5897 4.435064293282811 17.688440734989033 9.945748604746386 0 0 0
243 81 1 0.5897 2.0726029402008157 18.846573100180255 7.356379111948734 0 0 0
571 191 2 -1.1794 0.648301325787047 15.53573057201155 9.105624125734801 0 0 0
241 81 2 -1.1794 2.7874481069891113 18.653339488234174 6.7498636427572585 0 0 0
559 187 2 -1.1794 0.9434903321491044 19.06814986680871 8.768274635043337 0 0 0
541 181 2 -1.1794 2.5040296459067695 15.881641291170737 6.9237292855438195 0 0 0
542 181 1 0.5897 1.8406784006229084 15.78817526449048 7.607431677571599 0 0 0
242 81 1 0.5897 2.7768365730760687 17.70018856707641 6.662256718416318 0 0 0
448 150 2 -1.1794 3.977616542927745 10.8016890820298 10.119906242379969 0 0 0
443 148 1 0.5897 1.112190175658426 10.04292675174214 10.296854025730303 0 0 0
24 8 1 0.5897 2.2760454763001463 19.869783660826034 5.551851733475146 0 -1 0
434 145 1 0.5897 2.5547257983591893 10.134660610671714 7.065269907252447 0 0 0
188 63 1 0.5897 0.30966691621500464 10.950493707432239 5.265537897268176 1 0 0
457 153 2 -1.1794 2.6627350398213827 11.924227531017346 13.380829379752575 0 0 0
458 153 1 0.5897 2.0077414668740508 12.091302069164701 14.058530632387232 0 0 0
459 153 1 0.5897 3.4844510140417744 12.237261560751115 13.758958605863942 0 0 0
562 188 2 -1.1794 1.8915096053693063 14.030668217716244 11.726036720615785 0 0 0
563 188 1 0.5897 2.176516419421766 13.191269626244674 12.087220315218847 0 0 0
449 150 1 0.5897 4.599496094220118 10.985652981124025 10.823925608530839 0 0 0
769 257 2 -1.1794 4.688068509908529 12.661030057863957 15.094090963337642 0 0 0
444 148 1 0.5897 2.294320943425343 10.826838543591121 10.825907725535101 0 0 0
442 148 2 -1.1794 1.3394005213053748 10.847190857198651 10.763550535093502 0 0 0
545 182 1 0.5897 3.33145349497293 14.274472273678901 10.532934429483808 0 0 0
877 293 2 -1.1794 5.000015951265707 18.928971655384572 15.150080618767317 0 0 0
564 188 1 0.5897 2.1694414324891267 14.677717880882915 12.374379393021774 0 0 0
758 253 1 0.5897 2.666946186654769 10.108036329185403 13.822800232792373 0 0 0
550 184 2 -1.1794 1.5167909939566617 17.504854085167135 10.9788303564864 0 0 0
552 184 1 0.5897 2.4623847635232203 17.360637410018494 11.013868313917353 0 0 0
565 189 2 -1.1794 2.701905521015573 18.58123970563134 13.743081479391037 0 0 0
556 186 2 -1.1794 4.21515679860651 17.17492248290577 10.72305449812055 0 0 0
865 289 2 -1.1794 2.752839387644169 15.840740997461017 13.617610073967095 0 0 0
567 189 1 0.5897 2.4252335763081687 19.0546446598461 12.958493377291012 0 0 0
566 189 1 0.5897 2.670311482060167 17.658531557732783 13.490293340947915 0 0 0
885 295 1 0.5897 1.4008846253577412 18.82660617728286 14.883563779608208 0 0 0
879 293 1 0.5897 4.248054858279165 18.91410053670801 14.558024694566742 0 0 0
866 289 1 0.5897 3.6527293140971078 15.861964419184034 13.94308211671058 0 0 0
867 289 1 0.5897 2.220133484509556 15.675648191478011 14.395558352985969 0 0 0
546 182 1 0.5897 4.818831528466431 14.254461666375379 10.814128985557304 0 0 0
557 186 1 0.5897 4.240009674224367 16.265638387322188 10.424936960345812 0 0 0
775 259 2 -1.1794 0.867826310607172 12.486964361903713 15.404891979371307 0 0 0
642 214 1 0.5897 0.16465865067295316 14.095657630590873 11.901550381854715 1 0 0
896 299 1 0.5897 0.15826124527164098 15.463760063474524 15.39320831332661 0 0 0
620 207 1 0.5897 0.1303244442962575 17.785050571919058 12.115808576263555 1 0 0
888 296 1 0.5897 2.371052691553312 13.428776894541226 19.185857983389127 0 0 0
768 256 1 0.5897 1.1764023280633815 11.48459868400026 16.917906480630172 0 0 0
773 258 1 0.5897 3.181580589130932 10.921319914441169 17.278110359283076 0 0 0
766 256 2 -1.1794 1.4676820780659625 10.860788616694496 17.582950109598162 0 0 0
886 296 2 -1.1794 2.1111449125204373 14.210772366680718 18.69882036727977 0 0 0
772 258 2 -1.1794 4.092830761997526 10.759053879113202 17.034248661371535 0 0 0
774 258 1 0.5897 4.290196401365117 11.431575195405204 16.38230322866291 0 0 0
767 256 1 0.5897 0.8887854420904339 11.017519076084637 18.32895758873419 0 0 0
869 290 1 0.5897 3.4590435363368695 14.335987624985568 17.58940656106392 0 0 0
868 290 2 -1.1794 4.282111055926071 14.428167733951899 17.109557336480556 0 0 0
218 73 1 0.5897 2.468151421227223 17.005344763834422 20.372342151918716 0 0 -1
777 259 1 0.5897 0.9750835133551615 13.423300814531327 15.572390693755846 0 0 0
870 290 1 0.5897 4.9606463238972545 14.247625693562568 17.760084809943205 0 0 0
782 261 1 0.5897 2.6786241803097512 11.248432684980324 20.341250619600707 0 0 0
887 296 1 0.5897 2.2463292059845372 14.932190348646374 19.31327785844863 0 0 0
895 299 2 -1.1794 1.0267149737740904 15.252308495891336 15.735650331552032 0 0 0
882 294 1 0.5897 4.179325294604297 16.22754666354449 16.965475760225225 0 0 0
965 322 1 0.5897 0.2683615493427228 14.254610811010672 18.8505096946426 1 0 0
889 297 2 -1.1794 2.8478582590613244 18.75450731196972 20.288473482526435 0 0 0
875 292 1 0.5897 0.7986394476624278 17.425677087244953 18.327076876261764 0 0 0
897 299 1 0.5897 1.148994280170359 15.855491950560953 16.468776930832025 0 0 0
878 293 1 0.5897 4.768123831904128 18.316303849448314 15.848025173609482 0 0 0
876 292 1 0.5897 1.1933697237694278 17.876248273139918 16.936706569926283 0 0 0
880 294 2 -1.1794 4.104493792197225 17.174589821297737 17.08291421146864 0 0 0
874 292 2 -1.1794 1.42051826874368 17.24730584885753 17.621618146235615 0 0 0
891 297 1 0.5897 2.591006190765826 19.358668186208195 19.591852607795218 0 0 0
881 294 1 0.5897 3.22301656609372 17.304123595506145 17.432782405442225 0 0 0
771 257 1 0.5897 4.493734308222856 13.37043570641712 15.706661542920687 0 0 0
781 261 2 -1.1794 2.6323525384506143 12.200436124349345 20.42976757445385 0 0 0
883 295 2 -1.1794 0.7076542796594033 18.95986760668087 15.530006593152164 0 0 0
884 295 1 0.5897 0.7961505910993254 19.876470678149193 15.791334025357717 0 0 0
273 91 1 0.5897 7.515039463289417 0.33375851403430495 2.093280955667967 0 1 0
36 12 1 0.5897 5.619800981994165 3.4764853416375967 0.16586179730948286 0 0 0
68 23 1 0.5897 8.228661456335791 2.3069550657746927 1.5349032387145187 0 0 0
53 18 1 0.5897 9.977663555678516 4.076180706850501 3.926901897179913 0 0 0
34 12 2 -1.1794 5.492166234407459 2.6281183747665846 0.5904377482571295 0 0 0
47 16 1 0.5897 7.839169982906555 3.385624169972289 3.4806157949482324 0 0 0
67 23 2 -1.1794 7.580669830422099 2.1631379330646014 2.2245725764149107 0 0 0
46 16 2 -1.1794 8.081651048190231 4.171136291328759 3.9709709512699005 0 0 0
48 16 1 0.5897 7.425215763178395 4.233084150888043 4.66485314564093 0 0 0
69 23 1 0.5897 6.736831985231739 2.292998489121936 1.7918310448308445 0 0 0
9 3 1 0.5897 5.336270165115789 4.486465591014452 5.015970025226084 0 0 0
711 237 1 0.5897 8.783628095983767 5.600036749259085 0.7872776649780275 0 0 1
175 59 2 -1.1794 7.470202558385217 8.833092673120468 2.3351839887217563 0 0 0
143 48 1 0.5897 5.977174812099795 9.022170045857415 1.2955271646336277 0 0 0
166 56 2 -1.1794 8.787018932497391 7.477836331963063 4.882217688714301 0 0 0
56 19 1 0.5897 6.608918777182455 5.899366989240634 1.8717304626306257 0 0 0
55 19 2 -1.1794 7.545188563601037 6.016700925339144 2.032381161810144 0 0 0
57 19 1 0.5897 7.748829171756588 5.393945389622992 2.7302159730252407 0 0 0
176 59 1 0.5897 7.534741358017356 7.88068049483188 2.4061557856985467 0 0 0
177 59 1 0.5897 8.044167198758398 9.058649711275253 1.6031216830945407 0 0 0
142 48 2 -1.1794 5.322531375646479 9.0907598339449 0.6005766343802674 0 0 0
58 20 2 -1.1794 8.722714925712877 0.8740486527207023 5.137469663296149 0 0 0
29 10 1 0.5897 6.909723384094753 0.8200397795540997 5.179314609557176 0 0 0
37 13 2 -1.1794 9.286073271036887 2.5828554912482264 0.1593675434336103 0 0 0
138 46 1 0.5897 7.064172675383716 7.388903629027618 5.114820363449503 0 0 0
145 49 2 -1.1794 9.218792124027386 9.409071847884809 0.37564296871543945 0 0 0
501 167 1 0.5897 6.684370381253716 8.978175657388606 8.510129860933054 0 0 0
380 127 1 0.5897 7.360361712325005 6.872990085609025 8.852106376734769 0 0 0
358 120 2 -1.1794 5.436599293667396 2.4730696685641935 7.305040582386238 0 0 0
362 121 1 0.5897 9.06746780819501 3.6417925293198365 6.684032247998095 0 0 0
59 20 1 0.5897 8.846023764135131 1.5973250970385842 5.752237587394879 0 0 0
392 131 1 0.5897 8.076116233852334 2.402686683683594 8.396192071333395 0 0 0
8 3 1 0.5897 5.880975812279958 3.9892199791628578 6.338082749898393 0 0 0
393 131 1 0.5897 7.471010087043761 1.2337794805754376 9.14417775491248 0 0 0
391 131 2 -1.1794 7.4237692757009945 2.18634228967184 9.06242135401219 0 0 0
359 120 1 0.5897 6.112563775775828 2.3026277819911365 7.960965942343735 0 0 0
361 121 2 -1.1794 9.198538451624042 2.758175563258584 7.028019814807407 0 0 0
7 3 2 -1.1794 5.994662935725229 4.678512934121334 5.683694389269085 0 0 0
360 120 1 0.5897 5.603629876083556 1.8303289940630363 6.615653049239654 0 0 0
467 156 1 0.5897 5.619395303291951 8.41032775928294 6.744963049602812 0 0 0
381 127 1 0.5897 7.523385885249624 5.517487893748379 9.506349614727057 0 0 0
136 46 2 -1.1794 6.162200940769985 7.328316538634582 5.429398867999824 0 0 0
61 21 2 -1.1794 9.038200760316961 5.4525633112630425 6.720166854558109 0 0 0
168 56 1 0.5897 8.985721424585103 8.232837247799804 5.4360671513992 0 0 0
470 157 1 0.5897 8.730723172142868 9.053097726490806 7.673335029830891 0 0 0
499 167 2 -1.1794 7.46058344329157 8.689704692815596 8.99021313969109 0 0 0
466 156 2 -1.1794 5.381494205346513 9.163663636385971 7.285482672734742 0 0 0
137 46 1 0.5897 6.041946058229225 6.401492464650402 5.636330764359334 0 0 0
379 127 2 -1.1794 7.253835126888559 5.935852562993769 8.688698083108337 0 0 0
500 167 1 0.5897 7.595419453855543 9.364168237247023 9.655934218792357 0 0 0
338 113 1 0.5897 5.516122504414596 5.969957153793798 8.361670967795277 0 0 0
62 21 1 0.5897 8.364956569369049 5.591359770091381 7.3862727638522205 0 0 0
469 157 2 -1.1794 9.220612302080266 9.34081303856304 6.902967082314411 0 0 0
167 56 1 0.5897 8.917049746677854 6.720545994747892 5.453076422181246 0 0 0
371 124 1 0.5897 7.745588425733495 3.5631439184543803 10.262854005169423 0 0 0
28 10 2 -1.1794 5.97240997465393 0.7002517305651529 5.331872419095314 0 0 0
63 21 1 0.5897 9.864510514312771 5.603678174917731 7.17904689697404 0 0 0
684 228 1 0.5897 5.43785553500714 3.4120050354579554 13.671146694585204 0 0 0
352 118 2 -1.1794 5.57466263277568 0.9593761765429705 12.184632573724546 0 0 0
705 235 1 0.5897 7.998652334808638 6.004525807270876 15.041122175644805 0 0 0
370 124 2 -1.1794 8.002716193197898 4.305767390980267 10.809359128971183 0 0 0
682 228 2 -1.1794 5.197201335319976 2.650578335951964 14.198960552826389 0 0 0
354 118 1 0.5897 5.398073610446893 1.505251142569325 12.950852201496007 0 0 0
686 229 1 0.5897 8.439337217623688 2.6924651023187773 14.484084397290118 0 0 0
382 128 2 -1.1794 8.366988436474847 0.9166469054522691 11.823340143439896 0 0 0
331 111 2 -1.1794 5.889991418506065 4.636006219698285 12.437784090854182 0 0 0
386 129 1 0.5897 9.053461278629843 4.6947959675052875 13.569596780436136 0 0 0
383 128 1 0.5897 8.579898237902317 1.6149545763425048 12.44245265961532 0 0 0
685 229 2 -1.1794 8.984238028444071 2.8634527097269338 13.715918565327863 0 0 0
384 128 1 0.5897 8.99318467189241 1.0305876988855482 11.108413113492691 0 0 0
353 118 1 0.5897 6.511694504339825 1.068786799470481 12.022842790777508 0 0 0
372 124 1 0.5897 7.252174750178128 4.451129107657072 11.385349937578695 0 0 0
687 229 1 0.5897 9.86998277509767 2.629346945585167 13.993120671170896 0 0 0
462 154 1 0.5897 5.390424270601879 7.647393623766774 11.460981386167562 0 0 0
491 164 1 0.5897 9.270907050786484 7.706198098111036 11.007521244599408 0 0 0
793 265 2 -1.1794 9.208161826237877 9.314456960665801 13.972227377172613 0 0 0
791 264 1 0.5897 6.025628567605238 9.072905897881512 14.804946040989975 0 0 0
333 111 1 0.5897 5.8907632075726415 5.589639504810406 12.520652254412141 0 0 0
461 154 1 0.5897 5.8626117508514 7.961299402803222 12.864703359008312 0 0 0
790 264 2 -1.1794 5.529130968261678 9.262297505968988 14.008795800297477 0 0 0
492 164 1 0.5897 7.8913626729200095 7.640117691674226 11.627427256466394 0 0 0
385 129 2 -1.1794 9.198207840749419 5.604392360943755 13.830297356250652 0 0 0
794 265 1 0.5897 9.016556920627634 8.736749254831599 13.233447586599357 0 0 0
387 129 1 0.5897 9.109752197530518 6.10372510662868 13.018443080660218 0 0 0
490 164 2 -1.1794 8.821095950172813 7.5567124177443015 11.839121773512113 0 0 0
460 154 2 -1.1794 6.051208230264124 7.404292609312552 12.10942908606129 0 0 0
332 111 1 0.5897 5.239901813547882 4.454615188093669 11.75903253933938 0 0 0
824 275 1 0.5897 8.065354541630263 9.01917815576767 15.320657555677927 0 0 0
377 126 1 0.5897 9.824622264911062 4.061426951618881 10.578194473500604 0 0 0
677 226 1 0.5897 5.326735051234952 0.8249389094311143 18.250429722665228 0 0 0
709 237 2 -1.1794 9.407006663615324 5.388094240214932 20.49122549203446 0 0 0
707 236 1 0.5897 8.864103462650355 0.19506949674760693 18.91068478459227 0 0 0
702 234 1 0.5897 9.858882050697417 4.122152928353193 17.499150474935778 0 0 0
696 232 1 0.5897 7.910059307829536 5.0414499785110785 17.137973083763967 0 0 0
706 236 2 -1.1794 8.562857062974505 0.9929301873794059 18.476010209445622 0 0 0
657 219 1 0.5897 6.634441493675394 4.47516628298973 18.774195352522984 0 0 0
694 232 2 -1.1794 8.091491032853519 4.310180223401212 17.728398078426228 0 0 0
676 226 2 -1.1794 5.847327434038737 0.6975051606655369 19.04350821210451 0 0 0
708 236 1 0.5897 7.61281421345343 0.9855125527366043 18.592377518967076 0 0 0
715 239 2 -1.1794 7.442157510579724 2.292550262408446 15.903638265107121 0 0 0
716 239 1 0.5897 7.575305536975558 1.3469822373022458 15.970365139938602 0 0 0
655 219 2 -1.1794 5.827151672527926 4.7156962350324125 19.228761392327115 0 0 0
695 232 1 0.5897 7.889063716622101 3.5294995922954087 17.212817639150813 0 0 0
38 13 1 0.5897 9.10486192016032 2.001105360600325 19.819853193590415 0 0 -1
786 262 1 0.5897 6.964867521774154 7.524252930404456 18.868532238240313 0 0 0
816 272 1 0.5897 8.972782431510403 8.252387877966338 19.362172191009044 0 0 0
815 272 1 0.5897 9.027595792223217 6.743099600260217 19.25691987745525 0 0 0
823 275 2 -1.1794 7.38705547332178 8.774729456965451 15.950235328847857 0 0 0
825 275 1 0.5897 7.417696772711782 7.818357790516886 15.97681663591783 0 0 0
710 237 1 0.5897 9.321583674778724 4.442104673659238 20.372493960053745 0 0 0
703 235 2 -1.1794 7.423482328272032 6.1398132441509965 15.794178932667121 0 0 0
784 262 2 -1.1794 6.017135149110844 7.426919264674313 18.960744747969155 0 0 0
704 235 1 0.5897 6.546061134197179 5.947398114516773 15.463576498903699 0 0 0
785 262 1 0.5897 5.887340360295333 6.494425854353747 19.13364160860615 0 0 0
814 272 2 -1.1794 8.762205704793264 7.526382852791482 18.77493849784114 0 0 0
144 48 1 0.5897 5.601929098754974 8.452866002861699 20.342565661297385 0 0 -1
656 219 1 0.5897 5.12804700999956 4.466393184625969 18.62434734077734 0 0 0
35 12 1 0.5897 5.681890232534768 1.986283570741206 20.304815353757753 0 0 -1
717 239 1 0.5897 6.579161716329253 2.3854920705455713 15.500174971212758 0 0 0
689 230 1 0.5897 9.867021774008514 1.106765939985917 17.28338171587542 0 0 0
276 92 1 0.5897 9.14731789223605 14.209047960941193 4.386511746605942 0 0 0
275 92 1 0.5897 7.749616640669518 14.182186833862902 4.967445108362495 0 0 0
819 273 1 0.5897 8.374799772352194 12.352509249125898 0.6898592339271413 0 0 1
224 75 1 0.5897 5.468434884680327 17.492083363476866 5.01647450937179 0 0 0
165 55 1 0.5897 7.757051430462812 12.124286694923622 2.9573918003810795 0 0 0
163 55 2 -1.1794 7.531482737763102 12.754880236297787 2.273481411815765 0 0 0
154 52 2 -1.1794 8.171504191641155 10.797450992991473 4.027586901719436 0 0 0
285 95 1 0.5897 7.687935959318215 14.531464789740623 2.2422172542813694 0 0 0
164 55 1 0.5897 6.612804593868898 12.574512098180463 2.074307789631796 0 0 0
156 52 1 0.5897 9.12385164058997 10.875202053646458 3.9713258876909494 0 0 0
284 95 1 0.5897 7.762798410051489 15.962165698691598 2.7316236809533923 0 0 0
271 91 2 -1.1794 7.462589334584034 19.230771205025878 1.7121441001342186 0 0 0
272 91 1 0.5897 7.637478784989308 18.639732910716766 2.4445051609358597 0 0 0
263 88 1 0.5897 7.524621199181403 17.457274577852143 4.677981475991989 0 0 0