LAMMPS data file via write_data, version 30 Jul 2021, timestep = 2250000

1920 atoms
2 atom types
1280 bonds
1 bond types
640 angles
1 angle types

0.030253361405215173 24.69974763859257 xlo xhi
0.015300648975740572 24.714700351022305 ylo yhi
0.07344589027828974 22.736554109721748 zlo zhi

Masses

1 1.008
2 15.999

Pair Coeffs # lj/cut/tip4p/long/omp

1 0 0
2 0.21084 3.1668

Bond Coeffs # harmonic/omp

1 450 0.9572

Angle Coeffs # harmonic/omp

1 55 104.52

Atoms # full

1 1 2 -1.1794 4.543811337795443 1.4292185171813292 4.2755006544282645 0 0 0
2 1 1 0.5897 4.605371291419035 2.225770719222734 4.8025917096244 0 0 0
3 1 1 0.5897 5.2318228272154945 1.5235900883423972 3.616872206907667 0 0 0
4 2 2 -1.1794 2.9289582066770516 1.512244121258023 1.938622386976193 0 0 0
5 2 1 0.5897 3.220330794924975 1.6204767649827427 2.843822487401795 0 0 0
6 2 1 0.5897 1.9753028662535888 1.58034587767647 1.9836962754651555 0 0 0
9 3 1 0.5897 4.978357281537064 4.710985599091869 3.4976973729765786 0 0 0
10 4 2 -1.1794 3.1771176756523043 4.5383485475715615 3.5814014707093014 0 0 0
11 4 1 0.5897 2.7411280339075543 5.226090695813998 4.084422504137452 0 0 0
12 4 1 0.5897 2.8283225960593463 4.631658552133049 2.695033784026347 0 0 0
13 5 2 -1.1794 1.4090790976518928 2.9392283258477527 5.111753696668772 0 0 0
14 5 1 0.5897 2.13082826397424 3.2525726608250833 4.566796572581662 0 0 0
15 5 1 0.5897 1.5358741448820539 1.9915441366856321 5.156273653200204 0 0 0
19 7 2 -1.1794 4.7355430268348915 3.3164232035342565 0.7519939782508249 0 0 0
20 7 1 0.5897 3.9672142077913364 2.8433090329280555 1.0713034279412752 0 0 0
21 7 1 0.5897 5.4689032335787555 2.9384294630179113 1.2371719599147326 0 0 0
22 8 2 -1.1794 1.6983464667090058 4.536406643042273 1.3262632485852954 0 0 0
23 8 1 0.5897 0.9266070772075259 4.6389087543082095 1.8830339971194971 0 0 0
24 8 1 0.5897 1.6271985402945357 5.243416833854791 0.6850453770633936 0 0 0
27 9 1 0.5897 4.7947802658917285 5.10704050496614 0.8455943538059594 0 0 0
7 3 2 -1.1794 5.935174062550155 4.6859662515333005 3.499362237940919 0 0 0
16 6 2 -1.1794 0.21054011909533363 1.5382526291261345 1.9249401845408458 0 0 0
98 33 1 0.5897 0.30548668462979167 5.422617138919345 3.782656307830777 1 0 0
28 10 2 -1.1794 1.725590440255799 0.21905775312421152 5.037821438145647 0 0 0
47 16 1 0.5897 6.170937349799168 0.9953498940692137 1.604613621092424 0 0 0
25 9 2 -1.1794 4.715070051881714 6.059445807705192 0.7932968382024291 0 0 0
387 129 1 0.5897 4.148959579365879 0.20306809375656218 1.3969482749045607 0 1 0
99 33 1 0.5897 0.32181406864467016 3.91218028343201 3.882900212684204 1 0 0
867 289 1 0.5897 4.5964175570074834 0.17675219327389433 5.634565219926313 0 1 0
150 50 1 0.5897 1.591622256123594 6.031486394547399 5.738881398557287 0 0 0
8 3 1 0.5897 6.194507078724563 5.456719545292365 4.004142874184673 0 0 0
526 176 2 -1.1794 6.182545669493738 1.663354803961861 7.780265110249401 0 0 0
496 166 2 -1.1794 0.14777122761278744 1.7858572732299822 7.77077511675142 0 0 0
502 168 2 -1.1794 1.5196012321293415 4.8529730248234015 7.065743900336246 0 0 0
505 169 2 -1.1794 4.490324119250373 6.0279072043551505 6.298519769406509 0 0 0
578 193 1 0.5897 0.14701434486542286 3.8094199177026704 9.577658795728366 1 0 0
508 170 2 -1.1794 1.2894213101296077 0.15906163047763744 10.673938159180658 0 0 0
489 163 1 0.5897 4.941980653961006 4.785183836461274 9.257779941742013 0 0 0
490 164 2 -1.1794 3.082514242677254 4.761986841832307 9.350046809042817 0 0 0
482 161 1 0.5897 5.258630793239279 1.6345256008348623 9.37377846009288 0 0 0
484 162 2 -1.1794 2.828956418165665 1.663170402437573 7.746804740726402 0 0 0
504 168 1 0.5897 1.4582096715668098 4.088531310876343 6.493067160569042 0 0 0
486 162 1 0.5897 3.206219447373218 0.9170624469516504 7.280850138913718 0 0 0
498 166 1 0.5897 1.104853973621558 1.7755036889447298 7.774232032493352 0 0 0
491 164 1 0.5897 2.649032872326689 4.844441782075889 8.500748478374332 0 0 0
1347 449 1 0.5897 4.577307042026317 0.42910460315151994 11.309434048847335 0 1 0
629 210 1 0.5897 2.0000433935547584 6.019055275503828 10.179153028038137 0 0 0
481 161 2 -1.1794 4.487576533199001 1.5992626501799987 9.939735553847985 0 0 0
503 168 1 0.5897 0.7937366425408695 4.75063418327498 7.681141758890049 0 0 0
500 167 1 0.5897 3.8345057106511784 3.1290311737923817 6.78563753867026 0 0 0
499 167 2 -1.1794 4.639006764579957 3.368179162566084 6.3255494721176175 0 0 0
494 165 1 0.5897 1.4075737996593196 1.8849855704710223 10.61444629232446 0 0 0
487 163 2 -1.1794 5.8928191663076195 4.836374621925002 9.16077165487658 0 0 0
483 161 1 0.5897 4.582080947518386 2.353598687696059 10.521236940096713 0 0 0
493 165 2 -1.1794 1.4069488903907366 2.826989428514006 10.444777124370802 0 0 0
492 164 1 0.5897 2.7046278025674706 3.9721197836876714 9.736623978716032 0 0 0
528 176 1 0.5897 5.7332851827980775 2.387148101802015 7.343909391090051 0 0 0
485 162 1 0.5897 3.225766154204399 1.6280987843349073 8.6170458132457 0 0 0
527 176 1 0.5897 5.787841877241077 0.8755787820784875 7.4064350462311435 0 0 0
501 167 1 0.5897 4.649475617902125 4.325145341515224 6.342022141334847 0 0 0
495 165 1 0.5897 1.3126298059999226 3.226524054639264 11.309354545533042 0 0 0
961 321 2 -1.1794 4.407593825119805 1.8222877686406178 15.612137600790932 0 0 0
962 321 1 0.5897 5.110465630248103 1.6527217789670299 14.985013765199396 0 0 0
963 321 1 0.5897 4.421808052094926 1.0660824232156545 16.198693597548235 0 0 0
964 322 2 -1.1794 2.7275535657864083 1.6322149637584575 13.446773325007348 0 0 0
965 322 1 0.5897 3.0559261176105132 1.6874338716296995 14.344059253530558 0 0 0
966 322 1 0.5897 1.7749105934646165 1.6310260852671652 13.539482019845908 0 0 0
970 324 2 -1.1794 3.09383173669948 4.683874530970937 14.736975483144064 0 0 0
971 324 1 0.5897 4.05009097628745 4.645019482503233 14.750565462362378 0 0 0
972 324 1 0.5897 2.8173891916611367 4.0083536262532755 15.356118811427612 0 0 0
973 325 2 -1.1794 1.5174638851231754 2.990714958063153 16.391520938250395 0 0 0
975 325 1 0.5897 0.8565569714217596 3.5115313369176846 15.935385055349954 0 0 0
979 327 2 -1.1794 4.576289867149153 3.295794873680831 12.048654352420842 0 0 0
980 327 1 0.5897 3.788262732818457 2.8784773723904795 12.396473375207878 0 0 0
981 327 1 0.5897 5.295752893729501 2.8921801717145734 12.534006577829441 0 0 0
982 328 2 -1.1794 1.2305665092770257 4.417042441185957 12.686813540114331 0 0 0
983 328 1 0.5897 1.3032772689211327 5.137944526237226 12.061431774248648 0 0 0
984 328 1 0.5897 1.9883479658089482 4.521173414326861 13.262140447275545 0 0 0
987 329 1 0.5897 4.490118676535958 5.138838260778901 12.058615149004524 0 0 0
990 330 1 0.5897 1.5129157003073546 1.1413178030019189 16.400807916527505 0 0 0
967 323 2 -1.1794 5.866862238883449 4.595805663785401 14.983720215919146 0 0 0
1346 449 1 0.5897 3.8184342480266658 0.26107067709110476 12.608373194077998 0 1 0
988 330 2 -1.1794 1.6599086568340695 0.201690773386002 16.29283452476296 0 0 0
1110 370 1 0.5897 2.052722025316095 5.972518657493421 15.571882213874478 0 0 0
1008 336 1 0.5897 5.912138319473837 0.8839159109543815 13.073005799386204 0 0 0
1109 370 1 0.5897 0.5526897344937308 5.98710799664021 15.775140589925163 0 0 0
985 329 2 -1.1794 4.60175650950246 6.089424086815296 12.049211813651695 0 0 0
1460 487 1 0.5897 4.6136383604964415 3.0080922277638047 17.047593947858406 0 0 0
1451 484 1 0.5897 4.268972450159095 4.687088654683611 20.55280571051017 0 0 0
386 129 1 0.5897 4.773149358717269 0.2607875498805638 22.682234847692882 0 1 -1
1487 496 1 0.5897 5.904276938425424 1.37508390311208 19.896688449971407 0 0 0
974 325 1 0.5897 1.662484615642093 3.4555188403361035 17.215509812124665 0 0 0
1447 483 2 -1.1794 6.129684050991688 4.609884236425794 20.67188289378293 0 0 0
1461 487 1 0.5897 5.399093337045948 2.8409372330934066 18.33075124126136 0 0 0
1539 513 1 0.5897 0.3241718766756955 5.4559732035770665 20.872005427181364 1 0 0
1469 490 1 0.5897 1.5908336505770653 1.1686220699213636 21.967166044403058 0 0 0
1488 496 1 0.5897 5.979431934165873 0.7618911949856502 18.514771024326034 0 0 0
1443 481 1 0.5897 4.715230211553595 2.242226036259597 21.766527519506162 0 0 0
1466 489 1 0.5897 4.704300210838488 5.155664084039611 17.718087348286033 0 0 0
1468 490 2 -1.1794 1.7372187326506277 0.22296913318297013 21.945348510342708 0 0 0
1452 484 1 0.5897 2.991896306241654 4.858984962099734 19.758409228024743 0 0 0
1456 486 2 -1.1794 0.24779290732325887 1.6961263708559715 19.089207712848552 0 0 0
1465 489 2 -1.1794 4.562332095822755 6.100646939953377 17.663163780979446 0 0 0
1826 609 1 0.5897 3.9665425933884095 0.24518120871791246 18.195683375162492 0 1 0
1459 487 2 -1.1794 4.725676606841699 3.3836443358560153 17.920761013336094 0 0 0
1590 530 1 0.5897 2.26271268514943 6.034114787217725 21.457540233611205 0 0 0
1450 484 2 -1.1794 3.327768345480804 4.828508541112741 20.65410058519939 0 0 0
1462 488 2 -1.1794 1.7505185999514687 4.793120721280556 18.437041860817423 0 0 0
1445 482 1 0.5897 2.081008508607397 1.6909916183161628 19.168356322259648 0 0 0
1446 482 1 0.5897 3.3879388454865036 2.3449808297073447 18.773567306716036 0 0 0
1454 485 1 0.5897 2.2283037216499824 3.4832678836019695 21.348249910815117 0 0 0
1442 481 1 0.5897 3.9382995774797607 1.4428483524284268 20.742386509362028 0 0 0
1441 481 2 -1.1794 4.724041619545941 1.413276431551064 21.288109597467518 0 0 0
1464 488 1 0.5897 0.9951713884950582 4.89269570286781 19.016358822430433 0 0 0
1538 513 1 0.5897 0.23997867227056177 3.947666587102315 20.773772076542123 1 0 0
1453 485 2 -1.1794 1.539370294929755 2.9713304731740005 21.7718085521729 0 0 0
1444 482 2 -1.1794 3.0238756141730203 1.532259521195879 19.1243925736024 0 0 0
1463 488 1 0.5897 1.632647141278098 5.469951450986223 17.77064519578658 0 0 0
1455 485 1 0.5897 1.5405545339578344 3.2727530260996898 22.680183940902058 0 0 0
121 41 2 -1.1794 4.456025324357955 7.669313596779202 4.07683523906123 0 0 0
122 41 1 0.5897 3.766045893837625 7.721104381763959 3.41554648699181 0 0 0
123 41 1 0.5897 5.269522245000335 7.7749473378147815 3.583729203916992 0 0 0
124 42 2 -1.1794 2.859994049728421 7.814878172129376 1.8927521624745878 0 0 0
125 42 1 0.5897 3.270138836341466 7.078012128065592 1.4400583231291029 0 0 0
126 42 1 0.5897 3.348440980962823 8.581955134354404 1.5941733853902398 0 0 0
129 43 1 0.5897 5.175701811917079 10.809927804773357 3.512160359620087 0 0 0
130 44 2 -1.1794 3.3911400697641247 10.913939014436357 3.5487962942949918 0 0 0
131 44 1 0.5897 2.988301933607726 11.649016629562485 4.010859625046708 0 0 0
132 44 1 0.5897 2.971844186290437 10.137958089802876 3.9205136384651706 0 0 0
133 45 2 -1.1794 1.4948138998173737 9.122156644859874 4.839486937766753 0 0 0
135 45 1 0.5897 0.9020839427301005 9.608605550435822 4.266666325294933 0 0 0
137 46 1 0.5897 1.16888703942529 7.808694310742432 2.114049984963002 0 0 0
139 47 2 -1.1794 4.774330503177784 9.552839164244896 0.7987052316413332 0 0 0
140 47 1 0.5897 4.989864717452282 10.481340435557733 0.7115626034637466 0 0 0
142 48 2 -1.1794 1.5462664207055186 10.774806244896913 1.4266439745339812 0 0 0
143 48 1 0.5897 2.3182291173070584 10.965125653495605 1.9594997807780068 0 0 0
144 48 1 0.5897 1.5001247118168717 11.499884382631937 0.8035712479332796 0 0 0
149 50 1 0.5897 1.4423023220017483 7.291416413442207 4.913124716894927 0 0 0
148 50 2 -1.1794 1.4964887615223532 6.3387846540591575 4.837482192604332 0 0 0
168 56 1 0.5897 6.140405798896153 8.566415912817384 1.7324641449237848 0 0 0
218 73 1 0.5897 0.18575687751225092 11.118446739168931 2.712221876040409 1 0 0
127 43 2 -1.1794 6.1304666167574045 10.861870978863726 3.4691000713978606 0 0 0
621 207 1 0.5897 4.529124730725918 8.966911855448476 5.407948411339223 0 0 0
507 169 1 0.5897 4.487406225272284 6.525207629085659 5.480770111305284 0 0 0
26 9 1 0.5897 5.353127826659268 6.388783134882844 1.4261392782976376 0 0 0
136 46 2 -1.1794 0.2177963482201425 7.887948326493222 2.186680168626613 0 0 0
145 49 2 -1.1794 4.8018075572841035 12.36105921069613 0.6858638763021351 0 0 0
134 45 1 0.5897 1.4654186388862616 9.594168796151827 5.671573945058444 0 0 0
270 90 1 0.5897 1.0008970522633018 12.208406823657477 4.540294639718423 0 0 0
1574 525 1 0.5897 1.6724520342975304 9.44804225846734 0.17143418242779518 0 0 1
1101 367 1 0.5897 4.516701372350957 8.990300421107074 11.2183664604821 0 0 0
628 210 2 -1.1794 1.2854447241165456 6.396495697082604 10.691966157908858 0 0 0
606 202 1 0.5897 1.8796558956864338 7.752578446428865 7.799790793380305 0 0 0
625 209 2 -1.1794 4.68553330324321 12.179059658710578 6.2501747844770374 0 0 0
612 204 1 0.5897 2.916959599877651 11.618699563349631 9.687784458297529 0 0 0
605 202 1 0.5897 3.0538030528777287 8.608628211504483 7.375300289433148 0 0 0
647 216 1 0.5897 5.680819702548783 7.741995754710611 8.499505233231682 0 0 0
603 201 1 0.5897 3.823085621015227 7.7761713860690875 9.32337852802149 0 0 0
619 207 2 -1.1794 4.6209020613496925 9.371085988588167 6.270641957108236 0 0 0
624 208 1 0.5897 1.5316535904320674 11.531157599888887 6.523702426538359 0 0 0
616 206 2 -1.1794 0.0956066912196043 7.690814934458237 7.860634291175104 0 0 0
506 169 1 0.5897 3.8351155405629105 6.461366204150291 6.845240806603307 0 0 0
615 205 1 0.5897 0.8317522798613559 9.47649420695568 10.182336616139853 0 0 0
611 204 1 0.5897 4.176818544990258 10.984458701649206 9.138154151780489 0 0 0
610 204 2 -1.1794 3.2256626251376512 10.880401044038909 9.162691414776829 0 0 0
626 209 1 0.5897 4.754564085292137 11.224393010692832 6.246639128890362 0 0 0
601 201 2 -1.1794 4.587068609386815 7.787972648781103 9.899803789512552 0 0 0
630 210 1 0.5897 1.4134666254205792 7.342479480705272 10.62204047977477 0 0 0
699 233 1 0.5897 0.3381740384278617 10.752885614367363 8.428840168231236 1 0 0
614 205 1 0.5897 2.339426268453935 9.537031396934397 10.0603357822938 0 0 0
607 203 2 -1.1794 5.985542706711853 10.896865974005761 9.13826607888485 0 0 0
623 208 1 0.5897 2.1517240507312496 10.840816593085993 7.719682998105717 0 0 0
613 205 2 -1.1794 1.636073252752638 9.10749716590199 10.547056018416116 0 0 0
602 201 1 0.5897 4.462710936747789 7.035741119287516 10.478404798079662 0 0 0
648 216 1 0.5897 5.896219148537409 7.031800190464985 7.180177370540923 0 0 0
604 202 2 -1.1794 2.835740041128356 7.757502711873625 7.75499519409386 0 0 0
698 233 1 0.5897 0.2599083170592964 11.597458475771345 9.682628124036029 1 0 0
622 208 2 -1.1794 1.4349877370822461 10.765503050956088 7.089856059694932 0 0 0
620 207 1 0.5897 5.32141988543472 8.875394537352898 6.694519540182198 0 0 0
1081 361 2 -1.1794 4.556501551949604 7.795857208443709 15.577933888970398 0 0 0
1082 361 1 0.5897 4.6765850020313975 8.536519486564139 16.172151625714886 0 0 0
1083 361 1 0.5897 4.505311680075083 7.03251107501586 16.153078230495023 0 0 0
1084 362 2 -1.1794 2.812907440934758 7.644030932692233 13.439405227839902 0 0 0
1085 362 1 0.5897 3.332088735362339 7.74221211240212 14.237426514298255 0 0 0
1086 362 1 0.5897 3.0868081761757153 8.373613180551605 12.88371303169333 0 0 0
1089 363 1 0.5897 5.0060340643359655 10.665810116820893 14.799389298733972 0 0 0
1090 364 2 -1.1794 3.242075288220313 10.762395056308257 14.770555353184688 0 0 0
1091 364 1 0.5897 2.919141294196483 11.576024535139627 15.157662259372598 0 0 0
1092 364 1 0.5897 2.916150064653466 10.0745623681886 15.350859644440652 0 0 0
1093 365 2 -1.1794 1.5733886261261065 9.081122270950766 16.443222802017438 0 0 0
1094 365 1 0.5897 1.4190922982792362 8.152084611922096 16.27222356085169 0 0 0
1095 365 1 0.5897 0.8643208198369953 9.530733817275532 15.983684336911473 0 0 0
1097 366 1 0.5897 1.078194659170865 7.490636608492953 13.506937835521452 0 0 0
1099 367 2 -1.1794 4.432282923005763 9.487239485103483 12.031973810784821 0 0 0
1100 367 1 0.5897 5.122430828115185 9.140758623828862 12.597419369313098 0 0 0
1102 368 2 -1.1794 1.3259232802520753 10.757987636431631 12.747874324389445 0 0 0
1103 368 1 0.5897 1.516578676820905 10.093797812408837 12.08561890325183 0 0 0
1104 368 1 0.5897 2.083536922262451 10.738334265639764 13.332434936212646 0 0 0
1107 369 1 0.5897 4.630216808360572 11.279239930135004 11.982984756505344 0 0 0
1087 363 2 -1.1794 5.955387116235846 10.579738557599207 14.885701202962474 0 0 0
1179 393 1 0.5897 0.23954722266540743 10.521676454717774 14.2364463004693 1 0 0
1127 376 1 0.5897 5.820288968439514 7.870336204122607 14.191630877852962 0 0 0
1178 393 1 0.5897 0.38402541691326547 11.351749683243822 15.494028837957643 1 0 0
1105 369 2 -1.1794 4.709754370517104 12.217744382948089 12.153409767631489 0 0 0
986 329 1 0.5897 3.9121983447623596 6.4177573633660785 12.626086327267325 0 0 0
1128 376 1 0.5897 5.851543756924355 7.173785689482724 12.84805012836524 0 0 0
1096 366 2 -1.1794 0.13032297646282695 7.516697305515695 13.376613460319028 0 0 0
1108 370 2 -1.1794 1.3677069006328941 6.345018465955592 16.126934728817 0 0 0
1230 410 1 0.5897 1.758654315522716 12.213460190911412 16.980325482170112 0 0 0
750 250 1 0.5897 1.6573920101433184 12.138347054882233 11.554402691738467 0 0 0
1575 525 1 0.5897 2.3899844406618596 9.516915878192698 21.503467408116776 0 0 0
1709 570 1 0.5897 0.8343545745862114 12.1134418762232 21.561789967212214 0 0 0
1579 527 2 -1.1794 4.777368508038648 9.463370702947609 17.779386699766714 0 0 0
1571 524 1 0.5897 3.0533935596967665 10.987176941432583 19.82201520315787 0 0 0
1608 536 1 0.5897 6.006492646648841 7.765654256899779 19.92217906311426 0 0 0
1583 528 1 0.5897 1.061641196096543 11.083524990907579 18.990567409154394 0 0 0
1581 527 1 0.5897 5.560694510520276 9.02752608728691 18.114881486304625 0 0 0
1576 526 2 -1.1794 0.30878479506762413 7.5654454372302355 19.143020523925212 0 0 0
1573 525 2 -1.1794 1.651327696911266 9.097229046152746 21.944322263736808 0 0 0
1658 553 1 0.5897 0.3670293432663033 10.066308936354535 20.873286071494864 1 0 0
1572 524 1 0.5897 4.348983425500994 10.761044501180796 20.571590293076348 0 0 0
1561 521 2 -1.1794 4.859345685442192 7.878574559689488 21.313217617251127 0 0 0
1570 524 2 -1.1794 3.406882087180272 10.867023986106469 20.703272879742418 0 0 0
1584 528 1 0.5897 1.6768077175707798 10.308178446025671 17.84520186568815 0 0 0
1587 529 1 0.5897 4.746421939355125 11.27901346459136 17.70746207579771 0 0 0
1588 530 2 -1.1794 1.5046237150068862 6.403985748113659 21.909863458868 0 0 0
1565 522 1 0.5897 2.0888273137329447 7.76827840673919 19.020223291055792 0 0 0
1562 521 1 0.5897 4.745700302636909 7.141645840738204 21.913312163306497 0 0 0
1567 523 2 -1.1794 6.142435004770586 10.704045993081978 20.634196946548 0 0 0
1564 522 2 -1.1794 3.035534299953925 7.827260553116334 19.148252359356512 0 0 0
1710 570 1 0.5897 2.3405256808742236 12.252998344185265 21.621834797263713 0 0 0
1563 521 1 0.5897 4.12566564739587 7.80628255735089 20.70284186346099 0 0 0
1589 530 1 0.5897 1.624020446849526 7.3513288196164925 21.84315642930212 0 0 0
1585 529 2 -1.1794 4.667966942617158 12.23031350559994 17.636487988650945 0 0 0
1566 522 1 0.5897 3.3948188105440447 7.121441921775784 18.610812743040118 0 0 0
1580 527 1 0.5897 4.05276410845043 9.047781092623257 18.24665070818982 0 0 0
1467 489 1 0.5897 5.324690787265725 6.483485764635154 18.097152789925662 0 0 0
1582 528 2 -1.1794 1.7949527021881557 11.096094364481267 18.375614780582744 0 0 0
141 47 1 0.5897 4.9216506774978885 9.189305308480423 22.588799102651127 0 0 -1
241 81 2 -1.1794 4.608323755552653 14.195176625780274 4.268637639787109 0 0 0
242 81 1 0.5897 4.526010752951039 13.482656054013688 4.902377014659812 0 0 0
243 81 1 0.5897 3.9962114639381308 13.966212595885631 3.5693866510723655 0 0 0
244 82 2 -1.1794 2.9495537564418033 13.80540226149191 2.145227780857817 0 0 0
245 82 1 0.5897 1.9970032387853573 13.898647111700205 2.1363425813601356 0 0 0
246 82 1 0.5897 3.2661857999172974 14.52465031751881 1.598852043858136 0 0 0
250 84 2 -1.1794 3.417560240748454 17.102975991927373 3.899610977123477 0 0 0
251 84 1 0.5897 3.0037617785111075 17.096884550207037 3.036625561969247 0 0 0
252 84 1 0.5897 4.356801915919107 17.09625649801343 3.715478369403593 0 0 0
253 85 2 -1.1794 1.6180785973678995 15.30407338372677 4.976044899880862 0 0 0
254 85 1 0.5897 0.9174272038014857 15.76289307760205 4.512715333021225 0 0 0
255 85 1 0.5897 2.4242639515087276 15.697534429062689 4.642325576153336 0 0 0
259 87 2 -1.1794 4.6459736945480286 15.638637634306804 0.8021038724162003 0 0 0
260 87 1 0.5897 4.689875433779963 16.587012775640204 0.6803680075502084 0 0 0
262 88 2 -1.1794 1.735040298094196 17.128131153780366 1.5292316531125305 0 0 0
263 88 1 0.5897 1.7338222783798063 16.360507646396243 0.9575189089572708 0 0 0
264 88 1 0.5897 1.6142672369065338 17.869472367166296 0.9360027690957448 0 0 0
269 90 1 0.5897 1.6207993205463396 13.50381837775699 5.019142812657251 0 0 0
146 49 1 0.5897 5.569424985795058 12.816402033850595 1.0316147426337856 0 0 0
288 96 1 0.5897 5.958207475551165 14.758045809309143 1.6293949429795038 0 0 0
268 90 2 -1.1794 1.7551953925578148 12.556141061172422 5.015911723783198 0 0 0
147 49 1 0.5897 4.081598526798673 12.642321274956403 1.250019904032882 0 0 0
338 113 1 0.5897 0.2901383051151116 17.18385616268175 2.778869846180198 1 0 0
247 83 2 -1.1794 6.070523412301883 17.10362072024553 3.634084404975958 0 0 0
265 89 2 -1.1794 4.796087492020653 18.41019497154931 0.8762715350561611 0 0 0
256 86 2 -1.1794 0.1772326971184938 13.916503939038703 2.1673684955764445 0 0 0
287 96 1 0.5897 6.078260979184933 13.995464149162641 2.931488262128389 0 0 0
339 113 1 0.5897 0.3085048139805538 17.694084666018718 4.203880878244185 1 0 0
389 130 1 0.5897 2.2981473638132757 18.353313502445523 4.5802190885878815 0 0 0
740 247 1 0.5897 4.800152081665231 15.37438840499722 5.7218862157214945 0 0 0
1106 369 1 0.5897 4.869471213109966 12.605235815124953 11.29296943412052 0 0 0
1221 407 1 0.5897 4.898002302784721 15.254877373771759 11.254290511118418 0 0 0
732 244 1 0.5897 2.9874501079379847 16.29004711631955 9.82437244974349 0 0 0
869 290 1 0.5897 0.9318887659117843 18.22030226269701 10.366597872559089 0 0 0
627 209 1 0.5897 5.432960863196303 12.471782392792722 6.771472560949937 0 0 0
739 247 2 -1.1794 4.902468389525575 15.72179037367419 6.607804340639227 0 0 0
722 241 1 0.5897 4.048511772758917 14.05142662604015 9.424561228339641 0 0 0
743 248 1 0.5897 1.5108496157799276 17.75318092922833 6.498936895160805 0 0 0
731 244 1 0.5897 2.7239619046608565 16.942211028885616 8.48398972377589 0 0 0
870 290 1 0.5897 2.445271176918984 18.252060908708486 10.349397992930571 0 0 0
768 256 1 0.5897 6.195901382353131 14.490532047933582 7.3540279795205015 0 0 0
737 246 1 0.5897 1.2309094372800156 13.999220447474247 7.975706541107083 0 0 0
748 250 2 -1.1794 1.7082943655800904 12.552680504775893 10.693149941340137 0 0 0
721 241 2 -1.1794 4.833233346307879 13.96208048801828 9.965223622291315 0 0 0
726 242 1 0.5897 3.4098033744132574 13.20957825362063 7.4096303478678465 0 0 0
724 242 2 -1.1794 3.062328336727502 13.98802901141176 7.8448313591377214 0 0 0
730 244 2 -1.1794 3.321070370310936 16.96347885890456 9.231686435824033 0 0 0
735 245 1 0.5897 0.9816408896301703 15.690482199452374 10.184879895107873 0 0 0
745 249 2 -1.1794 4.703104425636879 18.52139840133505 6.522924738729372 0 0 0
741 247 1 0.5897 4.672226400856307 16.647638457740726 6.530628577107973 0 0 0
744 248 1 0.5897 1.6512913483231706 16.248068699993546 6.58042474400424 0 0 0
725 242 1 0.5897 3.5551569915176637 14.715407208849287 7.465139296376613 0 0 0
736 246 2 -1.1794 0.28761505417022365 13.984536335904535 7.81414652975951 0 0 0
723 241 1 0.5897 5.547341413517962 13.858071126044829 9.336497814468471 0 0 0
818 273 1 0.5897 0.23856629485567926 16.93917777275091 8.48189528604099 1 0 0
742 248 2 -1.1794 1.5583584135805397 17.030163372855583 7.12429751468507 0 0 0
733 245 2 -1.1794 1.6966330773386278 15.291304853182634 10.680403058692374 0 0 0
749 250 1 0.5897 1.580367261838744 13.485110053333196 10.867422434514388 0 0 0
728 243 1 0.5897 5.17231596368271 17.020096156978447 9.220974634150117 0 0 0
727 243 2 -1.1794 6.111967211123741 16.86592684579049 9.318014592732332 0 0 0
1201 401 2 -1.1794 4.563161056032296 14.103976592416101 15.61743758819104 0 0 0
1202 401 1 0.5897 5.319781460922432 14.001069337750172 15.040367308577764 0 0 0
1203 401 1 0.5897 4.633110813765744 13.377480147966505 16.236631621610805 0 0 0
1204 402 2 -1.1794 2.9503581443720015 14.068904368899855 13.345154942265724 0 0 0
1205 402 1 0.5897 3.3888955129177254 14.151761398637714 14.191815002474087 0 0 0
1206 402 1 0.5897 3.4528081385362372 13.400753602937758 12.879073665751482 0 0 0
1210 404 2 -1.1794 3.4214103835456706 16.991563046110407 14.800560290100915 0 0 0
1211 404 1 0.5897 3.0287556530635618 17.667831025300245 15.352452911448498 0 0 0
1212 404 1 0.5897 4.362927303050212 17.076086996575413 14.950652200950774 0 0 0
1213 405 2 -1.1794 1.6540154749551215 15.325607978667266 16.203649558196396 0 0 0
1214 405 1 0.5897 0.8769743202740745 15.78439804745771 15.884526819074363 0 0 0
1215 405 1 0.5897 2.3885622683771923 15.790093911148197 15.802642483655994 0 0 0
1218 406 1 0.5897 1.0993157103506095 13.870053295561346 13.520966589541212 0 0 0
1219 407 2 -1.1794 4.848746647179906 15.686618830123754 12.1070474997471 0 0 0
1220 407 1 0.5897 4.074616481180358 15.30782199949589 12.523390221558223 0 0 0
1222 408 2 -1.1794 1.4667451684276387 16.906720253317914 12.885811926062289 0 0 0
1223 408 1 0.5897 1.5583966524225488 17.662649867824626 12.30592587333321 0 0 0
1224 408 1 0.5897 2.2431648673185816 16.937498393432328 13.444651986945322 0 0 0
1227 409 1 0.5897 4.706886125149881 17.465558799396888 12.086053022780657 0 0 0
1229 410 1 0.5897 1.5462334665216992 13.51193941635876 16.231697057172664 0 0 0
1216 406 2 -1.1794 0.15858660648500641 13.708255311007656 13.450424401097886 0 0 0
1248 416 1 0.5897 5.966019379889181 13.159751562395698 13.077938034632188 0 0 0
734 245 1 0.5897 1.6733745372258788 15.729975633091696 11.530725065658418 0 0 0
1228 410 2 -1.1794 1.6377964737254744 12.568349732552145 16.099725327239273 0 0 0
1247 416 1 0.5897 5.967276211696167 14.672574035720316 13.133623051874284 0 0 0
1350 450 1 0.5897 1.0311335641692516 18.25380573093814 15.919918459043057 0 0 0
1298 433 1 0.5897 0.2469959000562909 17.127476345131434 14.24805409497661 1 0 0
1225 409 2 -1.1794 4.593877222797688 18.41434605186152 12.029517404018392 0 0 0
1700 567 1 0.5897 4.728822386396242 15.366190805354638 16.867785756704073 0 0 0
1728 576 1 0.5897 6.026805370036248 14.641575835814512 18.816940572519613 0 0 0
1682 561 1 0.5897 5.275612683895679 13.835275611655213 20.804842287213805 0 0 0
1697 566 1 0.5897 1.1931998122070862 13.842626131225899 19.052279280637116 0 0 0
1779 593 1 0.5897 0.29679301697343624 17.67119847540453 21.15050789825184 1 0 0
1586 529 1 0.5897 5.363095398057183 12.571098895695771 18.199286801392365 0 0 0
261 87 1 0.5897 4.573789101892121 15.285924441038567 22.57842529985813 0 0 -1
1701 567 1 0.5897 3.9665760831883925 15.287528875037957 18.173220676718152 0 0 0
1778 593 1 0.5897 0.5268853311200326 16.819428227904126 19.92047901565514 1 0 0
1686 562 1 0.5897 3.396913366669442 14.037108076925575 19.819184046402658 0 0 0
1681 561 2 -1.1794 4.443894578692365 13.962234235132097 21.2611546587733 0 0 0
1691 564 1 0.5897 2.985850603801956 16.373651582797876 21.2254537697425 0 0 0
1692 564 1 0.5897 2.89843387898831 17.040285814437652 19.869235534711297 0 0 0
1687 563 2 -1.1794 6.101144117107608 17.166881438114125 20.651783387944125 0 0 0
1705 569 2 -1.1794 4.8217458657583325 18.47015416200086 17.93079427171839 0 0 0
1699 567 2 -1.1794 4.666195243256401 15.770210322365115 17.73315340364822 0 0 0
1694 565 1 0.5897 0.9070988154544264 15.749193853092693 21.695125695940177 0 0 0
1695 565 1 0.5897 1.444300315640102 14.38639284485948 22.077060222099114 0 0 0
1685 562 1 0.5897 3.376920062126172 13.336651143874661 18.477420803237695 0 0 0
1707 569 1 0.5897 4.7559570136781995 17.521007648595464 17.82612608472321 0 0 0
1708 570 2 -1.1794 1.5325925615432867 12.599322379250314 22.000533458660176 0 0 0
1683 561 1 0.5897 4.471060967404878 13.339238234478344 21.98723925536253 0 0 0
1684 562 2 -1.1794 2.993834477799678 14.07435774874653 18.95191948294278 0 0 0
1703 568 1 0.5897 1.7970846093699437 16.331023372551677 17.933547893553015 0 0 0
1689 563 1 0.5897 5.1619118408583775 17.23371451682459 20.480028454451492 0 0 0
1696 566 2 -1.1794 0.23907842785348585 13.89310117292751 19.109132971803923 0 0 0
1702 568 2 -1.1794 1.6601312333520897 17.06624697435513 18.53086789764705 0 0 0
1830 610 1 0.5897 2.279784855135756 18.382235825021738 21.580586792969566 0 0 0
1690 564 2 -1.1794 3.339239687405529 17.103126356018258 20.7164402304262 0 0 0
1704 568 1 0.5897 1.6846185185634819 17.84028558792567 17.968403911109192 0 0 0
1693 565 2 -1.1794 1.593932563472056 15.322751030819681 22.207471922681947 0 0 0
361 121 2 -1.1794 4.689211948416468 20.161733752125606 4.2783413009584 0 0 0
362 121 1 0.5897 3.9246854745240265 20.058274116575028 3.7118853835199954 0 0 0
363 121 1 0.5897 4.622020749845139 19.442137098821256 4.90583729211136 0 0 0
364 122 2 -1.1794 2.9933058884379156 19.996803251084707 2.189218711804244 0 0 0
365 122 1 0.5897 3.281400242365404 20.75116065060012 1.6753566315303527 0 0 0
366 122 1 0.5897 2.042403634060565 20.091936471978215 2.242727301879448 0 0 0
370 124 2 -1.1794 3.2284083785856508 23.23078182600186 3.5008510514914257 0 0 0
371 124 1 0.5897 4.18250689690654 23.157615401024806 3.5225002169606148 0 0 0
372 124 1 0.5897 2.92271687231278 22.566552778575286 4.1184574684734825 0 0 0
373 125 2 -1.1794 1.6959618117243052 21.48113445621982 5.039698587431153 0 0 0
375 125 1 0.5897 0.9691848488451164 21.82294024333595 4.519071910357722 0 0 0
379 127 2 -1.1794 4.560084484572528 21.789266751663547 0.7694760117564771 0 0 0
380 127 1 0.5897 4.686125727961747 22.73702309089878 0.8146027628092406 0 0 0
381 127 1 0.5897 5.315989815998521 21.424465386128865 1.229503796716447 0 0 0
382 128 2 -1.1794 1.3440114249046708 23.26193653900873 1.5683473617592003 0 0 0
383 128 1 0.5897 2.108982195638807 23.341962317775085 2.1379890633216836 0 0 0