LAMMPS data file via write_data, version 30 Jul 2021, timestep = 15500000

1008 atoms
2 atom types
672 bonds
1 bond types
336 angles
1 angle types

-3.0926660897780494 14.702665089333497 xlo xhi
-0.37383189822071117 22.953830898216815 ylo yhi
0.10506312364410597 19.124934876353166 zlo zhi
0.08125550593683405 -6.297224455575091 0.11803014772981323 xy xz yz

Masses

1 1.008
2 15.999

Pair Coeffs # lj/cut/tip4p/long/omp

1 0 0
2 0.21084 3.1668

Bond Coeffs # harmonic/omp

1 450 0.9572

Angle Coeffs # harmonic/omp

1 55 104.52

Atoms # full

122 41 1 0.5897 -2.3642581607756057 1.8254273800885317 1.911007563625319 1 0 0
55 19 2 -1.1794 -0.508556927087163 3.975947131683296 3.660247968370215 0 0 0
56 19 1 0.5897 -1.1530052522521133 3.4407601016734954 3.197066468756573 0 0 0
86 29 1 0.5897 -2.160375941076193 1.5088988629911222 4.010055213679754 1 0 0
57 19 1 0.5897 0.11248524319314868 4.243478576446459 2.9828279926029064 0 0 0
102 34 1 0.5897 -3.1582253966429015 5.06418123018583 0.9399075115616252 1 0 0
121 41 2 -1.1794 -2.5014566879658697 2.4020327377429447 2.6626916048217506 1 0 0
123 41 1 0.5897 -3.418211395343926 2.6691168166569703 2.5960591594634908 1 0 0
482 161 1 0.5897 -0.9557742949567922 -0.1851683568141031 1.151262668013401 1 1 0
158 53 1 0.5897 -3.7859934449961217 4.597166936048262 4.254447965445937 1 0 0
163 55 2 -1.1794 -1.9963850966479477 1.158163949977508 0.1766796343079017 1 0 0
124 42 2 -1.1794 -4.576627564438958 2.283843343063031 7.725662590052782 1 0 0
159 53 1 0.5897 -3.174472764395894 4.53503131464431 5.6380242504855325 1 0 0
134 45 1 0.5897 -1.934204572388924 2.660096580174143 6.413752588013072 1 0 0
669 223 1 0.5897 -4.918750407582095 1.3781772578502074 9.281648350513526 1 0 0
69 23 1 0.5897 -2.7217398141203484 0.7997378817919314 8.587264494374446 0 0 0
68 23 1 0.5897 -2.786513098870968 -0.25512756682146365 7.503187618600115 0 0 0
133 45 2 -1.1794 -2.1485033892804033 3.491268700477399 6.837479427297512 1 0 0
126 42 1 0.5897 -3.7703294590732384 2.7965614824637774 7.66923959805628 1 0 0
87 29 1 0.5897 -3.086119833283385 1.1264178714211603 5.145173396220171 1 0 0
67 23 2 -1.1794 -2.1742575420977133 0.3121923451206037 7.971770543250012 0 0 0
125 42 1 0.5897 -5.274879855773448 2.937691118333812 7.75949407525627 1 0 0
98 33 1 0.5897 -4.1389150995892905 5.069205752325166 8.752424198999256 1 0 0
135 45 1 0.5897 -1.3006166630493108 3.9080821157799015 6.990943996855834 1 0 0
85 29 2 -1.1794 -2.1608294169555715 1.1645838548506915 4.903198648518634 1 0 0
157 53 2 -1.1794 -3.446451350731608 5.150902730165161 4.957603065263347 1 0 0
523 175 2 -1.1794 -2.4275464559673914 2.4674313363217366 10.062513205950122 0 0 0
561 187 1 0.5897 -4.369327735027023 3.6222786918285808 12.801081494424913 0 0 0
668 223 1 0.5897 -5.519094145290765 1.4510463481071245 10.669540373846873 1 0 0
625 209 2 -1.1794 -5.682543328227487 2.476456589860136 12.119310357639696 1 0 0
627 209 1 0.5897 -6.606281277249257 2.6416685090829364 12.307984350849429 1 0 0
559 187 2 -1.1794 -3.7361082887343904 4.103488446000474 13.33378864283795 0 0 0
626 209 1 0.5897 -5.44090695405982 1.7627814810572628 12.709657343462263 1 0 0
524 175 1 0.5897 -2.97985902287124 3.2263669763945155 9.87487439482138 0 0 0
986 329 1 0.5897 -4.303638582277159 -0.2692698941658272 10.691920661555631 1 1 0
589 197 2 -1.1794 -5.231384996131441 0.7370493223935368 14.072992273425632 1 0 0
560 187 1 0.5897 -3.5171423117330773 3.50353481483553 14.046780755297078 0 0 0
99 33 1 0.5897 -3.7071149349874406 5.39028293839246 10.167562079962922 1 0 0
606 202 1 0.5897 -5.956620443991713 4.309319795851201 9.87826362060766 1 0 0
662 221 1 0.5897 -7.064779123873842 4.341058352852614 13.953526394743067 1 0 0
667 223 2 -1.1794 -5.445186090253604 0.8787031682269868 9.905799094744804 1 0 0
661 221 2 -1.1794 -6.413200553097205 4.973746672091744 14.25589685254993 1 0 0
663 221 1 0.5897 -6.0442790833903475 5.340732658271621 13.452511454312669 1 0 0
97 33 2 -1.1794 -4.134715870461182 4.714491564133872 9.641457807211564 1 0 0
591 197 1 0.5897 -4.894398958371289 -0.1078909650975386 14.37091691920339 1 0 0
630 210 1 0.5897 -8.149534530645706 1.728804469563011 15.963779232010298 1 0 0
637 213 2 -1.1794 -5.227821148752472 2.837475192281923 15.793568259697167 1 0 0
165 55 1 0.5897 -8.952980293099767 0.6123002689380828 18.994713090805483 1 0 -1
628 210 2 -1.1794 -7.940503861409942 2.2881140232113606 16.711995114077368 1 0 0
601 201 2 -1.1794 -6.3510227052099175 4.776699080760365 18.922162015257854 1 0 0
638 213 1 0.5897 -5.954959943852778 2.5232637310878214 16.330891538685094 1 0 0
639 213 1 0.5897 -5.599858252984976 3.5567587275745915 15.283206636386726 1 0 0
164 55 1 0.5897 -8.042763674509217 1.6321196882318914 18.34414251824939 1 0 -1
603 201 1 0.5897 -5.846030530484896 4.0310994990596845 18.597610066899378 1 0 0
629 210 1 0.5897 -8.156642601002362 3.173020640288557 16.41794686795543 1 0 0
590 197 1 0.5897 -5.077304799176184 1.3298029963906708 14.80868613084902 1 0 0
602 201 1 0.5897 -7.242017626245096 4.440058264265146 19.016806107226294 1 0 0
20 7 1 0.5897 -5.18144866090456 1.422359060681025 18.22715241968075 0 0 -1
100 34 2 -1.1794 -9.362168860573135 4.770373272798069 19.10070267846308 1 0 -1
19 7 2 -1.1794 -4.95590324443218 2.2212604648886973 18.70382025555861 0 0 -1
593 198 1 0.5897 -7.288955272591597 0.28978765491774505 14.41503970928181 1 0 0
332 111 1 0.5897 -1.8802463770993827 9.244699392353645 0.7396611604771739 1 0 0
112 38 2 -1.1794 -2.6637196616666214 6.410562876001202 2.456768478488639 1 0 0
114 38 1 0.5897 -1.723500192606696 6.544484245014009 2.337472089137665 1 0 0
289 97 2 -1.1794 -2.3172810357224063 10.093078433404475 2.191974182688071 1 0 0
145 49 2 -1.1794 -0.14455851096726668 6.8330738551988315 1.5702480592381962 1 0 0
147 49 1 0.5897 -0.05643748165834461 6.038660333989247 1.043489545336723 1 0 0
189 63 1 0.5897 1.0192071467008423 9.682836502655652 1.0736780137307163 0 0 0
331 111 2 -1.1794 -1.775721707376748 8.488131177388842 0.16260553861098737 1 0 0
290 97 1 0.5897 -3.1605060196157293 10.44474759912755 2.4774749161725276 1 0 0
146 49 1 0.5897 -0.7160639834976381 7.401293575553426 1.053757450522129 1 0 0
255 85 1 0.5897 -1.908927241223414 8.733815168708167 3.817070310320418 1 0 0
113 38 1 0.5897 -2.7333540808144354 5.906865056875191 3.267724627891794 1 0 0
291 97 1 0.5897 -1.6717724564712206 10.549943174183456 2.7313028073220496 1 0 0
9 3 1 0.5897 -0.6997778894665587 5.586241362418516 4.651381099521837 0 0 0
253 85 2 -1.1794 -2.0782483082274377 8.530199433844984 4.73690833729822 1 0 0
224 75 1 0.5897 -0.22266003786731492 11.094581013046364 4.241654547202501 0 0 0
187 63 2 -1.1794 1.2321665487549813 9.97154772069049 0.1862482764514462 0 0 0
292 98 2 -1.1794 -4.693611571182053 10.128977038314758 7.501237594301153 1 0 0
111 37 1 0.5897 -5.0495642043620395 6.6812799133417515 7.522325356812907 1 0 0
109 37 2 -1.1794 -4.133581176931285 6.456104284246474 7.359721651251331 1 0 0
294 98 1 0.5897 -4.639897939582053 9.621362302690176 8.310982073003428 1 0 0
303 101 1 0.5897 -1.512829069023348 11.01924802217341 6.824697025603624 1 0 0
236 79 1 0.5897 -2.151913841626344 7.368447944122503 7.388426027581755 0 0 0
293 98 1 0.5897 -3.7821160560018114 10.299217220427998 7.26385855519634 1 0 0
237 79 1 0.5897 -1.8198759094955035 8.5140751252269 8.320856228016087 0 0 0
110 37 1 0.5897 -4.12500165022732 6.117284479572895 6.464482903108996 1 0 0
302 101 1 0.5897 -1.9430199890526145 10.003124623007812 5.788068129638289 1 0 0
235 79 2 -1.1794 -1.4180308493879448 7.80000164343285 7.8259807219626305 0 0 0
301 101 2 -1.1794 -2.2700764280564885 10.733138969922216 6.313814176867069 1 0 0
7 3 2 -1.1794 -0.3780234097017434 6.366012751432118 5.103861423979236 0 0 0
691 231 2 -1.1794 -1.9275081870035735 9.96176495032258 9.434771790165232 0 0 0
837 279 1 0.5897 -5.418931497085013 7.966295169855867 9.40280109463572 1 0 0
257 86 1 0.5897 -4.0389862635045874 8.229711554438824 5.039974954363229 1 0 0
258 86 1 0.5897 -4.737134083560267 9.13993955393034 6.027914391071166 1 0 0
254 85 1 0.5897 -1.3782264942322322 7.924940502620132 4.981566289197089 1 0 0
793 265 2 -1.1794 -5.834890122697189 10.10379225759704 11.707764741189006 1 0 0
794 265 1 0.5897 -5.1633494525786485 10.74522633944653 11.939832541884886 1 0 0
835 279 2 -1.1794 -4.7155410720552045 8.522818216119044 9.737107648464027 1 0 0
836 279 1 0.5897 -4.138479199714032 7.922613266820205 10.209296909656588 1 0 0
649 217 2 -1.1794 -3.3736365952656073 6.762017837974729 11.33300766300441 1 0 0
759 253 1 0.5897 -5.424244180179439 8.81054087014945 13.17797822487813 1 0 0
651 217 1 0.5897 -4.157729395609122 6.602677481093441 11.858353213662541 1 0 0
795 265 1 0.5897 -5.4191029365401775 9.549006905148364 11.047747915549435 1 0 0
616 206 2 -1.1794 -6.056093924599541 6.252126375649905 11.929351809234122 1 0 0
650 217 1 0.5897 -2.9829045221072046 7.54695788261443 11.71707642843436 1 0 0
757 253 2 -1.1794 -5.306610830732593 8.66941292682038 14.117415313078569 1 0 0
513 171 1 0.5897 -3.83545622071028 5.99328237618742 14.131324305993184 0 0 0
618 206 1 0.5897 -6.432190370819095 5.684401264069909 11.256607672752358 1 0 0
617 206 1 0.5897 -6.691169706584795 6.961600854051068 12.027201746464899 1 0 0
693 231 1 0.5897 -2.19613981821501 9.62386108513109 10.289093135289994 0 0 0
728 243 1 0.5897 -3.357875913614466 11.140154748840747 13.350845492158287 0 0 0
741 247 1 0.5897 -5.124195640878302 8.82064150811792 18.023003594345916 0 0 0
796 266 2 -1.1794 -7.82585982776534 10.274785066505821 16.985233330560646 1 0 0
758 253 1 0.5897 -5.377014054396058 9.543129142822005 14.502086954638347 1 0 0
805 269 2 -1.1794 -5.302308213165681 11.002472709070672 15.583198632355993 1 0 0
797 266 1 0.5897 -6.9265712894059295 10.584104443310421 16.87667751552722 1 0 0
614 205 1 0.5897 -6.896143323890659 5.655557663896624 17.263103836303777 1 0 0
333 111 1 0.5897 -7.793629685091482 8.978887809872191 18.34624762387709 1 0 -1
740 247 1 0.5897 -5.8615636258111365 7.885231297503848 17.088436019443762 0 0 0
739 247 2 -1.1794 -4.989030714122203 8.22628017846563 17.284906431736786 0 0 0
613 205 2 -1.1794 -6.966802452263165 6.405022982946307 16.671881833325394 1 0 0
615 205 1 0.5897 -6.775774604452175 6.045957026877121 15.80534009452571 1 0 0
512 171 1 0.5897 -3.910939350342682 7.406629348634704 14.668776515496557 0 0 0
798 266 1 0.5897 -8.363785372613297 10.95233560868063 16.57562469163222 1 0 0
761 254 1 0.5897 -7.250409360072785 8.331707456467544 14.497932965613655 1 0 0
315 105 1 0.5897 -0.34806100572093523 13.98288084926037 1.0804817492327268 1 0 0
225 75 1 0.5897 -0.700820454551212 12.529066786711253 4.1670196220894375 0 0 0
501 167 1 0.5897 -1.2669224165956638 16.180812140749516 0.6044141950625945 1 0 0
499 167 2 -1.1794 -1.9783469917127312 16.783029607743668 0.3866153312829554 1 0 0
280 94 2 -1.1794 -3.184783535145912 14.31193522007554 2.588297982625537 1 0 0
282 94 1 0.5897 -2.307353661342406 14.52871556328088 2.2731959466797775 1 0 0
313 105 2 -1.1794 -0.563382503010093 14.713359461174974 1.6604125399333087 1 0 0
314 105 1 0.5897 0.24357534997549912 15.225675655657177 1.7109532234762157 1 0 0
281 94 1 0.5897 -3.0631893269474615 14.10819162152359 3.5156571617893424 1 0 0
223 75 2 -1.1794 -0.6651134840325894 11.71585488872444 3.6632956551545965 0 0 0
423 141 1 0.5897 -1.96292228724261 16.29341012746201 4.348823183517858 1 0 0
269 90 1 0.5897 -3.3721651706628046 12.81740789096819 1.5508706061039272 1 0 0
770 257 1 0.5897 -1.5157182248572731 12.36439770555999 0.14597075622926595 1 0 1
306 102 1 0.5897 -4.196069434403041 11.493093104494315 4.133935452263088 1 0 0
265 89 2 -1.1794 -3.5135711825406633 12.117725373710133 9.466582383098396 1 0 0
327 109 1 0.5897 -3.752229139351458 13.458762464426808 5.773065726635018 1 0 0
403 135 2 -1.1794 -2.2035201720306565 15.941905844498269 8.48845549587667 0 0 0
267 89 1 0.5897 -3.427485066515669 12.607432364394212 8.648657808930112 1 0 0
277 93 2 -1.1794 -4.020205026521316 14.103818546139546 7.552110649451895 1 0 0
278 93 1 0.5897 -3.5784250475822947 14.83630509647071 7.981774425360868 1 0 0
326 109 1 0.5897 -2.7826176891297907 12.337133014851297 5.466932833548169 1 0 0
405 135 1 0.5897 -2.2444573912113057 16.80191824669276 8.906797769693782 0 0 0
279 93 1 0.5897 -4.936788782966875 14.189248939291609 7.814317747175955 1 0 0
404 135 1 0.5897 -1.3485138154327716 15.924608917781704 8.058520098489971 0 0 0
175 59 2 -1.1794 -0.3800255896040965 13.82021038396119 5.413781255322813 0 0 0
1004 335 1 0.5897 -4.568414749036036 16.933877308681797 9.08732449054226 1 0 0
266 89 1 0.5897 -2.8741861512345976 11.40945017526882 9.390661277304185 1 0 0
325 109 2 -1.1794 -3.4128600252972463 12.926919737644667 5.05317525180382 1 0 0
176 59 1 0.5897 -0.8425039728948551 14.64329185297035 5.256002664335236 0 0 0
421 141 2 -1.1794 -2.0319897186367957 16.09768958529701 5.283264345955373 1 0 0
425 142 1 0.5897 -3.843378644112458 16.2888879897972 5.185852375836839 1 0 0
422 141 1 0.5897 -2.001951292247723 16.953683485540367 5.710692523278169 1 0 0
774 258 1 0.5897 -5.336647659320022 12.058450734811114 9.613664642606588 1 0 0
786 262 1 0.5897 -6.43208325428933 13.569207459802904 12.888656582794821 1 0 0
817 273 2 -1.1794 -3.53930719327106 14.46849410955661 11.132203395051723 1 0 0
784 262 2 -1.1794 -6.122081977831436 13.94931917998635 12.06668527020463 1 0 0
819 273 1 0.5897 -4.289542482960153 14.476343601007962 11.726575403116906 1 0 0
818 273 1 0.5897 -3.6969472923763886 13.720134174409 10.55652024449556 1 0 0
925 309 2 -1.1794 -5.418728394801899 16.571419168231767 14.110715919364056 1 0 0
729 243 1 0.5897 -3.9958357534505335 12.513068123497668 13.356049919270376 0 0 0
1005 335 1 0.5897 -4.351844786413061 15.75361041283347 10.01032082445038 1 0 0
727 243 2 -1.1794 -3.67804234181111 11.828256681451006 12.767544921354528 0 0 0
1003 335 2 -1.1794 -4.970371706745588 16.457097216608613 9.813471286726863 1 0 0
785 262 1 0.5897 -6.788087613255399 14.596763682361729 11.835412080214727 1 0 0
829 277 2 -1.1794 -6.919719000595462 12.720860222379196 14.349387917747732 1 0 0
927 309 1 0.5897 -6.329864281355478 16.29361358562468 14.204711068236495 1 0 0
773 258 1 0.5897 -6.217090548803361 12.762588603437981 10.624077900783947 1 0 0
772 258 2 -1.1794 -6.22337421518656 12.396069012728036 9.73979974133719 1 0 0
831 277 1 0.5897 -7.614074936956764 12.085136782637782 14.176249188264308 1 0 0
907 303 2 -1.1794 -5.29357692730056 15.919955796359368 17.48893910204093 0 0 0
909 303 1 0.5897 -4.951491264830445 15.305264508503106 18.138067805507312 0 0 0
769 257 2 -1.1794 -6.9244465741382 12.661654581914812 18.858297575258284 1 0 0
783 261 1 0.5897 -7.244798345698586 13.67206125993332 17.495236128067667 1 0 0
781 261 2 -1.1794 -7.466575048617347 14.172407643395367 16.70991811693831 1 0 0
830 277 1 0.5897 -7.286229947047438 13.300860580214723 15.016902869066248 1 0 0
782 261 1 0.5897 -6.815394297810505 14.873324574857598 16.680131847256348 1 0 0
908 303 1 0.5897 -4.519975944098234 16.22086902449409 17.01235052141972 0 0 0
500 167 1 0.5897 -8.906400137170438 16.363880596657815 18.927119812371593 1 0 -1
680 227 1 0.5897 -4.703508270717872 14.90573858943315 14.619432167251398 0 0 0
807 269 1 0.5897 -4.570443485721293 11.420562752683134 16.036888549508472 1 0 0
806 269 1 0.5897 -5.720419101184298 11.712887378870526 15.096644937523727 1 0 0
771 257 1 0.5897 -6.494538142391672 11.806422227006774 18.854971169380583 1 0 0
679 227 2 -1.1794 -4.088636549180322 14.172173569596767 14.6239630334467 0 0 0
357 119 1 0.5897 -5.29239096957631 17.22926554799918 18.620507457568202 0 0 -1
458 153 1 0.5897 -2.2777211075563057 17.374649702349103 2.032237404327415 1 0 0
483 161 1 0.5897 -1.2096095277240293 22.53493766867901 2.4967980270754233 1 0 0
355 119 2 -1.1794 0.8847450070351739 17.858267121943747 0.18702174445018316 0 0 0
391 131 2 -1.1794 -0.5195454082771174 19.662864385879043 3.5163251115748495 0 0 0
937 313 2 -1.1794 -1.0108651472193366 19.876285560748123 0.35197424897903584 1 0 1
448 150 2 -1.1794 -3.478578656535033 21.781645786476886 2.5673470816407997 1 0 0
495 165 1 0.5897 -3.6450473821387313 20.908485486427928 4.091514237771946 1 0 0
393 131 1 0.5897 -0.7856681567251549 20.482588291266783 3.932897702459891 0 0 0
457 153 2 -1.1794 -2.399431853318893 17.582165073530426 2.9587510686341494 1 0 0
459 153 1 0.5897 -1.7797651857488126 18.291513427654245 3.129313089464158 1 0 0
938 313 1 0.5897 -0.7838551107044691 20.33905538920793 1.1586063027406162 1 0 1
481 161 2 -1.1794 -0.5594329508653502 22.50785420298671 1.7948421991866603 1 0 0
493 165 2 -1.1794 -3.721247092992771 20.255569780304025 4.787302724811246 1 0 0
356 119 1 0.5897 1.0311623414025872 17.50163548037303 1.0631769015253454 0 0 0
939 313 1 0.5897 -0.4487789581314212 19.101487368399688 0.3534612289214412 1 0 1
437 146 1 0.5897 -2.985894136055926 19.656948408137232 0.33321695972630333 1 0 0
494 165 1 0.5897 -3.971981283427437 20.758683293820955 5.56211248908004 1 0 0
460 154 2 -1.1794 -4.390621875387229 17.818055746528163 7.698058498154766 1 0 0
471 157 1 0.5897 -2.8147767004421635 18.46128702826517 7.026688691298419 1 0 0
470 157 1 0.5897 -2.456910243337064 19.30133412065213 5.819209525370211 1 0 0
445 149 2 -1.1794 -4.2007367131126045 21.6016849593587 7.084463631847596 1 0 0
446 149 1 0.5897 -4.004782826162606 21.144045786358348 7.902038915622842 1 0 0
447 149 1 0.5897 -5.043789705864668 22.02627266493076 7.243204321105863 1 0 0
469 157 2 -1.1794 -2.085700816997875 18.68125756972353 6.446837473211706 1 0 0
345 115 1 0.5897 -1.2931753283871488 22.841307355203757 5.019614647189245 0 0 0
344 115 1 0.5897 -0.7391923259910396 21.6886224038239 5.829769899309529 0 0 0
462 154 1 0.5897 -4.580583451297803 17.243727606117222 6.956156852652197 1 0 0
461 154 1 0.5897 -5.070799096094776 18.49053928370531 7.661302081482923 1 0 0
433 145 2 -1.1794 -3.943825523218518 20.367404270646734 9.48398013375564 1 0 0
435 145 1 0.5897 -4.891829469957999 20.347257472920784 9.614611392727658 1 0 0
343 115 2 -1.1794 -0.8269171012030649 22.009896305370738 4.932352509607034 0 0 0
897 299 1 0.5897 -3.2082604537055053 19.037555177070743 13.312090832975194 0 0 0
952 318 2 -1.1794 -6.19247611534036 21.522414842953026 12.238509425630644 1 0 0
859 287 2 -1.1794 -2.160253760988742 18.197254431879543 10.052665653820345 0 0 0
848 283 1 0.5897 -3.844398212008139 21.017780368238206 14.312468296973364 0 0 0
895 299 2 -1.1794 -3.7044397824342843 19.698041341940772 12.828548349816558 0 0 0
896 299 1 0.5897 -4.459660089244222 19.223822031168982 12.480656224793988 0 0 0
985 329 2 -1.1794 -3.816675104826315 22.408563692405853 11.265826929905232 1 0 0
998 333 1 0.5897 -6.812778562979799 21.192794401548372 13.942012493344272 1 0 0
954 318 1 0.5897 -5.302348284015379 21.87437202570511 12.237694325970422 1 0 0
961 321 2 -1.1794 -5.713735185041524 18.04587118601599 11.96856851597324 1 0 0
987 329 1 0.5897 -3.0652497521901854 22.861825733820023 11.648163193639189 1 0 0
434 145 1 0.5897 -3.643446973006342 21.1023858929867 10.018687839896314 1 0 0
860 287 1 0.5897 -2.785590236577251 18.886987735586544 9.83026587907746 0 0 0
963 321 1 0.5897 -5.4001936494224765 17.538717541093348 11.219702387610077 1 0 0
953 318 1 0.5897 -6.714173904119427 22.18810063515961 11.79024320314573 1 0 0
962 321 1 0.5897 -5.62167202816657 17.453682149639615 12.714937931953962 1 0 0
964 322 2 -1.1794 -7.755933125389089 17.865257918426128 16.939267486279732 1 0 0
999 333 1 0.5897 -6.335481877952945 20.232955610079816 15.011050729155455 1 0 0
847 283 2 -1.1794 -3.8619769354536047 21.736300132583875 14.944733325425203 0 0 0
974 325 1 0.5897 -5.943646379693121 18.117069847974808 16.30264564122215 1 0 0
973 325 2 -1.1794 -5.385499232992778 18.71309512619222 15.803254838073302 1 0 0
949 317 2 -1.1794 -7.676928373406019 21.88602824094123 17.341852453924034 1 0 0
950 317 1 0.5897 -7.577654387535396 21.4538688669179 16.49349707871312 1 0 0
951 317 1 0.5897 -7.605025469788988 21.177851786772447 17.981801768021825 1 0 0
975 325 1 0.5897 -4.601084569384713 18.815466574348413 16.34222599142251 1 0 0
966 322 1 0.5897 -7.606362810097272 17.77639270376344 17.880563322724193 1 0 0
997 333 2 -1.1794 -7.053093455826492 20.827958663362853 14.793703833555304 1 0 0
572 191 1 0.5897 -5.940871580886638 22.599771966661724 17.244309396963864 0 -1 0
573 191 1 0.5897 -4.818965045260273 22.58692770880296 18.260768397490764 0 -1 0
965 322 1 0.5897 -8.4780691855625 18.489603844360413 16.868912505617757 1 0 0
571 191 2 -1.1794 -5.138793716042123 23.059583587824246 17.49228939151554 0 -1 0
926 309 1 0.5897 -5.372996820346709 17.406159864138715 14.577019782355912 1 0 0
70 24 2 -1.1794 3.993978772702163 0.32912758354821103 1.3416381734867675 0 0 0
54 18 1 0.5897 3.5494258312622984 3.3408853735669513 2.896975913257056 0 0 0
52 18 2 -1.1794 4.149200353937816 2.877386562199523 3.4815221073111977 0 0 0
46 16 2 -1.1794 2.192954879180734 4.716405848914363 2.7480333374532835 0 0 0
31 11 2 -1.1794 1.5243202320756035 1.057751799764003 2.2684435532196887 0 0 0
21 7 1 0.5897 1.2747244981047015 1.8588897126430033 0.6070564305870442 0 0 0
6 2 1 0.5897 3.4453176214649233 1.6713710401200053 4.800844559138421 0 0 0
78 26 1 0.5897 0.2588993809321898 2.7143081414828383 4.674041011130731 0 0 0
71 24 1 0.5897 3.1667570382924275 0.6064777442445035 1.7353104208188732 0 0 0
32 11 1 0.5897 1.4476035342232247 1.4024134511767354 3.158189925851235 0 0 0
16 6 2 -1.1794 5.666706766966319 4.431769241558081 0.45823852300439694 0 0 0
72 24 1 0.5897 4.467759615210988 -0.09854061033750883 2.0550058901230512 0 0 0
47 16 1 0.5897 2.5331653942107124 5.162181571181444 1.9723085279787735 0 0 0
48 16 1 0.5897 2.22056969839407 5.379836354857361 3.4375522884505196 0 0 0
33 11 1 0.5897 0.8849369718376581 0.34642006272897063 2.2305856507569826 0 0 0
44 15 1 0.5897 0.1292716051780607 5.299051461576737 8.185910473983206 0 0 0
58 20 2 -1.1794 2.7690166076921567 4.300992978409071 5.95913591571378 0 0 0
43 15 2 -1.1794 0.17049776581499465 4.887416763505137 7.3226629603676985 0 0 0
34 12 2 -1.1794 0.35124661242903965 1.0136461847857634 7.630391102941638 0 0 0
35 12 1 0.5897 0.4433065188480203 1.7447665807918127 8.241391824061415 0 0 0
36 12 1 0.5897 -0.5902910473233578 0.8442053819279753 7.598977376038298 0 0 0
59 20 1 0.5897 2.169158474752477 3.7537463607705197 5.452183841456127 0 0 0
522 174 1 0.5897 2.4964240479153093 5.064381776425885 9.232782929130545 0 0 0
45 15 1 0.5897 1.1029279225681865 4.727067580287717 7.177562205816005 0 0 0
77 26 1 0.5897 0.4801066577210884 1.767076862787655 5.834109095574059 0 0 0
60 20 1 0.5897 3.2914357795674096 3.6790130146742595 6.4655588496728 0 0 0
401 134 1 0.5897 2.536808522046867 -0.0593860139871899 9.036440155730817 0 1 0
76 26 2 -1.1794 0.8556151333813311 2.038983908485557 4.996687543799389 0 0 0
5 2 1 0.5897 3.0135597246473056 0.26622291880532045 5.162854923595012 0 0 0
4 2 2 -1.1794 3.7523253730721464 0.8714268780533507 5.22755804079822 0 0 0
552 184 1 0.5897 -2.0778509663924867 3.9596410529632644 12.385639356065067 0 0 0
23 8 1 0.5897 0.8288940922753727 1.7760270997441308 10.387031131022853 0 0 0
536 179 1 0.5897 -1.9647230382779597 1.2236047339608496 12.994147931089394 0 0 0
558 186 1 0.5897 0.10386171664932053 3.5212885001257934 12.678210270664957 0 0 0
556 186 2 -1.1794 0.8316779329816333 3.1660766971087013 13.188451222926002 0 0 0
24 8 1 0.5897 1.2043625721997229 3.193834911194475 10.011922717892249 0 0 0
551 184 1 0.5897 -1.1705694097330275 5.146590038278674 12.630319937162529 0 0 0
576 192 1 0.5897 -0.11124435918985576 0.3025311869850522 11.94802667420417 0 0 0
535 179 2 -1.1794 -1.9656800947798398 0.7368272595277576 12.16990402787518 0 0 0
574 192 2 -1.1794 0.7114172722638443 0.04425850285441413 11.532476513482578 0 0 0
550 184 2 -1.1794 -1.2769549465366081 4.377921945584656 12.069830616967028 0 0 0
537 179 1 0.5897 -2.2323794911050547 1.3790899533663614 11.512174879296733 0 0 0
525 175 1 0.5897 -1.5332904223079749 2.784036988901999 9.935027749820023 0 0 0
587 196 1 0.5897 -0.8162461572218995 5.4317999303907705 10.661073308500992 0 0 0
22 8 2 -1.1794 0.5030546363456851 2.548246946156907 9.924717096850069 0 0 0
557 186 1 0.5897 0.4734103433642245 2.381528297344405 13.603545507146682 0 0 0
539 180 1 0.5897 -2.4466165110320244 1.1457273412869267 17.236147577854233 0 0 0
540 180 1 0.5897 -3.5583186802840947 0.1737380658725436 16.902526786573745 0 0 0
564 188 1 0.5897 -1.7577377677715003 4.596162283989258 16.703468791835974 0 0 0
563 188 1 0.5897 -0.7612764037764199 4.975679457498643 15.628877172172178 0 0 0
562 188 2 -1.1794 -0.9783591003284222 4.278402929422247 16.247660888878713 0 0 0
538 180 2 -1.1794 -2.7089942880731295 0.48771292448486425 16.592313433064653 0 0 0
582 194 1 0.5897 -2.415665239182755 1.5141389836816006 15.272000552429763 0 0 0
547 183 2 -1.1794 -3.61595322821466 4.777124043376804 17.006227498512402 0 0 0
580 194 2 -1.1794 -2.202827996520578 2.107818980032127 14.551970416051743 0 0 0
581 194 1 0.5897 -1.600604757430263 2.7449257227457258 14.936312160993824 0 0 0
527 176 1 0.5897 -3.268796160137293 2.5979968276333456 18.62312141039814 0 0 0
526 176 2 -1.1794 -2.3173612880965555 2.502860645346177 18.579452512876202 0 0 0
549 183 1 0.5897 -4.028769501345731 4.034992473973976 16.564478885175674 0 0 0
548 183 1 0.5897 -3.520034048623592 5.4401891383939285 16.322585212785263 0 0 0
528 176 1 0.5897 -2.129934151533912 1.7226908337650828 19.101387289422426 0 0 0
18 6 1 0.5897 -0.9830005004552742 3.808073020718603 18.986251973559632 0 0 -1
200 67 1 0.5897 1.0450366923720757 7.892558562212864 2.303038739289826 0 0 0
220 74 2 -1.1794 3.736098653883843 10.48401250454553 3.5996757323465065 0 0 0
240 80 1 0.5897 3.5958086287097206 7.4733010768781165 1.4435011732625767 0 0 0
222 74 1 0.5897 3.2606783914518953 11.084146230563649 3.0252140382159354 0 0 0
238 80 2 -1.1794 4.013948299150964 8.083977348524453 2.0506049480947226 0 0 0
174 58 1 0.5897 3.9551971424210395 9.215586596688475 4.728769049436112 0 0 0
239 80 1 0.5897 4.356103869066424 8.78157574887467 1.491613432393511 0 0 0
201 67 1 0.5897 2.296692753236308 8.492769150557004 2.907272459912568 0 0 0
245 82 1 0.5897 1.005028321942656 9.11428510328949 4.516235493525864 0 0 0
199 67 2 -1.1794 1.3553624739193015 8.639609490804578 2.8148469243287937 0 0 0
82 28 2 -1.1794 2.843776198812698 6.367181513807522 0.28227510590084115 0 0 0
221 74 1 0.5897 4.606997696978537 10.416547701438121 3.208336801016169 0 0 0
12 4 1 0.5897 1.2532198925558493 6.676352752506714 4.849726962476613 0 0 0
188 63 1 0.5897 2.1660178760255713 10.17899609682114 0.21905203387655647 0 0 0
64 22 2 -1.1794 2.6557847556802354 6.423791558144133 8.303127977433975 0 0 0
192 64 1 0.5897 1.212696376234959 9.802870406995869 8.859370466102213 0 0 0
228 76 1 0.5897 1.510298457053647 11.218993844096625 5.908857877638051 0 0 0
202 68 2 -1.1794 1.227126421186103 8.641256421327501 7.4078144241985395 0 0 0
204 68 1 0.5897 1.711931375519102 7.818531910924175 7.473750746348257 0 0 0
203 68 1 0.5897 0.30762098140466865 8.384002343263475 7.475026507467916 0 0 0
692 231 1 0.5897 -0.9711812038600858 9.97650823598964 9.472478213464838 0 0 0
246 82 1 0.5897 0.9648589952231417 9.494593987693976 5.981115523293315 0 0 0
588 196 1 0.5897 -1.2090749364502722 6.313301826563429 9.494626235102672 0 0 0
209 70 1 0.5897 3.4000739914167957 10.90630480873113 7.414202129843891 0 0 0
173 58 1 0.5897 3.6612566842089063 7.865005894461195 5.346337252764129 0 0 0
8 3 1 0.5897 -0.20539629046719554 6.07071647523298 5.997873079659424 0 0 0
244 82 2 -1.1794 0.5979633104262239 9.72749736076653 5.128245175978231 0 0 0
11 4 1 0.5897 2.4756163962128106 5.900290626872771 5.291751999332986 0 0 0
66 22 1 0.5897 3.2904055809085078 6.234647487899899 7.6119911977085675 0 0 0
10 4 2 -1.1794 2.209643368532636 6.712738409297635 4.861131779471681 0 0 0
703 235 2 -1.1794 -1.9768210169563547 8.970461793619531 12.011829885013551 0 0 0
744 248 1 0.5897 0.4069089348491133 7.055553868286747 10.791689535407876 0 0 0
705 235 1 0.5897 -1.815815092122243 9.465061614930583 12.815444224558876 0 0 0
742 248 2 -1.1794 0.6917185782427135 7.783611173588227 11.34409470365381 0 0 0
724 242 2 -1.1794 0.5572898092968899 11.046498921548775 12.799418631606779 0 0 0
743 248 1 0.5897 0.837610371279621 8.505726118154115 10.73296711004098 0 0 0
704 235 1 0.5897 -1.122832787969482 8.606120909141673 11.779097011527254 0 0 0
586 196 2 -1.1794 -0.46454927963668036 5.845384810028378 9.872747754995792 0 0 0
678 226 1 0.5897 0.16241587477188446 9.563869885270783 14.183998812436647 0 0 0
191 64 1 0.5897 1.4246111136603092 10.861553352713162 9.920692031785784 0 0 0
190 64 2 -1.1794 0.8870184167339086 10.098192731737116 9.709652544326973 0 0 0
569 190 1 0.5897 -0.821652113166599 6.351709635765932 18.578173093339124 0 0 0
568 190 2 -1.1794 -0.678973198079432 7.019609061363988 17.907520737933964 0 0 0
706 236 2 -1.1794 -2.425165307651441 8.813923558390693 16.664091583450805 0 0 0
84 28 1 0.5897 -3.3707393494529843 5.778922475853417 18.661323495594353 0 0 -1
707 236 1 0.5897 -3.3186323880675657 8.480565793596867 16.74635209063365 0 0 0
708 236 1 0.5897 -1.884407767567743 8.164677924146426 17.113826308148106 0 0 0
750 250 1 0.5897 -2.32634563530873 9.695629884485816 15.139877616587352 0 0 0
695 232 1 0.5897 -2.3018632192838426 9.782755268510986 18.19814359806066 0 0 0
749 250 1 0.5897 -1.6463970317103307 11.010394173717694 14.82216178456157 0 0 0
83 28 1 0.5897 -4.1001958381480605 7.079682529739206 18.92192437291714 0 0 -1
570 190 1 0.5897 -0.05990794070159211 6.618651980407053 17.297425321878997 0 0 0
748 250 2 -1.1794 -2.1488691921791725 10.30155747807947 14.420452135682153 0 0 0
516 172 1 0.5897 -0.11112733405319641 7.042984428446937 14.490846486043266 0 0 0
676 226 2 -1.1794 0.4923852207577841 8.805098878411972 14.66525617561461 0 0 0
694 232 2 -1.1794 -2.3459380314410474 10.164142019593779 19.075036978803517 0 0 0
514 172 2 -1.1794 -0.5917004458790167 6.223566357102823 14.373060156702348 0 0 0
515 172 1 0.5897 -1.5063341285677563 6.456872277458105 14.531779895181671 0 0 0