LAMMPS data file via write_data, version 30 Jul 2021, timestep = 22500000

1008 atoms
2 atom types
672 bonds
1 bond types
336 angles
1 angle types

-3.0342779865642022 14.64427698611475 xlo xhi
-0.12335623171502164 22.703355231709857 ylo yhi
-0.03365271666592129 19.26365071665947 zlo zhi
-0.37928030961995957 -6.4568506670060195 0.30659945614588907 xy xz yz

Masses

1 1.008
2 15.999

Pair Coeffs # lj/cut/tip4p/long/omp

1 0 0
2 0.21084 3.1668

Bond Coeffs # harmonic/omp

1 450 0.9572

Angle Coeffs # harmonic/omp

1 55 104.52

Atoms # full

55 19 2 -1.1794 -0.8056749087697619 4.343908050490522 3.271833385889066 0 0 0
56 19 1 0.5897 -1.3213056806709402 3.7179882077225748 2.763303892907381 0 0 0
57 19 1 0.5897 0.035977126467950704 4.386424697861819 2.817896739593949 0 0 0
121 41 2 -1.1794 -2.39628592518361 2.469450514948167 2.1098579805952253 1 0 0
122 41 1 0.5897 -2.27624234222355 2.0716899589022777 1.2475642153992705 1 0 0
21 7 1 0.5897 1.541406942705163 2.482112987337937 0.8547204117486066 0 0 0
31 11 2 -1.1794 1.4276699132861346 1.4739129827029953 2.2835867590889376 0 0 0
86 29 1 0.5897 -2.287237154480387 1.5890703330612088 3.692987749250827 1 0 0
32 11 1 0.5897 1.261538491988854 1.7911274546905185 3.1712412856640952 0 0 0
46 16 2 -1.1794 1.7244608872524267 4.797809852816095 2.4452899378124138 0 0 0
4 2 2 -1.1794 3.7171052506438365 1.1651612595096488 5.425515307735333 0 0 0
401 134 1 0.5897 2.320183965863418 0.1393053826870697 9.093539706965807 0 1 0
5 2 1 0.5897 3.070014089246156 0.5200238971562511 5.1403224483404255 0 0 0
71 24 1 0.5897 3.289940424670869 0.9495072492993217 2.135476524177723 0 0 0
522 174 1 0.5897 2.097730493880796 5.4438378221758 9.056381967717723 0 0 0
123 41 1 0.5897 -3.3400048686217385 2.6144990877894836 2.1779774349413046 1 0 0
53 18 1 0.5897 4.44444962544059 3.156644542875206 2.875040551131387 0 0 0
54 18 1 0.5897 3.046096275650294 3.725316692305752 2.990177239094436 0 0 0
70 24 2 -1.1794 4.043452245175845 0.6174697723082598 1.6473970201932904 0 0 0
48 16 1 0.5897 1.967312206131668 5.480814981377696 3.0703921641506793 0 0 0
602 201 1 0.5897 -0.22891710682848698 5.287148789711234 0.6392269467353757 1 0 1
52 18 2 -1.1794 3.661024970692881 3.1342345685000628 3.4245481564218263 0 0 0
72 24 1 0.5897 4.394495460411372 -0.08405861614754301 2.1957943947859793 0 0 0
67 23 2 -1.1794 -2.2616621801533774 0.2749539683421146 8.315918721785208 0 0 0
482 161 1 0.5897 -0.8880193112271755 0.1552419802269691 0.7112507138735548 1 1 0
124 42 2 -1.1794 -4.889121023174288 2.44385618667045 7.317614960374857 1 0 0
47 16 1 0.5897 2.0181841574358304 5.132473730425687 1.5980768026961658 0 0 0
159 53 1 0.5897 -3.215521554622584 4.091186307177131 5.214330155987969 1 0 0
87 29 1 0.5897 -3.1800567316828827 0.7911326064062503 4.619184142603617 1 0 0
85 29 2 -1.1794 -2.2764098863171593 1.0864248277743513 4.507410326975236 1 0 0
45 15 1 0.5897 0.5046596411176654 4.6795730861700955 7.038035915473287 0 0 0
78 26 1 0.5897 0.03850357248769409 3.089105149925546 4.492164671386955 0 0 0
76 26 2 -1.1794 0.7394477970065338 2.4848649910414644 4.736719885418149 0 0 0
59 20 1 0.5897 1.6454023031409362 3.5552098651970603 5.602471603670217 0 0 0
43 15 2 -1.1794 -0.39208498130668756 4.865410582371918 7.316601794338201 0 0 0
60 20 1 0.5897 2.7224382277092243 3.781207880066659 6.642079268039061 0 0 0
34 12 2 -1.1794 0.13062205745154376 1.1618482735587252 7.18195442557066 0 0 0
35 12 1 0.5897 0.46819933147641324 1.793022554795744 7.817477283232289 0 0 0
36 12 1 0.5897 -0.617367448587876 0.7563586555072964 7.620462603178065 0 0 0
33 11 1 0.5897 0.7195230240699737 0.8525231649889111 2.1142967038168967 0 0 0
158 53 1 0.5897 -4.216228635406329 4.305276709795344 4.098757681967946 1 0 0
157 53 2 -1.1794 -3.790717352474612 4.752786494552583 4.830119250317377 1 0 0
58 20 2 -1.1794 1.9732944029706303 4.205434121729199 6.223707590790527 0 0 0
44 15 1 0.5897 -0.29498711710356895 5.29957565602133 8.164101577968308 0 0 0
6 2 1 0.5897 3.7388603950905095 1.8113714084127828 4.719821461726667 0 0 0
135 45 1 0.5897 -1.7182181374005663 3.5498504210391415 6.998194981631107 1 0 0
126 42 1 0.5897 -3.984361868181985 2.6897202827787976 7.124798583611514 1 0 0
77 26 1 0.5897 0.38553309810782865 1.9945743831498577 5.478639647893465 0 0 0
134 45 1 0.5897 -2.060545457611536 2.2608541871044068 6.281803721281197 1 0 0
133 45 2 -1.1794 -2.4207234868677556 3.1170433053564377 6.5130107384808 1 0 0
69 23 1 0.5897 -2.6480383686539 0.9529744540636398 8.870210941234108 0 0 0
98 33 1 0.5897 -3.7097281596166956 5.034540610227174 8.701552383930505 1 0 0
669 223 1 0.5897 -5.029374200050543 1.5237739973079873 8.913835304102575 1 0 0
101 34 1 0.5897 -2.324784202966211 4.474163558729398 -0.01611979352183751 1 0 0
527 176 1 0.5897 4.42938745335968 1.8356629309022088 0.23777122197120498 0 0 1
16 6 2 -1.1794 5.3552147654340665 4.790425228315643 0.25367690793453224 0 0 0
629 210 1 0.5897 -8.562798237032329 3.5403753052706763 16.64567890430648 1 0 0
626 209 1 0.5897 -5.4883104162841345 2.132186741207909 12.598208375913103 1 0 0
630 210 1 0.5897 -7.996324368565463 2.260329690224945 16.069012920904783 1 0 0
603 201 1 0.5897 -6.189592350194598 4.35378785146946 19.22363104302933 1 0 0
536 179 1 0.5897 -2.1809687677144867 1.625209310821164 13.32021623942146 0 0 0
587 196 1 0.5897 -0.9228874652109402 5.546884602859204 10.461760118347662 0 0 0
576 192 1 0.5897 -0.4232749011657573 0.44790079112996894 11.582010863349636 0 0 0
628 210 2 -1.1794 -7.878087357445928 2.8859011237465837 16.783788208997137 1 0 0
535 179 2 -1.1794 -1.8723872971248046 1.101867016864636 12.580552384088453 0 0 0
20 7 1 0.5897 -5.231245485917146 2.4499709307079236 18.710777240370746 0 0 -1
537 179 1 0.5897 -2.0609476469372527 1.639183736730397 11.811258498894631 0 0 0
561 187 1 0.5897 -3.478759578179255 3.683550739948879 13.640839524750191 0 0 0
591 197 1 0.5897 -4.793132832601791 0.538937433279969 14.477531720522313 1 0 0
164 55 1 0.5897 -8.266795700778529 2.0548253851194174 18.314986670678714 1 0 -1
663 221 1 0.5897 -7.261672302297855 4.598932995018617 14.173148195853617 1 0 0
557 186 1 0.5897 0.47415169037874527 2.6654348534932932 13.337040448746146 0 0 0
558 186 1 0.5897 -0.06705269454309715 4.004397198416241 12.88312366719776 0 0 0
559 187 2 -1.1794 -3.8947705322591553 4.378054778197882 13.130217030594554 0 0 0
560 187 1 0.5897 -4.653708352172016 3.9572081909913726 12.726282290718517 0 0 0
625 209 2 -1.1794 -5.771267356810246 2.619329995876916 11.824445185623814 1 0 0
668 223 1 0.5897 -5.343093379435876 1.4271274130964688 10.391591820678123 1 0 0
556 186 2 -1.1794 0.7381880628512247 3.5687685274300396 13.162520870636797 0 0 0
580 194 2 -1.1794 -2.4580504875683147 2.6862691278194295 14.723697639852075 0 0 0
552 184 1 0.5897 -2.211893615797015 4.646339263757719 12.291349665118371 0 0 0
589 197 2 -1.1794 -5.2653955865918185 1.263258906331723 14.067044740944574 1 0 0
550 184 2 -1.1794 -1.3104611514707667 4.920081343252346 12.121775261524457 0 0 0
99 33 1 0.5897 -3.5508344745834464 5.738739644771408 10.032203653466453 1 0 0
508 170 2 -1.1794 0.637975064011072 1.0230298247506835 14.490950766827499 0 0 0
23 8 1 0.5897 0.6390997307897424 1.9256702919537663 10.093702693524072 0 0 0
582 194 1 0.5897 -1.7650605458962962 3.229426950865602 15.099202274905862 0 0 0
574 192 2 -1.1794 0.4163693364107308 0.370685036012501 11.12891997281168 0 0 0
547 183 2 -1.1794 -3.642188755193134 5.184486782419569 17.01501843152161 0 0 0
639 213 1 0.5897 -5.63886603802578 4.080790484284137 15.269095184342014 1 0 0
538 180 2 -1.1794 -3.067252859190628 1.1778569230933416 16.786019896747128 0 0 0
540 180 1 0.5897 -3.979674998352067 1.1375961449186787 17.072617146529872 0 0 0
593 198 1 0.5897 -7.190828946756604 0.8833149724740859 14.508727008026037 1 0 0
539 180 1 0.5897 -2.6221377479543806 1.6761759230898559 17.471420576761616 0 0 0
638 213 1 0.5897 -6.156972114197606 3.171842837729908 16.363120906308737 1 0 0
549 183 1 0.5897 -4.17849714452764 4.434127943545793 16.758920531659655 0 0 0
562 188 2 -1.1794 -0.8711195993780931 4.258918467289545 16.33457161727891 0 0 0
520 174 2 -1.1794 2.412990788746982 4.826541744382153 9.716431100827656 0 0 0
564 188 1 0.5897 -1.6624900848509991 4.405601158059352 16.852707556662928 0 0 0
627 209 1 0.5897 -6.624769934375834 2.979076871285023 12.066119419033505 1 0 0
661 221 2 -1.1794 -6.757295490791802 5.357628658830776 14.466803093161303 1 0 0
637 213 2 -1.1794 -5.356830852508336 3.417321094661869 15.898668186985823 1 0 0
571 191 2 -1.1794 -5.553071106843101 0.818387832067569 17.908232948200002 0 0 0
581 194 1 0.5897 -2.8090086295803536 2.196814568592179 15.467567121693534 0 0 0
590 197 1 0.5897 -5.277863479158142 1.950100055579013 14.733578752114877 1 0 0
563 188 1 0.5897 -0.8139960679035063 5.02381346747262 15.762058858441497 0 0 0
548 183 1 0.5897 -3.686806704204413 5.7782430209007 16.265673716574277 0 0 0
551 184 1 0.5897 -1.117368412103331 5.552317982843393 12.814023269659932 0 0 0
523 175 2 -1.1794 -2.3579979101531077 2.3780984338631983 10.120374462738294 0 0 0
528 176 1 0.5897 -3.1305071099588124 2.9958100232396965 18.94638195667965 0 0 0
601 201 2 -1.1794 -6.894618596299676 5.001155119147097 19.21442490491983 1 0 0
526 176 2 -1.1794 -2.2062676714743796 2.7720425958810813 18.836879635521093 0 0 0
165 55 1 0.5897 -8.996304489034902 0.7602930222381334 18.604368926118227 1 0 -1
524 175 1 0.5897 -2.9290702724236732 3.1263160181353706 9.946393457628986 0 0 0
163 55 2 -1.1794 -8.552021142890858 1.4911884164019866 19.03404229317205 1 0 -1
667 223 2 -1.1794 -4.983942780798749 0.9256563380347276 9.659658734750854 1 0 0
572 191 1 0.5897 -6.220461388738007 0.3319866454813321 17.424242943627483 0 0 0
606 202 1 0.5897 -5.58430971005764 4.857529972582079 9.867400227855324 1 0 0
97 33 2 -1.1794 -3.644932978290012 4.8696961151092095 9.642139727070893 1 0 0
19 7 2 -1.1794 -4.853217561253551 3.1351718294525863 19.26199179132722 0 0 -1
525 175 1 0.5897 -1.479155395635018 2.6923677543262197 9.907935963140003 0 0 0
573 191 1 0.5897 -5.168241846445003 0.1728386394162047 18.500932360330616 0 0 0
22 8 2 -1.1794 0.38403378021591417 2.718889060924452 9.62270066702811 0 0 0
18 6 1 0.5897 -1.4892715995404098 4.298098948273763 19.193631140917347 0 0 -1
24 8 1 0.5897 1.0323831784824282 3.3725266798516405 9.884642904074708 0 0 0
289 97 2 -1.1794 -2.9309202188216625 10.26481246760192 2.4379547209276646 1 0 0
332 111 1 0.5897 -2.4461634013912525 9.587465958068348 0.7855365919763199 1 0 0
255 85 1 0.5897 -2.4676992404569216 8.874427659877268 3.9510360580465482 1 0 0
147 49 1 0.5897 -1.1110193509084412 7.652452954134774 0.8646714205644013 1 0 0
146 49 1 0.5897 -1.3956478235863294 6.620937715569715 1.9354107597522787 1 0 0
145 49 2 -1.1794 -0.6846909009578646 6.996454686281841 1.416082996191646 1 0 0
174 58 1 0.5897 3.612590548471431 9.380203135795014 4.305362729221491 0 0 0
112 38 2 -1.1794 -3.0968347519564885 6.391055655280222 2.4710412208436843 1 0 0
257 86 1 0.5897 -4.281447747324889 8.54413269763883 5.084602584388957 1 0 0
9 3 1 0.5897 -0.7420786283135392 5.854424448057786 4.367748229144196 0 0 0
228 76 1 0.5897 1.6240840641023135 11.088495213000595 6.110856076240317 0 0 0
114 38 1 0.5897 -3.294318253578021 5.8100370286137535 1.7364414829612655 1 0 0
201 67 1 0.5897 2.189231489220938 8.367099131139863 2.2780388536838934 0 0 0
188 63 1 0.5897 0.8977616779508613 9.671306017840083 1.186210681322024 0 0 0
200 67 1 0.5897 0.7525759290162193 7.89571392161414 2.2016032965488597 0 0 0
301 101 2 -1.1794 -2.590334872976808 10.809138054588841 6.682743296951897 1 0 0
199 67 2 -1.1794 1.3041013894897544 8.586353021693878 2.5691483179069365 0 0 0
239 80 1 0.5897 3.8873821241836977 8.954315449643637 1.1706794392105877 0 0 0
238 80 2 -1.1794 3.9070474941158047 8.120037395057322 1.6394016916366283 0 0 0
173 58 1 0.5897 3.146316754273978 8.05107650582455 4.860066567064949 0 0 0
10 4 2 -1.1794 2.0912187395696833 6.449995099408549 4.6644452258554665 0 0 0
240 80 1 0.5897 3.4257059933601797 7.515777109582863 1.0742324833622463 0 0 0
245 82 1 0.5897 0.90258301007173 9.407315846213255 4.15592409274291 0 0 0
172 58 2 -1.1794 3.782955809762889 8.75081735828616 5.006030745439931 0 0 0
65 22 1 0.5897 2.116460510499814 7.698427570466734 8.64559363584566 0 0 0
258 86 1 0.5897 -5.195672803006733 9.31853935280291 6.010035089516008 1 0 0
12 4 1 0.5897 1.1799758800821678 6.698786418671672 4.819457221154602 0 0 0
113 38 1 0.5897 -3.3439676708286328 5.888755035162547 3.2473774076493958 1 0 0
303 101 1 0.5897 -1.756496143463921 11.133338586705149 7.023154104025444 1 0 0
290 97 1 0.5897 -2.2586242062301416 10.815561744941393 2.839145916489641 1 0 0
8 3 1 0.5897 -0.4442150968612939 5.9421994816484975 5.84932659385976 0 0 0
291 97 1 0.5897 -3.754811252373437 10.587071117410357 2.8035098898219446 1 0 0
254 85 1 0.5897 -1.8857444690478924 7.793043204585976 4.83622442964418 1 0 0
253 85 2 -1.1794 -2.4618830247983556 8.557236541268928 4.854042309910472 1 0 0
302 101 1 0.5897 -2.365635525283248 9.994218190546666 6.23366839135944 1 0 0
244 82 2 -1.1794 0.6338503264215669 10.032311092023539 4.829267778935026 0 0 0
220 74 2 -1.1794 3.772854731157417 10.954535213425425 3.220208939614336 0 0 0
294 98 1 0.5897 -5.38248348706124 9.816387164900044 8.162703871415061 1 0 0
109 37 2 -1.1794 -4.185060696144415 6.17535691954401 7.14792427137584 1 0 0
7 3 2 -1.1794 -0.593825369480772 6.4831599810640075 5.074090795392162 0 0 0
64 22 2 -1.1794 1.8570688330230647 7.072327071651665 7.969619937799816 0 0 0
237 79 1 0.5897 -2.685295583089122 8.513137961341927 8.583329372950889 0 0 0
187 63 2 -1.1794 0.8659624262028909 10.147775016561045 0.3567343830520931 0 0 0
837 279 1 0.5897 -5.83284350322087 8.054200002973909 9.199844088210796 1 0 0
292 98 2 -1.1794 -5.138283505030543 10.419238595700788 7.460553618693805 1 0 0
191 64 1 0.5897 0.3543006024859854 9.817326901758182 8.933612341695635 0 0 0
293 98 1 0.5897 -4.188698362554829 10.509232650635855 7.540901739366245 1 0 0
202 68 2 -1.1794 -0.03953919827998531 9.036629493638367 7.4685680443561475 0 0 0
203 68 1 0.5897 -0.8853697779684557 8.606596358714198 7.5945497351312445 0 0 0
204 68 1 0.5897 0.6046538027764607 8.338765265993507 7.5878279300842175 0 0 0
246 82 1 0.5897 0.26228281674178433 9.490297229840218 5.525155041844291 0 0 0
235 79 2 -1.1794 -2.2420462570485853 7.732053345806293 8.252141396995402 0 0 0
236 79 1 0.5897 -2.918555574382391 7.25990381847178 7.766682231434411 0 0 0
111 37 1 0.5897 -5.087991686935407 6.471726853132005 7.033194602086256 1 0 0
11 4 1 0.5897 2.2753517271397 5.786641624624482 5.329387701827256 0 0 0
110 37 1 0.5897 -3.944164246885437 5.805289051096977 6.298694608410757 1 0 0
588 196 1 0.5897 -1.2703173131492211 6.534571312683873 9.36845549963596 0 0 0
82 28 2 -1.1794 2.581044942215521 6.165503815763207 0.22750440965222463 0 0 0
66 22 1 0.5897 2.663364055693161 6.894129746941272 7.485481348751575 0 0 0
224 75 1 0.5897 -0.41929879380392787 11.076347739597727 3.9634954254217956 0 0 0
221 74 1 0.5897 4.527826569821141 10.80954174506704 2.6499325293891283 0 0 0
331 111 2 -1.1794 -2.2102683004827774 8.944237062875636 0.117077644878023 1 0 0
189 63 1 0.5897 1.7831499184478492 10.245465252084347 0.10081650281447715 0 0 0
222 74 1 0.5897 3.106873468291937 11.331936832262778 2.645560604279664 0 0 0
694 232 2 -1.1794 3.6623275395443624 10.305764261955341 -0.00655578797214049 0 0 1
836 279 1 0.5897 -4.898246278374378 8.279900861269883 10.369193118635716 1 0 0
83 28 1 0.5897 -4.580944778956684 7.013099846429588 19.16940033887473 0 0 -1
759 253 1 0.5897 -5.583250937136908 9.098967440046685 13.784807283972475 1 0 0
651 217 1 0.5897 -4.6478214206684 7.023512818090753 11.785692045835876 1 0 0
798 266 1 0.5897 -7.931087524402276 9.827294762128009 16.513189628621397 1 0 0
797 266 1 0.5897 -6.832121929932169 10.730969830669384 17.030470804995794 1 0 0
795 265 1 0.5897 -5.812295813711385 9.797325292367956 11.374796205544502 1 0 0
693 231 1 0.5897 -2.4447378372899546 9.695360452363637 10.872948340283715 0 0 0
649 217 2 -1.1794 -3.843914135948737 7.11621335389314 11.2744594476428 1 0 0
650 217 1 0.5897 -3.263867606314388 7.635540540671095 11.83131373723871 1 0 0
742 248 2 -1.1794 0.29552597300850403 8.155103740627514 11.654902654388868 0 0 0
793 265 2 -1.1794 -5.912316837998845 10.098587378862664 12.277785718914613 1 0 0
743 248 1 0.5897 0.3436315983656928 8.959721092112124 11.138801370466096 0 0 0
744 248 1 0.5897 0.02650551651621802 7.483593125089161 11.02807398911092 0 0 0
741 247 1 0.5897 -5.95581588494497 8.902076151990588 18.651493613438845 0 0 0
678 226 1 0.5897 0.43714691123984295 9.197176448856627 14.197695140030529 0 0 0
703 235 2 -1.1794 -2.1434142589342287 8.751082612493104 12.496948776145434 0 0 0
704 235 1 0.5897 -1.234788023495005 8.572700577558237 12.254330811835766 0 0 0
705 235 1 0.5897 -2.0799018349113467 9.288292082969292 13.286613731952155 0 0 0
614 205 1 0.5897 -7.1189319583730954 5.9439801472077125 17.7325396167397 1 0 0
706 236 2 -1.1794 -3.037516681008138 9.038267892734789 17.027585101731468 0 0 0
707 236 1 0.5897 -3.907505155076418 8.671004837790223 17.184107369823842 0 0 0
750 250 1 0.5897 -3.010636999163996 10.69118679161812 14.300062718959971 0 0 0
333 111 1 0.5897 -8.320585042503978 9.772809828557993 18.690814277974233 1 0 -1
570 190 1 0.5897 -0.25405560631359236 7.0737301377498465 17.242660760254964 0 0 0
796 266 2 -1.1794 -7.741058483164993 10.476799264047926 17.19013145305715 1 0 0
748 250 2 -1.1794 -2.295300975319397 10.229774717396099 14.737795048252323 0 0 0
514 172 2 -1.1794 -1.0163646602106438 6.370685546398854 14.395541409883792 0 0 0
708 236 1 0.5897 -2.4366267545395512 8.312660070640893 17.196864060023465 0 0 0
749 250 1 0.5897 -2.7035238148394427 9.825532023335555 15.503322565843213 0 0 0
617 206 1 0.5897 -7.118055270469927 7.313679079993704 12.007311561788546 1 0 0
512 171 1 0.5897 -4.476879917450622 7.339950141158641 14.8098128277784 0 0 0
511 171 2 -1.1794 -3.70740317353276 6.770615734783077 14.813865186248298 0 0 0
515 172 1 0.5897 -1.8720015292486814 6.734041380600718 14.623874314323077 0 0 0
516 172 1 0.5897 -0.415424451032937 7.1129449861584435 14.460089410444441 0 0 0
724 242 2 -1.1794 0.6339508714542239 10.933287595689464 13.347256231085824 0 0 0
757 253 2 -1.1794 -5.510916945346257 8.76521247619143 14.678919525951793 1 0 0
695 232 1 0.5897 -2.8014072220032364 10.224757084565994 18.41561471094405 0 0 0
758 253 1 0.5897 -5.409553654563528 9.548320021939613 15.219943509729399 1 0 0
616 206 2 -1.1794 -6.447055185864105 6.655510178333877 12.188451793162447 1 0 0
762 254 1 0.5897 -7.273300742420815 8.435753811128633 14.968620606432387 1 0 0
568 190 2 -1.1794 -1.068826861449593 7.285286480582565 17.698349923844724 0 0 0
615 205 1 0.5897 -7.047227824376671 5.991344837998246 16.22119243317698 1 0 0
805 269 2 -1.1794 -5.267677171090419 11.06882150194801 16.297075752570592 1 0 0
618 206 1 0.5897 -6.51065817573475 6.04048334542874 11.457757749193508 1 0 0
739 247 2 -1.1794 -5.53891166045439 8.128331092415568 18.272324797239165 0 0 0
613 205 2 -1.1794 -7.308119904500427 6.508558350722873 16.983186525164555 1 0 0
740 247 1 0.5897 -6.221158634584549 7.727985757993369 17.733330439173677 0 0 0
794 265 1 0.5897 -5.227717772854241 10.758482717694603 12.387882757573438 1 0 0
569 190 1 0.5897 -1.291236706371797 6.486057930764227 18.175729702144167 0 0 0
726 242 1 0.5897 -0.12601927423451809 11.360382437785733 12.951949353561101 0 0 0
192 64 1 0.5897 0.7754150234476063 10.989567770836901 9.794083890747153 0 0 0
513 171 1 0.5897 -3.7629887279526337 6.286127626127799 13.990246088574011 0 0 0
691 231 2 -1.1794 -2.3672444727191584 10.064649909373651 9.993354654258152 0 0 0
676 226 2 -1.1794 0.5243649819004084 8.514390620818176 14.862739388265663 0 0 0
692 231 1 0.5897 -1.424537000518531 10.105609929836001 9.832472730651954 0 0 0
835 279 2 -1.1794 -5.422861622750826 8.746352370886928 9.718546228139273 1 0 0
586 196 2 -1.1794 -0.5267925616868574 6.148145482670502 9.831125118545094 0 0 0
84 28 1 0.5897 -3.640879671293704 5.882736783023122 18.80809396215612 0 0 -1
696 232 1 0.5897 -2.124908257282489 11.294872629970468 19.245749234152726 0 0 0
190 64 2 -1.1794 0.350982023683462 10.132719446064907 9.837311708212846 0 0 0
760 254 2 -1.1794 -8.14942232663709 8.79372796530157 15.111968153873487 1 0 0
731 244 1 0.5897 -1.2952856379648825 11.449422452771868 15.604114273662322 0 0 0
732 244 1 0.5897 -0.20807179684070753 11.531949736354763 16.65434776078991 0 0 0
662 221 1 0.5897 -6.656706939032674 5.897049765943346 13.682603879626898 1 0 0
280 94 2 -1.1794 -3.5901702619626965 13.755524611818432 2.4939849041271027 1 0 0
690 230 1 0.5897 1.5522022915134581 13.180540489384402 9.571311540750473 0 0 0
499 167 2 -1.1794 -2.4223135453326234 16.27889975319463 0.2395008285362989 1 0 0
756 252 1 0.5897 -1.6233755225881392 14.39684755394759 9.51835109101907 0 0 0
223 75 2 -1.1794 -0.8983104360082548 11.725156860610216 3.447984878000857 0 0 0
232 78 2 -1.1794 1.6462034985347191 14.517335622813562 8.36440378067577 0 0 0
1004 335 1 0.5897 -5.09249649891934 16.980809691149243 9.003372017384706 1 0 0
277 93 2 -1.1794 -4.520820185443576 14.108557609895819 7.537456529419809 1 0 0
326 109 1 0.5897 -3.155319756288054 12.544788569185258 5.535576020218554 1 0 0
269 90 1 0.5897 -3.462598564831562 12.73567914906264 1.068469956161727 1 0 0
408 136 1 0.5897 3.4370329830313056 16.617168403135118 1.261450063552009 0 0 0
281 94 1 0.5897 -3.6921030505189303 13.545490911714737 3.4221916665380263 1 0 0
500 167 1 0.5897 -1.8442750995740826 15.684032084307109 0.7171867358072536 1 0 0
340 114 2 -1.1794 3.1062415501547456 16.17337888253467 5.1766598851023895 0 0 0
341 114 1 0.5897 2.717545807739711 15.299110106361427 5.14873376689356 0 0 0
227 76 1 0.5897 1.0504050616321248 11.82092890041618 7.30512071263229 0 0 0
407 136 1 0.5897 4.232940010001875 15.619207707530624 2.0752597327426496 0 0 0
234 78 1 0.5897 0.9898405230690157 15.01907210892248 7.881035818220553 0 0 0
404 135 1 0.5897 -1.690765095437948 16.08386808652502 7.745653957198293 0 0 0
403 135 2 -1.1794 -2.4111817993901523 15.772070663660545 8.29334703805405 0 0 0
282 94 1 0.5897 -2.669566452537823 14.001573248271464 2.4033159810859215 1 0 0
178 60 2 -1.1794 1.6962678334186538 13.892852973150834 5.130356167108243 0 0 0
180 60 1 0.5897 1.8780153806943094 13.457918759226496 4.297297497530179 0 0 0
368 123 1 0.5897 1.6439563677778688 16.19314102826498 2.5706428790492932 0 0 0
314 105 1 0.5897 -0.4062761659818679 15.121361190160366 1.938051918359427 1 0 0
175 59 2 -1.1794 -1.1131895411953858 13.878621564624964 5.290119882779405 0 0 0
313 105 2 -1.1794 -1.067342512780718 14.48926848969206 1.655733229069175 1 0 0
315 105 1 0.5897 -0.623520865704501 13.956324901591897 0.9960421386537062 1 0 0
225 75 1 0.5897 -1.0184415112546743 12.46430495999004 4.044197135843173 0 0 0
278 93 1 0.5897 -3.8735494744701624 14.759994404666518 7.807511178403282 1 0 0
226 76 2 -1.1794 1.8624272941567517 11.691305733693401 6.815152764084074 0 0 0
252 84 1 0.5897 2.8248125273815274 14.489447700334468 0.7137010433412442 0 0 0
214 72 2 -1.1794 1.5245955317913076 12.798579399006256 2.626744924508968 0 0 0
215 72 1 0.5897 1.762844754018647 13.113991262881255 1.7550652383821495 0 0 0
216 72 1 0.5897 0.6535865021054077 12.4177867932387 2.5144136954749836 0 0 0
176 59 1 0.5897 -1.6062331146974673 14.675598065763063 5.095369036372256 0 0 0
406 136 2 -1.1794 3.342195252868283 15.826788635915499 1.7928469686622506 0 0 0
372 124 1 0.5897 -0.07013106599902486 16.8813007653636 6.240672660655902 0 0 0
177 59 1 0.5897 -0.2192379210560076 14.074812815882146 5.009746118115838 0 0 0
367 123 2 -1.1794 0.71559687174316 16.42465790716985 2.5996907650440604 0 0 0
421 141 2 -1.1794 -2.4037324154729216 16.138697415309565 4.684741071676339 1 0 0
179 60 1 0.5897 1.7497893404005689 13.194250834003642 5.7824062730999 0 0 0
279 93 1 0.5897 -5.364683804849147 14.50281294680939 7.758245933447076 1 0 0
425 142 1 0.5897 -4.298217246520114 16.45867466172399 4.713656045044861 1 0 0
327 109 1 0.5897 -4.30646672544802 13.464741172076467 5.882786305874297 1 0 0
211 71 2 -1.1794 -0.5849740529905896 12.335186497819368 7.513585175084661 0 0 0
212 71 1 0.5897 -0.5817796278173941 12.756350105352249 8.37311432876089 0 0 0
213 71 1 0.5897 -0.6405634748348636 13.060317349064112 6.891340602715807 0 0 0
370 124 2 -1.1794 -0.010082604404905826 16.411283881650814 7.072247480131657 0 0 0
267 89 1 0.5897 -3.977973693477494 12.607834341222112 8.885611480156399 1 0 0
325 109 2 -1.1794 -3.939211512916124 12.94971987475747 5.164391942007988 1 0 0
405 135 1 0.5897 -2.635916422107014 16.522014475988687 8.84409480606125 0 0 0
423 141 1 0.5897 -2.427506843145208 16.635706826538165 3.867133730235941 1 0 0
369 123 1 0.5897 0.5931326093660028 16.817471758572168 3.463906250155945 0 0 0
233 78 1 0.5897 2.4353525298296557 14.5724536165544 7.825488099018429 0 0 0
422 141 1 0.5897 -2.170469244898106 16.784632937349908 5.3515109456715635 1 0 0
371 124 1 0.5897 0.07423215547557804 17.10000641872611 7.73161173130895 0 0 0
250 84 2 -1.1794 2.318512109296881 13.845137439971356 0.21895877654377638 0 0 0
184 62 2 -1.1794 5.327345941031867 12.55363470097179 0.22724268518424845 0 0 0
268 90 2 -1.1794 -3.259371261725879 12.379355889965632 0.20365485943358028 1 0 0
910 304 2 -1.1794 0.6242606865288263 15.791523995384352 11.24353244137614 0 0 0
846 282 1 0.5897 0.5573188744820836 16.9797521131416 14.25914296047536 0 0 0
1005 335 1 0.5897 -4.776561829990257 16.010856782888453 10.121802324512226 1 0 0
718 240 2 -1.1794 -1.543214287475326 12.358249868345952 12.361370771753915 0 0 0
806 269 1 0.5897 -5.728893353152161 11.66721063834844 15.709413780371193 1 0 0
720 240 1 0.5897 -1.3968334080233848 13.068914701011183 12.985673783862927 0 0 0
911 304 1 0.5897 -0.08829604307960492 15.994711092985671 11.849508656386673 0 0 0
873 291 1 0.5897 -2.5268095560526698 15.748938331611964 12.168921579465724 0 0 0
830 277 1 0.5897 -7.245418305231224 13.13594898423419 15.29765181873001 1 0 0
688 230 2 -1.1794 1.71711167354907 12.438192902819594 10.152544936950658 0 0 0
729 243 1 0.5897 -4.294371406950443 12.725286840119825 13.740522606558857 0 0 0
807 269 1 0.5897 -4.627648531781381 11.620233538884225 16.7471239277046 1 0 0
772 258 2 -1.1794 -6.463601916364716 12.47967400181416 9.97868246557115 1 0 0
784 262 2 -1.1794 -6.386757991881346 14.108464002285935 12.194392630239038 1 0 0
829 277 2 -1.1794 -6.697559600281965 12.64284632046239 14.686958618982993 1 0 0
719 240 1 0.5897 -1.4434512425702035 12.768904350104352 11.502617154719882 0 0 0
786 262 1 0.5897 -6.503757477504919 13.87979204334651 13.116396013253913 1 0 0
817 273 2 -1.1794 -3.9594039358963125 14.762751036303756 11.253107645529713 1 0 0
818 273 1 0.5897 -4.777154005118099 14.515102235973606 11.684594481825757 1 0 0
819 273 1 0.5897 -3.6792038380061602 13.96954768658431 10.79645441080398 1 0 0
930 310 1 0.5897 -7.320193170384659 16.308135179080725 14.418633435555785 1 0 0
730 244 2 -1.1794 -0.9771396192412025 11.995572752771249 16.322940697087112 0 0 0
679 227 2 -1.1794 -3.7607287408973678 14.274137056848739 14.719033379853318 0 0 0
185 62 1 0.5897 -1.2432056851872515 13.684449804887658 19.05140218130459 0 0 -1
684 228 1 0.5897 -0.35589498829587285 14.834675574440075 14.661118665368164 0 0 0
682 228 2 -1.1794 -0.9883488339794582 14.146840131964867 14.453408635987385 0 0 0
727 243 2 -1.1794 -4.07750356635637 11.92263135411034 13.266240539707185 0 0 0
683 228 1 0.5897 -0.9481656847916753 13.550268858191771 15.20076576131889 0 0 0
926 309 1 0.5897 -4.865524316403251 15.708391375802908 14.386036497511677 1 0 0
785 262 1 0.5897 -7.119727565791164 14.691570616989326 11.996940893861323 1 0 0
876 292 1 0.5897 -2.5736161135224904 15.972058966109575 17.261006313109952 0 0 0
681 227 1 0.5897 -3.8234576223762726 13.956544184265638 15.619732671093248 0 0 0
907 303 2 -1.1794 -5.69455260078575 15.814348883458807 17.993686029552286 0 0 0
925 309 2 -1.1794 -5.493551739259856 16.402686732152954 14.186627213884863 1 0 0
680 227 1 0.5897 -2.820419124579951 14.321866175108953 14.546338901810623 0 0 0
908 303 1 0.5897 -6.332513628982858 15.460535426904995 17.37396009868195 0 0 0
728 243 1 0.5897 -3.2240869827437075 12.100573528159874 12.8709430576014 0 0 0
251 84 1 0.5897 -4.70620060400407 14.675432692002675 18.951069744521938 0 0 -1
715 239 2 -1.1794 -3.417420118949037 12.917308863385955 17.19739234806923 0 0 0
716 239 1 0.5897 -3.550659584007562 13.32743161559718 18.051924282224512 0 0 0
871 291 2 -1.1794 -1.9306048741415278 16.477808287628815 12.340786915215281 0 0 0
874 292 2 -1.1794 -3.2220983776730385 16.661331586900396 17.117438688883922 0 0 0
736 246 2 -1.1794 -1.1275751367693836 15.078123846994865 18.100114031605194 0 0 0
965 322 1 0.5897 -8.211285774504276 17.181809905592157 16.234042390651396 1 0 0
831 277 1 0.5897 -7.318603847135455 12.141823676386768 14.15825600232712 1 0 0
909 303 1 0.5897 -4.960844466789693 16.096997669043198 17.44781488384352 0 0 0
781 261 2 -1.1794 -7.647069382194305 14.185008980581697 16.767584120063354 1 0 0
782 261 1 0.5897 -7.391856428107053 13.64141618405124 17.51286295454544 1 0 0
737 246 1 0.5897 -0.8589861235060035 15.877517657081018 18.552961395828632 0 0 0
717 239 1 0.5897 -2.526803260394936 12.568479349550545 17.23481145681486 0 0 0
755 252 1 0.5897 -0.30105138483151483 14.313858508864572 10.250811058829571 0 0 0
783 261 1 0.5897 -8.555476052470134 14.427516168352392 16.947251896840463 1 0 0
912 304 1 0.5897 1.2053812788527658 15.215883941120396 11.740635209674519 0 0 0
927 309 1 0.5897 -5.192887251464475 17.152856606964566 14.69953648827353 1 0 0
1003 335 2 -1.1794 -5.490241584746007 16.526080950398605 9.745739252535389 1 0 0
875 292 1 0.5897 -3.0838264083151854 16.935782627809534 16.211008029313767 0 0 0
872 291 1 0.5897 -2.140771870448308 17.12381833187796 11.66655260455027 0 0 0
773 258 1 0.5897 -6.571562586590469 12.973252510388495 10.791654111501492 1 0 0
738 246 1 0.5897 -0.36296403367619234 14.827609727715208 17.581592111991995 0 0 0