LAMMPS (30 Jul 2021)
Processor partition = 1
  using 2 OpenMP thread(s) per MPI task
using multi-threaded neighbor list subroutines
variable        pid world 0 1
variable        phase world IceIh IceIII

shell cd ${phase}
shell cd IceIII
include Restart.lmp
echo both
log log.lammps
#include		in.partitions
include		in.temp
variable        temperature equal 237.72
variable	tempDamp equal 100.0
include		in.pressure
variable        pressure equal 1513.9
variable        pressureDamp equal 1000.0 # This is 1 ps
include		in.seed
variable        seed equal 745823

units		real
atom_style	full

read_restart	restart.lmp.${pid}
read_restart	restart.lmp.1
Reading restart file ...
  restart file = 30 Jul 2021, LAMMPS = 30 Jul 2021
  restoring atom style full from restart
  orthogonal box = (-0.012143514 -0.035370760 -0.30106520) to (20.012145 20.035372 21.001063)
  2 by 4 by 4 MPI processor grid
  restoring pair style lj/cut/tip4p/long/omp from restart
  restoring bond style harmonic/omp from restart
  restoring angle style harmonic/omp from restart
  972 atoms
  648 bonds
  324 angles
Finding 1-2 1-3 1-4 neighbors ...
  special bond factors lj:    0        0        0       
  special bond factors coul:  0        0        0       
     2 = max # of 1-2 neighbors
     1 = max # of 1-3 neighbors
     1 = max # of 1-4 neighbors
     2 = max # of special neighbors
  special bonds CPU = 0.003 seconds
  read_restart CPU = 0.009 seconds
include 	in.setup
variable	out_freq equal 1000
variable	out_freq2 equal 10000
variable	out_freq3 equal 1000

timestep	2.0

neigh_modify    delay 7 every 1

include		in.tip4p
# This is TIP4P/Ice

# create groups ###
group ox type 2
324 atoms in group ox
group hy type 1
648 atoms in group hy

# set charges - beside manually ###
set group ox charge -1.1794
Setting atom values ...
  324 settings made for charge
set group hy charge 0.5897
Setting atom values ...
  648 settings made for charge

# ### TIP3P Potential Parameters ###
pair_style lj/cut/tip4p/long/omp 2 1 1 1 0.1577 8.5
pair_coeff 1 1*2 0.000 0.000
pair_coeff 2 2 0.21084 3.1668
bond_style  harmonic
bond_coeff  1 450 0.9572
angle_style harmonic
angle_coeff 1 55 104.52
kspace_style pppm/tip4p/omp 1.0e-5
pair_modify tail yes

thermo          ${out_freq}
thermo          1000
thermo_style    custom step temp pe etotal epair emol press lx ly lz vol pxx pyy pzz pxy pxz pyz enthalpy

restart 	${out_freq3} restart.lmp.${pid} restart2.lmp.${pid}
restart 	1000 restart.lmp.${pid} restart2.lmp.${pid}
restart 	1000 restart.lmp.1 restart2.lmp.${pid}
restart 	1000 restart.lmp.1 restart2.lmp.1


include         in.dump
dump            myDump all atom ${out_freq2} dump.water.${pid}
dump            myDump all atom 10000 dump.water.${pid}
dump            myDump all atom 10000 dump.water.1
dump            myDump2 all dcd ${out_freq2} dump.dcd
dump            myDump2 all dcd 10000 dump.dcd
dump_modify     myDump append yes
dump_modify     myDump2 append yes


variable natoms 	equal  "count(all)"                        # NUMBER ATOMS
variable H      	equal  "enthalpy/v_natoms"                 # ENTHALPY-per-atom
variable Vol      	equal  "vol/v_natoms"                 # volume-per-atom
fix AVG all 		ave/time ${out_freq} 1 ${out_freq} v_Vol v_H file vol_enthalpy.dat
fix AVG all 		ave/time 1000 1 ${out_freq} v_Vol v_H file vol_enthalpy.dat
fix AVG all 		ave/time 1000 1 1000 v_Vol v_H file vol_enthalpy.dat


timer           timeout 02:55:00 every 1000
New timer settings: style=normal  mode=nosync  timeout=02:55:00

fix 		1 all shake 1e-6 200 0 b 1 a 1
Finding SHAKE clusters ...
       0 = # of size 2 clusters
       0 = # of size 3 clusters
       0 = # of size 4 clusters
     324 = # of frozen angles
  find clusters CPU = 0.001 seconds
fix             2 all nph aniso ${pressure} ${pressure} ${pressureDamp}
fix             2 all nph aniso 1513.9 ${pressure} ${pressureDamp}
fix             2 all nph aniso 1513.9 1513.9 ${pressureDamp}
fix             2 all nph aniso 1513.9 1513.9 1000
fix             3 all temp/csvr ${temperature} ${temperature} ${tempDamp} ${seed}
fix             3 all temp/csvr 237.72 ${temperature} ${tempDamp} ${seed}
fix             3 all temp/csvr 237.72 237.72 ${tempDamp} ${seed}
fix             3 all temp/csvr 237.72 237.72 100 ${seed}
fix             3 all temp/csvr 237.72 237.72 100 745823


run             250000
PPPM initialization ...
  extracting TIP4P info from pair style
  using 12-bit tables for long-range coulomb (../kspace.cpp:340)
  G vector (1/distance) = 0.37161432
  grid = 24 24 25
  stencil order = 5
  estimated absolute RMS force accuracy = 0.0035050357
  estimated relative force accuracy = 1.0555311e-05
  using double precision FFTW3
  3d grid and FFT values/proc = 3458 576
Last active /omp style is kspace_style pppm/tip4p/omp
Neighbor list info ...
  update every 1 steps, delay 7 steps, check yes
  max neighbors/atom: 2000, page size: 100000
  master list distance cutoff = 10.8154
  ghost atom cutoff = 10.8154
  binsize = 5.4077, bins = 4 4 4
  1 neighbor lists, perpetual/occasional/extra = 1 0 0
  (1) pair lj/cut/tip4p/long/omp, perpetual
      attributes: half, newton on, omp
      pair build: half/bin/newton/omp
      stencil: half/bin/3d
      bin: standard
Setting up Verlet run ...
  Unit style    : real
  Current step  : 3000000
  Time step     : 2
  Walltime left : 2:54:59.93
Per MPI rank memory allocation (min/avg/max) = 10.19 | 10.19 | 10.20 Mbytes
Step Temp PotEng TotEng E_pair E_mol Press Lx Ly Lz Volume Pxx Pyy Pzz Pxy Pxz Pyz Enthalpy 
 3000000    254.69853   -4717.6503   -4226.4428   -4717.6503            0    181.03262    20.024288    20.070743    21.302128     8561.375    3104.0987   -1867.6427   -693.35822    124.61796    1917.5185    924.77419   -4203.8392 
 3001000    234.35344   -4737.0171   -4285.0468   -4737.0171            0    1047.6137    20.297531    19.963174    21.251811    8611.3004    226.15107    1744.5867    1172.1033    85.203801    936.20423    1019.9059   -4153.4801 
 3002000    234.89452   -4734.7019   -4281.6881   -4734.7019            0    391.51036    20.227945    20.180455    20.931867    8544.5798     253.1851   -440.70214    1362.0481    130.71124     -635.892    589.74265   -4232.9004 
 3003000    241.54196   -4744.2172   -4278.3832   -4744.2172            0    1063.9712    20.191185    20.282533    20.968826    8587.3291    647.79649    1243.6397    1300.4774     -103.895    379.90161   -1715.2195   -4145.1342 
 3004000    234.99803   -4765.0788   -4311.8654   -4765.0788            0    1100.7719    20.223469    20.008946    21.051671     8518.565    1820.3474   -15.256051    1497.2244    121.34567    414.76625    671.18966   -4175.1115 
 3005000    232.79266   -4730.2792   -4281.3189   -4730.2792            0    1834.9298    20.114854    19.948795    21.191805    8503.5737    1106.5161    2704.9801    1693.2932     326.3814   -412.99542    524.89151   -4053.7585 
 3006000    238.75735   -4723.0793   -4262.6156   -4723.0793            0    1299.8111    20.226599    20.188148    21.083877     8609.339    827.70633     1617.343    1454.3839   -62.325153    455.27537    1062.9302   -4099.4135 
 3007000    239.90664   -4738.5607   -4275.8805   -4738.5607            0    2955.5148    20.060572    20.037715    20.900651    8401.3937    4394.5667    2528.5267    1943.4509    147.64825    -1309.515   -548.89403    -3913.754 
 3008000    240.37445   -4734.5024     -4270.92   -4734.5024            0    122.18689    20.157337    20.195759    21.163987    8615.7048    2224.1278   -2485.3254    627.75825   -88.945024    575.76829    -558.1092   -4255.5671 
 3009000    249.71556   -4732.4616   -4250.8641   -4732.4616            0    263.01332    20.239299    20.005422    21.358442    8647.9416   -288.95789    457.89809    620.09976   -176.02092   -1375.7202    -152.8544   -4217.6925 
 3010000    239.11538   -4719.1771    -4258.023   -4719.1771            0    1945.1743    20.278378    20.025996    21.005583    8530.2562    2672.2859    1103.6554    2059.5817    756.36055   -541.73786    897.60779   -4016.0335 
 3011000    234.53132   -4731.1681   -4278.8547   -4731.1681            0    459.90479    20.283993    19.997868    20.946801    8496.7893    1778.3917   -1099.7502    701.07293   -340.19087   -191.31504   -432.40942   -4221.8647 
 3012000    246.07353    -4706.879   -4232.3055    -4706.879            0    3264.9644    19.993998    20.164598    20.984833    8460.4747    3843.1749    3417.6834    2534.0348   -341.87943    582.98883   -182.11908   -3829.4502 
 3013000     251.9115   -4724.3964   -4238.5638   -4724.3964            0    -221.9141    20.110744    20.236389     21.21417    8633.5061    160.27914    -211.8759   -614.14553     710.8736   -1052.7647   -1616.5896   -4266.5052 
 3014000    240.25115   -4752.8386   -4289.4941   -4752.8386            0    2930.4622     20.09193    19.856322    21.174126    8447.4561    1568.8385    4846.9991    2375.5491   -308.16461   -37.912071   -147.31521   -3928.4685 
 3015000    244.88273   -4755.3607   -4283.0837   -4755.3607            0    1812.8727    20.069498    20.182583    21.006413    8508.7381     2907.704    107.06739    2423.8465    516.05759    86.335895   -519.06218   -4058.1222 
 3016000    244.66468   -4752.1207   -4280.2643   -4752.1207            0    666.32538    20.023546     20.43512    20.880822    8544.0892    2558.0929   -1360.8997    801.78297    226.60089   -40.653247    -473.6205   -4197.2357 
 3017000    233.96734   -4732.9505   -4281.7248   -4732.9505            0    2614.1607    20.148672    20.101453     20.92339    8474.3407    1880.3439    2402.3157    3559.8226   -888.55172   -1029.0007   -303.55555   -3958.6418 
 3018000    222.69848    -4729.415   -4299.9223    -4729.415            0    1079.3925    20.115905       20.151     21.30013    8634.1272    2107.3355    828.98109    301.86084   -274.15859    630.58658   -570.77969   -4164.0053 
 3019000    235.97017   -4739.1917   -4284.1033   -4739.1917            0    1563.3425    20.051539    20.212895    20.979167    8502.8491    991.78286    886.69516    2811.5494   -545.95209   -198.90483    141.07758   -4090.2405 
 3020000    239.56079   -4748.8658   -4286.8526   -4748.8658            0    1476.3794    20.375531    20.235401    20.684135    8528.2144   -409.50397    1749.9498    3088.6925    319.04981   -276.32078    54.017739   -4103.2276 
 3021000     235.7448   -4760.0272   -4305.3735   -4760.0272            0    845.96569    20.229474    20.163353    21.094275    8604.2288     372.7967    717.15423    1447.9461   -738.86819    620.18703   -1302.2237   -4199.2185 
 3022000    240.53722    -4741.459   -4277.5627    -4741.459            0    3049.3257    19.905221    19.979807      21.2976    8470.1081    3280.3263    2909.5992    2958.0516      780.607    1004.8113    -1277.359   -3900.8861 
 3023000      241.523   -4769.5602   -4303.7627   -4769.5602            0    729.63052    20.232236    20.014163    21.222136    8593.5064    2313.4529   -92.365751   -32.195632   -921.34411    13.655522    314.28979     -4212.32 
 3024000    242.88995   -4699.7638   -4231.3301   -4699.7638            0    2487.2689     20.22296    20.194928    20.763309    8479.7604    2313.8211    1952.1968    3195.7887    162.14639   -477.41306    1358.6073    -3923.733 
 3025000    241.32423   -4715.3011   -4249.8871   -4715.3011            0    2029.1415    20.071528    20.090873    21.121664    8517.4062    3207.2689    2891.3393   -11.183557    -606.6781   -1073.1948     1410.104   -3997.8319 
 3026000    249.23071    -4730.991   -4250.3286    -4730.991            0    1212.9527    20.078258    20.150999    21.133231     8550.441    19.529368    1856.1301    1763.1986   -56.019003    328.62329    793.57743   -4099.0741 
 3027000    246.37787   -4723.1152   -4247.9548   -4723.1152            0    1912.7064     20.35571    19.921709    21.065516    8542.4994    605.99691    2559.7871    2572.3352    739.87797   -453.99248    453.54311    -4009.663 
 3028000    235.94695   -4744.6378   -4289.5942   -4744.6378            0    1680.6357    20.080499    20.179748    21.017524    8516.7084    1850.3481    1923.1022    1268.4567   -355.67625    639.14529    826.52118   -4080.8467 
 3029000    248.74711   -4754.9048   -4275.1751   -4754.9048            0    1463.7128    20.180258    20.130339    20.935563    8504.7677    64.161903    1842.0863    2484.8901    207.33452    187.69991    243.10623   -4093.6259 
 3030000    245.41052   -4732.7103   -4259.4154   -4732.7103            0    2518.5314      20.0627    20.120192    21.144553    8535.3242    3647.3821    2559.8258    1348.3864   -324.26839   -1195.9834    398.49884   -3945.9113 
 3031000    246.91201   -4724.2736    -4248.083   -4724.2736            0    1046.4362    19.978554    20.401359    21.121876    8609.0582    1968.8244   -1048.9895    2219.4736    32.014134    919.87467    1389.2147   -4116.6984 
 3032000    231.96004   -4713.4303   -4266.0758   -4713.4303            0    1807.6798    20.334953    20.041354    21.029506    8570.3649    1561.3216    2780.9308    1080.7868    611.10921   -437.93361   -1230.3297   -4040.1339 
 3033000    241.37135    -4735.697    -4270.192    -4735.697            0    2813.7679    20.206471    20.017561    20.981107    8486.5276     2722.354    3102.4399    2616.5097    -875.8787    415.53888   -955.87756   -3921.9396 
 3034000     236.8127   -4754.6287   -4297.9155   -4754.6287            0    2389.2989    20.031843    20.219709    21.025153    8515.9863    1967.0091    1777.1291    3423.7585    1079.3825    114.42269    323.63919   -4001.1719 
 3035000    239.13286   -4780.3505   -4319.1627   -4780.3505            0     1657.295    20.046891    20.204768    21.066133    8532.6852     3343.664    258.71999     1369.501    282.64151    70.843539    1361.0461   -4112.9281 
 3036000    225.47208   -4742.9451   -4308.1032   -4742.9451            0    1980.3372    20.259575    20.149402    20.825959    8501.5382    2299.8866    1699.3779     1941.747   -342.60808    724.01301    788.50217   -4062.5687 
 3037000    235.53414    -4734.862   -4280.6146    -4734.862            0     1368.267     20.16798    20.205255    20.933139    8530.2368    599.83981    2069.0579    1435.9034    534.44427    -500.6338    643.15354   -4110.3957 
 3038000    239.89896   -4728.4688   -4265.8035   -4728.4688            0    2186.8649    20.081704     20.19335    20.925939    8485.8211    3388.6286    894.97726    2276.9889   -804.24663    220.71548   -434.56804   -3995.1636 
 3039000    231.77183    -4739.205   -4292.2135    -4739.205            0    1589.1866    20.057147    19.993717    21.373852    8571.2764    1661.1456    3251.1747   -144.76043   -393.33073    684.95348   -17.809158     -4093.56 
 3040000    236.71916   -4739.5605   -4283.0277   -4739.5605            0    2171.0448     20.05645      20.0374    21.089614    8475.4753    2876.1538    755.65011    2881.3305   -433.10679    582.86237    529.88522   -4014.6733 
 3041000     234.1962   -4729.9471     -4278.28   -4729.9471            0   -162.05274     20.10687    20.326727    21.224505    8674.6007   -1091.6505    1401.2892   -795.79688   -588.01353   -434.06729    357.08207   -4298.7813 
 3042000    244.25987    -4760.813   -4289.7373    -4760.813            0    2059.2692     20.06478    19.958138    21.126832     8460.359    2293.4921    2848.8189    1035.4967   -122.62858    271.11232   -569.16006    -4035.653 
 3043000      244.277   -4732.1384   -4261.0296   -4732.1384            0   -877.89644    20.251179    20.302707    21.054112     8656.477   -1529.0905   -1151.0372    46.438363   -118.71539    818.90394   -346.36768   -4371.8604 
 3044000     234.2614   -4764.9392   -4313.1464   -4764.9392            0    1667.7095    20.042828    20.137812    21.023974    8485.6691    1357.7099    1430.2972    2215.1215    211.12381    722.27166    385.08782   -4106.7594 
 3045000    234.26169   -4762.8675   -4311.0741   -4762.8675            0    2514.5684    19.812275    20.197063    21.307624    8526.2407    2575.1847    2441.1003    2527.4202     81.76719   -858.35092    -217.0941   -3998.3964 
 3046000    233.11472   -4746.8099   -4297.2286   -4746.8099            0    696.80051    20.210478    20.077885    21.123984    8571.7671    849.80537    1179.3756    61.220567     282.9651    87.813628    369.11912   -4210.1213 
 3047000    248.31004   -4763.9591   -4285.0723   -4763.9591            0    1944.1348    20.297278      20.1671    20.881727    8547.6682    1390.2631     951.1358    3491.0054   -305.35108    652.12367   -249.54309   -4042.7185 
 3048000    231.06312   -4752.1103   -4306.4857   -4752.1103            0    1189.9105    20.289557    20.082616    20.826132    8485.9697   -253.12439    1541.0008    2281.8551    509.67998    -126.6914    516.92573   -4159.2233 
 3049000    236.33286   -4725.3152   -4269.5274   -4725.3152            0    1263.3535    20.145154    20.126742    21.027291     8525.648    1268.2627    1809.1044    712.69338   -732.34053   -547.63993    775.90231   -4112.4448 
 3050000    238.93675   -4765.7154   -4304.9058   -4765.7154            0    1790.5084    19.866898    19.993177     21.32593    8470.7106    2445.2317    3065.1262   -138.83261   -1456.5585    689.67542    880.25853   -4083.7124 
 3051000    245.74621   -4690.3777   -4216.4355   -4690.3777            0    1847.7073    20.195967    20.256304    21.012025    8595.9279    2050.6935     929.8252    2562.6033   -402.93596    323.97239    1812.5125   -3984.8017 
 3052000    247.21468   -4781.0505   -4304.2762   -4781.0505            0    950.14805    20.253057    20.145905    20.779816    8478.5004    422.72737    583.90627    1843.8105    161.57676   -973.25064    565.65984   -4186.7902 
 3053000    240.99629    -4780.037   -4315.2553    -4780.037            0    305.29357    20.169074    20.081971    21.196517    8585.3261    -594.2935    2412.3363   -902.16207   -236.56362   -414.10344   -87.161392   -4277.0301 
 3054000    241.17022   -4718.4314   -4253.3143   -4718.4314            0    659.41538    20.140219    19.954352    21.338508    8575.6268    1051.1617    513.89096    413.19343   -52.032194    23.352153    -330.3271   -4170.8434 
 3055000    237.82597   -4732.9643   -4274.2969   -4732.9643            0    1104.5763    20.261573    19.991133    21.204926    8589.0934    1912.1673    1286.8884    114.67328   -438.90241   -339.85575   -326.13523   -4135.9342 
 3056000    246.75816   -4713.5457   -4237.6519   -4713.5457            0    2637.8451    20.299384    20.126899    20.873357     8528.095    1354.4372    2983.4723    3575.6258    36.993635    835.44147    143.39045   -3909.5738 
 3057000     218.4092   -4731.5991   -4310.3786   -4731.5991            0    1992.7982    20.151269    20.029108    21.063594    8501.5179    1294.9087    3259.0803    1424.4057   -514.53792    52.633578    1940.5447   -4063.2996 
 3058000    242.92015    -4749.402     -4280.91    -4749.402            0    992.97941    20.119546    20.138726     21.23687    8604.7979     1631.623   -221.74431    1569.0596     93.90157   -520.78562   -576.50205   -4156.2989 
 3059000    239.23275     -4746.26   -4284.8795     -4746.26            0    1698.0773    19.908848    20.235206    21.207982      8543.84    746.93188    2573.3798    1773.9202   -190.25887    954.30952    429.19795   -4073.2937 
 3060000    245.10667   -4756.9396   -4284.2308   -4756.9396            0    1428.8301    20.199963    20.041775    20.994564    8499.5047    601.21996    2925.9817    759.28861    33.719581   -222.45537   -90.005539   -4107.1179 
 3061000     245.2246   -4740.6337   -4267.6974   -4740.6337            0    1337.8446    20.278631    20.180861    20.769447    8499.6936    1996.2384   -637.12726    2654.4226    497.38243   -1131.4365    117.11074   -4101.8591 
 3062000    251.64357   -4729.6008    -4244.285   -4729.6008            0    1920.5355    20.033008    20.280487    21.196368    8611.6428    3113.1267    1051.3219     1597.158   -167.85222   -214.54487   -61.445271   -4003.0812 
 3063000    252.67053   -4741.1937   -4253.8973   -4741.1937            0    625.38645    20.195931    20.085922    21.085155    8553.2755    852.19574    213.91049    810.05311   -7.4003771   -934.64674   -972.50983   -4175.8861 
 3064000    238.38576   -4741.6801   -4281.9331   -4741.6801            0    1997.7957    20.022998    20.175286    21.146322    8542.4738    1602.4209    1260.2503    3130.7161   -274.42343   -245.78448    187.23548   -4033.0413 
 3065000    238.42405   -4741.4373   -4281.6165   -4741.4373            0    1489.0509    20.069465    20.057389    21.226798    8544.6579    400.74491    3522.4127    543.99515   -371.96656    572.04433    497.06169   -4096.0583 
 3066000    248.56956   -4725.0346   -4245.6473   -4725.0346            0    2142.8941    20.147676    20.181989    21.138114    8595.1833    2064.5039    1343.0331    3021.1452    147.32062    190.99546    1163.2319   -3977.0314 
 3067000    243.96298   -4762.5009   -4291.9978   -4762.5009            0    2618.8602    19.957751    20.042729    21.269278    8507.8775    2302.3617    4043.1797    1511.0393   -493.01269    3.1307192   -1184.2534   -3967.0531 
 3068000    231.85682   -4736.0259   -4288.8705   -4736.0259            0    846.69049    20.076347    20.263786    21.090312    8580.0194    379.97353    896.73557    1263.3624   -357.79345    40.381039   -262.43981   -4182.9235 
 3069000    227.68059   -4753.1521   -4314.0509   -4753.1521            0    1976.0441    20.233263    20.140698    20.814286    8482.0725    1667.8347    2054.8986    2205.3988    277.56118    274.46644    1779.6595   -4069.6096 
 3070000    235.95073   -4719.9174   -4264.8666   -4719.9174            0    532.86073     20.15898    20.205124    21.072433    8583.1114    39.573542    2062.3739    -503.3652   -495.80634    23.888961    590.23319   -4198.1653 
 3071000    233.18341   -4718.7421   -4269.0283   -4718.7421            0    2692.3447    19.871727    20.260715    21.266298    8562.1386    2667.0689    3507.3748    1902.5904    -966.2926   -162.64339   -1029.9143   -3932.8352 
 3072000    252.14264   -4708.9254   -4222.6471   -4708.9254            0    3351.8899    20.063703    20.037238     21.08208    8475.4431    3850.2923    3845.6966    2359.6807   -322.62593    834.54613    575.14368   -3808.3346 
 3073000     231.6307   -4759.0922   -4312.3729   -4759.0922            0    2340.2542    20.258707    20.196254     20.92467    8561.3284    2085.5471    1961.2635     2973.952    323.99548   -300.18688   -716.83785    -4020.173 
 3074000    224.02539   -4736.4897   -4304.4379   -4736.4897            0    2177.3072    19.952182    20.233498     20.98039    8469.8344    2236.8659    2167.4804    2127.5752    230.89051     1561.002    389.44463   -4035.4886 
 3075000    238.83188   -4749.9605   -4289.3531   -4749.9605            0    1342.0335    20.346243    19.987215    21.098274    8579.9244    930.49607    1439.7655    1655.8391    -45.04453    -426.2815    429.74676   -4121.4253 
 3076000    234.15737   -4730.6245   -4279.0324   -4730.6245            0    1513.1228     20.24659    20.080494    20.891767    8493.7886    2174.9152    1372.2478    992.20538   -62.496159     1620.447   -408.26467    -4091.597 
 3077000    225.30371   -4753.6445   -4319.1273   -4753.6445            0    1603.6487    20.171168    20.126184     21.02349    8534.8776    2615.6085    1022.2526     1173.085   -87.258034    1080.4061    43.125364   -4119.5173 
 3078000    244.84812   -4719.4315   -4247.2213   -4719.4315            0    2218.5683    20.330802    19.980936    20.965313    8516.7068    349.47106     4311.754    1994.4797    302.23186   -765.34934   -575.71641   -3971.6586 
 3079000    229.78305   -4743.0066   -4299.8507   -4743.0066            0    2237.6166    20.460078    19.813233    20.979196    8504.5525     1364.314    3239.3175    2109.2182   -203.94325   -188.44883    564.89746   -4022.3187 
 3080000    235.29975   -4715.1256   -4261.3303   -4715.1256            0    3181.8699    20.235014    19.996277    20.866015    8442.9101    3280.5756    3644.8767    2620.1575   -235.43838   -383.15537    479.53203   -3869.5428 
 3081000    247.55721   -4740.7337   -4263.2988   -4740.7337            0     2697.534    20.383773    20.007768    20.866173    8509.9304    2611.5475    2209.6699    3271.3847   -497.46488    372.15652   -575.25113   -3928.5116 
 3082000    238.18277   -4770.4387   -4311.0832   -4770.4387            0    1926.5391    20.028815     20.17304    21.029545    8496.8214    2151.4383    1930.2254    1697.9538    -788.1807   -198.49449   -4.4834387   -4072.3514 
 3083000    235.63222   -4719.7555   -4265.3189   -4719.7555            0    1018.8592    20.034178    20.211718    21.515801    8712.2889    3029.9684   -1197.0695    1223.6786    514.64931    1597.9883   -445.17085   -4135.8629 
 3084000    242.44474   -4704.5791    -4237.004   -4704.5791            0    1894.7814    20.149897    20.111288    20.994373    8507.7676    3354.0661    1006.2342    1324.0439    64.066548    277.52088   -542.49197   -4001.9051 
 3085000    237.62977   -4754.3759   -4296.0869   -4754.3759            0    635.74027    20.150486    20.492909    20.732205    8561.2002    -106.2533   -1128.3096    3141.7837     295.3025   -822.42874    631.79791   -4216.7107 
 3086000    236.55866   -4748.8772    -4292.654   -4748.8772            0    449.26385    20.187515    20.176639    21.023697    8563.2924    1087.1819   -341.50276     602.1124   -250.29599    338.66488   -1084.3962   -4236.5468 
 3087000    234.72655   -4747.1605   -4294.4706   -4747.1605            0    638.63305    20.205903    20.010209     21.21902    8579.3662    125.61481    1627.3963    162.88803   -488.59673   -1233.6502    681.06017   -4214.5641 
 3088000    247.12409   -4752.9947   -4276.3951   -4752.9947            0    1600.3697    20.067351    20.206486    21.013604    8520.8197    1997.1018    236.45464    2567.5527    630.96081   -333.33667   -972.60674   -4077.5213 
 3089000    223.73963    -4766.736   -4335.2353    -4766.736            0    1674.3653    20.313956     20.14794    20.858169    8536.9227    925.42742    2103.4711    1994.1973   -874.96296   -288.18709    1363.8289   -4126.7731 
 3090000    227.08423   -4725.0449   -4287.0938   -4725.0449            0    2700.7094    19.947897     20.00933    21.301258    8502.2703    3179.0287    3825.7548    1097.3448    334.66381    1081.6926   -422.36789   -3952.2143 
 3091000    233.91023   -4745.4025    -4294.287   -4745.4025            0    1508.1035    20.263642    20.045998    21.147057    8590.0388    722.05594    2086.2433    1716.0113    593.06095   -863.42236    1138.9571   -4105.3565 
 3092000    238.15472   -4749.3712   -4290.0698   -4749.3712            0    1738.7373    20.082875    20.113297    21.038132    8497.9925     1848.407    1851.3636    1516.4414   -154.43156    419.52021    606.44913   -4074.5802 
 3093000    253.90929   -4748.5787   -4258.8933   -4748.5787            0    119.18082    20.180819    19.898536    21.569773    8661.7466    -11.42601      1740.05   -1371.0815   -86.761646    409.76349  -0.13962037   -4243.8381 
 3094000    230.47781   -4733.2276   -4288.7317   -4733.2276            0    1780.8285    20.205043    20.122239     21.01608    8544.5227    2374.8711    1213.4655    1754.1489    -1050.223     60.18372    731.56328   -4066.8172 
 3095000    230.94307    -4758.164   -4312.7709    -4758.164            0    2167.4868    20.146711    20.388132    20.725482    8513.0706    352.01487    1842.8017    4307.6437   -737.11699    635.91809   -457.55025   -4043.6679 
 3096000    241.59175   -4741.7307   -4275.8007   -4741.7307            0    2846.3051    20.273545    20.006422     21.03057    8530.0226    1988.8997    3869.2283    2680.7873    611.12232      601.308    400.48125   -3921.7157 
 3097000    247.15039   -4757.5861   -4280.9358   -4757.5861            0    1264.5009    20.228933    19.890712    21.194857    8528.1299   -256.49025    3429.3348    620.65808   -455.99183    739.78345   -816.41137   -4123.6647 
 3098000    237.86642   -4748.1319   -4289.3865   -4748.1319            0   -187.90288    20.219556    20.289342    21.008667    8618.6262    1332.5561   -1183.0818   -713.18292   -790.60566   -511.88178   -52.026529   -4313.0047 
 3099000     236.9764      -4742.9   -4285.8711      -4742.9            0    161.99134    20.277841    20.078591    20.926053    8520.0525   -385.35904   -120.48597    991.81903   -467.63185    581.79676    1214.4697   -4265.7426 
 3100000    242.78467   -4750.8815   -4282.6508   -4750.8815            0    1922.2219    20.157853    20.173048    20.959592    8523.1204    1311.9941    1406.8063    3047.8652    37.165459   -78.116599   -547.72395   -4043.7168 
 3101000    227.71994   -4757.6083   -4318.4313   -4757.6083            0    1490.1011    20.030294    19.987299    21.368539    8554.9263    1741.8109    795.93165    1932.5608   -274.17152    324.74769   -1359.0939   -4132.5191 
 3102000    233.76641   -4734.1796   -4283.3414   -4734.1796            0    1561.4916    20.249216    20.040087    21.062478    8547.0702    1120.3574    1828.4998    1735.6177    554.29669   -1434.5807   -398.69446   -4088.7011 
 3103000    245.50441   -4745.1496   -4271.6737   -4745.1496            0    1250.9759    20.331162    19.980082    21.148007    8590.7069    1774.9806    1711.7869    266.16036    263.88079    1329.6606    38.368483   -4114.9431 
 3104000    244.02908   -4733.9204   -4263.2898   -4733.9204            0    2406.2553    20.014126    20.223125     20.96179    8484.2462    3393.8084    947.03929    2877.9181    118.07076   -526.15189    400.85521   -3965.5541 
 3105000    239.55078   -4699.1874   -4237.1936   -4699.1874            0    2161.0667    20.238579    20.116796    21.172481    8620.0656    2028.4079    2354.3907    2100.4015   -634.33928    1177.9235    950.20214   -3965.5155 
 3106000    234.57404   -4761.1789   -4308.7832   -4761.1789            0    323.30459    20.228217    19.936826    21.103856     8510.899    151.98841   -128.88607    946.81142   -438.56169    1446.6172   -7.0141196   -4268.6537 
 3107000    241.82635   -4746.1897   -4279.8072   -4746.1897            0    1886.4629     20.09619    20.102612    20.990701    8479.9475    3783.4983    1236.5512    639.33907     274.0347   -1434.0649    419.62706   -4046.5058 
 3108000    232.85353    -4710.853   -4261.7754    -4710.853            0    1621.8481     20.20343    20.167882    20.991702    8553.2873    903.08411    2669.9231    1292.5371    386.09493    1303.6985    294.45545   -4059.4646 
 3109000     241.9056   -4745.3272   -4278.7919   -4745.3272            0    1096.4937    20.014537    20.136083    21.204074    8545.5468     599.2486    2060.4494    629.78313    263.51888    325.80255   -315.83378   -4142.1381 
 3110000    249.76392   -4741.2485   -4259.5578   -4741.2485            0    1313.3927    20.196892    20.181864    20.973018    8548.8316    3323.8341   -616.56041    1232.9045   -495.91057   -1134.2106   -94.476116   -4095.8093 
 3111000    240.74848    -4715.177   -4250.8733    -4715.177            0    2020.9063    20.356222    20.123217    20.722723    8488.7048    1567.0628    1368.4964    3127.1596   -411.33481    780.92376   -210.98367   -4000.6871 
 3112000    235.73345   -4725.3314   -4270.6996   -4725.3314            0    871.49167    20.250629    20.164532    21.061289    8600.2608    1628.2457   -414.68134    1400.9106   -672.53947   -1484.7866   -406.27699   -4161.3919 
 3113000    245.23029   -4784.4802    -4311.533   -4784.4802            0    2339.8657    20.010212     19.99387      21.1819    8474.4882    2556.8786     3450.046    1012.6724     205.0953    338.14685   -782.65948    -4022.345 
 3114000    235.95221   -4725.3161   -4270.2624   -4725.3161            0    505.55893    20.245845     20.21517    21.029817    8606.9406   -718.33104    1695.4898    539.51798    749.85461    588.64071    -1263.822    -4206.803 
 3115000    238.06247   -4740.8177   -4281.6942   -4740.8177            0    1900.5108    20.129195    20.291473    20.814355    8501.6446    1022.7313    1024.0224    3654.7787    124.32951    19.554077    877.86912   -4046.0541 
 3116000    235.63839   -4759.8327   -4305.3842   -4759.8327            0    486.42624    20.316108    20.118713     21.05454    8605.7049    794.34442    960.91071   -295.97642    295.59671    155.56868    157.13748   -4244.3351 
 3117000    224.13308   -4746.0075    -4313.748   -4746.0075            0    1231.6646    19.924216     20.28845    21.205007    8571.7307    2479.6127    766.62097    448.76023    231.72699   -288.37531   -181.48177   -4159.7777 
 3118000    224.19321   -4728.7283   -4296.3528   -4728.7283            0    437.80166     20.13833    20.000596    21.237988    8554.2071   -153.16966    1059.9839     406.5907    184.62087   -205.19558   -130.42737   -4241.7352 
 3119000    225.02628   -4739.5059   -4305.5238   -4739.5059            0     1747.171    20.291075    20.060049    20.861846    8491.6051    254.68305    2337.6036    2649.2264    148.39871   -151.89224     1248.215   -4089.1517 
 3120000    247.65465   -4755.4046   -4277.7817   -4755.4046            0      2313.47    20.183059    20.358942    20.833545     8560.623    2869.0101    540.01602    3531.3839    150.90427    722.96705   -313.88522   -3988.9499 
 3121000    226.86005   -4755.7722   -4318.2535   -4755.7722            0   -165.69249    20.079156    20.251165    21.284994    8655.0385    797.80471   -1069.8371   -225.04508    195.02873    9.1935241    77.073179   -4339.1681 
 3122000    242.64329   -4720.4356   -4252.4776   -4720.4356            0    1869.9153    19.742463    20.099186    21.412783    8496.7515    2804.7174    2371.9383    433.09006   -605.60106    448.36912    190.50948   -4020.7645 
 3123000    236.56444    -4734.748   -4278.5135    -4734.748            0   -101.96236    20.373588    20.114317    21.102107    8647.6606    131.87942   -504.28123    66.514741    169.59028   -1272.1652   -220.54969   -4291.3727 
 3124000    235.29392   -4727.9209   -4274.1368   -4727.9209            0     2994.255    20.061141    20.062192    20.972898    8440.9721    3044.2044      2364.21    3574.3508    -244.5312   -663.06261   -196.68916   -3905.5352 
 3125000    245.06851   -4721.4955   -4248.8603   -4721.4955            0    1888.7178    20.139131    20.307095    20.955892    8570.2735    3437.5648    277.14609    1951.4424   -193.33263    810.27582   -278.81288    -4012.792 
 3126000    233.55147   -4768.8055   -4318.3818   -4768.8055            0    33.209462     20.12992    20.163284    21.055057    8545.9377    22.943221   -51.826535     128.5117   -418.95952     599.7277    518.54012   -4314.2428 
 3127000    233.04666   -4734.8643   -4285.4142   -4734.8643            0    666.82072    20.003295    20.207476    21.384781    8644.0726    1258.3677   -162.85085    904.94528    266.81329    740.56589    382.08074   -4201.3515 
 3128000    241.38446   -4764.3078   -4298.7775   -4764.3078            0    1824.1339    20.156043     19.95652    21.044088    8464.8683    895.54505     2934.033    1642.8236   -18.022759    591.32297    35.813068   -4073.5856 
 3129000     248.0108   -4721.6104   -4243.3007   -4721.6104            0    2904.2942    20.140673    20.207612    20.924828    8516.2987    3186.2461    2285.0427    3241.5939   -34.378576    565.47763   -984.75686   -3882.5831 
 3130000     223.5306   -4749.6834   -4318.5858   -4749.6834            0    2324.6431    19.888572    20.142693    21.118407    8460.2323    2227.9248    2494.4427    2251.5619   -307.56088    94.668318   -553.56298   -4031.7625 
 3131000    225.49911   -4756.5181   -4321.6241   -4756.5181            0    2701.6487    20.145778    20.029127    21.010826    8477.9174    2328.6783     3202.913    2573.3547   -742.83465    45.392019   -355.69724   -3987.5876 
 3132000    231.81738    -4698.732   -4251.6527    -4698.732            0    1119.0017    20.184809    20.214278    20.940122    8544.0163    2027.2018    551.59531    778.20788   -464.60217   -129.37507   -891.28648   -4112.2187 
 3133000    255.81153   -4740.1206   -4246.7665   -4740.1206            0    2619.0068    20.204043    20.135292    20.934596    8516.4933    4848.7602    504.91552    2503.3447   -210.36453    145.09179    1024.1372   -3921.4746 
 3134000    231.10143   -4754.1164   -4308.4179   -4754.1164            0    1620.1901    20.143455    20.205501    20.948391    8526.1754    1377.4295      2055.52    1427.6206    220.75601   -120.22359   -257.93485   -4106.9545 
 3135000    238.77607   -4748.9547    -4288.455   -4748.9547            0    1577.9447    20.086853    20.064127    21.179875    8536.0226    2003.9915    1331.5772    1398.2654   -43.614391    1177.6885   -55.429139    -4092.018 
 3136000     234.3745    -4730.316   -4278.3051    -4730.316            0    1192.8888    20.130712    20.206409    21.041612    8559.0839   -1498.3814    2341.2698     2735.778   -571.43651    48.088889   -672.02306   -4129.4022 
 3137000    240.45937   -4767.5715   -4303.8254   -4767.5715            0    1081.5669    20.070169      20.2114    20.928092    8489.4008    1829.5092    336.87418    1078.3173   -157.15164    208.33429    871.98613   -4169.9174 
 3138000    242.69616   -4765.0693   -4297.0093   -4765.0693            0    1802.8797    20.294723    20.097649    20.942833    8542.0834    1284.6821    1982.2757    2141.6812   -824.57208    929.93897   -1244.4027    -4072.411 
 3139000    236.02243   -4777.6016   -4322.4125   -4777.6016            0     1125.851    20.093111    19.950753    21.247433     8517.516    1309.2604    504.47382    1563.8189    5.3244546    271.25029   -557.29513   -4182.5601 
 3140000    245.46286   -4735.6031   -4262.2073   -4735.6031            0    1133.1263    20.300725    19.897721    21.126685    8533.8746    1625.7828    554.16008    1219.4361   -191.93035    803.66819   -353.64113   -4121.1809 
 3141000    229.54389   -4737.1685   -4294.4738   -4737.1685            0    1570.6896     20.21621    20.097018    20.951978    8512.4855    1539.8659    793.15246    2379.0506    135.11608    407.46419    523.67052   -4099.4792 
 3142000    231.97751   -4727.5674   -4280.1793   -4727.5674            0    1944.4223    20.382988    20.036363    20.924175     8545.453    1313.4506    1300.5446    3219.2719    220.88969    510.71559    543.13507   -4037.8524 
 3143000    230.96646   -4734.9305   -4289.4923   -4734.9305            0      233.475    20.076329    20.097047    21.192512    8550.6472    169.28647    388.84938    142.28915   -260.90587    252.75121   -347.21708   -4260.3774 
 3144000    229.23943   -4716.6529   -4274.5454   -4716.6529            0    1449.0384    19.978953    20.151475    21.059205     8478.549     1644.633    1724.2146    978.26765    301.81911    439.89792    968.56308   -4095.3704 
 3145000    240.28655    -4741.019   -4277.6062    -4741.019            0    1746.9479    20.082867     20.19354    21.044996    8534.6754    1008.1328    1437.8803    2794.8306     170.9954    318.95951   -931.73198   -4060.1645 
 3146000    239.99281   -4763.6254   -4300.7791   -4763.6254            0    1377.9896    20.153355    20.233959    20.912387    8527.6986    1746.3393    809.48117    1578.1482    -322.8137    585.34319   -1113.7594   -4129.4016 
 3147000    230.64299   -4753.8425   -4309.0281   -4753.8425            0    1270.4849    20.208046    19.970597    21.236163    8570.2094    2377.2628    1390.6193    43.572643    124.72385    35.585494    312.16076   -4150.2331 
 3148000    241.29694   -4764.5769   -4299.2155   -4764.5769            0    2289.3576    20.039997    19.978591    21.221809    8496.5951      1824.07    3765.7716    1278.2311    184.24699    1024.5238   -173.89068   -4015.5318 
 3149000    236.22937   -4716.6615   -4261.0733   -4716.6615            0    1668.6012    20.057879    20.182618    21.100938    8542.0921    2669.6598   -377.76263    2713.9066   -246.14647    495.85585    843.87875   -4053.2029 
 3150000     237.3315    -4743.188   -4285.4743    -4743.188            0    1820.7074    20.383914     20.10632    20.680027     8475.616    1596.1176    1424.6898    2441.3149   -67.587412    2223.8125    205.65769     -4060.42 
 3151000     236.0023   -4695.7977   -4240.6474   -4695.7977            0    1032.4109    20.218631    20.147234    21.030111    8566.6048    1771.2528    37.926707    1288.0532   -419.57914    1435.6451   -566.31139    -4111.663 
 3152000    243.01014   -4729.4945   -4260.8291   -4729.4945            0    990.83412    19.967311    20.047334     21.41324    8571.5349    2067.7999    1188.2139   -283.51147   -398.40932    744.15938   -609.55015   -4136.9678 
 3153000     245.8186   -4764.0263   -4289.9445   -4764.0263            0    335.05129    20.166701    20.166541    21.148775    8601.0502    184.71925    1525.4243   -704.98972    -101.3856    1172.9414   -12.476971   -4247.9165 
 3154000    241.44046   -4756.3723   -4290.7341   -4756.3723            0    1588.3778    20.137101    20.162174       20.926    8496.1179    1251.0709    1603.7905    1910.2722   -312.03828   -797.71866   -507.29384   -4093.9227 
 3155000    232.67462    -4735.562   -4286.8295    -4735.562            0    834.35177    20.390938    19.911206     21.06001    8550.5361    62.891417    1050.4728    1389.6911   -568.83545    394.27693    707.81084   -4182.7851 
 3156000    231.97191   -4752.5928   -4305.2155   -4752.5928            0    3178.2572    20.103084    19.991233    21.016697    8446.3046    3493.6195    2885.7734    3155.3786    623.64445    581.27354   -1711.4763   -3913.7156 
 3157000    246.70643   -4745.0311    -4269.237   -4745.0311            0    1150.4257    20.151541    20.000721    21.241243     8561.184    1304.4224    1530.7321    616.12244   -164.59017    679.40075   -1761.7983   -4125.5993 
 3158000    222.54376   -4735.2972   -4306.1029   -4735.2972            0    2945.6441    20.312251    19.966199    20.894287    8473.8545    294.52178    4922.0388    3620.3719    149.26976    -796.7133    514.42072   -3942.0729 
 3159000    242.77318   -4779.6877   -4311.4792   -4779.6877            0    866.63619    20.103264    20.241902    21.007684    8548.6211      929.386    235.24871    1435.2739   -377.75938   -1186.7497   -1071.0701   -4203.4332 
 3160000     239.7748   -4736.1349    -4273.709   -4736.1349            0    1306.0248    20.331277    20.017531    20.981536    8539.1071   -631.38451    2664.6117    1884.8471    797.01203   -107.51733    -75.41336   -4111.0644 
 3161000    227.49608   -4729.1955   -4290.4501   -4729.1955            0    2822.3695    20.116999    19.962909    21.073506    8462.9894    4022.6337    2842.3528    1602.1221   -365.33969    393.54423    779.16467    -3942.102 
 3162000    229.04074   -4716.0833   -4274.3589   -4716.0833            0    1299.9072     20.03392    20.344908    21.135007    8614.3807    1329.6565    417.80416     2152.261    155.81904    35.508416    411.57605   -4111.0491 
 3163000     230.1296   -4723.3637   -4279.5394   -4723.3637            0    1285.4819    20.148046    20.220243    21.014351    8561.2126    574.34108    1901.9541    1380.1503   -240.48061    -401.3059   -479.30653   -4119.0386 
 3164000    233.99068   -4751.9125   -4300.6418   -4751.9125            0    838.79332    20.188555    20.099929    21.147761    8581.5186   -780.17401    2522.2248     774.3292   -197.12005   -1495.4986    94.482734   -4195.6646 
 3165000    241.00882   -4763.2277   -4298.4219   -4763.2277            0    786.55447    20.157076    20.237147    20.802479    8485.7828     3133.356   -2622.2279    1848.5354    543.07692   -1343.4844   -2244.6556   -4201.0807 
 3166000    250.40074   -4751.7038   -4268.7849   -4751.7038            0    1974.2329    20.080531    20.148448    21.044824    8514.5576    1589.7445    3228.2393    1104.7148    26.045741     -164.571      272.477   -4023.6324 
 3167000    251.50191   -4767.1428   -4282.1002   -4767.1428            0    837.45024    20.195151    20.090107    21.189864    8597.2096   -282.56197    1307.8567     1487.056   -268.29393   -848.53187   -1158.3447   -4177.0995 
 3168000    246.37794   -4725.5314   -4250.3708   -4725.5314            0     2031.815    20.018395    20.178812    21.083656    8516.6884    3923.0958    631.04388    1541.3053   -438.69933    295.19486    1197.3034   -3998.0048 
 3169000    249.47058    -4734.727    -4253.602    -4734.727            0     242.1331    19.831838    20.336254    21.298117    8589.6436    1097.8275   -139.58616   -231.84208   -339.67079   -397.59121     538.2737   -4223.2697 
 3170000    237.37568    -4718.837    -4261.038    -4718.837            0     3584.234    20.191612    20.094113     20.96034    8504.2918    3272.5412    4951.4497    2528.7112   -1116.2502   -65.796286    115.74733   -3816.4985 
 3171000     217.0958   -4681.5556   -4262.8681   -4681.5556            0    1921.4765    20.298419    20.153224     20.82193    8517.8058    1168.8834    2004.8478    2590.6983    433.49199    770.36643   -1488.5643   -4024.1757 
 3172000    237.76239   -4759.6634   -4301.1187   -4759.6634            0    388.20148    20.279155    19.936185    21.210761    8575.2771   -669.67407    1365.9004    468.37814   -23.886655   -319.78331    51.129835   -4252.5696 
 3173000    224.95724   -4736.7026   -4302.8536   -4736.7026            0    2510.1334    20.234623    20.012875    20.857104    8446.1466    2420.2306    3235.3836    1874.7862   -532.93251    71.157816    886.71171   -3993.6594 
 3174000    242.24029   -4751.8126   -4284.6319   -4751.8126            0    468.85969    20.120134    20.264346    20.926567    8532.2081     1810.977   -410.93927    6.5413115    541.13068    813.64425    749.87043     -4226.29 
 3175000    246.82508   -4768.7562   -4292.7332   -4768.7562            0    859.38649    20.210954    20.001443    21.016636    8495.9379   -30.146324    2842.5087   -234.20289   -63.868033   -194.26444    1656.5829   -4186.2514 
 3176000    242.79704    -4778.184   -4309.9295    -4778.184            0    1971.9895    20.091021    20.067538    21.066708    8493.6189    2641.4354    1839.3968    1435.1363    58.592438    1000.2239    89.755275   -4065.6577 
 3177000    238.40159   -4734.9812   -4275.2037   -4734.9812            0    891.01579     20.01249    20.338383    20.971254    8535.7551    1956.2452   -128.68737    845.48951      9.01797    499.12681    808.50934   -4164.2854 
 3178000    232.60866   -4726.8856   -4278.2803   -4726.8856            0    854.54649    20.207394     20.22944    20.844724    8520.9951    1425.3369   -26.935465    1165.2381   -736.88304    1842.3892    259.12307   -4172.0858 
 3179000    240.92181   -4715.1701   -4250.5321   -4715.1701            0    1264.2812    20.204652    20.031468    21.107414    8542.7792    1750.8299     521.0264    1520.9872    352.72382    1465.7185     210.8919   -4093.0183 
 3180000    240.73969   -4727.9758   -4263.6891   -4727.9758            0    824.14671    20.146691    20.087381    21.225447    8589.8164    161.84607    1523.2122    787.38185   -148.04014    550.58386    544.98936   -4160.4452 
 3181000    232.96475   -4741.6818   -4292.3897   -4741.6818            0    1633.3067      20.0938    20.063654    21.090791    8502.8586    2918.0776    770.27486    1211.5676   -195.67507   -888.97054    440.53759   -4089.8507 
 3182000    243.36047   -4745.0624   -4275.7212   -4745.0624            0    2029.7739    20.296036    20.280625     20.69976    8520.3586    2358.7862    -218.9128    3949.4483     166.2894    1091.2361   -426.06743   -4023.5001 
 3183000     229.5919   -4744.9029   -4302.1156   -4744.9029            0     697.1117    20.198349     20.28553    20.923695    8573.1538    2494.3188   -832.04134    429.05766   -773.17437    303.48003    326.21347   -4214.9553 
 3184000    227.99433   -4752.1317   -4312.4255   -4752.1317            0     1196.679    20.239176    20.152588    21.006372     8567.906   -71.470574    2719.4854    942.02223   -450.55516    579.36167    411.50878   -4162.8955 
 3185000    242.51401   -4730.2468   -4262.5381   -4730.2468            0     1767.973    19.966514    20.004824    21.476742    8578.3819    3123.1913    1962.3117    218.41601   -416.61765    273.56759    -1465.488   -4041.3525 
 3186000    237.88853    -4718.191    -4259.403    -4718.191            0    1183.2968     20.19924    20.069999    21.207632    8597.5473    2142.8763    494.40734    912.60672   -830.29243   -108.71334    1670.1964   -4111.0336 
 3187000    236.29008    -4750.659   -4294.9537    -4750.659            0    2246.6939    20.096981    20.059877    21.072354    8495.1713    2066.2478    2513.0202    2160.8136    184.05975    428.86544   -2009.1767   -4016.6033 
 3188000    237.83992   -4725.2877   -4266.5934   -4725.2877            0    1347.6445    20.250449     20.41825    20.864849    8627.1708    3289.0379   -1998.5707    2752.4663    306.19642    119.37251   -778.59033   -4097.0349 
 3189000    229.44151   -4748.0897   -4305.5924   -4748.0897            0    766.16266    20.339687    20.017927    20.861721    8494.0238   -787.71608     1337.543    1748.6611   -174.88767   -410.08518    101.44917   -4210.6828 
 3190000     243.4192   -4716.7105   -4247.2561   -4716.7105            0    2728.6113    20.221932    20.001454    21.014084    8499.5253    2298.0231     2515.861      3371.95    406.22121    1364.3122    980.54013    -3909.026 
 3191000    232.22104   -4723.5184   -4275.6605   -4723.5184            0     467.5438    19.989101    20.230325    21.365332    8639.8415     1244.829   -8.6073388    166.40978   -316.62511   -162.71941   -1186.8794   -4216.7485 
 3192000    251.38185   -4752.8469   -4268.0358   -4752.8469            0    1442.3292    20.181097     20.01209    21.252556    8583.1835    2348.3087    559.82653    1418.8523   -265.52772    26.862827   -302.72279   -4087.4895 
 3193000     244.7333   -4751.7285   -4279.7397   -4751.7285            0     2035.636    20.345954    19.971226     21.07285    8562.6081    -320.1115    3461.6338    2965.3857    -267.0892    1280.3437    -996.8964   -4025.5359 
 3194000    235.09518   -4714.8161   -4261.4153   -4714.8161            0    1947.1133    20.206091     20.08488    21.027748    8533.8362    2640.6444    1241.9197     1958.776    725.37757    418.72232   -850.51506   -4019.0829 
 3195000    238.64089   -4738.8927   -4278.6537   -4738.8927            0    3012.5149    20.135509    20.079125    21.043056    8507.7787    3529.5604    2970.3093    2537.6748   -351.34284    696.71236   -1233.3085   -3904.8692 
 3196000    230.14337   -4731.2789   -4287.4281   -4731.2789            0    1233.1606    20.136282    20.267146    20.967836    8557.0782    2350.4611    317.92919    1031.0914    538.62359    15.602977    845.34959   -4133.5343 
 3197000    241.91442   -4751.4583    -4284.906   -4751.4583            0    18.116354    20.247033    20.119674    20.915529    8520.2275   -1754.4023    303.54868    1505.2026   -233.17407    875.90138     63.85684   -4282.6549 
 3198000    240.08396   -4738.5776   -4275.5555   -4738.5776            0    2319.6862    20.039451    20.151384    20.958765    8463.6246    1224.3992    3106.2028    2628.4566   -448.95222   -1407.7691   -854.19684    -3989.229 
 3199000     238.1848   -4718.2521   -4258.8927   -4718.2521            0     1649.687    20.083139    20.201378    21.203416    8602.3761    1851.2108    1851.5713     1246.279    62.011947   -45.269265   -268.38249   -4051.9282 
 3200000    235.05487   -4749.2569   -4295.9338   -4749.2569            0    647.87193    20.219049    20.104846    21.145644    8595.7228   -378.13577    2018.7311    303.02049    -115.7049   -1077.9955   -1011.0508   -4214.7167 
 3201000    227.18544   -4718.3924   -4280.2461   -4718.3924            0     946.2346    20.208349    20.357165    20.689141    8511.1958   -1015.7921    964.92862    2889.5673    94.606104     1667.195    610.21399   -4162.7928 
 3202000    236.65432   -4730.0113   -4273.6035   -4730.0113            0    1519.4119    20.089323    20.144959    20.948705    8477.9116    1903.0578    430.45252    2224.7253   -276.21731    761.72152    95.650092   -4085.7409 
 3203000    228.75935   -4740.1095   -4298.9278   -4740.1095            0    2845.7415    20.023942    20.094334    21.064875    8475.8272    2973.4856    2188.2475    3375.4913    389.73881    1316.4878    1931.5531   -3947.1622 
 3204000    227.14061   -4745.9437   -4307.8839   -4745.9437            0    1176.1878    20.131679    20.026279    21.350988    8607.9204     1782.496    2095.8075   -349.73997    777.39625   -348.77143   -611.00261    -4160.228 
 3205000    223.81477   -4752.2262   -4320.5806   -4752.2262            0    1929.3872    20.120038    20.159501    21.032172    8530.8576    2494.4683    1079.2894    2214.4037   -338.87388   -1260.4326   -1107.3373   -4080.5382 
 3206000    225.19468   -4741.5909    -4307.284   -4741.5909            0    2058.2241    20.061347    20.137396    21.048958     8503.427    2621.3124    1990.5515    1562.8083   -1036.3748     1064.812    -465.0241   -4052.0359 
 3207000    233.69555   -4730.5071   -4279.8056   -4730.5071            0    157.48447    20.228552    20.152246    21.218128    8649.5859     -306.898    610.67931    168.67211   -694.48811   -234.60567   -306.84731   -4259.9397 
 3208000    237.57337   -4730.1194   -4271.9391   -4730.1194            0     3228.986    20.092786    20.098217    20.766459    8386.1016    4557.4262    2633.5454    2495.9863    759.99765    380.58374    281.55439   -3877.0255 
 3209000    235.65053   -4740.9602   -4286.4883   -4740.9602            0    736.99161    20.150477    20.125041     21.11887     8564.318   -89.605242      916.066    1384.5141    -98.92265    65.507853    142.70956   -4194.4368 
 3210000     243.9717   -4723.0483   -4252.5284   -4723.0483            0    2193.9739    20.043154    19.938198    21.421512    8560.5582      4324.39    1404.8419    852.68991   -278.69544    447.94631   -302.37671   -3978.6174 
 3211000    244.84472   -4751.5477   -4279.3441   -4751.5477            0    2176.6895    20.084288    20.023599    21.255165    8547.9716    1157.8206    2061.6697    3310.5784   -451.43207   -185.80308    -239.8212   -4007.9906 
 3212000    239.10271   -4743.3419   -4282.2122   -4743.3419            0    2094.6265    20.204539    20.087739    20.872884     8471.542    3864.2791   -79.227775     2498.828    130.62179    527.82553    248.71353   -4023.4237 
 3213000    245.56707   -4728.0653   -4254.4685   -4728.0653            0    1672.2734    20.109083    20.204637    20.966158    8518.4813    1994.6913    1439.5477    1582.5812    71.391258    476.90099   -588.19414   -4046.7165 
 3214000    242.09462   -4737.7454   -4270.8456   -4737.7454            0     2507.155    20.345239    20.021492     20.92394    8523.2007    2161.5237    2797.5369    2562.4044     613.5451    102.37667    593.70431   -3959.2009 
 3215000    220.00424   -4751.8495   -4327.5528   -4751.8495            0    2383.4795    19.923469    20.206619    21.058533    8477.8695    2754.3266    2844.8739     1551.238   -185.59781   -667.04635   -227.24432   -4032.8569 
 3216000    235.87728   -4759.1266   -4304.2175   -4759.1266            0    1993.2694    19.982104    20.146095    21.096262    8492.5401    2311.7198    1619.0444    2049.0441    365.04359   -1287.3849    564.91722   -4057.3411 
 3217000    232.57666   -4760.1863   -4311.6426   -4760.1863            0     1707.422    20.331196    19.988683    20.822776    8462.2479   -9.4714105    2424.1217    2707.6156   -288.04292   -16.403697   -326.93607   -4100.9242 
 3218000    252.00093   -4753.5266   -4267.5216   -4753.5266            0    1519.9543    20.151589    20.163885    21.061532    8558.0232    2978.0852   -1.0430509    1582.8208   -306.86597    174.09636   -1500.8936   -4077.8162 
 3219000    236.05594   -4719.8666   -4264.6128   -4719.8666            0    3348.1871    19.945745    20.204681    21.235846    8557.9909    5131.4191     3098.294    1814.8483   -221.58911   -908.27271    791.29468   -3846.7272 
 3220000    232.37359   -4754.3922   -4306.2402   -4754.3922            0    3468.7023    20.091443    19.965354    21.138343    8479.2823    4061.7358    3882.9247    2461.4465   -302.34409    475.10842   -109.03983   -3877.2948 
 3221000    237.12058   -4744.8599   -4287.5529   -4744.8599            0   -129.43783    20.344333     20.24178    20.984125    8641.3785    -651.1359   -1280.9655     1543.788    477.09909   -858.04769    267.74012   -4303.8654 
 3222000    232.22123   -4753.6908   -4305.8327   -4753.6908            0    1335.0638    20.285055    20.170319    20.697488    8468.5019   -515.42517    1593.2255     2927.391   -428.35696   -911.92167    470.52001   -4140.9464 
 3223000    226.27235   -4742.8507   -4306.4654   -4742.8507            0    766.57587    20.170787    20.271945    21.042027    8604.1076    639.35578    539.90444    1120.4674    210.44332   -1283.4127   -747.79525   -4210.2739 
 3224000    225.94224   -4717.1597   -4281.4111   -4717.1597            0     812.9439    20.056957    20.238802     21.20706    8608.5562     2340.012    573.26974   -474.45003   -56.501585   -56.238205   -281.87988   -4179.3484 
 3225000    234.58177   -4749.9303   -4297.5197   -4749.9303            0    1878.0546    20.107724    19.970219    21.058841    8456.2968     2013.669    1722.6237    1897.8711    228.65729    135.86339    93.298176   -4065.9059 
 3226000    237.04875    -4739.448   -4282.2795    -4739.448            0    1137.5316    20.210742    20.270514    20.948278    8582.1351   -160.49362     1859.331    1713.7576   -219.29416    295.68142    519.99348   -4139.9042 
 3227000    245.16681   -4694.4202   -4221.5954   -4694.4202            0    2374.4719    20.276543    20.073656    20.916641    8513.5821    2249.4948    1377.0586    3496.8622    -310.9556    485.98403    907.45334   -3926.7766 
 3228000    248.68827   -4737.3833    -4257.767   -4737.3833            0    2976.4953    20.084409    20.061212    21.163639    8527.2022    2359.4303    4611.8788     1958.177   -122.23058    1070.7818    214.37339   -3887.6086 
 3229000     241.5104   -4734.6133   -4268.8402   -4734.6133            0     1237.257    20.073122     20.12648    21.166998    8551.4945    2822.1991    56.102693    833.46923   -1048.1721    415.70618    157.98298   -4114.5359 
 3230000    253.96053   -4742.2242   -4252.4399   -4742.2242            0    1809.0216    20.197683    20.157984    20.933258    8522.8622   -456.18073    3871.9117    2011.3338   -907.18573   -484.54667    436.23383   -4027.5836 
 3231000    246.55318   -4733.2151   -4257.7165   -4733.2151            0    1940.5499    20.114692    20.438398    20.604388    8470.7127    1257.9918    926.81317    3636.8448    518.78654   -584.72859   -252.19686   -4017.9875 
 3232000    232.24916   -4732.3731   -4284.4611   -4732.3731            0     1676.417    20.071842    20.226657    21.071168    8554.6049    1730.8894    2221.8515    1076.5101   -1087.8334   -320.38505    147.92227   -4075.3111 
 3233000    231.32183   -4738.8284   -4292.7048   -4738.8284            0    2087.9595    20.236312    19.828129    21.222104    8515.3312     1809.172    3247.9607    1206.7456    204.79868     260.2627    -85.33411   -4033.4066 
 3234000    244.08333   -4739.0148   -4268.2796   -4739.0148            0    3124.9425    20.009277    20.145786    21.059474    8489.1288    3554.0964    3652.6411      2168.09     55.95939   -896.30129    286.89024   -3881.3953 
 3235000    224.56069   -4737.7073   -4304.6232   -4737.7073            0    1426.7669    20.295045    20.155175    20.912798    8554.3839    114.33642    1931.8206    2234.1435    219.54988   -1034.1057   -48.537652   -4126.6241 
 3236000    238.53535   -4758.2714    -4298.236   -4758.2714            0    2605.2281    20.063811     20.22091    20.897293    8478.2097    4394.6053    1377.5482    2043.5308   -213.62549    172.99297   -343.52378   -3976.1099 
 3237000    235.82009   -4736.9561   -4282.1572   -4736.9561            0    1231.5445    20.304143    19.995028    21.123008    8575.5593    562.99184    3185.1541   -53.512404   -522.02883     168.1486   -537.75431   -4128.1332 
 3238000     233.9296   -4719.1552   -4268.0023   -4719.1552            0    2150.0961    20.061061    20.098769    21.153454    8529.1286    1391.3339    3030.3874     2028.567    259.56432    826.36672    133.68575   -4000.5549 
 3239000    239.47992   -4750.7862    -4288.929   -4750.7862            0    2510.0415     20.07916    20.172623    21.073198    8535.6844    5103.3338   -385.99141    2812.7822    -396.9705    622.37478   -1017.7783   -3976.4685 
 3240000    237.05405   -4731.9531   -4274.7744   -4731.9531            0    966.82038    20.282635    20.114142    20.983189    8560.4654   -1077.0439    3253.6243    723.88078    348.86829    1227.5574    467.70029   -4154.0711 
 3241000    236.42358   -4757.3088   -4301.3461   -4757.3088            0    1714.6738    20.183078    20.102248    21.038932    8536.0255    967.73945    1649.1949    2527.0872   -225.68041   -338.21495   -814.53468   -4087.8877 
 3242000    244.23736   -4754.7648   -4283.7325   -4754.7648            0    516.01403    19.997925    20.333998    21.166297    8607.0161    458.20534    559.19792    530.63881    177.77968    877.90593   -771.00187   -4218.9601 
 3243000    238.89808   -4728.2274   -4267.4924   -4728.2274            0    538.07807    20.265484    20.062686      21.0705    8566.8446   -156.04424    1302.2524    468.02606   -675.05071    878.75279   -1286.7863   -4200.2657 
 3244000    251.51157   -4752.7631   -4267.7019   -4752.7631            0    921.99954    20.542668    19.899651     20.81748    8510.0179   -1397.3734    3811.6921     351.6799   -61.532704   -337.49326     634.1667   -4153.2726 
 3245000    241.10092   -4708.4144    -4243.431   -4708.4144            0    1805.2819    20.209396    20.128487    21.080111    8575.0641    731.35154    1915.0573    2769.4367   -252.34239    1392.2455   -158.12953   -4017.6651 
 3246000    233.59621   -4710.8746   -4260.3646   -4710.8746            0    1420.8255    20.055501    20.101137     21.20362    8547.9929    803.36352    1730.2398    1728.8732   -107.90959   -666.83399   -49.089692   -4083.2392 
 3247000    243.33253   -4750.7717   -4281.4844   -4750.7717            0    1808.5997    20.067681    20.254963    20.996389     8534.405    2332.6605    684.36576    2408.7728   -421.60942   -1169.1986   -762.04103   -4056.3761 
 3248000    238.13292    -4715.946   -4256.6866    -4715.946            0    1646.9801    20.224623    20.121322    20.985594    8540.0071    1254.5919    2324.8576     1361.491   -17.514244    699.74119   -270.08907   -4051.5597 
 3249000    237.07457   -4758.2158   -4300.9975   -4758.2158            0    1802.8759    20.356446    20.048154    20.850309     8509.202    1583.3744    735.91272    3089.3407   -229.72242   -31.065345    -84.63702   -4077.2642 
 3250000    241.01705   -4704.1417     -4239.32   -4704.1417            0    851.33878    20.210977    19.906483    21.244002    8547.0882    1320.2687    300.69294    933.05469   -183.80786   -210.52695     1506.803   -4133.2002 
Loop time of 383.151 on 64 procs for 250000 steps with 972 atoms

Performance: 112.749 ns/day, 0.213 hours/ns, 652.485 timesteps/s
192.0% CPU use with 32 MPI tasks x 2 OpenMP threads

MPI task timing breakdown:
Section |  min time  |  avg time  |  max time  |%varavg| %total
---------------------------------------------------------------
Pair    | 28.166     | 34.422     | 40.057     |  59.3 |  8.98
Bond    | 1.069      | 1.2052     | 1.7503     |  12.4 |  0.31
Kspace  | 171.79     | 177.33     | 184.84     |  29.9 | 46.28
Neigh   | 2.2413     | 2.3003     | 2.4225     |   3.6 |  0.60
Comm    | 69.753     | 72.785     | 75.125     |  16.9 | 19.00
Output  | 1.5782     | 1.5794     | 1.5812     |   0.0 |  0.41
Modify  | 73.143     | 75.013     | 80.113     |  17.7 | 19.58
Other   |            | 18.51      |            |       |  4.83

Nlocal:        30.3750 ave          35 max          23 min
Histogram: 1 2 2 1 2 6 2 7 7 2
Nghost:        2563.59 ave        2583 max        2536 min
Histogram: 1 2 1 3 4 2 6 9 1 3
Neighs:        9218.16 ave       11054 max        6366 min
Histogram: 1 0 3 4 1 5 6 6 1 5

Total # of neighbors = 294981
Ave neighs/atom = 303.47840
Ave special neighs/atom = 2.0000000
Neighbor list builds = 6969
Dangerous builds = 0

unfix		3
unfix		2
unfix		1

write_data	data.final.${pid}
write_data	data.final.1
System init for write_data ...
PPPM initialization ...
  extracting TIP4P info from pair style
  using 12-bit tables for long-range coulomb (../kspace.cpp:340)
  G vector (1/distance) = 0.37165208
  grid = 24 24 25
  stencil order = 5
  estimated absolute RMS force accuracy = 0.0035008487
  estimated relative force accuracy = 1.0542702e-05
  using double precision FFTW3
  3d grid and FFT values/proc = 3458 576
Last active /omp style is kspace_style pppm/tip4p/omp
WARNING: Not all mixed pair coeffs generated from mixing. Use write_data with 'pair ij' option to store all pair coeffs. (../write_data.cpp:312)

write_restart   restart.lmp.${pid}
write_restart   restart.lmp.1
System init for write_restart ...
PPPM initialization ...
  extracting TIP4P info from pair style
  using 12-bit tables for long-range coulomb (../kspace.cpp:340)
  G vector (1/distance) = 0.37165208
  grid = 24 24 25
  stencil order = 5
  estimated absolute RMS force accuracy = 0.0035008487
  estimated relative force accuracy = 1.0542702e-05
  using double precision FFTW3
  3d grid and FFT values/proc = 3458 576
Last active /omp style is kspace_style pppm/tip4p/omp
Total wall time: 0:06:23
