LAMMPS data file via write_data, version 30 Jul 2021, timestep = 4250000

864 atoms
2 atom types
576 bonds
1 bond types
288 angles
1 angle types

0.06025951526668116 18.147312884736287 xlo xhi
0.009916064641307898 23.619261735361775 ylo yhi
0.13640752725848948 22.076788272743208 zlo zhi

Masses

1 1.00794
2 15.9994

Atoms # full

707 1 1 0.5897 2.8427204130572292 1.6420922692355722 3.7481919437476603 0 0 0
706 1 2 -1.1794 3.0018622772515684 1.5121063718392862 2.81338451519473 0 0 0
30 1 1 0.5897 5.444282923978747 3.8848043946025843 2.356385335751286 0 0 0
708 1 1 0.5897 2.3314043796874544 2.040328458328507 2.3801288089876254 0 0 0
29 1 1 0.5897 4.7088881534750815 2.5632522152955333 2.2862915119508447 0 0 0
28 1 2 -1.1794 5.473840079969204 3.0231138962018673 1.9404898930007257 0 0 0
846 1 1 0.5897 7.251434903516485 1.5648754727099963 4.641543729981621 0 0 0
3 1 1 0.5897 0.5912206425551076 4.068130626205551 2.3309550675812 0 0 0
844 1 2 -1.1794 7.152250993247959 1.533705991700048 5.59298579323183 0 0 0
494 1 1 0.5897 7.075132952642673 2.0993309882456472 2.37967817034166 0 0 0
493 1 2 -1.1794 7.74553560082202 1.492342821341524 2.693330998400956 0 0 0
1 1 2 -1.1794 0.7641488387846914 3.19664066802073 1.9746161505285131 0 0 0
20 1 1 0.5897 0.7315621455540233 2.994973556273322 0.13995275678349856 0 0 0
495 1 1 0.5897 8.57495750366838 1.9152500207408067 2.4710447149915664 0 0 0
595 1 2 -1.1794 0.705642047753751 5.747064613525602 3.3125449448838236 0 0 0
2 1 1 0.5897 0.06133862716514216 2.6498521090411926 2.3258424442855743 0 0 0
597 1 1 0.5897 0.7138278044826486 5.769662606113657 4.269347802534117 0 0 0
136 1 2 -1.1794 5.323365406062105 5.537074732737012 3.04549932441577 0 0 0
487 1 2 -1.1794 2.664279949565624 1.6274927459508333 5.448869902323712 0 0 0
137 1 1 0.5897 5.361863950589063 5.557434719350319 4.001614941547635 0 0 0
419 1 1 0.5897 8.747538417264824 2.4583911587442766 6.261100941146403 0 0 0
84 1 1 0.5897 5.674731262854737 2.4865059932547595 6.156384821176408 0 0 0
676 1 2 -1.1794 5.090736931692326 5.557536556883654 10.296210601842146 0 0 0
488 1 1 0.5897 1.9226595082116322 1.9739852122573427 5.944979322420278 0 0 0
674 1 1 0.5897 3.8593433283878342 2.1180405768116928 10.529965197503019 0 0 0
356 1 1 0.5897 7.185450513782174 0.8997290433448856 9.742378252154234 0 0 0
686 1 1 0.5897 5.338600961397224 4.675837577336693 5.998238475301572 0 0 0
785 1 1 0.5897 0.8411406681366209 3.0208564065150014 8.133002557209263 0 0 0
34 1 2 -1.1794 0.9582042378146168 3.0719659579997787 9.870845675105176 0 0 0
83 1 1 0.5897 4.164807959524986 2.5470558640528016 6.247229580772 0 0 0
355 1 2 -1.1794 7.281228995182987 1.796051872629924 10.064594174751674 0 0 0
274 1 2 -1.1794 5.001299828766421 3.0875547948799205 9.23980702578162 0 0 0
678 1 1 0.5897 4.934958565352361 4.7030332326965105 9.893831795514743 0 0 0
675 1 1 0.5897 3.082641833334258 0.8451354650005145 10.26796634339528 0 0 0
36 1 1 0.5897 1.7978743832185542 2.7352471045093854 10.183512642657877 0 0 0
183 1 1 0.5897 1.038345918973142 4.866719334736366 6.334329728824012 0 0 0
784 1 2 -1.1794 0.8281024116218119 2.798242855716196 7.20222654438066 0 0 0
82 1 2 -1.1794 4.957448529759237 3.0265338325767335 6.488236497786186 0 0 0
276 1 1 0.5897 5.698641308648025 2.464926441883467 9.445642009413758 0 0 0
673 1 2 -1.1794 3.185425827824685 1.5515570269383654 10.905683189610725 0 0 0
275 1 1 0.5897 4.95167227017255 3.0848800553554545 8.283993311313514 0 0 0
489 1 1 0.5897 2.881639448266238 0.8039402541835647 5.885751919822638 0 0 0
35 1 1 0.5897 1.039317788852002 4.023140270161829 9.94239104562623 0 0 0
845 1 1 0.5897 7.238031069010119 0.6059752907788559 5.812936168097155 0 0 0
112 1 2 -1.1794 0.5667007070408763 5.709069549799528 10.371088434423319 0 0 0
176 1 1 0.5897 8.972590309276233 2.7249880540291453 9.784766445442896 0 0 0
677 1 1 0.5897 5.9350625972107025 5.838549060660317 9.943634593255531 0 0 0
181 1 2 -1.1794 0.8507938859262854 5.764116110580308 6.058855992720425 0 0 0
357 1 1 0.5897 7.092929664104729 1.735744428351773 11.0010588427436 0 0 0
685 1 2 -1.1794 5.494334812426069 5.590286312974548 5.761751737229482 0 0 0
166 1 2 -1.1794 3.0514742249382047 1.7979503076027072 13.662789841170785 0 0 0
167 1 1 0.5897 3.134180864003957 1.705918540204436 12.713712053452117 0 0 0
457 1 2 -1.1794 5.279095239088284 3.242380750835391 14.507527524225972 0 0 0
458 1 1 0.5897 6.0786150321656764 2.8031603894238257 14.21758644457219 0 0 0
459 1 1 0.5897 4.572253791832227 2.654495891316879 14.240998732178243 0 0 0
762 1 1 0.5897 5.322249053703754 4.872688791345324 13.372687227527635 0 0 0
113 1 1 0.5897 0.5409188498628499 5.680067329185703 11.327408591562461 0 0 0
168 1 1 0.5897 2.2026222565625204 2.221667793788653 13.789744448154268 0 0 0
594 1 1 0.5897 8.096269555299386 2.6345673246587533 13.228092436991096 0 0 0
468 1 1 0.5897 0.5879811265724193 3.21557466404147 15.209669021513939 0 0 0
593 1 1 0.5897 7.53558816728168 1.2413476284291325 13.42004246095621 0 0 0
592 1 2 -1.1794 7.30681020488926 2.1108337575967155 13.091379640070315 0 0 0
365 1 1 0.5897 0.9684106599575467 5.010986582590627 13.611270978037844 0 0 0
71 1 1 0.5897 4.899311070403049 3.399704332227139 16.26306435339594 0 0 0
466 1 2 -1.1794 0.7980916018673114 3.2621511930143847 14.277001273248214 0 0 0
761 1 1 0.5897 5.048451439933033 5.69624117985086 12.132314552433712 0 0 0
760 1 2 -1.1794 5.335847623835386 5.771002797724928 13.042191375198879 0 0 0
364 1 2 -1.1794 0.6986286634913986 5.849018623581019 13.235372466005037 0 0 0
754 1 2 -1.1794 7.417239939166505 1.7823349476999486 17.62964009155435 0 0 0
291 1 1 0.5897 1.9160570840396083 1.9945102850384602 17.475251357728908 0 0 0
667 1 2 -1.1794 5.260059613510966 3.548395628342515 21.093467811961112 0 0 0
755 1 1 0.5897 7.431117979631133 1.8774972357228061 18.58190953203014 0 0 0
277 1 2 -1.1794 5.080618414314842 5.777322633313671 17.467602636567833 0 0 0
290 1 1 0.5897 2.822311756379337 0.7820986966362067 17.50596024034094 0 0 0
289 1 2 -1.1794 2.7436221362988436 1.6770341586910371 17.836541233723906 0 0 0
41 1 1 0.5897 6.942190272820268 2.6254489684662783 20.645350826271162 0 0 0
143 1 1 0.5897 5.130807650462534 5.264963337024077 20.561056235228335 0 0 0
569 1 1 0.5897 2.313401288856403 2.186355942505762 20.967272560536934 0 0 0
134 1 1 0.5897 0.25318947150718035 3.9124905531729337 17.025307618636297 0 0 0
570 1 1 0.5897 3.0342295165855235 1.8747389010927336 19.67308669183589 0 0 0
40 1 2 -1.1794 7.683984582824661 2.144142111724379 20.27887614325948 0 0 0
278 1 1 0.5897 5.007131765434541 4.82535692067879 17.398448555890916 0 0 0
756 1 1 0.5897 6.5401130707772355 2.0667271598750205 17.37283195330607 0 0 0
42 1 1 0.5897 7.61180326553323 1.2675969800762998 20.656799205541567 0 0 0
568 1 2 -1.1794 3.116529416879501 1.7953019679425388 20.623361329946334 0 0 0
19 1 2 -1.1794 0.5679461468131859 3.082757933317618 21.141355150327307 0 0 0
669 1 1 0.5897 4.567949419073812 3.063579682510027 20.643850897780936 0 0 0
571 1 2 -1.1794 0.6668760372693736 5.718052008478325 17.734319349723343 0 0 0
81 1 1 0.5897 3.141686218948241 0.018792810571994875 21.233591491849623 0 1 0
72 1 1 0.5897 4.172403616909474 2.71373025697439 17.40007134897941 0 0 0
21 1 1 0.5897 0.7378725366808315 4.005925290632002 20.95344816058204 0 0 0
646 1 2 -1.1794 0.6833185131500744 5.8804441060151476 20.50611138997902 0 0 0
599 1 1 0.5897 8.800142464835725 2.5182099339937074 17.166882742597387 0 0 0
668 1 1 0.5897 5.245915898024745 3.211458802059007 21.989261359043745 0 0 -1
133 1 2 -1.1794 0.4475647015220512 2.9767411008127094 16.96946684290249 0 0 0
70 1 2 -1.1794 4.990460821772156 3.162176809342379 17.18574749226307 0 0 0
217 1 2 -1.1794 5.0309892450227345 10.955466139985878 1.6658856117360195 0 0 0
123 1 1 0.5897 3.0177664551501118 8.78628956456299 3.0839333712784702 0 0 0
121 1 2 -1.1794 3.0066997317176813 9.743522335098854 3.087253005914216 0 0 0
122 1 1 0.5897 2.9025383859060425 9.979154832645731 4.009046459878062 0 0 0
44 1 1 0.5897 1.3522868049484154 10.653177340824387 2.484769066837748 0 0 0
218 1 1 0.5897 5.8098000213130945 10.63950870826319 2.123914320133177 0 0 0
416 1 1 0.5897 6.640368928902091 6.655031056521514 2.21890416135944 0 0 0
219 1 1 0.5897 4.310495219500723 10.447995165295556 2.039490166023313 0 0 0
396 1 1 0.5897 0.5635364712107235 10.852692007939488 0.3671708708636043 0 0 0
415 1 2 -1.1794 7.367898716755784 7.196279717456772 1.9123142086451823 0 0 0
773 1 1 0.5897 9.009304495115604 10.582273591895012 2.265036834204012 0 0 0
253 1 2 -1.1794 3.0031894073131835 7.018484895343169 2.4820396872929287 0 0 0
254 1 1 0.5897 3.0536854286510993 7.180228182201382 1.540046316588754 0 0 0
66 1 1 0.5897 7.622038765582976 9.830346263500306 3.876962726470703 0 0 0
65 1 1 0.5897 7.3395648651018845 8.947166469035762 2.6802940891188363 0 0 0
64 1 2 -1.1794 7.611184061187801 9.833307929937204 2.9199115581628186 0 0 0
43 1 2 -1.1794 0.5670238968239036 11.078099890369353 2.1397681235188517 0 0 0
417 1 1 0.5897 8.150882154558982 6.687947774428602 2.123929800107888 0 0 0
255 1 1 0.5897 2.1706051682617993 6.561958253719201 2.6028744896973524 0 0 0
138 1 1 0.5897 4.577675327290709 6.094656990261191 2.8234338293075387 0 0 0
714 1 1 0.5897 7.37098963995542 8.986921115490093 5.866577951960872 0 0 0
651 1 1 0.5897 3.6483544578284426 6.42245619936326 9.649092418701697 0 0 0
713 1 1 0.5897 8.277230218473248 10.195348567201597 5.969624406326311 0 0 0
114 1 1 0.5897 1.3750451330119797 6.179317482532118 10.16697657759325 0 0 0
526 1 2 -1.1794 7.4849732501177435 6.701166970706768 9.236497083489391 0 0 0
11 1 1 0.5897 2.610862133613884 6.600490877209411 6.1072618972110995 0 0 0
145 1 2 -1.1794 7.517216886070875 7.339971413923232 6.439388239959578 0 0 0
528 1 1 0.5897 8.239894496230788 6.176180978286161 9.502411788983162 0 0 0
794 1 1 0.5897 2.0947934273364095 10.131781289393704 6.556641052290368 0 0 0
146 1 1 0.5897 6.776346915725543 6.812688520564369 6.140524609560785 0 0 0
650 1 1 0.5897 2.9857070404209543 6.9620860728165415 8.399536082818415 0 0 0
12 1 1 0.5897 3.1029113366171224 8.028723473298529 6.209022244183737 0 0 0
527 1 1 0.5897 7.5826569025133965 7.523059478664957 9.717449954002001 0 0 0
15 1 1 0.5897 1.3668808179801635 10.826573458260702 9.913160052556918 0 0 0
582 1 1 0.5897 5.178433306671838 10.931990043326326 8.919879565936721 0 0 0
820 1 2 -1.1794 7.626468661977537 9.3541082889032 10.37080199184673 0 0 0
581 1 1 0.5897 6.134471414483825 10.446069383575887 9.988359770302978 0 0 0
147 1 1 0.5897 7.452887720579023 7.324698646368123 7.394213503120201 0 0 0
649 1 2 -1.1794 2.857634734367349 6.86681208356976 9.343247362567853 0 0 0
822 1 1 0.5897 8.45847018144251 9.774344977674845 10.153055585592625 0 0 0
550 1 2 -1.1794 0.4774447302963295 10.731196623826383 7.163521921096701 0 0 0
258 1 1 0.5897 3.574654929254541 10.088472480869417 10.092208770047527 0 0 0
795 1 1 0.5897 3.6051733249162603 10.226791373300887 6.596159214879481 0 0 0
257 1 1 0.5897 2.9499892685788716 8.747883308679029 9.76838043388566 0 0 0
793 1 2 -1.1794 2.8849818199738806 9.812349742879277 6.121012141702916 0 0 0
580 1 2 -1.1794 5.280998966935582 10.862678021056164 9.868967513882627 0 0 0
578 1 1 0.5897 6.022024801074645 10.553033438934488 6.756313516526036 0 0 0
577 1 2 -1.1794 5.197684284243008 10.911378917648715 7.0853005046876865 0 0 0
13 1 2 -1.1794 0.47767447992189055 11.173146791753602 9.839687935122308 0 0 0
10 1 2 -1.1794 3.3858515935217453 7.12083572953265 6.31906789834335 0 0 0
551 1 1 0.5897 0.40583257149064866 10.90285672610452 8.102393251738015 0 0 0
256 1 2 -1.1794 2.7738408798453165 9.577903620302772 10.211561299762193 0 0 0
687 1 1 0.5897 4.674743632370919 6.036352695902809 5.975060196605317 0 0 0
182 1 1 0.5897 0.16522332900851827 6.0606276783607465 6.657364456232181 1 0 0
165 1 1 0.5897 8.89007217238556 6.266287886310035 6.2308598153231065 0 0 0
552 1 1 0.5897 0.45296983803983487 11.598264602010495 6.758580057641425 0 0 0
712 1 2 -1.1794 7.423648984524441 9.915364442062856 5.639198713920156 0 0 0
259 1 2 -1.1794 1.0379551954320432 11.297213699503029 13.732098698479403 0 0 0
225 1 1 0.5897 2.7581007383983853 7.006644244485218 15.633200652580294 0 0 0
332 1 1 0.5897 3.207001662272688 7.949244892161553 13.59321200816926 0 0 0
797 1 1 0.5897 3.2126872275860574 9.613862428854699 12.013658147298402 0 0 0
796 1 2 -1.1794 3.2684640010016017 9.697008644136613 12.965519680988226 0 0 0
798 1 1 0.5897 2.552405281512952 10.288510502742461 13.19711481880586 0 0 0
722 1 1 0.5897 4.804828237372771 10.258958704523003 13.807121543655029 0 0 0
333 1 1 0.5897 3.749467046179217 6.540695771856144 13.474762429645926 0 0 0
723 1 1 0.5897 5.431380566148473 10.64988520797301 15.128546386130074 0 0 0
828 1 1 0.5897 7.744506486436854 6.591958313254737 14.729376328703275 0 0 0
721 1 2 -1.1794 5.636476018673337 10.51967823885771 14.202779212058505 0 0 0
331 1 2 -1.1794 3.0476584521776093 7.049971181770486 13.88013261531779 0 0 0
827 1 1 0.5897 7.00689166885277 6.345618392324626 13.430615794455742 0 0 0
826 1 2 -1.1794 7.880111948211414 6.512570453444959 13.785252291920067 0 0 0
475 1 2 -1.1794 7.825238892162917 9.176653063176387 13.143218537442523 0 0 0
476 1 1 0.5897 7.04355082415584 9.48869452587072 13.599016255668309 0 0 0
477 1 1 0.5897 7.92260545161741 8.267934551893694 13.428173949034502 0 0 0
261 1 1 0.5897 0.8735610528428165 11.451955071113918 14.662203815767622 0 0 0
366 1 1 0.5897 1.4403042320049495 6.433118245644828 13.393690995709138 0 0 0
821 1 1 0.5897 7.6656564018731 9.220661124366993 11.317754395936712 0 0 0
445 1 2 -1.1794 0.29037606152559603 11.20600125019844 16.333956222326144 0 0 0
260 1 1 0.5897 0.34396641633319097 10.695556840452316 13.462574848856706 0 0 0
104 1 1 0.5897 9.01637511932194 10.313038286054393 13.809919970992883 0 0 0
223 1 2 -1.1794 2.8062378347703434 6.95359290393036 16.58763866333667 0 0 0
647 1 1 0.5897 1.3691905670269306 6.486747798467219 20.785843220425527 0 0 0
141 1 1 0.5897 7.571383962368249 9.258330956536197 20.798686619353248 0 0 0
627 1 1 0.5897 1.6708781283889529 10.03200887293796 17.082938781466396 0 0 0
9 1 1 0.5897 6.542884099277943 10.14537272225099 17.580883000977607 0 0 0
361 1 2 -1.1794 5.117202273845366 11.150109302550446 20.877379221918048 0 0 0
224 1 1 0.5897 2.584478962961188 7.8349242358082725 16.888404286684455 0 0 0
4 1 2 -1.1794 2.980165133757574 7.29465383668074 21.673874917678475 0 0 0
160 1 2 -1.1794 7.512783191061822 7.51243519007253 21.03278296618555 0 0 0
140 1 1 0.5897 6.8892951024764955 10.554973343490824 20.417034833653716 0 0 0
522 1 1 0.5897 7.169053295352334 7.911462665422628 16.81971652150827 0 0 0
690 1 1 0.5897 1.9205960011136987 10.27802177529677 20.614156187911647 0 0 0
625 1 2 -1.1794 2.3972531049184163 9.56576891841032 17.496702777961673 0 0 0
688 1 2 -1.1794 2.6202778248171064 9.736631644961706 20.248673889504815 0 0 0
521 1 1 0.5897 6.5860764255418625 6.5191075162391545 16.937004046724205 0 0 0
5 1 1 0.5897 3.705579125434424 6.882036433095065 21.205121329689185 0 0 0
689 1 1 0.5897 3.427952228139713 10.156982934708017 20.543926633337392 0 0 0
520 1 2 -1.1794 7.3931269165743645 6.986057617876728 16.72054421873584 0 0 0
626 1 1 0.5897 2.306276570240422 9.759439939618591 18.42960035716201 0 0 0
139 1 2 -1.1794 7.710667922951787 10.073757735170357 20.317021661968795 0 0 0
6 1 1 0.5897 2.9581122897728793 8.191729500849762 21.340414675398172 0 0 0
394 1 2 -1.1794 0.4928389770849626 10.914510352909645 21.355062734633634 0 0 0
8 1 1 0.5897 7.610790366795201 9.501790913577548 18.439461394027497 0 0 0
7 1 2 -1.1794 7.3853075335145135 9.693826758252508 17.5293127877546 0 0 0
161 1 1 0.5897 6.643503240560005 7.210598845249321 20.769300103832045 0 0 0
279 1 1 0.5897 4.2044710077185785 6.101493483930753 17.259010926225614 0 0 0
363 1 1 0.5897 5.113587926884809 11.11221191736749 21.833735171883582 0 0 0
680 1 1 0.5897 3.944402441565172 10.206274283139589 17.332688986996388 0 0 0
681 1 1 0.5897 4.677199554977979 11.530625898130458 17.29635524727295 0 0 0
711 1 1 0.5897 8.837507699926643 6.011075000742489 17.311904493423206 0 0 0
142 1 2 -1.1794 5.0418058038048805 6.170404129323567 20.263303014201917 0 0 0
648 1 1 0.5897 0.6850352594319488 5.9404161851950255 19.550879724026693 0 0 0
572 1 1 0.5897 1.47915503757482 6.075291958099835 17.37549067462566 0 0 0
162 1 1 0.5897 7.553209687272416 7.336348148672751 21.972694171455984 0 0 0
679 1 2 -1.1794 4.791665959746456 10.596925922655952 17.11884476952372 0 0 0
246 1 1 0.5897 9.080869115343381 10.57314147106382 17.00872614155101 0 0 0
144 1 1 0.5897 4.926583127672624 6.101047827462256 19.31566094721049 0 0 0
462 1 1 0.5897 8.975779336313607 6.559675485377873 20.55285407908221 0 0 0
174 1 1 0.5897 5.148461713112536 12.466508130269476 2.6116937080543376 0 0 0
173 1 1 0.5897 4.469682655089558 13.751169181123089 3.0372182233181926 0 0 0
172 1 2 -1.1794 5.289699601577845 13.264579229625548 3.12105148137502 0 0 0
292 1 2 -1.1794 2.869423715167192 17.550556032248785 2.7773174704264996 0 0 0
558 1 1 0.5897 2.7382104209662645 14.974149472563255 1.3554293451658186 0 0 0
556 1 2 -1.1794 2.7692322568377863 14.881328637489762 2.3075205968575236 0 0 0
557 1 1 0.5897 1.8730436500431473 14.654622403266199 2.555833921806952 0 0 0
478 1 2 -1.1794 7.33043639296038 15.01653213680813 2.410326629599456 0 0 0
479 1 1 0.5897 8.141544652646155 14.515862993872227 2.4979291561163928 0 0 0
293 1 1 0.5897 2.847655414465598 16.651798277513684 2.448463734986908 0 0 0
373 1 2 -1.1794 0.48022594251660533 13.632641994142901 2.9534892085940916 0 0 0
449 1 1 0.5897 7.93286793159178 16.762977442719716 3.1172033857165227 0 0 0
480 1 1 0.5897 6.638134504548111 14.390928089017041 2.623911791722834 0 0 0
200 1 1 0.5897 5.182927233086117 13.189249485916106 4.914503699070818 0 0 0
374 1 1 0.5897 0.4250701901393943 13.468640968013185 3.8948324616743313 0 0 0
317 1 1 0.5897 6.996979199731968 15.102111498112189 0.504902288398607 0 0 0
294 1 1 0.5897 2.9223554766661692 17.456800436676573 3.728353482050484 0 0 0
448 1 2 -1.1794 7.856707140412579 17.674633463927393 3.3991792490757446 0 0 0
308 1 1 0.5897 7.583960802468557 17.580992061355673 5.18948039295672 0 0 0
238 1 2 -1.1794 3.153152930707738 17.358996809165582 5.544796047619155 0 0 0
45 1 1 0.5897 0.6520480529145034 11.993309627643999 2.4072868987639375 0 0 0
456 1 1 0.5897 5.1518454290245455 12.667512049673533 10.236807939202995 0 0 0
519 1 1 0.5897 8.107409138612557 14.195762304937617 6.501530559395251 0 0 0
199 1 2 -1.1794 5.12368418944286 13.341206611243607 5.857618516428766 0 0 0
18 1 1 0.5897 3.6280033503130418 14.238365245783477 6.072055193877272 0 0 0
811 1 2 -1.1794 3.070648320721445 14.944576926825228 9.08669106146904 0 0 0
655 1 2 -1.1794 0.7092955916713958 13.141264421294688 5.721053898318309 0 0 0
813 1 1 0.5897 2.3227228301636877 14.49910416699349 9.484633034326786 0 0 0
17 1 1 0.5897 2.999683876170449 14.827250258254246 7.317075484864189 0 0 0
384 1 1 0.5897 2.6429465919511106 16.72489987632907 9.688391703533725 0 0 0
454 1 2 -1.1794 4.967779299238612 13.522126124929967 10.62682733324458 0 0 0
377 1 1 0.5897 6.595542698009891 14.507301482495945 10.087325366414115 0 0 0
518 1 1 0.5897 7.432523061693736 15.516799125566243 6.804178636796215 0 0 0
579 1 1 0.5897 5.196645148589334 11.821825288218124 6.789533304393444 0 0 0
812 1 1 0.5897 3.8356558245498285 14.547990266971361 9.503423581549479 0 0 0
201 1 1 0.5897 5.901429842191203 13.85854214391647 6.066672150470705 0 0 0
376 1 2 -1.1794 7.263426092310424 15.020268259991079 9.632319230478508 0 0 0
16 1 2 -1.1794 2.8560414582339164 14.71480464627468 6.377506930577552 0 0 0
517 1 2 -1.1794 7.296337695533125 14.570130355762608 6.845326095524688 0 0 0
186 1 1 0.5897 7.2338795031370555 16.86260520727935 9.889196452248655 0 0 0
378 1 1 0.5897 7.127664295445059 14.822707127992878 8.705672737897151 0 0 0
766 1 2 -1.1794 0.620124814244425 14.019335701333615 10.2407683652119 0 0 0
239 1 1 0.5897 3.2351493171292427 16.419226400291777 5.707689502205246 0 0 0
307 1 2 -1.1794 7.610725725984229 17.54340093887766 6.145471178363221 0 0 0
656 1 1 0.5897 1.4360322514230501 13.728505995739162 5.929112677193572 0 0 0
59 1 1 0.5897 8.774803466611813 14.02075403222117 9.948257113339743 0 0 0
14 1 1 0.5897 0.5336041245272887 12.05682116944908 10.203503172835331 0 0 0
382 1 2 -1.1794 2.507475887150735 17.491215957122684 10.245810364354309 0 0 0
268 1 2 -1.1794 7.321166336499731 17.332037184098773 12.948944494051858 0 0 0
232 1 2 -1.1794 3.6727048020333597 14.847828300836007 13.79983562022411 0 0 0
234 1 1 0.5897 3.4982422066526118 14.872827718880448 14.74057739821555 0 0 0
606 1 1 0.5897 3.3511659989275393 16.49142002887156 13.365922980161521 0 0 0
427 1 2 -1.1794 5.444329868531102 12.891258079468539 13.219922527784904 0 0 0
233 1 1 0.5897 4.354684199087992 14.183602454107454 13.699794000050218 0 0 0
639 1 1 0.5897 1.6180742456074022 14.451425625193105 13.299351092819709 0 0 0
429 1 1 0.5897 6.328929128001117 13.256508911869792 13.236470911026041 0 0 0
638 1 1 0.5897 1.103422669010183 13.031187098637782 13.197421095553073 0 0 0
297 1 1 0.5897 8.622569897564176 13.878362393118168 13.29120167027148 0 0 0
428 1 1 0.5897 5.548296185639031 11.99569467550099 13.541803011184372 0 0 0
295 1 2 -1.1794 7.81254946492144 14.342151309261727 13.50329277561173 0 0 0
270 1 1 0.5897 7.323437007069351 16.38299513559238 13.074541127665201 0 0 0
296 1 1 0.5897 7.792010902525278 14.364036605882697 14.459929019562727 0 0 0
605 1 1 0.5897 2.5909967684889392 17.20178635119335 12.266258687392249 0 0 0
637 1 2 -1.1794 0.8857783530536211 13.933847601000688 12.964548477393159 0 0 0
269 1 1 0.5897 7.353563182600303 17.44854913220682 11.999488389935347 0 0 0
49 1 2 -1.1794 7.512612446932596 14.675477031725093 16.323552885470292 0 0 0
604 1 2 -1.1794 2.9916542264469976 17.344892399612405 13.123629920869389 0 0 0
455 1 1 0.5897 4.9881618459449655 13.364467471209647 11.570643438429546 0 0 0
51 1 1 0.5897 8.326602007021197 14.231305105815782 16.560954633751606 0 0 0
823 1 2 -1.1794 3.1718570746881953 15.011413670770203 16.43117662193353 0 0 0
767 1 1 0.5897 0.6933440319689329 14.041637108079476 11.194810343974616 0 0 0
584 1 1 0.5897 3.2334774829724413 16.774159683118654 17.40380715640616 0 0 0
53 1 1 0.5897 0.9611535643747303 13.642365705546055 18.45242545043712 0 0 0
824 1 1 0.5897 3.908911442818958 14.50590149754674 16.773887157684882 0 0 0
446 1 1 0.5897 0.3728018184990219 12.06016242965335 16.758191948193975 0 0 0
665 1 1 0.5897 2.4009492646014574 14.676268585361326 20.90253933227558 0 0 0
362 1 1 0.5897 4.87408309298864 12.052965875637184 20.672052412922888 0 0 0
125 1 1 0.5897 5.000838559068613 13.50839790039306 18.38711869496899 0 0 0
610 1 2 -1.1794 7.436453213627773 17.183826903191097 17.440957448129453 0 0 0
684 1 1 0.5897 4.196796149291741 14.336815760415824 20.706673260726525 0 0 0
715 1 2 -1.1794 2.8211084583251482 17.598393163104085 20.47168830956761 0 0 0
666 1 1 0.5897 2.9337935071696086 16.05999110632662 21.208610312087004 0 0 0
52 1 2 -1.1794 0.9407729926949056 13.659499441789993 17.49568174015134 0 0 0
583 1 2 -1.1794 3.236674043167472 17.64454272851234 17.80229394219129 0 0 0
318 1 1 0.5897 7.195924009702858 15.7455950221079 21.089564882397497 0 0 0
126 1 1 0.5897 5.820462154182754 13.631404548616633 17.120381993393003 0 0 0
452 1 1 0.5897 0.9454486223969919 12.587802634898003 20.904680977733832 0 0 0
683 1 1 0.5897 5.7071094806911615 14.333199474041745 20.603469111354727 0 0 0
664 1 2 -1.1794 2.9663689835465683 15.152231011955152 21.51078152795943 0 0 0
682 1 2 -1.1794 4.92755193666708 13.858769270645837 20.314650211306926 0 0 0
124 1 2 -1.1794 5.046297420490566 13.200124735940877 17.482136126394245 0 0 0
716 1 1 0.5897 3.0758287220432714 17.652251051372403 19.55066530332003 0 0 0
316 1 2 -1.1794 7.114072572190237 14.893711149448725 21.518496176371414 0 0 0
825 1 1 0.5897 2.3962496916516067 14.565687320850444 16.771705902194718 0 0 0
451 1 2 -1.1794 1.1287430846246251 13.451121530573936 20.53394625642627 0 0 0
54 1 1 0.5897 0.15040790385290354 14.155096419137227 17.281321201348028 0 0 0
117 1 1 0.5897 8.892436230991425 14.197622622706021 20.853363369714337 0 0 0
453 1 1 0.5897 0.30385101749103655 13.9291306735735 20.619316245449426 0 0 0
159 1 1 0.5897 7.2421103723612825 17.311127103750906 19.212693642407288 0 0 0
157 1 2 -1.1794 7.1461049999313575 17.445692874034037 20.155422059676923 0 0 0
612 1 1 0.5897 8.281897166105177 17.512282580809277 17.135095114230793 0 0 0
611 1 1 0.5897 6.790093396048589 17.707691617957543 16.96760161756543 0 0 0
50 1 1 0.5897 7.624021874977797 15.569694779400919 16.646588205737245 0 0 0
267 1 1 0.5897 5.9931453759478845 21.550609946962197 2.251811342929038 0 0 0
696 1 1 0.5897 1.524987647899716 21.73867958639069 2.9913895031512556 0 0 0
266 1 1 0.5897 4.50168969136499 21.440056495626834 2.4864506639887884 0 0 0
265 1 2 -1.1794 5.336987589710479 21.036442666597992 2.7222798643423665 0 0 0
413 1 1 0.5897 0.7188149062503232 21.585426240633865 5.110134329165563 0 0 0
228 1 1 0.5897 5.300495695190747 19.374458158935298 2.3115918499098513 0 0 0
498 1 1 0.5897 7.758574894592664 22.89471854654228 0.15619413109580102 0 0 0
249 1 1 0.5897 5.05322020030069 21.290404385140754 4.714512508710095 0 0 0
227 1 1 0.5897 4.554879716779968 18.057639007203157 2.359649080206225 0 0 0
226 1 2 -1.1794 5.394565418738502 18.443376166514284 2.1099651142794995 0 0 0
187 1 2 -1.1794 3.0583951096771367 22.417814557314415 2.184917001311257 0 0 0
344 1 1 0.5897 1.1746587941992126 18.345337540835978 2.6218030856761274 0 0 0
695 1 1 0.5897 0.5209245949020165 20.605811178032887 3.0147261150826745 0 0 0
818 1 1 0.5897 8.43348287096578 21.938896654742315 2.2099446746158478 0 0 0
694 1 2 -1.1794 0.628241101183949 21.527291985885775 3.2508551533244976 0 0 0
189 1 1 0.5897 3.1525024976546256 22.4433084171727 1.2327866143764208 0 0 0
817 1 2 -1.1794 7.674101071499726 22.36870789237198 1.81648537032881 0 0 0
343 1 2 -1.1794 0.37971099167138045 18.877527276194193 2.5889667335894204 0 0 0
345 1 1 0.5897 0.27605415072535705 19.09724391886222 1.6631901348515452 0 0 0
819 1 1 0.5897 7.640135552912041 23.22811084215288 2.2367837780584034 0 -1 0
450 1 1 0.5897 6.998063174017299 17.95336677132122 3.0810405200824618 0 0 0
188 1 1 0.5897 2.965827148750337 23.33540406585723 2.4415418010155925 0 0 0
602 1 1 0.5897 5.095538059351534 18.909511967230195 0.2985009869221287 0 0 0
555 1 1 0.5897 4.656675451999091 20.421914067417177 10.339593437293425 0 0 0
387 1 1 0.5897 5.44333051899767 19.59287676938647 6.322505080696207 0 0 0
87 1 1 0.5897 7.6980975670063785 21.94027615439679 9.833339888723785 0 0 0
340 1 2 -1.1794 0.8391804529541418 19.013629325251664 6.585644757368039 0 0 0
101 1 1 0.5897 5.496452546635861 18.510989044884212 9.716976862003623 0 0 0
405 1 1 0.5897 0.5399503273450295 19.42507223948958 9.778875404082418 0 0 0
341 1 1 0.5897 1.6110592603147478 18.450866275979486 6.524146684814185 0 0 0
94 1 2 -1.1794 0.9655972475281419 21.116341510733463 10.322243593499785 0 0 0
39 1 1 0.5897 3.5633713466916825 22.38628537086359 9.674431369875114 0 0 0
33 1 1 0.5897 6.681593985906731 22.188021679884926 6.419281320706069 0 0 0
700 1 2 -1.1794 3.35023066625152 22.777880802651232 6.70463310170452 0 0 0
85 1 2 -1.1794 6.93632216113992 22.48461538916525 9.634227531936943 0 0 0
702 1 1 0.5897 2.5375937427713127 22.351813915405195 6.43206102256875 0 0 0
102 1 1 0.5897 4.826601873086259 18.80309011929691 8.391265982148017 0 0 0
342 1 1 0.5897 0.5844573817809913 18.97166908827122 7.507279696928248 0 0 0
385 1 2 -1.1794 5.326919339614759 18.731662565531913 6.7239404628609085 0 0 0
412 1 2 -1.1794 0.958067308677536 21.617489345966725 6.036304861154158 0 0 0
38 1 1 0.5897 2.080368530327871 22.384976608377706 9.370425742609712 0 0 0
403 1 2 -1.1794 0.24627271908252252 18.631113863369386 9.331971652419591 0 0 0
31 1 2 -1.1794 7.34620678457698 22.765394133794146 6.795007494254145 0 0 0
383 1 1 0.5897 3.131783001749402 18.139144557447665 9.919125601987135 0 0 0
37 1 2 -1.1794 2.873349247370617 22.9114284844705 9.26906668963056 0 0 0
553 1 2 -1.1794 4.698359736808312 21.34156850511095 10.602083312363611 0 0 0
554 1 1 0.5897 5.494253678153523 21.67385041939388 10.186983961924435 0 0 0
86 1 1 0.5897 6.9060765551526115 22.514447151273927 8.678060093990895 0 0 0
386 1 1 0.5897 6.196309812041608 18.33245001105825 6.692048023887287 0 0 0
701 1 1 0.5897 3.189551818749093 23.044454461766975 7.609734001167355 0 0 0
100 1 2 -1.1794 4.661263097213034 18.778749449940875 9.333669633653527 0 0 0
32 1 1 0.5897 8.179112631105735 22.391853661353863 6.50693703155126 0 0 0
248 1 1 0.5897 4.606285588769121 21.813621781962283 6.062895947559132 0 0 0
404 1 1 0.5897 0.9539718021762043 18.00169533602945 9.470803122956678 0 0 0
414 1 1 0.5897 0.8872147168542024 20.710425484537303 6.333982456464625 0 0 0
185 1 1 0.5897 7.925553157295656 18.20127931578508 10.036751938804516 0 0 0
240 1 1 0.5897 3.9609083767286815 17.734691199089198 5.894890433575744 0 0 0
309 1 1 0.5897 8.428906261189272 17.981327042764185 6.380021396259971 0 0 0
95 1 1 0.5897 0.16490837873517705 21.602546249722856 10.125460721521566 1 0 0
184 1 2 -1.1794 7.107542071870808 17.74587141382098 10.235968537941822 0 0 0
247 1 2 -1.1794 5.283859327286197 21.283376045544955 5.643398231493305 0 0 0
504 1 1 0.5897 1.0167778299173311 19.021240676574607 14.992729910040099 0 0 0
88 1 2 -1.1794 5.076016852215375 21.546116154670834 13.203938039801745 0 0 0
381 1 1 0.5897 1.265827239207803 22.162148314916244 13.452964006256495 0 0 0
90 1 1 0.5897 5.134561439046669 20.604815849743296 13.368111302604548 0 0 0
763 1 2 -1.1794 5.212707343257108 18.87099154892863 13.794283135360802 0 0 0
738 1 1 0.5897 3.402267248289533 22.17967691172847 13.787926630091638 0 0 0
89 1 1 0.5897 4.988525969769651 21.61894819667569 12.253626862010654 0 0 0
379 1 2 -1.1794 0.6089694264322777 21.731813264512255 12.905668551254697 0 0 0
380 1 1 0.5897 0.6037289638590561 20.823058952602835 13.206553561971846 0 0 0