LAMMPS (30 Jul 2021)
  using 1 OpenMP thread(s) per MPI task
package omp 0
using multi-threaded neighbor list subroutines
echo both

include		in.partitions
variable        pid world 0
include		in.temp
variable        temperature equal 292.47
variable	tempDamp equal 100.0
include		in.pressure
variable        pressure equal 13375.0
variable        pressureDamp equal 1000.0 # This is 1 ps
include		in.seed
variable        seed world 745823

units		real
atom_style	full
read_restart	restart.lmp.${pid}
read_restart	restart.lmp.0
Reading restart file ...
  restart file = 30 Jul 2021, LAMMPS = 30 Jul 2021
  restoring atom style full from restart
  orthogonal box = (-0.12470158 -0.13076616 0.00051481648) to (24.854703 24.860767 22.809485)
  4 by 4 by 4 MPI processor grid
  restoring pair style lj/cut/tip4p/long/omp from restart
  restoring bond style harmonic/omp from restart
  restoring angle style harmonic/omp from restart
  1920 atoms
  1280 bonds
  640 angles
Finding 1-2 1-3 1-4 neighbors ...
  special bond factors lj:    0        0        0       
  special bond factors coul:  0        0        0       
     2 = max # of 1-2 neighbors
     1 = max # of 1-3 neighbors
     1 = max # of 1-4 neighbors
     2 = max # of special neighbors
  special bonds CPU = 0.747 seconds
  read_restart CPU = 1.069 seconds
include 	in.setup
variable	out_freq equal 1000
variable	out_freq2 equal 10000
variable	out_freq3 equal 1000

timestep	2.0

neigh_modify    delay 7 every 1

include		in.tip4p
# This is TIP4P/Ice

# create groups ###
group ox type 2
640 atoms in group ox
group hy type 1
1280 atoms in group hy

# set charges - beside manually ###
set group ox charge -1.1794
Setting atom values ...
  640 settings made for charge
set group hy charge 0.5897
Setting atom values ...
  1280 settings made for charge

# ### TIP3P Potential Parameters ###
pair_style lj/cut/tip4p/long/omp 2 1 1 1 0.1577 8.5
pair_coeff 1 1*2 0.000 0.000
pair_coeff 2 2 0.21084 3.1668
bond_style  harmonic
bond_coeff  1 450 0.9572
angle_style harmonic
angle_coeff 1 55 104.52
kspace_style pppm/tip4p/omp 1.0e-5
pair_modify tail yes

thermo          ${out_freq}
thermo          1000
thermo_style    custom step temp pe etotal epair emol press lx ly lz vol pxx pyy pzz pxy pxz pyz enthalpy

restart 	${out_freq3} restart.lmp.${pid} restart2.lmp.${pid}
restart 	1000 restart.lmp.${pid} restart2.lmp.${pid}
restart 	1000 restart.lmp.0 restart2.lmp.${pid}
restart 	1000 restart.lmp.0 restart2.lmp.0


include         in.dump
dump            myDump all atom ${out_freq2} dump.water.${pid}
dump            myDump all atom 10000 dump.water.${pid}
dump            myDump all atom 10000 dump.water.0
dump            myDump2 all dcd ${out_freq2} dump.dcd
dump            myDump2 all dcd 10000 dump.dcd
dump_modify     myDump append yes
dump_modify     myDump2 append yes


variable natoms 	equal  "count(all)"                        # NUMBER ATOMS
variable H      	equal  "enthalpy/v_natoms"                 # ENTHALPY-per-atom
variable Vol      	equal  "vol/v_natoms"                 # volume-per-atom
fix AVG all 		ave/time ${out_freq} 1 ${out_freq} v_Vol v_H file vol_enthalpy.dat
fix AVG all 		ave/time 1000 1 ${out_freq} v_Vol v_H file vol_enthalpy.dat
fix AVG all 		ave/time 1000 1 1000 v_Vol v_H file vol_enthalpy.dat




fix 		1 all shake 1e-6 200 0 b 1 a 1
       0 = # of size 2 clusters
       0 = # of size 3 clusters
       0 = # of size 4 clusters
     640 = # of frozen angles
  find clusters CPU = 0.129 seconds
fix             2 all nph aniso ${pressure} ${pressure} ${pressureDamp}
fix             2 all nph aniso 13375 ${pressure} ${pressureDamp}
fix             2 all nph aniso 13375 13375 ${pressureDamp}
fix             2 all nph aniso 13375 13375 1000
fix             3 all temp/csvr ${temperature} ${temperature} ${tempDamp} ${seed}
fix             3 all temp/csvr 292.47 ${temperature} ${tempDamp} ${seed}
fix             3 all temp/csvr 292.47 292.47 ${tempDamp} ${seed}
fix             3 all temp/csvr 292.47 292.47 100 ${seed}
fix             3 all temp/csvr 292.47 292.47 100 745823


run             250000
PPPM initialization ...
  extracting TIP4P info from pair style
  using 12-bit tables for long-range coulomb (../kspace.cpp:340)
  G vector (1/distance) = 0.37446314
  grid = 30 30 30
  stencil order = 5
  estimated absolute RMS force accuracy = 0.0032753989
  estimated relative force accuracy = 9.8637666e-06
  using double precision FFTW3
  3d grid and FFT values/proc = 3600 512
Last active /omp style is kspace_style pppm/tip4p/omp
Neighbor list info ...
  update every 1 steps, delay 7 steps, check yes
  max neighbors/atom: 2000, page size: 100000
  master list distance cutoff = 10.8154
  ghost atom cutoff = 10.8154
  binsize = 5.4077, bins = 5 5 5
  1 neighbor lists, perpetual/occasional/extra = 1 0 0
  (1) pair lj/cut/tip4p/long/omp, perpetual
      attributes: half, newton on, omp
      pair build: half/bin/newton/omp
      stencil: half/bin/3d
      bin: standard
Per MPI rank memory allocation (min/avg/max) = 9.331 | 9.339 | 9.345 Mbytes
Step Temp PotEng TotEng E_pair E_mol Press Lx Ly Lz Volume Pxx Pyy Pzz Pxy Pxz Pyz Enthalpy 
13500000    297.26272   -8978.3606   -7845.0595   -8978.3606            0    11468.604    24.979404    24.991533     22.80897    14239.038    11114.937    10615.987    12674.888    88.352983   -114.63277   -408.84002   -5463.4689 
13501000    294.08763   -9004.4758   -7883.2796   -9004.4758            0    11516.308    24.814634     24.98449    22.970997    14241.582    14545.161    9631.7144     10372.05    -459.1131   -193.24573    1137.6896   -5491.3554 
13502000    293.15171   -8988.4161   -7870.7881   -8988.4161            0    11655.321    24.945842      25.1535     22.68632    14235.104    10590.106    11275.181    13100.676   -1183.6503   -640.19305   -837.84579   -5451.0924 
13503000    290.56906   -8960.7913   -7853.0096   -8960.7913            0    13555.784    24.865426    24.842847    22.918241    14157.238    13578.624    13698.032    13390.697    834.76945    869.68609    231.16781   -5054.1631 
13504000    288.82397   -9003.5207   -7902.3921   -9003.5207            0    12213.413    24.977567    24.899436    22.816448    14190.172     10378.62    13662.175    12599.446   -950.84152    445.21113   -613.37279   -5374.8371 
13505000    297.28142   -8984.2346   -7850.8622   -8984.2346            0    11062.054    24.982084    24.829845     23.02921    14285.048    9453.1846    12416.937    11316.041    1130.0097   -589.60662    129.24915   -5546.2738 
13506000    293.33265   -8938.3898   -7820.0719   -8938.3898            0     12456.29    24.944056    24.871063    22.890782    14201.102    12669.823    11796.998     12902.05   -1162.9088   -1181.2157   -91.154621   -5240.2683 
13507000    283.00567   -8969.5392   -7890.5925   -8969.5392            0    13320.176    24.800385    25.094775     22.77033    14171.344    14818.902    12115.704    13025.921    585.84228    1266.0802    1463.8273   -5137.6516 
13508000    294.25076   -9011.2306   -7889.4124   -9011.2306            0    13156.199    24.850019    24.873572    22.902363    14156.151    13181.524    12860.923    13426.149   -222.81868    -1011.701   -266.54973   -5173.2765 
13509000    304.00284   -8980.8861   -7821.8886   -8980.8861            0    12270.268    25.039643    24.920741    22.801351    14228.191    11756.258    11756.327     13298.22   -93.316486   -585.04686   -371.16251   -5275.7641 
13510000     299.6086   -8969.9688   -7827.7242   -8969.9688            0    13846.252    24.983074     24.76985    22.827123     14126.04    12599.913    15178.284    13760.561    375.92116   -130.42167    1301.3513   -4975.2052 
13511000    280.88905   -8941.8298   -7870.9526   -8941.8298            0    13495.521    24.986298     24.69127    22.948059    14157.654    12306.068     14874.66    13305.833   -737.57724    714.55325    -886.4923   -5084.4668 
13512000    299.08787   -8953.0903    -7812.831   -8953.0903            0    13380.635    24.998447    24.855425    22.823298    14181.188    12909.448    14426.229    12806.227   -1004.2192   -1547.3188     658.8414   -5045.4738 
13513000    304.10857   -8981.4061   -7822.0056   -8981.4061            0    13106.684    24.784322    24.913952    22.910305     14146.55    14045.146    12209.768    13065.138    484.03392   -217.70177    676.35829   -5117.9274 
13514000    289.81735   -9025.8444   -7920.9285   -9025.8444            0    12095.869    24.874077    25.031771    22.774068    14180.095    11434.364    12437.812    12415.431   -1207.4864   -1965.0454   -394.66831   -5419.4769 
13515000    288.12595   -8966.1034   -7867.6359   -8966.1034            0    12156.502     24.81395     24.94888    22.943382    14203.795    12347.417     11544.64     12577.45   -266.44959    433.22736    934.63172   -5349.4435 
13516000    293.80064   -8966.2934   -7846.1914   -8966.2934            0    13685.667    24.901063    24.874491    22.858209    14158.404    13372.119     14377.36    13307.523   -1834.5651    351.08377    107.98895   -5020.2955 
13517000    290.90413   -8973.8311   -7864.7719   -8973.8311            0    12210.925    25.028078     24.84343    22.857312    14212.295    11000.085    12709.921     12922.77    56.482823    756.23062   -1115.9102   -5333.7921 
13518000    294.76615   -9027.8864   -7904.1034   -9027.8864            0    12458.804    24.946912    24.911597    22.795486    14166.651    12274.483    11648.632    13453.296   -1448.9604   -54.522412   -285.35192   -5330.0388 
13519000     282.4028   -8950.5492   -7873.9009   -8950.5492            0     14181.64    24.726297    24.816844    23.088566    14167.806    15457.681    13679.693    13407.546    -716.0987    632.31934   -83.058378    -4943.649 
13520000    287.94968   -9003.7681   -7905.9726   -9003.7681            0    12167.066    24.928651    25.004946    22.761191    14187.951    13115.009    11203.401    12182.788   -297.91843    1429.0475   -1050.6869   -5388.4032 
13521000    286.79899   -8964.6485     -7871.24   -8964.6485            0    12433.535    24.760248    24.898152    23.016495    14189.311     12400.82    11943.276    12956.509    -746.6333    416.53282    576.66469   -5298.2872 
13522000    298.06401   -8963.6803   -7827.3244   -8963.6803            0     13564.27    24.824601    24.987064    22.848307    14172.666     13508.94    13649.384    13534.485   -629.13774   -739.85446    1148.9701   -5023.6741 
13523000    295.21147   -9035.8369   -7910.3562   -9035.8369            0    12507.036    24.880165    24.869519    22.887273    14161.677    12346.664    12594.827    12579.615    607.29034   -1806.8076    -1170.405   -5327.2339 
13524000     306.3628   -8957.8512   -7789.8565   -8957.8512            0    11265.426    24.917908    24.969855    22.939063    14272.606    11419.722    10836.385     11540.17    806.03274   -553.10414    704.39183   -5444.9433 
13525000    293.79946   -8969.9085    -7849.811   -8969.9085            0    12364.253    24.844464    24.985929    22.897042    14213.614    12530.736     11959.61    12602.413    730.31271    1000.7183   -361.06316   -5286.8129 
13526000    295.33047   -8957.0617   -7831.1272   -8957.0617            0     12184.64      24.9001    24.913215    22.933426    14226.558    12137.934    10885.236    13530.749    -79.45122   -377.36044   -585.05505   -5303.0613 
13527000    292.99991   -8970.1592   -7853.1099   -8970.1592            0    12276.804    24.973567    24.978436     22.77879    14209.424    11204.711    11990.706    13634.995    231.46813     1460.838   -49.170573   -5308.9894 
13528000    292.48546   -8997.1953   -7882.1073   -8997.1953            0    12691.576     24.87368    24.803198    22.996926     14187.88    13787.493    13254.844    11032.392    -774.5464   -493.98221    333.35471   -5256.0211 
13529000    293.71646   -9018.2379   -7898.4568   -9018.2379            0    11521.637    24.950502    25.001878    22.798769    14222.087    12087.643    11209.785    11267.483   -102.93916   -424.56558   -1183.1972   -5508.7017 
13530000    287.63632   -8930.3275   -7833.7266   -8930.3275            0    12933.519    24.972941    24.896417    22.830782    14194.736    11185.384    14277.098    13338.075   -284.93982    103.12005   -717.21843   -5156.2857 
13531000    299.35943   -8958.5845   -7817.2898   -8958.5845            0     11923.06    24.934824    24.885185     22.99502    14268.587     11967.36    12357.207    11444.614   -105.77394   -371.66733    923.66714   -5336.1879 
13532000    301.58633   -8986.1408   -7836.3561   -8986.1408            0    11894.202    24.935536    24.990696    22.822992    14222.293    12242.183    11592.185    11848.237   -626.06404   -131.13791    398.36264   -5369.2899 
13533000    288.62615   -8950.6281   -7850.2536   -8950.6281            0     12043.94    24.852378    24.902119    23.045379    14262.252    12056.122    12167.576    11908.123    248.46125   -1077.8772    111.04966   -5345.1102 
13534000    284.94963   -9008.0072   -7921.6493   -9008.0072            0     11163.65    25.103286    24.946772    22.749815     14246.98    9418.7962    11354.389    12717.763    26.852772    432.03734   -63.344285   -5602.0931 
13535000    291.87251   -9029.2992   -7916.5481   -9029.2992            0    13927.787    24.872251    24.747973    22.892958    14091.481    14163.707    14425.599    13194.056   -164.67369    75.135169   -235.48048   -5054.2513 
13536000    288.22898   -8952.9329   -7854.0726   -8952.9329            0    14775.514    24.874707    24.901981    22.750219    14092.157     14562.95    14762.235    15001.356   -252.99918   -1407.7004    188.12334   -4817.4141 
13537000    289.39375   -8957.6788   -7854.3778   -8957.6788            0    14216.515    24.833371    24.943745    22.797007    14121.316    14722.614    13894.359    14032.574    100.35024    147.74348   -2389.7172    -4926.559 
13538000    300.54189   -8974.7455   -7828.9428   -8974.7455            0     14774.07    24.742773    24.878198    22.924481    14111.293     14932.34    15280.028    14109.841   -954.25772    1512.2402   -586.05106    -4788.458 
13539000    286.09689   -8986.4744   -7895.7426   -8986.4744            0    12994.936    24.814792    24.989424    22.839355    14162.851    13601.716    12306.977    13076.115    65.234747    227.38834    354.11126     -5211.63 
13540000    298.19004    -9015.009   -7878.1725    -9015.009            0    13723.971     24.94001    24.839597    22.777187    14110.463    12507.299    15303.474    13361.139    297.97371    194.44189   -910.41673   -5053.9628 
13541000    286.44881   -9017.8028   -7925.7293   -9017.8028            0    13360.488    24.894308    24.752143    22.935489    14132.561    13493.796    13914.185    12673.483    629.19272    384.47688    1153.7923   -5172.0137 
13542000    285.05082   -8958.5844   -7871.8406   -8958.5844            0    13425.972    25.075082     24.76604    22.820636    14171.854    12011.906    14122.999    14143.012   -244.06663    41.610677    1631.3415   -5096.9344 
13543000    291.29518   -8969.0782   -7858.5282   -8969.0782            0    11621.385    24.967333     24.81305    23.012117    14256.368    11809.132    12072.409    10982.613   -1379.7817    827.79057    493.76213   -5442.2738 
13544000    299.50796   -9019.6016   -7877.7407   -9019.6016            0    12131.822    25.000899    25.050516    22.662445    14193.159    10733.542    11560.476    14101.448   -189.01561   -1079.9746    1707.1673   -5366.5425 
13545000    275.06006   -8983.9764    -7935.322   -8983.9764            0    15017.446    24.798427    24.863949    22.842786    14084.561    15738.026    13941.124    15373.188   -215.46517    217.63205    939.71411   -4850.6054 
13546000    293.96361   -8920.4897   -7799.7664   -8920.4897            0    15084.945    24.910381    24.825538    22.797978    14098.579    13482.017    15354.134    16418.685    -1122.777   -1641.4074   -23.799808   -4698.1007 
13547000    291.93962   -8982.3154   -7869.3084   -8982.3154            0    14586.304     24.86369    24.762204    22.895233    14096.132    14756.394    14189.448    14813.072    53.794784    443.63608    -84.80628   -4870.6906 
13548000    293.13528   -8992.0381   -7874.4727   -8992.0381            0    14589.639     24.89828    24.927934    22.713764    14097.585    14238.555    14978.809    14551.554   -442.08407    162.84354    315.70935     -4874.86 
13549000    298.88747   -8967.4566   -7827.9613   -8967.4566            0    13378.645    24.713951    24.836454    23.050115     14148.32    14994.595    12978.344    12162.996    230.13741   -453.16718    186.49865   -5067.4286 
13550000    302.51338   -8966.2046   -7812.8857   -8966.2046            0    14982.607    24.983248    24.846914    22.710166    14097.485    14826.623    14346.487    15774.709    769.28822    -39.84993   -397.64178   -4732.5013 
13551000    293.33351   -8969.5131    -7851.192   -8969.5131            0    13048.775    24.951333    24.908248    22.800834    14170.581    13267.619    11802.305    14076.401   -314.06594   -365.12832     918.9774    -5154.488 
13552000    290.06715   -8967.0468   -7861.1785   -8967.0468            0    13669.441    24.773752    24.747145    23.052852    14133.234     14614.41    14528.596    11865.317   -478.53003    177.51014    835.50153   -5043.6509 
13553000    290.61988   -8978.0169   -7870.0414   -8978.0169            0    13850.702    24.961207    24.946585    22.724816    14150.672    11757.214    14381.409    15413.483   -164.75376    315.45446    1152.7559     -5011.63 
13554000    295.62885    -8981.725    -7854.653    -8981.725            0    12036.886    24.959753    24.853011    22.939047    14229.665    11108.064    13190.815     11811.78    1452.8249    695.37616    441.45868   -5356.6973 
13555000    291.83802   -8949.1084   -7836.4888   -8949.1084            0    12546.475    24.976024    24.798613    22.966976    14225.074    11738.451    13109.927    12791.045   -458.84713   -519.82944    199.54466    -5233.621 
13556000    296.68709   -8952.9375    -7821.831   -8952.9375            0    13000.447     24.95301    24.934538    22.814388    14194.925    12652.162    12959.409    13389.771   -274.61386   -760.06002    -71.56871    -5130.499 
13557000    295.62604   -9001.2633    -7874.202   -9001.2633            0    13391.591     24.84753    24.836964    22.955846    14166.906    13438.441    14919.721     11816.61    526.29637   -298.32018       347.29   -5107.3681 
13558000    289.89809   -8986.0826   -7880.8588   -8986.0826            0     13296.51     24.94798    24.918261    22.740568    14136.908    13077.986    12919.148    13892.397   -262.30018   -757.58098   -673.49814   -5139.4868 
13559000    298.40141   -9001.1326   -7863.4903   -9001.1326            0    12938.295    24.872025    24.924055    22.849701    14164.798    13244.844    12730.731     12839.31   -722.27808   -504.28656   -112.98948   -5190.7097 
13560000    286.12289   -8977.8095   -7886.9786   -8977.8095            0    14051.057     24.77326    24.837139    22.950973    14121.663    13622.624    15116.309     13414.24   -887.55667   -1218.3845   -1306.4425   -4993.1638 
13561000    295.41418   -8995.6062   -7869.3527   -8995.6062            0    13238.505    24.758295    25.033963    22.838342    14155.164    14874.356     12190.91     12650.25   -183.12525   -976.95548   -634.05916    -5136.415 
13562000    292.73724   -8965.0788   -7849.0309   -8965.0788            0    13867.642    24.816733    24.904437    22.885458    14144.283     15240.37    12844.291    13518.264   -212.55285    454.71275    1026.1534   -4988.4157 
13563000    295.00328   -8913.9578   -7789.2707   -8913.9578            0    13885.234    24.939979    24.958811    22.762432    14168.982    15058.735    12731.708    13865.259    295.59227    841.89252   -886.73943   -4920.0249 
13564000    297.32065   -8965.0372   -7831.5153   -8965.0372            0    13098.166    24.880254    24.876141    22.842556    14137.822    13886.053    12816.642    12591.803    476.32258   -116.34507    575.78651   -5130.8616 
13565000    278.42734   -8972.0568   -7910.5648   -8972.0568            0     11895.25    24.916833    24.927609    22.893138    14219.319    12965.164    12511.092    10209.494    186.23194    598.06703    1217.3853   -5443.7971 
13566000    303.67819   -8924.8465   -7767.0867   -8924.8465            0     13356.05    24.947801    24.975709    22.768951    14187.083    12526.014    13702.686     13839.45   -497.00243   -1209.3415   -344.53769   -5003.6659 
13567000    280.47859   -8984.2764   -7914.9641   -8984.2764            0    12219.146    24.727713    24.950845    23.012581    14198.241    12204.756    13266.399    11186.282    -182.8946    217.13043   -726.76128    -5384.785 
13568000    292.44708   -9010.6014   -7895.6598   -9010.6014            0    13031.442    24.891099     25.02282    22.741929    14164.708    13120.155    11621.923    14352.248   -1437.5339   -39.947567     76.35767    -5203.654 
13569000    284.66853   -8996.7708   -7911.4846   -8996.7708            0    13629.366    24.782427    24.870533    22.948741    14144.507      13938.7    13458.259     13491.14   -97.498018   -1178.0222    1269.4182   -5099.9763 
13570000    286.66896   -8988.4277   -7895.5149   -8988.4277            0    13817.153    24.991354    24.810253    22.816147    14146.966    12605.595      14846.3    13999.564    35.090596    764.08108    245.09491   -5044.7739 
13571000    292.90822    -8986.372   -7869.6723    -8986.372            0    11728.577    25.068831    24.953781    22.723463    14214.937    11430.909    11973.319    11781.504    641.77892    546.63962      -746.73   -5438.2176 
13572000    295.04973    -8934.664   -7809.7999    -8934.664            0    15049.062    24.909969    24.797143    22.850222    14114.492    13955.354    15072.121    16119.713   -983.90353   -804.14484   -96.631451   -4712.0198 
13573000    286.19666   -9020.8689   -7929.7567   -9020.8689            0    13699.396     24.90112    24.842542    22.782658    14093.514    13571.929    12453.192    15073.069   -249.70962   -1158.2217   -277.60931   -5113.9903 
13574000    298.86587   -8981.7266   -7842.3136   -8981.7266            0    12882.425     24.74465    24.924467     23.02521    14200.734    14548.456    12250.085    11848.733   -29.705625   -32.647997    954.69207   -5174.3229 
13575000    301.88772   -8961.3559   -7810.4223   -8961.3559            0    14383.599    24.850616     24.94202    22.783045    14121.491    13038.138    15574.155    14538.504    -1036.876   -1416.9838     1053.338   -4848.1566 
13576000    296.13402   -8981.8579   -7852.8599   -8981.8579            0     14325.15    24.900804    24.836262    22.812529    14108.246    13679.519    14389.761     14906.17     453.0197   -760.99138    124.13546   -4905.3988 
13577000    280.44445    -8979.845   -7910.6628    -8979.845            0    14689.616    24.859698    24.713623    22.956732    14104.001     14525.13    16034.964    13508.752   -745.39106   0.28891905    706.94445   -4889.1207 
13578000    298.43606   -8960.4398   -7822.6654   -8960.4398            0     12908.23     24.96762    24.887186    22.820567    14180.102    12357.785    12988.183    13378.723    858.76128   -249.19496    412.32373   -5153.2144 
13579000    294.55526    -9014.473    -7891.494    -9014.473            0    13059.329    24.904629    24.923261    22.871361    14196.358    12638.588    12431.449    14107.948    372.32546   -1698.3701   -1166.8955   -5187.6994 
13580000    288.49974   -8978.1987   -7878.3061   -8978.1987            0    11607.029    24.980469    24.995833    22.818829    14248.251    11172.253    12033.217    11615.618    176.18025   -39.258961   -950.06092   -5466.4103 
13581000    301.03241   -8972.6539    -7824.981   -8972.6539            0    13128.785    24.845985     24.85151    22.962019    14178.134    14033.338    13140.588    12212.429   -793.01325   -1688.8223    -605.2491   -5110.2956 
13582000    288.88942    -8975.486   -7874.1078    -8975.486            0    13506.443    24.928641    24.857108    22.846789    14157.102    12426.164     15030.63    13062.534    449.00524    1102.6332    265.16718   -5085.4756 
13583000    284.22381   -9020.9145   -7937.3237   -9020.9145            0    12056.549    24.807627    24.800975     23.06635    14191.649    11970.665    12960.416    11238.565   -309.89691    981.30732   -818.10639   -5441.9721 
13584000    307.36826   -8980.5018   -7808.6739   -8980.5018            0     12015.74    24.960456    24.951702    22.816927    14210.516    11750.644    11781.586    12514.991    171.25469    291.33862    1400.6691   -5318.4622 
13585000     290.2388   -8985.7957   -7879.2731   -8985.7957            0     12957.27     24.77188    24.966585    22.875936    14148.063    15660.003    11191.372    12020.436    271.25532    558.33178     941.7536   -5205.7349 
13586000    289.27444   -8962.7422   -7859.8961   -8962.7422            0    12942.467    24.869396     25.00149    22.837395    14199.652    13235.817    13363.981    12227.605   -598.17645    832.42279    446.99082   -5179.6747 
13587000    285.99623   -8947.3709   -7857.0228   -8947.3709            0    15535.551    24.601217    24.974336    22.863384    14047.242    17530.605    14967.583    14108.464    22.242084    85.892079   -296.01496   -4674.3381 
13588000    297.07585   -8939.9918   -7807.4031   -8939.9918            0    14845.292    24.798102    24.982775    22.747938    14092.925    15285.759     13721.07    15529.045   -1169.9976    436.12809   -1236.5188   -4756.2376 
13589000    285.28382   -9002.5113   -7914.8793   -9002.5113            0    14264.271    24.833496    24.791466    22.850754    14068.267    13553.513    14908.704    14330.597   -176.27651    229.32163     94.01685   -4988.2609 
13590000    294.20716   -8952.6405   -7830.9887   -8952.6405            0    14772.181    24.873561    24.801813    22.836184    14087.856    14766.444    15169.086    14381.013   -1159.6931   -1378.1529    405.33759   -4795.9417 
13591000    286.30449   -8980.9953    -7889.472   -8980.9953            0    14355.785    24.817261    24.896158    22.853934    14120.405    13066.253    14350.114    15650.989     377.2109     939.1504    -743.0495   -4933.1619 
13592000    290.83126   -8959.8741   -7851.0927   -8959.8741            0     13674.44    25.082379    24.806718    22.737995    14147.842    12251.466    14253.579    14518.276    276.74165   -1575.3233    287.68781   -5029.6213 
13593000     300.6589   -8997.7465   -7851.4976   -8997.7465            0    12446.952    24.948503    24.802395    22.930068    14188.727    12881.918    12744.526    11714.411   -416.63546   -1094.4409     189.0989   -5275.8744 
13594000    291.80976   -8989.6605   -7877.1487   -8989.6605            0    12864.962    24.972545    24.990959    22.725241    14182.547      12504.4    12405.838    13684.646   -237.21354   -618.61417    717.22632    -5216.187 
13595000     282.4413   -9011.9967   -7935.2016   -9011.9967            0    14534.476    24.735355    24.902966    22.906413    14109.977    14442.662    15115.503    14045.262    979.96724    268.14291    1680.3553   -4944.3039 
13596000    286.83463   -8945.7701   -7852.2257   -8945.7701            0    14080.672    24.836729     24.98055    22.744545    14111.515    13135.257     14549.51    14557.248    506.59564   -757.01328    -31.91477   -4954.3956 
13597000    293.85689   -8965.9164   -7845.5999   -8965.9164            0    13628.054    24.837843    24.835534    22.948806    14156.225    13301.471     13654.64    13928.051    197.80576    619.01707   -339.32555   -5032.0333 
13598000    288.98448   -9034.8173   -7933.0766   -9034.8173            0    13517.924    24.961305    24.822307    22.787308    14118.952    12228.459    14839.034    13486.279   -241.64389   -396.23231    495.83884   -5149.5951 
13599000     291.3474   -8957.2121    -7846.463   -8957.2121            0    11685.229    24.968781    24.835549    22.955238    14234.851    11825.624    12133.635    11096.428    220.58672    995.95133   -427.97007   -5420.6013 
13600000    290.80327   -9021.5894   -7912.9147   -9021.5894            0    12275.588    24.961765    24.859071    22.840885     14173.37    12743.076     11337.95    12745.737   -226.38593    303.58585    166.40288    -5375.501 
13601000    284.27179   -8969.9657    -7886.192   -8969.9657            0    13810.104    24.844467    24.937006     22.84046     14150.73    14538.247     13735.66    13156.404   -96.196466   -261.49619   -1868.1982   -5036.1472 
13602000    296.89213   -8965.5618   -7833.6736   -8965.5618            0    12433.968    24.837133    24.928291    22.943763    14205.568    13044.151    12284.693     11973.06   -656.48367    1125.5739   -167.92287   -5257.6832 
13603000    293.29778   -8974.3941   -7856.2092   -8974.3941            0    12343.799    24.847986     25.04018    22.796575    14183.984    13398.235    12098.644    11534.518   -321.50072    30.992733    1165.8043    -5302.785 
13604000    301.98069   -9031.5634   -7880.2753   -9031.5634            0    12516.242     24.75162    24.887319    23.039158    14192.155    11908.124    13011.349    12629.252   -121.63067    559.55172   -167.83878   -5289.6884 
13605000    302.32083   -9005.8592   -7853.2743   -9005.8592            0    11663.155    24.986867    24.993977    22.754963    14210.956    11958.619    10602.277    12428.568    -402.8112    1086.3393   -143.01437   -5436.0596 
13606000    287.19279   -8994.5472   -7899.6374   -8994.5472            0    13460.014    24.908155    24.861559    22.846645    14147.912    13027.237     13344.54    14008.264   -574.28896    299.94969   -508.58396   -5122.3952 
13607000    295.61466    -8992.167   -7865.1491    -8992.167            0    13375.533    24.823838     25.00283     22.76517    14129.571    13738.118    12796.662     13591.82    -642.9558   -2016.2747   -12.732437   -5108.9158 
13608000    301.64575   -9002.5517   -7852.5405   -9002.5517            0    14222.408    24.742002    24.886151    22.880443    14088.249    14985.684      12856.3    14825.239    -218.1019   -130.26143   -22.815894   -4930.3668 
13609000    300.34951    -9010.793   -7865.7237    -9010.793            0    13275.961    24.829288    25.021336    22.788122    14157.393    13585.912    12235.662    14006.308    200.80305   -1560.3697     248.5703   -5124.6221 
13610000    291.62246   -9005.6382   -7893.8404   -9005.6382            0    12477.091    24.930405    24.923316    22.845377    14194.937     12680.31    12287.589    12463.373    296.58153    758.07243   -841.11635   -5310.8505 
13611000    291.50471   -8976.4017   -7865.0528   -8976.4017            0    12814.728    24.888971    24.928915    22.890052    14202.248    13781.445     12589.55     12073.19   -597.07495   -626.95617   -451.01357   -5210.7993 
13612000    288.48366   -8962.2986   -7862.4673   -8962.2986            0    12255.687    24.913745    25.011966    22.811384    14214.726    12628.286    12378.069    11760.706   -375.31857   -1315.7182    801.00022   -5321.7752 
13613000    292.84008   -8972.1385   -7855.6985   -8972.1385            0    12953.558    24.978927    24.761253    22.943106     14190.53    12958.075    13176.914    12725.684    347.60652    51.717017    91.819429   -5174.9038 
13614000    309.48383   -8964.9164   -7785.0229   -8964.9164            0    14223.751    25.015233    24.738449    22.834111    14130.617    12967.118    15569.704    14134.431    459.61975   -185.00864    311.61787   -4853.7844 
13615000    299.65536   -8929.4607   -7787.0378   -8929.4607            0     14910.84    24.882295    24.828165    22.807271    14089.915    13938.129    15886.915    14907.476    837.95297   -538.83367   -422.81085   -4723.0547 
13616000    291.73112   -8987.3556   -7875.1436   -8987.3556            0    14128.628    24.809328    24.967399    22.758817    14097.366    13403.758    14229.741    14752.386    711.64209   -142.01062   -170.92104   -4970.3593 
13617000    281.79407   -8994.5177   -7920.1902   -8994.5177            0    13222.606     24.73929    24.944253    22.924131    14146.553    14088.726    12362.452    13216.639    454.01042   -560.66257    437.95607   -5192.1952 
13618000    295.22777   -9040.9765   -7915.4336   -9040.9765            0    13395.385    24.955914    24.891893    22.723632    14115.919    12401.376     13339.61    14445.169    921.04248    746.80755    244.53607   -5157.7766 
13619000    304.25076   -9014.7681   -7854.8254   -9014.7681            0    13506.914    24.862852     24.69857    22.993507    14119.781    13411.035    14602.217    12507.488    204.73848     214.1516    867.91032   -5073.4477 
13620000    293.70383   -8996.2187   -7876.4857   -8996.2187            0    14016.234    24.844995     24.89423    22.816597    14111.997    14202.867     14291.12    13554.716    5.0106158   -55.172424    436.78656   -4991.8185 
13621000    290.79387   -8973.4741   -7864.8353   -8973.4741            0    15396.301    24.844968    24.841407    22.785211    14062.667    14615.269    16784.273    14789.362   -258.96435   -704.24577    144.98156   -4707.2145 
13622000    296.59347   -8963.7975   -7833.0479   -8963.7975            0    13643.245    24.920362    24.763121     22.95387     14164.97    12763.582    15906.863    12259.292    331.09092    186.91909    1417.7315   -5014.6051 
13623000    281.73709   -8977.0859   -7902.9756   -8977.0859            0    11819.097    25.047731    24.879761    22.788995    14201.681    10330.187    12443.667    12683.437    603.24346    326.40461   -548.79461   -5455.0401 
13624000    304.45134   -8974.0108   -7813.3035   -8974.0108            0    14115.462    24.742818    24.890392    22.941306    14128.597    14579.147     14913.79     12853.45   -256.81235   -667.32107    125.65057    -4904.797 
13625000    304.53048   -8943.9193   -7782.9102   -8943.9193            0    15735.238    24.790572    24.948216    22.738953      14063.6    15997.398    14590.367     16617.95   -272.26441    35.344397    1209.2196   -4555.5627 
13626000    299.33026   -9004.7223   -7863.5388   -9004.7223            0    14516.176    24.839461    24.794907    22.865117    14082.445    13827.443    15898.041    13823.044    197.54351   -507.70026   -43.931946   -4882.2353 
13627000    303.80919   -8996.1545   -7837.8953   -8996.1545            0    13961.104    24.883435    24.828484    22.826729    14102.763    12764.626     14724.18    14394.507   -340.29807    446.25949   -344.43338   -4966.4545 
13628000    295.69663   -9005.0677   -7877.7373   -9005.0677            0    14853.618    24.741565     24.89192     22.83857    14065.477    16088.635    13814.809    14657.409    100.20178    357.44923   -661.97336   -4830.8064 
13629000    294.64865   -8955.4926   -7832.1575   -8955.4926            0    14655.336    24.824448    24.943309    22.776019    14102.999    15127.784    13782.464    15055.761    329.13741   -381.46474   -1.6932557   -4817.8806 
13630000    293.11329   -9015.6659   -7898.1843   -9015.6659            0    14821.167    24.620079    24.767798    23.101841    14087.159    16829.811    14678.687    12955.003    712.63693   -66.256121   -198.88882   -4853.2235 
13631000    287.30417   -9001.9186   -7906.5841   -9001.9186            0    14615.294    24.876483    24.880775    22.790663    14106.193      14949.7    14083.467    14812.715   -491.16378   -890.55516   -65.211733   -4899.8621 
13632000    286.08659   -8968.7204   -7878.0278   -8968.7204            0    11722.862    24.892316     24.87006    23.005841    14242.304    12198.102    11686.183    11284.301    -338.3482    -104.8531   -146.86866   -5443.0793 
13633000    281.52497   -8959.8689   -7886.5674   -8959.8689            0     12032.25    24.975049    24.943067    22.854174    14237.106    11526.976    11841.566    12728.208   -606.63369     125.7562   -925.72169   -5388.2682 
13634000    287.45964   -9019.6516   -7923.7244   -9019.6516            0    11400.662    24.896116    24.932936    22.921453    14228.108     11480.37    11814.942    10906.674    -861.0298   -422.87451    661.48821   -5558.0601 
13635000    284.39835   -9031.4059   -7947.1497   -9031.4059            0    12785.324    25.031928    24.715052    22.886399    14159.023    12220.548    12772.023      13363.4   -59.146114    414.83848   -2017.2163   -5307.0465 
13636000    292.91856   -8977.8218   -7861.0827   -8977.8218            0    13183.308    25.014005    24.775236     22.85344    14162.913     12930.78    13773.029    12846.114    91.557527   -147.19488   -440.10172   -5138.0498 
13637000    283.64935   -8992.8648   -7911.4642   -8992.8648            0    12122.461    25.009346    24.763651    22.966729    14223.817    10628.977    13983.405    11755.001   -459.60555    932.65526   -108.57737   -5396.7835 
13638000    298.08258   -9000.0181   -7863.5914   -9000.0181            0    12822.564    24.985421     24.85204    22.831764    14177.126    12834.068     12530.33    13103.293   -202.62561   -361.27063    98.635526    -5212.413 
13639000    293.90807   -9033.1513   -7912.6397   -9033.1513            0    12819.686    24.798875    24.838677     22.96634    14146.605    12857.448    13128.666    12472.945   -879.40922    561.90248    241.61041   -5267.7625 
13640000    294.68152   -8991.2656   -7867.8053   -8991.2656            0      12377.5    24.970307    25.074512    22.688249    14205.527    12591.623    11817.067    12723.809    1289.9785   -513.79344     870.8413   -5303.5211 
13641000     284.6466   -8987.8199   -7902.6173   -8987.8199            0    12711.921    24.766057    24.893141    23.005425    14182.958     14011.07    11596.942    12527.751    359.67562   -364.30937    281.48251    -5273.234 
13642000     296.9759   -9021.6641   -7889.4566   -9021.6641            0    15425.302    24.893129    24.939979     22.63403    14051.978    15638.053    14037.228    16600.625    622.19615   -264.00839    1020.2795   -4728.2925 
13643000    291.41876   -8964.3628   -7853.3416   -8964.3628            0    13936.193    24.849396    24.810296     22.88808    14110.979    12657.685    15280.387    13870.508    1164.5078    42.973841   -345.31996   -4985.3546 
13644000    293.43519   -8981.4728    -7862.764   -8981.4728            0    13951.549    24.905865    24.851993     22.81736    14123.042    14853.105    13664.225    13337.316    445.11899   -432.18447    977.96544   -4989.1624 
13645000    295.54749   -8924.7819     -7798.02   -8924.7819            0    13258.139     24.91553    24.887981    22.858707    14174.621    13252.789    13591.453    12930.175    -1395.752   -959.87031    433.03769    -5057.267 
13646000    291.52504   -9003.7884    -7892.362   -9003.7884            0    10803.444    24.984749    24.833231    22.972268    14253.191    11661.097      11690.6    9058.6352   -360.91451   -1077.0793   -547.90647   -5646.6699 
13647000    289.13581    -8994.438   -7892.1204    -8994.438            0    12041.098       25.058    24.871325    22.797091    14207.733    11637.007    11886.549    12599.738    82.148124   -495.88643   -287.91131   -5397.1422 
13648000    297.66871   -9056.2452   -7921.3963   -9056.2452            0    11637.096     24.94647    24.797473    22.973707    14211.752    11883.449    11982.768    11045.071    125.60866   -892.18553    416.27302   -5509.4473 
13649000    294.46814   -8982.6336   -7859.9867   -8982.6336            0     12775.36    24.835328     24.94181    22.860906    14160.915    12872.713    12647.736    12805.631    54.403864   -516.66117    145.62891   -5221.5885 
13650000    288.76276   -8993.4048   -7892.5094   -8993.4048            0    14081.629    24.797442     24.94111    22.850056    14132.205    14302.522    13999.623    13942.741   -134.58987   -583.02872   -1113.2737   -4990.2334 
13651000    290.13486   -8963.2187   -7857.0923   -8963.2187            0    13319.333    24.791153    24.987478    22.885563    14176.883    14472.267    11856.038    13629.695   -142.83075   -926.45658    215.21594   -5103.2496 
13652000    293.66391   -9023.2981   -7903.7174   -9023.2981            0      12542.7    24.794618    25.013934    22.869655     14184.01     14479.73    11202.856    11945.516    182.07631    -457.3351   -226.69255   -5309.1439 
13653000    295.12735   -8991.9075   -7866.7475   -8991.9075            0     12328.44    24.900411    24.915107    22.892661    14202.525    12337.147    11814.693     12833.48   -349.85952   -707.84106    803.36132   -5313.1668 
13654000    282.89738   -9012.4964   -7933.9625   -9012.4964            0    11951.079     25.03085    24.845592    22.843071    14206.249    12835.496    11909.073    11108.668   -356.05962    949.23493   -827.60596   -5457.8953 
13655000    292.70364    -8994.451   -7878.5312    -8994.451            0    12884.171    24.958669     24.83418    22.861909    14170.453    12068.332    14375.842    12208.338   -1155.9383    475.90426   -488.88775    -5215.869 
13656000    273.22298   -9017.4462   -7975.7957   -9017.4462            0    14254.461    24.887282     24.71943    22.932325    14107.953    14900.971    14549.162    13313.251   -278.79554    2486.0594   -946.81246   -5042.9399 
13657000    292.34968    -8992.159   -7877.5887    -8992.159            0    12205.552    24.919274    24.889585    22.820372    14153.888    12316.027    12408.468    11892.162   -95.914078   -1100.7947    1013.1546   -5358.1192 
13658000    291.50856   -8970.2562   -7858.8927   -8970.2562            0    12494.034     24.83111    24.909943    22.925825    14180.575    13385.027    12422.317    11674.758   -180.54339    1020.5848   -348.53171   -5275.0122 
13659000    299.96965   -8976.4184   -7832.7973   -8976.4184            0    13469.636    24.901623    24.918914    22.811239    14154.862     13296.38    13100.633    14011.895   -1525.2454   -249.13066    377.84631   -5052.2047 
13660000    295.80764    -8979.002   -7851.2484    -8979.002            0    14190.623    24.801727    24.868172    22.836999    14085.259    13878.161    14679.918    14013.789   -999.15551   -153.72367   -449.53212   -4936.2241 
13661000    288.82169   -9021.0004   -7919.8804   -9021.0004            0    14261.926    24.846379    24.841684    22.841166    14098.159    14093.222    14058.795    14633.762    276.87885   -372.16719    628.70664   -4987.5259 
13662000    292.38032   -8972.7508   -7858.0637   -8972.7508            0    14797.968     24.70032    24.953452    22.855906    14087.427     15219.55    15086.701    14087.653   -39.914737   -198.55218   -470.11589   -4817.8112 
13663000    293.12874   -8967.0487   -7849.5083   -8967.0487            0    14525.077    24.840098    24.790488    22.906356    14105.691    14962.808    15011.473     13600.95   -211.21167   -1254.3086    -767.0769   -4861.4525 
13664000    291.14166   -9017.4012   -7907.4364   -9017.4012            0    13242.014    24.954183    24.826215    22.857205    14160.448    12296.187    14405.736    13024.119    70.044711   -1145.9346   -838.08268   -5172.7539 
13665000    281.62258   -8945.1661   -7871.4924   -8945.1661            0    13613.226      24.8883    24.791363    22.937666    14152.881    13817.873    13838.855    13182.952    641.71696   -1225.2733   -1082.5733   -5061.6509 
13666000    287.50778    -8928.628   -7832.5173    -8928.628            0    12844.714    24.933047    24.938524    22.822156    14190.666    12785.039    12493.522    13255.581    -265.6502   -1337.0256   -1157.1527   -5174.2226 
13667000      277.219   -9009.0882   -7952.2029   -9009.0882            0    11753.656    24.903325    24.927191    22.891141    14210.132     11423.69    12323.317    11513.962     25.53465    592.04773    -458.0167   -5516.3729 
13668000    290.13948    -8931.455    -7825.311    -8931.455            0    12784.689    24.966792    24.841535    22.895773    14200.266    13408.775    12495.679    12449.615   -889.75009    470.07029    665.87772   -5177.6489 
13669000    285.76608   -8962.8958   -7873.4252   -8962.8958            0    13306.069    24.795145    24.952939    22.924762    14183.819    14050.495    12473.017    13394.694    1192.4113    -100.9822    597.01631    -5120.979 
13670000    296.64913   -8987.2268   -7856.2651   -8987.2268            0    15588.174    24.862281    24.955496     22.62356      14036.8    14760.936    14792.864    17210.723    284.09926    1281.0395   -91.806978   -4665.1736 
13671000    297.11244   -9005.3357   -7872.6075   -9005.3357            0    13766.863    24.823819    24.796141    22.940595    14120.737    14150.985    14178.204    12971.401    -1073.935   -519.87677   -758.42692   -5037.5083 
13672000    288.21231   -8967.1076   -7868.3108   -8967.1076            0    14760.522    24.965496    24.894197    22.671782    14090.421    13671.478    15521.631    15088.457   -362.15175   -80.218862    318.05706   -4835.1071 
13673000    289.87055   -8948.2174   -7843.0987   -8948.2174            0    16463.546    24.786211    24.742646     22.87279    14027.344    17185.862    16638.684    15566.091    596.70095    657.24729    1665.9483   -4475.0784 
13674000    298.44508   -9024.2439   -7886.4352   -9024.2439            0    14517.512    24.896873    24.871925    22.733674    14077.445    14061.926    15432.959    14057.652   -333.84182   -528.98538    444.39801    -4905.916 
13675000     289.7795   -8966.4393   -7861.6678   -8966.4393            0    14307.216    24.809182    24.724364    22.970949    14090.179    13149.582    16535.559    13236.508    149.85044    -386.4434   -312.11632   -4921.6663 
13676000    294.53506   -9004.4141   -7881.5122   -9004.4141            0    14273.295    24.948254    24.792204    22.778721    14089.145    13698.401    15242.384    13879.102      111.866   -453.46436    301.85831   -4948.6964 
13677000    284.30577   -8959.5116   -7875.6084   -8959.5116            0    11737.666     24.90436    24.991984    22.874924    14237.567     12161.17    10888.559    12163.269    482.41031    791.38597   -235.07342   -5438.3957 
13678000    282.69104   -8960.0605   -7882.3133   -8960.0605            0    12356.842    24.837954    25.012387    22.874682    14211.045    13609.468    11697.097     11763.96    91.608486   -1383.2024    143.46512   -5321.3144 
13679000    289.54378   -8996.2629     -7892.39   -8996.2629            0    12682.098    24.988269    24.936669    22.787741    14199.592    12394.572    12229.907    13421.816   -250.74829   -771.90229    37.645024   -5266.0988 
13680000    300.28916   -9048.6812    -7903.842   -9048.6812            0    12070.843     24.89468    24.785574     22.97293    14174.963    11363.438    12908.491      11940.6   -313.67629    225.61961   -1113.7382   -5408.4693 
13681000    293.21161   -8976.0624    -7858.206   -8976.0624            0    14112.757    24.958332    24.967421    22.643199    14110.001    13556.391    13865.922     14915.96   -503.62568   -327.73776    342.68587   -4954.0844 
13682000    291.89971   -8933.5367   -7820.6819   -8933.5367            0    14078.553    24.845536    24.811973     22.95244    14149.417    14330.091     13063.58    14841.989   -261.33326   -433.69401    267.60672   -4915.5058 
13683000    293.65259   -8981.6642   -7862.1266   -8981.6642            0    14137.934    24.912467    24.991626    22.702498    14134.646    13835.067    13127.865    15450.871    402.92471    88.436602   -980.95015   -4947.7427 
13684000    303.62627   -9012.1355   -7854.5737   -9012.1355            0    14353.924    24.795602    24.861151    22.891033    14111.113    14675.627    14461.299    13924.845    142.33743    502.53966     569.9884    -4900.592 
13685000     303.7468   -8951.2836   -7793.2622   -8951.2836            0    14684.505    24.876327     24.80804    22.865325    14110.944    14161.354    14896.623    14995.538     729.9178   -165.30769    1168.7501   -4771.2843 
13686000    302.62263   -8985.2228   -7831.4873   -8985.2228            0    12282.137    25.088995    24.908296    22.760591    14223.642    11565.468    12614.291    12666.653    424.56414     764.1452    1023.8284   -5283.7147 
13687000    281.70251   -9010.7307   -7936.7522   -9010.7307            0    11889.458    24.932533    24.846964    22.927483    14203.525    11985.444    11657.252    12025.679    108.43099   -461.92879    -46.07548   -5473.9242 
13688000    297.79943    -8971.539   -7836.1918    -8971.539            0    12911.512    25.034313    24.757101    22.897015    14191.044    11468.084    15268.337    11998.116    934.70336    750.30616    592.45555   -5164.0018 
13689000    284.10949   -9010.7161   -7927.5612   -9010.7161            0    13648.414    24.867885    24.838957    22.835251     14105.16    14494.545     13591.63    12859.065   -973.72479    414.52939    386.24011   -5119.9558 
13690000    302.96587   -8967.8797   -7812.8357   -8967.8797            0    13233.421    24.933849    25.022104    22.709374    14168.319        13261    12020.341    14418.921    469.23556   -401.66841   -65.748561   -5078.4087 
13691000    296.95516   -8995.6048   -7863.4763   -8995.6048            0    12616.155     24.73817    25.022302    22.959242    14211.907     14362.62    10971.043    12514.803   -75.964709    -156.2674    1609.7641   -5248.5751 
13692000    289.73995   -8947.9795   -7843.3587   -8947.9795            0    13145.723    24.815126    25.036305    22.820574    14177.945    14339.168    11835.482    13262.519     21.73175    630.69799    1032.4513   -5125.2072 
13693000    287.82828   -8963.4889   -7866.1562   -8963.4889            0    12400.852    24.879471    24.887192    22.892767    14174.747    12396.689    12729.349    12076.516   -424.70116    251.70251   -230.18728   -5302.6008 
13694000    285.11718   -8971.9442   -7884.9474   -8971.9442            0    13303.088    24.810785    24.802625    23.009302    14159.294    13493.402    13703.527    12712.334   -294.56832    128.45098    1548.2696    -5137.876 
13695000    293.68794   -8977.5844    -7857.912   -8977.5844            0    13543.582    24.942883    24.949904    22.746904    14155.911    12519.071    14279.316    13832.357     -1125.96     205.1908    313.84413   -5061.8471 
13696000    299.00573   -8990.2708   -7850.3246   -8990.2708            0    12748.265    24.891628    24.712432    23.047655    14177.366    12454.731    14578.268    11211.796   -331.72995   -692.43009   -138.98968   -5214.4636 
13697000    292.73424   -8993.6753   -7877.6389   -8993.6753            0    12447.406     24.99212    24.888715    22.823984    14197.014    11029.463    13301.288    13011.468     195.6092   -357.06396   -699.72392   -5300.4172 
13698000    287.16454   -8941.9686   -7847.1664   -8941.9686            0    14260.236    25.036886    24.693989    22.878577    14144.923    12211.309    14652.172    15917.226    205.05909   -633.42657    462.55673    -4905.434 
13699000    298.48739   -8960.1304   -7822.1604   -8960.1304            0    13815.963    24.887882    24.794149    22.911263    14137.942    13083.589    14940.136    13424.164    82.889589   -374.53148   -395.06993   -4973.4832 
13700000    289.01993   -8958.0103   -7856.1345   -8958.0103            0    14171.034    24.951588    24.919681    22.682756    14103.812    13120.686    15087.541    14304.875    -402.7426   -398.29766   -668.84428   -4941.2999 
13701000    302.27099   -8960.6018    -7808.207   -8960.6018            0    14673.559     24.76557     24.83807    22.930785     14105.39    14978.541    15071.681    13970.454    64.307172   -1113.6837   -323.79879   -4789.6704 
13702000    291.01239   -8968.1268   -7858.6549   -8968.1268            0    15737.087    24.896886    24.865802    22.640265    14016.159    16277.896    13568.159    17365.204    312.08955   -27.376075    1246.5758   -4641.8166 
13703000    288.08578   -9020.7356   -7922.4212   -9020.7356            0    13625.002    24.873843    24.797423    22.881256    14113.323    13444.644    14460.962    12969.399   -258.92846   -805.08713   -696.72527   -5118.0096 
13704000    296.44385   -8984.0485   -7853.8694   -8984.0485            0    11695.521    25.084968    24.877685    22.809179    14234.204    10743.536    11543.862    12799.165    1058.8506   -1890.4421    23.442562   -5425.9814 
13705000    290.98511   -9028.2318   -7918.8639   -9028.2318            0    11080.021    24.919994    24.839451    22.990388    14231.026    12694.816    10163.098    10382.149   -248.08071    204.76626    552.35837   -5619.2618 
13706000    280.95569   -9043.4138   -7972.2826   -9043.4138            0    12605.726    24.944145    24.940654    22.801361    14185.258    11631.681    13174.551    13010.946    304.71487    126.16855   -515.15891   -5364.4423 
13707000    293.43741   -8986.9207   -7868.2035   -8986.9207            0     13427.19     24.64488    24.853433    23.090233    14142.996    14841.642    13159.582    12280.344    90.046683    932.04381   -743.55575   -5098.6967 
13708000    292.76927   -8992.7927   -7876.6227   -8992.7927            0    13386.367    24.956053    24.952742    22.718378    14147.233    12982.538    13162.723    14013.838   -230.86966   -271.35563   -130.37037   -5114.7089 
13709000    291.93063   -8946.3818   -7833.4091   -8946.3818            0    13743.479    24.825946    24.766584    23.053864    14174.758     12910.74      15378.5    12941.197   -210.14358   -601.01697   -490.98127    -4992.298 
13710000    296.58583   -8972.5417   -7841.8212   -8972.5417            0     14295.65    24.919111     24.88904    22.731215    14098.189    13903.235    13660.554     15323.16    926.65351    341.11799    1118.9968   -4902.5265 
13711000    287.90686   -8931.6723     -7834.04   -8931.6723            0    14982.724    24.943544    24.648254     22.97958    14128.186    16381.904    15086.254    13480.015    229.29837    83.016343    345.07278   -4746.9231 
13712000    297.64034   -9015.0246   -7880.2839   -9015.0246            0    13523.052    24.919449    24.780001    22.860704    14116.575    13451.499    13637.023    13480.633   -154.21363    476.60144   -990.59529   -5096.2153 
13713000    292.41753   -8993.1358   -7878.3068   -8993.1358            0    13782.071    25.063429      24.8458    22.731656    14155.478    11522.478    14678.084    15145.651   -126.29646     593.9782    457.79384    -5033.093 
13714000    296.94162   -8973.7463   -7841.6695   -8973.7463            0    14012.602    24.912681    24.855125    22.822321    14131.759    13816.489    14565.268    13656.048   -96.409374   -896.06655   -93.931806   -4953.7115 
13715000    294.64761   -8992.8699   -7869.5388   -8992.8699            0    14852.257    24.659129    25.052958    22.788515    14078.382    17262.919    12356.656    14937.195   -1295.3224    115.31255     288.7583   -4820.0918 
13716000    288.63115   -9004.3797   -7903.9861   -9004.3797            0    13955.821     24.80388    24.983039    22.808403    14133.826    14699.591    11989.195    15178.676    593.30434    875.42481    3279.1175   -5027.3096 
13717000    294.41215   -8957.8244    -7835.391   -8957.8244            0    14043.166    24.886149    24.877874    22.843371    14142.662    13846.126    14458.404    13824.967    823.71588   -681.44521    923.48789   -4938.9008 
13718000    290.56901   -8977.6329   -7869.8514   -8977.6329            0    13403.598    25.032289    24.749887    22.832728    14145.933    11694.145    14455.742    14060.908   -181.54673    369.13724   -511.69158   -5104.6365 
13719000    290.52594   -9014.7656   -7907.1483   -9014.7656            0    13096.314    25.057288    24.825589    22.724682     14136.16    11868.306    12980.419    14440.218   -1048.6511   -350.64977    1902.4911    -5207.194 
13720000    281.55304   -8954.0672   -7880.6586   -8954.0672            0    12888.871    24.920208    24.852354    22.920987    14195.559     11585.18    13861.019    13220.414    -1366.583   -1229.4728    516.67147   -5212.3057 
13721000    287.18784   -8972.1313   -7877.2403   -8972.1313            0    13510.065    24.863451    25.000138    22.809337    14178.049    12893.214    14193.859    13443.124   -418.04632   -600.49588     5.160261   -5083.7329 
13722000    296.57448   -9022.1834   -7891.5062   -9022.1834            0    13621.871    24.772168    24.842029    22.921531    14105.702    15356.563    13015.256    12493.795    238.28095    206.56799    1248.3273   -5089.2531 
13723000    294.04368   -8996.0973   -7875.0687   -8996.0973            0    13946.103    24.916371    24.970613    22.705197    14126.653    13682.771    13526.242    14629.298   -191.33002    722.61423    210.79182   -5001.8542 
13724000    300.49055   -8923.3471   -7777.7401   -8923.3471            0    15547.212    24.698555    24.854216    22.962181    14095.638    15883.624    16583.796    14174.216     284.1572    -1024.911    561.49196   -4581.6931 
13725000    294.55511   -9015.1057   -7892.1272   -9015.1057            0    13207.746     24.86724    24.851829    22.887984    14144.691    13831.466     13049.62    12742.153   -110.62741    606.69303   -1009.7017   -5167.5565 
13726000    298.05016   -9014.4427   -7878.1396   -9014.4427            0    13329.902    24.914578    24.915343    22.831148    14172.555    12943.969    12710.414    14335.324   -690.32584    -383.4548   -656.65653    -5122.953 
13727000    295.91762   -8985.8055   -7857.6326   -8985.8055            0    11814.135    24.930678    24.876659     22.93885    14226.491    12835.316    12128.964    10478.126   -645.52158    543.83015   -322.78365   -5406.4503 
13728000    295.19097   -8948.9771   -7823.5745   -8948.9771            0    13456.978    24.825492    25.022247    22.802765    14164.841    13472.057    12939.507    13959.368    241.12794    480.64147    1432.1421   -5043.6365 
13729000    292.72382   -8994.6741   -7878.6774   -8994.6741            0    13525.052    24.810048    24.930936    22.884554     14154.96    14110.546    12293.391     14171.22    493.39754   -1807.8409    599.14837   -5086.6255 
13730000    296.15685   -8981.5566   -7852.4716   -8981.5566            0    13574.225    25.004383     25.02694    22.636381    14165.467     13727.89    13225.526    13769.258   -25.909179   -2.9013775   -460.34669   -5048.1887 
13731000    290.96257   -8938.1583   -7828.8763   -8938.1583            0    13168.985    24.899425     24.74159    23.043383    14195.907     12856.81    13909.342    12740.804    967.85718    174.50009   -604.87758    -5102.465 
13732000    294.69421   -8976.0575   -7852.5488   -8976.0575            0    12840.833    24.929507     24.92062     22.80467    14167.602    12523.591    12302.201    13696.707   -1287.9998   -589.86104    1357.0396   -5199.3766 
13733000     292.8033   -8945.0297     -7828.73   -8945.0297            0    13313.775    24.832054    24.869775    22.887373      14134.5    13876.191    14170.559    11894.574    452.84709   -32.035741    983.59995    -5084.266 
13734000     290.4202   -8953.6915   -7846.4772   -8953.6915            0    12202.434    24.868972    24.906882    22.961809    14222.741    12427.186    12338.302    11841.815   -537.99642    1058.2363   -497.14906   -5315.3984 
13735000     288.8623   -9009.0751   -7907.8003   -9009.0751            0    12846.173    24.974293    24.891904    22.781802    14162.483    12286.513    12627.172    13624.835   -315.00275    668.13535    27.541984   -5254.4838 
13736000    294.23239   -8969.2008   -7847.4528   -8969.2008            0    14743.051    24.793458    24.757761    22.955871    14091.014    15682.645    15138.313    13408.196   -441.23477     35.10309    168.53239   -4817.7116 
13737000    295.05921   -9001.1935   -7876.2933   -9001.1935            0    14695.776     24.89864    24.928585    22.695252    14086.667      15209.8    14040.967    14836.563   -621.95344   -988.41016    192.10073    -4857.199 
13738000    301.36917   -8956.3677    -7807.411   -8956.3677            0    13249.844     24.76089    24.828064    23.085005    14191.852    13633.516    13943.655    12172.361   -588.36694   -300.18706    971.62234    -5065.043 
13739000    294.45336    -8983.047   -7860.4565    -8983.047            0    13388.793    24.981727    24.843222    22.829913    14168.851    12942.354    13831.183    13392.843   -51.313728    819.98118    754.36524   -5093.8209 
13740000    298.94117   -8967.8058   -7828.1058   -8967.8058            0    13229.398    24.975281    24.869743    22.836719    14184.544    12596.701    12846.184     14245.31    268.83786    450.28341   -277.90321   -5091.3794 
13741000     292.2977   -8985.9648   -7871.5927   -8985.9648            0    11776.917    25.024347    24.949832    22.786762    14226.989    10267.354    12623.799    12439.597   -746.26643   -106.15368    193.03818   -5428.0469 
13742000    299.95877   -8970.9934   -7827.4138   -8970.9934            0    13144.449    24.806708    24.905454    22.969831    14191.274    13796.715    12680.339    12956.292   -195.57696   -1028.9479    638.58753   -5106.9706 
13743000    292.43974   -8986.8486    -7871.935   -8986.8486            0    12834.854     24.88913    25.014174    22.777257    14180.688    13398.584    12288.473    12817.504   -577.12992   -850.20598    1178.0835   -5217.5486 
13744000    282.60821   -8981.7817   -7904.3503   -8981.7817            0    12492.257    24.863555    24.968559    22.875739    14201.422    13443.173    11822.951    12210.646    4.2110588    316.98512    345.68071   -5317.0393 
13745000    299.70397    -8995.002   -7852.3938    -8995.002            0    13175.882    24.841234    24.898826    22.889112    14157.318    14123.084    13475.749    11928.813    389.07723   -324.99115   -422.40572   -5131.9699 
13746000     293.1787   -9005.8176   -7888.0867   -9005.8176            0    13462.451    24.944466    24.878143    22.768978     14129.79    12381.372    13632.611    14373.369    120.33556   -832.98777    167.52502   -5113.8997 
13747000    297.78872   -8930.9644    -7795.658   -8930.9644            0    14597.193    24.913241     24.75113    22.930854    14139.873    15075.825     14987.38    13728.374    707.68825   -497.34165    33.253985   -4785.4899 
13748000    288.13904   -9022.2196   -7923.7022   -9022.2196            0    12487.128    25.086692    24.812679    22.766302    14171.295    11958.366    12225.402    13277.617   -665.67272   -907.08089    837.55881   -5342.9399 
13749000    275.04634   -8988.3305   -7939.7284   -8988.3305            0    13178.655    24.990045    24.740706    22.881953    14147.256    11282.039    15833.727    12420.201    2310.0415    1154.5748   -587.10355   -5220.6659 
13750000    296.15996   -8962.1875   -7833.0907   -8962.1875            0    13389.971    24.946237    24.827277    22.857001    14156.418    13215.668    12732.129    14222.117    222.36772   -980.10557     644.9105   -5068.6395 
Loop time of 569.803 on 64 procs for 250000 steps with 1920 atoms

Performance: 75.816 ns/day, 0.317 hours/ns, 438.748 timesteps/s
99.1% CPU use with 64 MPI tasks x 1 OpenMP threads

MPI task timing breakdown:
Section |  min time  |  avg time  |  max time  |%varavg| %total
---------------------------------------------------------------
Pair    | 62.787     | 65.227     | 66.837     |  11.5 | 11.45
Bond    | 0.27115    | 0.27836    | 0.28779    |   0.7 |  0.05
Kspace  | 253.67     | 260.47     | 273.34     |  29.8 | 45.71
Neigh   | 7.3018     | 8.2311     | 10.216     |  24.5 |  1.44
Comm    | 96.453     | 110.68     | 121.21     |  52.0 | 19.42
Output  | 1.0445     | 1.0457     | 1.0469     |   0.0 |  0.18
Modify  | 109.02     | 117.01     | 120.97     |  30.7 | 20.54
Other   |            | 6.849      |            |       |  1.20

Nlocal:        30.0000 ave          33 max          26 min
Histogram: 1 0 11 0 14 13 0 11 13 1
Nghost:        2860.73 ave        2885 max        2839 min
Histogram: 1 4 9 9 11 12 13 2 1 2
Neighs:        10730.9 ave       11868 max        9138 min
Histogram: 1 0 5 10 9 11 7 8 7 6

Total # of neighbors = 686777
Ave neighs/atom = 357.69635
Ave special neighs/atom = 2.0000000
Neighbor list builds = 14601
Dangerous builds = 5

unfix		3
unfix		2
unfix		1

write_data	data.final.${pid}
write_data	data.final.0
System init for write_data ...
PPPM initialization ...
  extracting TIP4P info from pair style
  using 12-bit tables for long-range coulomb (../kspace.cpp:340)
  G vector (1/distance) = 0.37467637
  grid = 30 30 30
  stencil order = 5
  estimated absolute RMS force accuracy = 0.0032471273
  estimated relative force accuracy = 9.7786275e-06
  using double precision FFTW3
  3d grid and FFT values/proc = 3600 512
Last active /omp style is kspace_style pppm/tip4p/omp
WARNING: Not all mixed pair coeffs generated from mixing. Use write_data with 'pair ij' option to store all pair coeffs. (../write_data.cpp:312)

write_restart   restart.lmp.${pid}
write_restart   restart.lmp.0
System init for write_restart ...
PPPM initialization ...
  extracting TIP4P info from pair style
  using 12-bit tables for long-range coulomb (../kspace.cpp:340)
  G vector (1/distance) = 0.37467637
  grid = 30 30 30
  stencil order = 5
  estimated absolute RMS force accuracy = 0.0032471273
  estimated relative force accuracy = 9.7786275e-06
  using double precision FFTW3
  3d grid and FFT values/proc = 3600 512
Last active /omp style is kspace_style pppm/tip4p/omp
Total wall time: 0:09:32
