LAMMPS data file via write_data, version 30 Jul 2021, timestep = 31500000

1296 atoms
2 atom types
864 bonds
1 bond types
432 angles
1 angle types

-10.643316709714826 12.623316709714826 xlo xhi
-9.14679955236401 12.13679755236401 ylo yhi
0.08652577169826259 21.773473228300347 zlo zhi
-9.238685963829361 2.0000488856372267 2.8124246070009606 xy xz yz

Masses

1 1.008
2 15.999

Pair Coeffs # lj/cut/tip4p/long/omp

1 0 0
2 0.21084 3.1668

Bond Coeffs # harmonic/omp

1 450 0.9572

Angle Coeffs # harmonic/omp

1 55 104.52

Atoms # full

280 94 2 -1.1794 -9.67499367211622 -4.458205323350931 1.5526015892732283 1 1 0
270 90 1 0.5897 -8.343965854263478 -7.274305969479861 1.992942935563014 1 1 0
269 90 1 0.5897 -9.249909121602276 -6.10743537021778 2.3239674689410905 1 1 0
268 90 2 -1.1794 -9.009008137917103 -6.9858895051898 2.6180699737883995 1 1 0
314 105 1 0.5897 -8.727457165183813 -6.7409919694625415 4.4830898420116 1 1 0
299 100 1 0.5897 -6.489496511142072 -7.650975697432344 3.920596815473078 1 1 0
163 55 2 -1.1794 -7.045509256805953 -7.928316386626321 0.8484154054741618 1 1 0
164 55 1 0.5897 -6.274750610388058 -8.394125287892242 1.1726445557075376 1 1 0
298 100 2 -1.1794 -5.841952725711512 -6.953693912066305 4.023765436633946 1 1 0
73 25 2 -1.1794 -8.105076057871793 -3.7258817425091433 4.740060504986377 1 0 0
324 108 1 0.5897 -7.006994388339621 -4.329558025856064 3.3523632102398055 1 1 0
310 104 2 -1.1794 -3.4528690904722925 -8.405420708475805 4.065873890229183 1 1 0
282 94 1 0.5897 -10.52314411130661 -4.040390378018245 1.7018320791901331 1 1 0
84 28 1 0.5897 -8.097823022108038 -0.3684810761139854 3.7277952329942465 1 0 0
75 25 1 0.5897 -8.918976781635171 -3.3791709890640416 4.374663609189812 1 0 0
281 94 1 0.5897 -9.042729875494324 -3.741106998536334 1.5992485353595576 1 1 0
301 101 2 -1.1794 -7.994526903780542 -2.2537901297035052 1.558544386516581 1 1 0
53 18 1 0.5897 -12.183008538100935 0.9507634771389775 2.305979381306617 1 0 0
259 87 2 -1.1794 -6.903470052245739 -5.352920442683933 0.09420981995499025 1 1 0
44 15 1 0.5897 -9.85735857307316 0.9895205894427139 0.19268558906751204 1 0 0
322 108 2 -1.1794 -6.434186677539079 -4.725438027968148 2.6955356254278877 1 1 0
300 100 1 0.5897 -4.999812335124628 -7.408443839356479 4.037707707371389 1 1 0
275 92 1 0.5897 -10.373999988236802 -7.9360222324044205 3.3573605011297243 1 1 0
256 86 2 -1.1794 -12.067194699763405 -3.234909593297788 1.8909451151026098 1 1 0
258 86 1 0.5897 -12.545868501439976 -2.6580620367703336 1.2957106940571508 1 1 0
309 103 1 0.5897 -2.757818087459249 -1.4552253460389242 0.2798335871516156 1 1 0
90 30 1 0.5897 -3.781245959606757 -0.22228710712846578 2.0508536871834147 1 0 0
69 23 1 0.5897 -10.892404465869596 -2.433216583034554 3.1909103546929067 1 0 0
272 91 1 0.5897 -9.276663695937991 -1.09039754793025 1.048707949121165 1 1 0
83 28 1 0.5897 -9.540912454233247 -0.7451699223975741 3.9873140477435776 1 0 0
82 28 2 -1.1794 -8.957580442227055 0.00993487275922611 3.9117042945318516 1 0 0
271 91 2 -1.1794 -10.090078960312358 -0.715455538970776 0.711162681707959 1 1 0
98 33 1 0.5897 -11.867753301754828 0.3674921109647169 4.3616403385560885 1 0 0
54 18 1 0.5897 -11.37068491504519 -0.26829612605862785 1.9239820913072094 1 0 0
67 23 2 -1.1794 -10.407408314082398 -2.3234417929770323 4.008767966296569 1 0 0
68 23 1 0.5897 -11.055869177844462 -2.479955110884042 4.69523380243539 1 0 0
52 18 2 -1.1794 -11.957752498811992 0.06844084350543156 2.6008979833869352 1 0 0
261 87 1 0.5897 -6.7430683336658 -4.976377107858811 0.9594780101894496 1 1 0
323 108 1 0.5897 -6.189424404959425 -5.571901516997935 3.069433641193618 1 1 0
199 67 2 -1.1794 0.4760251539945273 -8.094470949440439 0.8459697703959008 1 1 0
3 1 1 0.5897 -1.3600690639871669 -3.294926080859785 4.3006707205263845 0 0 0
103 35 2 -1.1794 -2.8161480531499334 -2.212887933044721 3.9651875218733736 1 0 0
89 30 1 0.5897 -4.609796209048433 1.0333209738410147 2.2206191452373303 1 0 0
74 25 1 0.5897 -7.911130429398452 -3.15196689509044 5.481143883052608 1 0 0
241 81 2 -1.1794 -0.8324424885217478 -6.362413697107019 5.42402303395125 0 1 0
88 30 2 -1.1794 -4.426974381110062 0.18633494117036875 2.6273137811239917 1 0 0
302 101 1 0.5897 -7.616603154504068 -1.9853122764994326 2.3959609655553935 1 1 0
107 36 1 0.5897 -9.51224616120109 1.5829153963143305 3.1709523169051645 1 0 0
306 102 1 0.5897 -0.7951353478291896 -7.516029306904423 2.2450472968578263 1 1 0
304 102 2 -1.1794 -1.39359369824804 -7.059341771286373 2.8362597559647416 1 1 0
318 106 1 0.5897 -2.5554514855231556 -4.084660900273506 1.5324662956021962 1 1 0
242 81 1 0.5897 -0.8623222462719706 -6.705963024735027 4.53110960929201 0 1 0
305 102 1 0.5897 -1.6067680047972495 -6.2452527975524115 2.380162371778086 1 1 0
316 106 2 -1.1794 -1.737775141454616 -4.580712509617418 1.4933354059726782 1 1 0
311 104 1 0.5897 -2.7714389536137096 -7.953354921611145 3.568378563580125 1 1 0
293 98 1 0.5897 -4.957940600144804 -3.828221877604877 2.20956131298584 1 1 0
303 101 1 0.5897 -7.275548233616278 -2.168627599821927 0.9324035787878988 1 1 0
294 98 1 0.5897 -4.653308171022599 -2.761065294542986 1.179882185873753 1 1 0
315 105 1 0.5897 -8.466455551396018 -5.486810540567271 5.289762863672319 1 1 0
96 32 1 0.5897 -6.0762983628499905 -1.7107500378552842 4.3869930241766575 1 0 0
95 32 1 0.5897 -5.825985403934089 -0.7675833675432351 3.229565377684753 1 0 0
105 35 1 0.5897 -3.357863481596625 -2.412883897309988 3.2018407909803783 1 0 0
94 32 2 -1.1794 -6.528789896150147 -1.1677637580163571 3.7415486735377868 1 0 0
104 35 1 0.5897 -3.4137750520740955 -2.285713378125462 4.7093458903989855 1 0 0
26 9 1 0.5897 -4.038382165029026 0.3595159620043962 4.418567347255432 0 0 0
292 98 2 -1.1794 -4.245203534094996 -3.2899398607550143 1.8653966025736373 1 1 0
243 81 1 0.5897 -0.745660629468766 -5.415532787541354 5.314065079049046 0 1 0
25 9 2 -1.1794 -3.8893383183003447 0.66899441423433 5.311994288559852 0 0 0
59 20 1 0.5897 -13.354543612064493 -0.8492681455654534 3.232590518582879 1 0 0
27 9 1 0.5897 -3.770946758061644 1.6145406615793405 5.2218127385226065 0 0 0
99 33 1 0.5897 -11.710074019352623 1.6461477895457577 5.156627710016132 1 0 0
313 105 2 -1.1794 -8.706730605081317 -6.408883909105699 5.380583311503348 1 1 0
165 55 1 0.5897 -7.422304391432688 -8.515118235206742 0.19277894579716298 1 1 0
260 87 1 0.5897 -6.767118669583374 -6.292933851536835 0.212516477908626 1 1 0
97 33 2 -1.1794 -11.831020477282014 0.7020312100643071 5.257716512607599 1 0 0
633 211 1 0.5897 -5.697421425968326 -5.816215368652436 5.455989222620139 1 1 0
417 139 1 0.5897 -8.660914804757871 1.1808393720003227 5.44831778670678 1 0 0
1262 421 1 0.5897 -2.14466581112303 -5.669465416538582 0.1279505693680854 0 0 1
1010 337 1 0.5897 -12.99069331375054 1.402272720375871 0.10867989302905869 0 -1 1
201 67 1 0.5897 0.2338945723298842 -8.63434707195768 0.09357503523813501 1 1 0
420 140 1 0.5897 -9.048717724441225 -6.601704081714015 9.695962854361108 1 0 0
618 206 1 0.5897 -7.6838701647040475 -7.189620295193876 6.581819632767 1 1 0
413 138 1 0.5897 -7.646325049762083 -3.609556900853506 7.717594273024935 1 0 0
419 140 1 0.5897 -8.793037555635205 -5.473804335709769 8.719066523543606 1 0 0
418 140 2 -1.1794 -9.497663216119516 -5.981255747369416 9.121784377685588 1 0 0
414 138 1 0.5897 -6.8379554361856005 -4.822397771625104 7.308385069337409 1 0 0
350 117 1 0.5897 -7.193666866608044 -4.271293286201502 9.85052757247538 0 0 0
412 138 2 -1.1794 -7.494968860869712 -4.528325181270932 7.939337836633968 1 0 0
429 143 1 0.5897 -6.328561937845346 -6.9019705471357895 8.732037237214971 1 0 0
427 143 2 -1.1794 -5.958745007528616 -6.701202803302688 9.591747737556345 1 0 0
428 143 1 0.5897 -6.66132769092791 -6.905436905462528 10.208917079315851 1 0 0
627 209 1 0.5897 -10.400956190614249 -6.7072484962064305 6.285589409835192 1 1 0
403 135 2 -1.1794 -4.936816522443481 -2.5738401246350735 5.587769480926722 1 0 0
330 110 1 0.5897 -2.8927253789359444 -0.22883360413506537 6.482449733548184 0 0 0
435 145 1 0.5897 -7.478804316814385 -0.8302678939970232 9.857656595964444 0 0 0
425 142 1 0.5897 -7.131268006394514 -1.2408928270090582 6.704511471392953 1 0 0
400 134 2 -1.1794 -10.250119126210906 -0.763054315333271 6.951170010813959 1 0 0
536 179 1 0.5897 -9.65366627021118 0.18666753496359334 9.911956307861308 1 0 0
402 134 1 0.5897 -10.657328260194898 -0.12223004824878281 6.368319028715994 1 0 0
526 176 2 -1.1794 -12.380134680053851 1.069756154221107 8.948177443248952 1 0 0
405 135 1 0.5897 -4.934422502019662 -2.2651189896331703 6.493808630478998 1 0 0
537 179 1 0.5897 -9.343617025707218 0.016149241082635157 8.439980571531004 1 0 0
426 142 1 0.5897 -8.59098065767705 -1.5942431277691185 6.894569231849726 1 0 0
401 134 1 0.5897 -10.981014562257295 -1.141659573873735 7.439701015567625 1 0 0
527 176 1 0.5897 -11.625003387694417 1.551084367899369 8.610107372607168 1 0 0
535 179 2 -1.1794 -8.942093084231097 0.2550155284257585 9.275380554948201 1 0 0
424 142 2 -1.1794 -7.717278870659991 -1.9829804491443603 6.8531014943246875 1 0 0
528 176 1 0.5897 -12.030001412757972 0.5526180954976372 9.673551512520241 1 0 0
544 182 2 -1.1794 0.369097426470713 -7.947865336869528 7.397241905471759 0 1 0
337 113 2 -1.1794 -6.137970866538403 0.3068235397880823 6.869542858589327 0 0 0
357 119 1 0.5897 1.257349491497754 -7.269063463249945 8.763573063502323 0 0 0
631 211 2 -1.1794 -5.370415070717056 -5.277444470072734 6.176381139141862 1 1 0
415 139 2 -1.1794 -8.392626780330122 1.7533495248875095 6.166956584323534 1 0 0
329 110 1 0.5897 -3.2681414897608 -1.2688286441017311 7.51653980645043 0 0 0
454 152 2 -1.1794 -4.773112951762567 1.1249397733524837 9.192908015438958 0 0 0
335 112 1 0.5897 -4.811987545490455 -5.204002424129577 9.506104275297167 0 0 0
433 145 2 -1.1794 -6.680063035273139 -1.2921449889893601 10.112320572109637 0 0 0
616 206 2 -1.1794 -7.234472961470659 -7.71056972891673 7.247281240896691 1 1 0
404 135 1 0.5897 -4.985142909065303 -3.5271356030217875 5.659191214264305 1 0 0
555 185 1 0.5897 -2.367785559790196 -6.701755667424463 6.400655800090032 0 1 0
416 139 1 0.5897 -7.633045931861828 1.315899407186654 6.551458550366955 1 0 0
347 116 1 0.5897 -1.0693520581703453 -5.322469856906262 8.874876090515782 0 0 0
348 116 1 0.5897 -1.527235399959146 -6.2300163442590435 9.996740199716404 0 0 0
336 112 1 0.5897 -3.3313273993405206 -4.8939956656990775 9.449177376709569 0 0 0
359 120 1 0.5897 -4.503707000308798 -2.9672333270481905 8.636140866930702 0 0 0
346 116 2 -1.1794 -1.836527592105348 -5.790164103045564 9.204869318638812 0 0 0
632 211 1 0.5897 -4.577757095047942 -5.725972595728434 6.470812605504149 1 1 0
546 182 1 0.5897 0.092308675222041 -7.353912809437838 6.699527085294261 0 1 0
553 185 2 -1.1794 -3.0932449336217864 -6.780025208323261 7.02018655679622 0 1 0
554 185 1 0.5897 -2.7113308054516185 -6.55034343036872 7.867276472947105 0 1 0
334 112 2 -1.1794 -4.1923817583738705 -4.476028813442632 9.458040121442025 0 0 0
442 148 2 -1.1794 -7.16184842600275 2.413886561279522 9.479554804660765 0 0 0
338 113 1 0.5897 -5.700749912262538 0.5151948189316577 7.695125103005721 0 0 0
464 155 1 0.5897 -1.8757340646429626 0.025266953756590382 10.119599861201985 0 0 0
456 152 1 0.5897 -4.392244547193888 0.6319488007940368 9.919602281317754 0 0 0
360 120 1 0.5897 -5.3211521499356005 -1.7009698864345362 8.778404966244425 0 0 0
328 110 2 -1.1794 -2.51302694144181 -0.8422280621422829 7.111552652951441 0 0 0
339 113 1 0.5897 -5.464485215717605 0.4365425823171485 6.201840567442102 0 0 0
455 152 1 0.5897 -4.036904793759911 1.6096180798244912 8.819707648775104 0 0 0
411 137 1 0.5897 -13.407010946266471 0.3014883020809478 6.254254616145247 1 0 0
444 148 1 0.5897 -6.31197551959881 1.9765995836365953 9.427655640678815 0 0 0
358 120 2 -1.1794 -4.616338285052801 -2.0930437240754447 8.26288661779543 0 0 0
443 148 1 0.5897 -7.800661457792717 1.712884917499201 9.350426492002464 0 0 0
351 117 1 0.5897 -7.114824865856524 -2.992874364545812 10.657540785586942 0 0 0
356 119 1 0.5897 1.0314538893856522 -7.177628741820344 10.25773583037175 0 0 0
434 145 1 0.5897 -6.340437619929585 -0.7926399201491545 10.854834236293947 0 0 0
349 117 2 -1.1794 -7.30457430014056 -3.927689819313585 10.737020763242722 0 0 0
522 174 1 0.5897 -9.578146610607265 2.3721509533108467 7.325157121781563 1 0 0
430 144 2 -1.1794 -12.259828930000324 -2.164344325718245 8.241806340075138 1 0 0
410 137 1 0.5897 -13.525509374398048 0.3202540099602622 7.7633931352175995 1 0 0
465 155 1 0.5897 -1.7475725238306268 -0.04619533527317721 8.61282822226675 0 0 0
652 218 2 -1.1794 -5.914728632918423 -5.51037519418489 12.764563558347783 0 0 0
780 260 1 0.5897 -7.548993081819461 -4.1332226273547565 15.351692916251315 0 0 0
779 260 1 0.5897 -7.2690296179752405 -3.0841366146596165 14.29674864582905 0 0 0
778 260 2 -1.1794 -7.984766583612542 -3.5318802557799174 14.747806085900164 0 0 0
768 256 1 0.5897 -9.531601133170629 -2.6218334989962475 14.979215103544291 0 0 0
654 218 1 0.5897 -6.289485488169704 -4.908397768294781 12.121624804357918 0 0 0
653 218 1 0.5897 -6.672586122125822 -5.8797416592934235 13.217798319442592 0 0 0
662 221 1 0.5897 -8.91231852550397 -4.067216746176088 13.358315042313675 0 0 0
661 221 2 -1.1794 -9.336413072751698 -4.270111649148554 12.524560873777789 0 0 0
663 221 1 0.5897 -8.648836818382792 -4.148869509285094 11.86975036775885 0 0 0
684 228 1 0.5897 -8.908270641608727 -6.7161656453950815 14.44196591121557 0 0 0
682 228 2 -1.1794 -8.167093458550553 -6.947806506215938 13.88228513372584 0 0 0
767 256 1 0.5897 -11.035978411089879 -2.7898778722498117 14.961393859255573 0 0 0
807 269 1 0.5897 -4.05704578548706 2.779910793577489 11.664988685607092 0 0 0
888 296 1 0.5897 -10.602311515316536 3.2842306900254297 15.111291178146262 0 0 0
771 257 1 0.5897 -11.812962276239286 2.9466594709450042 11.465273539116549 0 0 0
766 256 2 -1.1794 -10.349179334979244 -2.125414542110885 15.015746947529045 0 0 0
817 273 2 -1.1794 -5.567222528086669 -1.5822375591532545 16.06811670675251 0 0 0
770 257 1 0.5897 -11.906515972346709 3.043099765960058 12.97319890851283 0 0 0
790 264 2 -1.1794 -10.810298819939888 0.31647263471962894 13.79613056123057 0 0 0
762 254 1 0.5897 -9.265120717859226 2.3055611665470277 12.08225345338591 0 0 0
761 254 1 0.5897 -9.403798999073063 1.3974774723915022 13.28559052525633 0 0 0
727 243 2 -1.1794 -8.175472095762537 -7.460934997014482 11.156483422446792 1 0 0
792 264 1 0.5897 -11.505469529841738 0.6764147679448556 14.34697127458211 0 0 0
797 266 1 0.5897 -1.6098485016637412 1.1207245396903946 13.117119133978386 0 0 0
760 254 2 -1.1794 -8.752236673768747 1.8488911751476316 12.749021585829448 0 0 0
837 279 1 0.5897 -11.195892364241166 0.046504051273286606 11.933981046564053 1 0 0
791 264 1 0.5897 -10.651833356537146 -0.5583665867818297 14.150744531360438 0 0 0
769 257 2 -1.1794 -12.400984673950468 2.7714773655850156 12.199971962353167 0 0 0
788 263 1 0.5897 -5.081123936882797 -4.704598991803454 15.70071037639119 0 0 0
805 269 2 -1.1794 -4.683376988524834 2.71243077507701 12.385678348284946 0 0 0
896 299 1 0.5897 -7.8921584811908705 2.5553167174652103 15.487637329085459 0 0 0
739 247 2 -1.1794 -11.539866028383639 -2.9249975610387535 11.680960583470723 1 0 0
729 243 1 0.5897 -8.244935985945329 -7.155437259291324 12.060959351975685 1 0 0
902 301 1 0.5897 -4.805720846539111 1.7760715339824493 16.289230124382627 0 0 0
897 299 1 0.5897 -7.643345762271249 2.6503891926875927 13.997355517534672 0 0 0
678 226 1 0.5897 -4.201026628723181 -6.174319361891703 12.520953683158805 0 0 0
802 268 2 -1.1794 -2.6058873713424173 -2.288710768678028 15.193879562969766 0 0 0
816 272 1 0.5897 0.2956447374777831 -4.088447768760684 15.299233300667096 0 0 0
924 308 1 0.5897 -2.768279565307293 3.0600714055453455 15.262587677793555 0 0 0
667 223 2 -1.1794 -3.94878498110488 -2.9201799551423457 11.748869146014702 0 0 0
789 263 1 0.5897 -4.99609514235394 -4.638812392835802 14.19063501157771 0 0 0
676 226 2 -1.1794 -3.339123341151666 -6.57963260116987 12.425859651948032 0 0 0
814 272 2 -1.1794 -0.18047659517779202 -3.637272618477308 14.602148745606552 0 0 0
785 262 1 0.5897 -5.721239075697622 1.2461515273686778 12.31547601231898 0 0 0
657 219 1 0.5897 -0.4120403607386205 -7.011151212800847 12.138358416539376 0 0 0
803 268 1 0.5897 -3.2726781967057645 -2.975192831493361 15.211186960826588 0 0 0
795 265 1 0.5897 -2.949837293259601 -5.645380538716209 15.268234613694585 0 0 0
720 240 1 0.5897 -0.7426692803708939 -6.267027614411699 14.440752247940994 0 0 0
804 268 1 0.5897 -1.776353206927153 -2.761564562229207 15.126893244773306 0 0 0
698 233 1 0.5897 -1.2726876007485828 -4.078630316701522 13.11104911208473 0 0 0
699 233 1 0.5897 -0.9107006714465715 -4.332495087406894 11.663137497393542 0 0 0
697 233 2 -1.1794 -1.6397950525101557 -4.383350214973418 12.281258093579826 0 0 0
718 240 2 -1.1794 -0.0647107383579506 -6.543317786067865 13.824083035714784 0 0 0
677 226 1 0.5897 -2.7318421113780147 -5.841873434459851 12.370245353491725 0 0 0
668 223 1 0.5897 -3.1494085864277412 -3.375745786936868 12.01274048152244 0 0 0
793 265 2 -1.1794 -2.1178410920281383 -5.952593121162257 15.628178828184266 0 0 0
773 258 1 0.5897 -6.10361156573654 -1.2515744748930953 13.069722576355579 0 0 0
774 258 1 0.5897 -5.277042660055224 -2.500216060889594 12.84708612533594 0 0 0
818 273 1 0.5897 -5.619538723844354 -1.883699682267613 15.161142982491844 0 0 0
787 263 2 -1.1794 -4.50338401743364 -4.4369035916471296 14.986014006709533 0 0 0
901 301 2 -1.1794 -5.033927177330855 1.1649828489778162 15.588741729836537 0 0 0
772 258 2 -1.1794 -5.992936873434191 -2.151004310916316 13.377927432658721 0 0 0
827 276 1 0.5897 -2.8575073622081426 -0.6794190113183589 14.15606335749235 0 0 0
765 255 1 0.5897 -3.3067110289547195 0.2560348019234322 12.027060949818864 0 0 0
784 262 2 -1.1794 -6.357045365061227 0.5315698488682852 12.3514081611126 0 0 0
828 276 1 0.5897 -3.623025564834969 0.5782402430157045 14.508438839142105 0 0 0
826 276 2 -1.1794 -2.988914064407755 0.2283951082834541 13.882533518945268 0 0 0
740 247 1 0.5897 -10.73539265563422 -3.3256687083275063 12.010279738008663 1 0 0
895 299 2 -1.1794 -7.229840311813659 2.8108281789374114 14.845548322747199 0 0 0
903 301 1 0.5897 -5.834491877005905 1.5252831910085032 15.207377818136411 0 0 0
786 262 1 0.5897 -7.209011231690239 0.9677712475457056 12.342810920689184 0 0 0
806 269 1 0.5897 -4.172718225566307 2.9213099435475716 13.167823145785663 0 0 0
764 255 1 0.5897 -3.541138640016185 -1.102404696160912 11.401357071120398 0 0 0
763 255 2 -1.1794 -3.3622772224166946 -0.1882510357578937 11.181047860359401 0 0 0
835 279 2 -1.1794 -11.077384268770283 -0.30688614619022303 11.052330572969232 1 0 0
689 230 1 0.5897 1.3226578909803575 -5.803170119923251 13.188860221404884 0 0 0
819 273 1 0.5897 -5.472440701722717 -0.6321858512093463 16.000136143045914 0 0 0
655 219 2 -1.1794 -0.5245869005288455 -7.258904376140227 11.220664384870197 0 0 0
836 279 1 0.5897 -11.148124598828831 -1.2550956938965863 11.162344595896705 1 0 0
669 223 1 0.5897 -4.243953676840658 -3.3868521580168593 10.967029646220881 0 0 0
1150 384 2 -1.1794 -6.148135968498461 -4.409783710235487 19.247498864316704 0 0 0
1152 384 1 0.5897 -6.817094607039619 -4.0178272268854 19.80884628525254 0 0 0
1227 409 1 0.5897 -8.867141427494095 -2.8992883048541795 20.68682638598635 0 0 0
1109 370 1 0.5897 -8.704156204111499 -3.5109043892083704 17.728912808856652 0 0 0
1089 363 1 0.5897 -6.546149525656572 -4.8847907696853925 17.554386539674276 0 0 0
1151 384 1 0.5897 -5.9906678072991655 -5.273433482869871 19.62897195923323 0 0 0
1108 370 2 -1.1794 -9.25376316836464 -4.2905351143866035 17.808185918813383 0 0 0
1225 409 2 -1.1794 -8.127938927842006 -3.3778475906054 21.061969924425163 0 0 0
1011 337 1 0.5897 -11.967450254492892 3.897863007041037 20.68335714070557 0 -1 0
1088 363 1 0.5897 -6.550019636065587 -6.17529106288746 16.762900571110787 0 0 0
1272 424 1 0.5897 -0.04696087982184949 -0.1295216065717728 20.55929624629716 0 0 0
1229 410 1 0.5897 -7.61531380099522 3.6994818138769556 18.67055710772797 0 0 0
1130 377 1 0.5897 -7.237216086878673 -1.747785262512565 18.584767507722365 0 0 0
1248 416 1 0.5897 -5.910726042856127 -1.599450310463654 20.565850222711003 0 0 0
1196 399 1 0.5897 -9.807376086430521 1.299504601081269 16.426144337695618 0 0 0
1129 377 2 -1.1794 -7.690059385150456 -1.949568567251677 17.765999397999522 0 0 0
1110 370 1 0.5897 -10.136944138328975 -3.9484520101711267 17.946655410264178 0 0 0
1131 377 1 0.5897 -7.012530162964721 -1.8797639888951334 17.093459167748478 0 0 0
1250 417 1 0.5897 -11.52909547429083 0.6965576534923823 20.781060451898647 0 0 0
1246 416 2 -1.1794 -6.2264898728903555 -1.0601201618303566 19.84085925367117 0 0 0
1177 393 2 -1.1794 -0.6958101659668419 -6.2148668209266065 21.55960867715782 0 0 0
1217 406 1 0.5897 -11.826326524257922 3.713021834032018 17.815101969009877 0 0 0
1166 389 1 0.5897 0.4561540791708918 -1.7516090409416591 18.78050571149954 0 0 0
1121 374 1 0.5897 -4.847975888332108 -3.3905520753737033 18.513451531318704 0 0 0
1219 407 2 -1.1794 -10.381271732827358 -1.8853240068673198 20.24050618271851 0 0 0
1099 367 2 -1.1794 -9.946805364620406 -0.41153717050450567 17.151493955832365 0 0 0
1236 412 1 0.5897 -7.6683747206757324 -0.12572067641394646 20.24406338286748 0 0 0
1009 337 2 -1.1794 -11.156649634170797 3.5908256458239762 21.0889266557759 0 -1 0
1100 367 1 0.5897 -9.169983673677148 -0.7902661127683022 17.56292042797237 0 0 0
1234 412 2 -1.1794 -8.504739592290264 0.32120943276503944 20.374281127693077 0 0 0
1259 420 1 0.5897 -8.917170716034649 1.7538532519895913 19.37463125277609 0 0 0
1258 420 2 -1.1794 -9.092739960749542 2.6686728369015515 19.15442380250718 0 0 0
1260 420 1 0.5897 -9.793284176864988 2.929277679444006 19.752393762221143 0 0 0
1216 406 2 -1.1794 -12.499217580623847 3.0402798093475525 17.711228998080458 0 0 0
1197 399 1 0.5897 -9.57102932997292 2.5168182990235604 17.29453846448432 0 0 0
1206 402 1 0.5897 -11.266415845617317 0.1830162582883279 18.56209944695204 0 0 0
1235 412 1 0.5897 -9.14440898099884 -0.38601144177772717 20.456952777076456 0 0 0
1221 407 1 0.5897 -10.762356732873288 -2.1356665624085682 19.398914112655575 0 0 0
1233 411 1 0.5897 -1.6418118015433603 2.385925576220556 17.436283329476122 0 0 0
1295 432 1 0.5897 -1.2568228461992828 1.746389716063561 19.713416961216634 0 0 0
1226 409 1 0.5897 -7.781176222099876 -2.7935932417631104 21.736195467256746 0 0 0
1251 417 1 0.5897 -11.44477847457788 1.9637867800991646 21.60499197319315 0 0 0
1046 349 1 0.5897 -2.947165749160223 4.274228919565447 21.74985219916769 0 -1 0
1143 381 1 0.5897 -8.31697389009707 -5.082784898851446 21.480015448234433 0 0 0
1045 349 2 -1.1794 -3.208146817934603 3.6836698535091656 21.043230760460414 0 -1 0
1125 375 1 0.5897 1.2464055654740047 -4.628445047948697 17.520160464845624 0 0 0
1165 389 2 -1.1794 0.07688157083584102 -2.0584186274846132 17.956981305668293 0 0 0
1205 402 1 0.5897 -12.118309154422896 1.4323167803283496 18.63556739816358 0 0 0
1142 381 1 0.5897 -8.623260706967983 -6.310461909252115 20.64887073438057 0 0 0
1252 418 2 -1.1794 -4.6200796224800476 2.949643046967232 17.733580652309744 0 0 0
1240 414 2 -1.1794 -4.098863420462104 0.48374114551479686 18.92577604347635 0 0 0
1179 393 1 0.5897 -0.7204411010136749 -5.258189179045245 21.54025569262275 0 0 0
1218 406 1 0.5897 -13.326163337769323 3.508010201905643 17.827806704646576 0 0 0
1247 416 1 0.5897 -5.458822958370851 -0.5620581101257702 19.560131124823776 0 0 0
1124 375 1 0.5897 1.1624921334336058 -5.935270670402594 16.760548929646617 0 0 0
1145 382 1 0.5897 -1.000049049834864 -3.6146030655411874 17.782185946843136 0 0 0
1122 374 1 0.5897 -4.618418211863966 -2.4914951033312605 17.317261487273008 0 0 0
1242 414 1 0.5897 -3.4406143099488604 0.11664718428677823 18.33569796559395 0 0 0
1270 424 2 -1.1794 -0.9424733784697548 0.20124973141641433 20.628857483710647 0 0 0
1271 424 1 0.5897 -1.4940824554526984 -0.5682726949962902 20.488401830756423 0 0 0
1144 382 2 -1.1794 -1.6825081928684025 -4.278145268293618 17.681596484377152 0 0 0
1263 421 1 0.5897 -1.2332188069354935 -2.984269747381142 20.77066432277241 0 0 0
1133 378 1 0.5897 -1.4217628156068187 -5.9423674336162495 18.502804045586846 0 0 0
1188 396 1 0.5897 0.816022969160052 -3.9757621454604806 19.930809989301746 0 0 0
1257 419 1 0.5897 -2.9515815761317734 -2.100812476765938 19.34192115858693 0 0 0
1255 419 2 -1.1794 -2.6214514839600316 -1.979776038168037 20.232169818661617 0 0 0
1261 421 2 -1.1794 -0.47797472053209056 -3.444483967892431 21.136692819264947 0 0 0
1256 419 1 0.5897 -3.402077788894589 -2.0172964868438097 20.784839376077475 0 0 0
1120 374 2 -1.1794 -4.154113966890429 -2.9956343575202693 17.98542798226423 0 0 0
1146 382 1 0.5897 -2.503299428758597 -3.791974132720555 17.75999471003568 0 0 0
1287 429 1 0.5897 -3.6050885994426656 2.0294239591509644 21.575667737679982 0 0 0
1204 402 2 -1.1794 -11.940017402567072 0.6098298731665821 19.091569385348034 0 0 0
1296 432 1 0.5897 -1.8915463033907578 3.1128627253060177 19.860934870585776 0 0 0
1254 418 1 0.5897 -5.437397751362374 3.4398643822580244 17.822349453107197 0 0 0
1135 379 2 -1.1794 -2.1553938219869213 -0.5979771243706526 17.208213681121975 0 0 0
1286 429 1 0.5897 -3.8693338871964853 0.8416275455821847 20.67504181130638 0 0 0
1136 379 1 0.5897 -1.3311614665202427 -0.9017393450411273 17.588378230748397 0 0 0
1141 381 2 -1.1794 -8.420744335555124 -6.032304420133018 21.542074315225975 0 0 0
1241 414 1 0.5897 -4.332047093561452 1.3244159124056711 18.5319470364513 0 0 0
1195 399 2 -1.1794 -9.642753099780096 2.241328413335916 16.380658593714575 0 0 0
1097 366 1 0.5897 -8.887444462592565 -5.837132454262468 18.50295111556103 0 0 0
1231 411 2 -1.1794 -1.7485342171320273 2.1106729126729746 16.52575797362607 0 0 0
1187 396 1 0.5897 1.5708816586368783 -5.246318556316062 19.602530268861937 0 0 0
1123 375 2 -1.1794 1.2547953798217648 -4.9909459889231 16.63430085416578 0 0 0
1253 418 1 0.5897 -3.9329284306612085 3.6045330444591848 17.856450825546222 0 0 0
1087 363 2 -1.1794 -6.5796676387886075 -5.224112054047401 16.65998367659466 0 0 0
1232 411 1 0.5897 -1.8674171272675881 1.1621323788066267 16.57416177899023 0 0 0
1137 379 1 0.5897 -2.342142558466593 -1.224096472598423 16.508716127528682 0 0 0
1285 429 2 -1.1794 -3.7901113863859166 1.090511435066432 21.59590731897089 0 0 0
1186 396 2 -1.1794 1.423247079440463 -4.352371711341471 19.293865766940897 0 0 0
1249 417 2 -1.1794 -11.432140447405967 1.0096541753723258 21.68038025099888 0 0 0
1047 349 1 0.5897 -4.046400402594248 4.030509668599246 20.737957132693122 0 -1 0
273 91 1 0.5897 -8.366914557226785 1.4904879710270347 21.711306463604295 1 1 -1
1096 366 2 -1.1794 -8.831721113313531 -6.694471523312026 18.924939978881085 0 0 0
866 289 1 0.5897 -12.733843478254776 1.683277170292305 16.45987992966405 0 0 0
794 265 1 0.5897 -1.9353471267220979 -5.355685720459305 16.353847530188514 0 0 0
1101 367 1 0.5897 -10.122274436476875 -0.9797931773234492 16.401496842769195 0 0 0
1178 393 1 0.5897 -0.7864674417561712 -6.475855058316372 20.64315951512536 0 0 0
758 253 1 0.5897 -9.45978656768321 -5.480715841724459 16.407068564481158 0 0 0
40 14 2 -1.1794 -15.00263287433096 3.734222947921129 1.9467553555152524 1 0 0
177 59 1 0.5897 -14.253648063148214 4.545614256922841 3.352504358292762 1 0 0
56 19 1 0.5897 -12.522486206949033 5.9123220738577675 1.1458286084413165 1 0 0
66 22 1 0.5897 -13.480773000343161 2.8812044966030186 1.6550230295639428 1 0 0
65 22 1 0.5897 -12.023516833106942 3.2068151112956897 1.4057790710721119 1 0 0
64 22 2 -1.1794 -12.642916527865614 2.4774456776818976 1.428771615461952 1 0 0
191 64 1 0.5897 -12.709778341677161 6.296384748583279 4.094696567791477 1 0 0
183 61 1 0.5897 -12.35878058746687 3.753261916670514 4.521065875208249 1 0 0
175 59 2 -1.1794 -13.814876281542565 4.871206366539706 4.138400507252566 1 0 0
176 59 1 0.5897 -14.498779204901904 4.88217632039294 4.808027878312607 1 0 0
181 61 2 -1.1794 -11.51532930174734 3.3787412179623626 4.775016341295833 1 0 0
55 19 2 -1.1794 -13.362069848633027 6.246280933310471 0.830023872303767 1 0 0
42 14 1 0.5897 -15.391052320374103 4.323946484787188 1.3005768046428579 1 0 0
108 36 1 0.5897 -10.276102689009594 2.8600811714750645 3.448917151527791 1 0 0
215 72 1 0.5897 -12.42494248864303 8.57079952992878 3.413089794656288 1 0 0
190 64 2 -1.1794 -12.067385486538006 7.003566302440886 4.15289027363539 1 0 0
194 65 1 0.5897 -13.658751328150615 11.909577887937976 2.4949556883863724 1 0 0
153 51 1 0.5897 -12.870042831227996 9.144380823480612 1.2782811201062456 1 0 0
216 72 1 0.5897 -13.13295681217496 9.878590916500487 3.696446404456941 1 0 0
162 54 1 0.5897 -14.654933072159825 6.9075024952040724 2.1293270273421814 1 0 0
101 34 1 0.5897 -4.291027814216513 3.3398716323117252 1.467743166837691 1 0 0
148 50 2 -1.1794 -18.180490000294824 11.028138886759828 1.827923998951666 1 0 0
174 58 1 0.5897 -16.654863758379452 10.137777021248114 1.4448371362854366 1 0 0
214 72 2 -1.1794 -12.569935881701605 9.446272254534053 3.0542914859399435 1 0 0
152 51 1 0.5897 -12.968951635275996 8.013406294902223 0.2768014500356811 1 0 0
206 69 1 0.5897 -14.938253151918369 7.460570299080084 4.461518188507624 1 0 0
160 54 2 -1.1794 -15.312567469610041 7.323895383965668 2.6864477151660457 1 0 0
173 58 1 0.5897 -15.164037595285928 10.368545326771182 1.5708448183723323 1 0 0
85 29 2 -1.1794 -11.000240292092602 4.9210430992289265 1.402836127839375 1 0 0
219 73 1 0.5897 -7.462832401662727 10.936977593402284 4.359478002022747 0 0 0
291 97 1 0.5897 -15.35043131548376 10.705871299975163 4.458484458694574 1 0 0
161 54 1 0.5897 -15.460904197663684 8.17964435978667 2.2840792186618755 1 0 0
172 58 2 -1.1794 -15.812641319439113 9.684844187734045 1.40344547970792 1 0 0
289 97 2 -1.1794 -14.538071163219062 10.398272978088611 4.860490559086441 1 0 0
283 95 2 -1.1794 -16.82220391038473 11.829453498772514 4.052308700320468 1 0 0
285 95 1 0.5897 -17.330213303539452 11.642372776199599 3.262952093802624 1 0 0