LAMMPS data file via write_data, version 30 Jul 2021, timestep = 8750000

1920 atoms
2 atom types
1280 bonds
1 bond types
640 angles
1 angle types

-0.07504223950757272 24.80504323950523 xlo xhi
-0.04857822837562509 24.77857922836805 ylo yhi
-0.11971458279565539 22.929714582797413 zlo zhi

Masses

1 1.008
2 15.999

Pair Coeffs # lj/cut/tip4p/long/omp

1 0 0
2 0.21084 3.1668

Bond Coeffs # harmonic/omp

1 450 0.9572

Angle Coeffs # harmonic/omp

1 55 104.52

Atoms # full

1 1 2 -1.1794 4.433147036119255 1.298553346695758 4.4381904162632795 0 0 0
2 1 1 0.5897 4.4358197365598055 2.102395871741974 4.957824361489142 0 0 0
3 1 1 0.5897 5.2198863568157226 1.3603417988778188 3.896506969197029 0 0 0
4 2 2 -1.1794 2.8010761951102325 1.4835855088083936 2.0044522951885275 0 0 0
5 2 1 0.5897 3.2525944181948705 1.4255726453481186 2.8464482123983403 0 0 0
6 2 1 0.5897 1.8709215177254421 1.4546644190951261 2.228439636126788 0 0 0
10 4 2 -1.1794 3.2134287451494536 4.31980042294951 3.3196507932210944 0 0 0
11 4 1 0.5897 2.767149896810357 5.0246260635049005 3.78895535664367 0 0 0
12 4 1 0.5897 2.709123288652418 4.2114554792692225 2.513342646160619 0 0 0
13 5 2 -1.1794 1.4631073591967552 2.9926618582991398 5.200182973495196 0 0 0
14 5 1 0.5897 2.2457382776011845 3.318404506164801 4.755682688676494 0 0 0
15 5 1 0.5897 1.5538929622620146 2.040042940073858 5.178695032153301 0 0 0
22 8 2 -1.1794 1.2934691824391815 4.268940070507764 1.3148653441839826 0 0 0
24 8 1 0.5897 1.0469767631205327 5.0106584017741795 0.7623428061003008 0 0 0
23 8 1 0.5897 0.7026771794871413 4.322491479522245 2.0660579175268206 0 0 0
20 7 1 0.5897 3.61531853807314 2.977488334137632 0.914107775724901 0 0 0
9 3 1 0.5897 4.94475252301339 4.6556587627835535 3.510025441786433 0 0 0
21 7 1 0.5897 5.056577139806572 2.7771709828889506 1.3317889277772121 0 0 0
19 7 2 -1.1794 4.5045967002511285 3.2833806882588523 0.7357438604655931 0 0 0
27 9 1 0.5897 4.361881337531601 5.070965409724872 0.8868142681834703 0 0 0
98 33 1 0.5897 0.20229473292379502 5.409979617510912 3.978190758806104 1 0 0
387 129 1 0.5897 3.9841667395687654 0.3804958232391672 1.2123875120494898 0 1 0
47 16 1 0.5897 5.901108353657078 0.8495790243208143 1.7166186881997476 0 0 0
25 9 2 -1.1794 4.279620229844213 6.020396014540407 0.7973321603261458 0 0 0
1455 485 1 0.5897 1.6598598023151085 3.0741420349994963 -0.04044806519818246 0 0 1
7 3 2 -1.1794 5.881924235871099 4.721990303943143 3.3269548487778704 0 0 0
16 6 2 -1.1794 -0.04602008798825545 1.296495996056441 1.8117573209006437 0 0 0
99 33 1 0.5897 0.20159485826869072 3.911115379822177 4.1907594491887625 1 0 0
29 10 1 0.5897 2.536306944333771 0.25185403587009325 4.760390602100922 0 0 0
28 10 2 -1.1794 1.6179885227563717 0.29607083887949087 5.026722296701375 0 0 0
150 50 1 0.5897 1.4372086486430922 5.9452818550680835 5.595630385870649 0 0 0
386 129 1 0.5897 4.745530931625249 0.3229950294459205 -0.09483225279186414 0 1 0
867 289 1 0.5897 4.430859750235481 0.28096627886221903 5.778438306695019 0 1 0
528 176 1 0.5897 5.86280614072428 2.437015635879571 7.095538508742244 0 0 0
504 168 1 0.5897 1.190534488680513 3.8784698204093218 6.824089957955465 0 0 0
501 167 1 0.5897 4.120942477742418 4.362717034855378 6.1674937682448485 0 0 0
487 163 2 -1.1794 6.082699073715184 4.700406817247387 9.498634828865928 0 0 0
499 167 2 -1.1794 4.305235227669891 3.427281177084695 6.252224380522697 0 0 0
496 166 2 -1.1794 -0.002243608380487233 1.947993099177206 7.992250080910889 0 0 0
527 176 1 0.5897 5.653549254187659 0.9438620007544172 7.23146540193166 0 0 0
629 210 1 0.5897 2.2133892232479826 6.071384505626307 10.305562608718311 0 0 0
505 169 2 -1.1794 4.2854386157498014 6.074635840157558 6.379260002484361 0 0 0
483 161 1 0.5897 4.706709230293063 2.451725125617004 10.504158597165468 0 0 0
579 193 1 0.5897 -0.008526160232175853 5.420406239629685 9.91034644554767 1 0 0
492 164 1 0.5897 2.8324181359590965 4.213620258937388 9.795028688339354 0 0 0
493 165 2 -1.1794 1.767795812214563 2.984927778780448 10.58858436282035 0 0 0
491 164 1 0.5897 2.8404121399210602 4.850228335706156 8.42154589220515 0 0 0
485 162 1 0.5897 3.267359390556658 1.6772719594393266 8.777319319402125 0 0 0
481 161 2 -1.1794 4.50530647999775 1.667101680145993 9.994266154444292 0 0 0
482 161 1 0.5897 5.176558677199166 1.6452516647523394 9.312256167149439 0 0 0
502 168 2 -1.1794 1.245633367178902 4.756428191916584 7.201370633347925 0 0 0
500 167 1 0.5897 3.7644264910238796 3.1418800154254085 6.988610109275581 0 0 0
490 164 2 -1.1794 3.214414865623903 4.9371926823476295 9.298331928622991 0 0 0
503 168 1 0.5897 0.5867354026909287 4.761065349999054 7.89565213303621 0 0 0
498 166 1 0.5897 0.9360166908428385 1.8992385628650603 8.175241821261185 0 0 0
484 162 2 -1.1794 2.822897008953179 1.6419675583806221 7.930326199769624 0 0 0
489 163 1 0.5897 5.133311708842301 4.812720481254339 9.546041604246126 0 0 0
494 165 1 0.5897 1.6462707361997384 2.0357144086183716 10.608800581252456 0 0 0
486 162 1 0.5897 3.222506033100633 0.8975747552486446 7.48046012050396 0 0 0
508 170 2 -1.1794 1.3959537289240715 0.17805341275406153 10.664442197929963 0 0 0
1347 449 1 0.5897 4.576842358410922 0.29110609065723275 11.25351920829838 0 1 0
961 321 2 -1.1794 4.558273388004816 1.8360341629376171 15.602612974819467 0 0 0
962 321 1 0.5897 5.302587429313436 1.7175770073667385 15.012564277129252 0 0 0
963 321 1 0.5897 4.57120384871785 1.0607812305554263 16.16386268222417 0 0 0
964 322 2 -1.1794 2.868067996555594 1.6427998734681817 13.406128791496325 0 0 0
965 322 1 0.5897 3.2414832487339664 1.6254674373156135 14.287294279014743 0 0 0
966 322 1 0.5897 1.9354598825741975 1.4718267260381268 13.537295048864738 0 0 0
970 324 2 -1.1794 3.1221423545407263 4.622653424568447 14.906391925164444 0 0 0
971 324 1 0.5897 4.070724871160399 4.4964828073186105 14.928003226458644 0 0 0
972 324 1 0.5897 2.7681224711365147 3.859996677106808 15.363787915080135 0 0 0
973 325 2 -1.1794 1.5166349305343132 2.8323550320244455 16.55400104717341 0 0 0
975 325 1 0.5897 0.8318715181146284 3.2261599607859988 16.01343865489575 0 0 0
982 328 2 -1.1794 1.2852896435699588 4.298699309762503 12.873120038312132 0 0 0
983 328 1 0.5897 1.2603818479818387 5.061123315416483 12.29495363033344 0 0 0
984 328 1 0.5897 2.1346989880491125 4.356853763537163 13.31051693351681 0 0 0
980 327 1 0.5897 3.9157653672508737 3.143297568631916 12.374842728425614 0 0 0
981 327 1 0.5897 5.366139015380904 2.833709764063834 12.678777098251993 0 0 0
979 327 2 -1.1794 4.808199334419629 3.4236009843028703 12.171901362128407 0 0 0
990 330 1 0.5897 1.4146412972550748 0.8310328044745404 16.464487968086008 0 0 0
986 329 1 0.5897 4.700731928681423 5.163965774541562 12.224912803383646 0 0 0
1346 449 1 0.5897 3.7429681248379953 0.2242523839611137 12.515256211661486 0 1 0
985 329 2 -1.1794 4.683391185432114 6.1203204984290425 12.26058888951013 0 0 0
1058 353 1 0.5897 -0.04764929313609603 4.52030731648186 14.254343399624215 1 0 0
1460 487 1 0.5897 4.768017186904835 2.788132417493827 16.964763611521533 0 0 0
967 323 2 -1.1794 5.952380618333391 4.562810464621261 15.085635336027922 0 0 0
976 326 2 -1.1794 0.06588024245940138 1.366433555555506 13.517161775684409 0 0 0
1109 370 1 0.5897 0.5104076897949918 5.789666934783216 16.126597689834924 0 0 0
1110 370 1 0.5897 2.020515473705406 5.703667281232952 16.18971728320102 0 0 0
1008 336 1 0.5897 5.892445438505891 0.8020493123282224 13.020421526474264 0 0 0
495 165 1 0.5897 1.6754465975331427 3.258182776502249 11.501269577650282 0 0 0
1467 489 1 0.5897 4.80069358196787 6.144281181157417 18.463269529364744 0 0 0
1487 496 1 0.5897 6.0406252067050294 1.5358917044180138 20.20402282346608 0 0 0
1539 513 1 0.5897 0.1905893939482538 4.934318661742011 21.42368489515789 1 0 0
1826 609 1 0.5897 3.913962862967505 0.17950048563282298 18.296278934788027 0 1 0
1488 496 1 0.5897 5.910280831385586 0.8212029287604146 18.87585979457673 0 0 0
1538 513 1 0.5897 -0.01606395386626934 3.4443135976978785 21.2535152371803 1 0 0
1454 485 1 0.5897 2.2950851457766537 3.4168978701854695 21.67826654523779 0 0 0
1456 486 2 -1.1794 0.19274118817633312 1.2225193409977928 19.444004826068152 0 0 0
1468 490 2 -1.1794 1.1616104826688942 -0.04844058810243658 22.16277668802784 0 0 0
1590 530 1 0.5897 1.9665933016187909 6.026228773209658 22.19929944933513 0 0 0
1464 488 1 0.5897 0.7131857404796962 4.215754264694531 19.28120761290863 0 0 0
974 325 1 0.5897 1.5434727535622288 3.3762504795002717 17.34117633977986 0 0 0
1443 481 1 0.5897 4.338179381906965 2.0689953351795665 22.11019513644313 0 0 0
1450 484 2 -1.1794 3.101389928015074 4.916243473207035 21.050375193584106 0 0 0
1469 490 1 0.5897 1.532958265567354 0.8337180250357783 22.15372011374988 0 0 0
1465 489 2 -1.1794 4.033215159726107 5.894218676567998 17.948837342298415 0 0 0
1442 481 1 0.5897 3.941032404394588 1.3924738218516286 20.81543165127798 0 0 0
1453 485 2 -1.1794 1.8968279613591126 2.694031002346105 22.163077517597646 0 0 0
1444 482 2 -1.1794 2.886412512861524 1.253556943905088 19.21849964594833 0 0 0
1463 488 1 0.5897 1.3016413153313093 5.121594219324301 18.220567248583862 0 0 0
1452 484 1 0.5897 2.7241716891922074 4.861110804436168 20.172381049482123 0 0 0
1441 481 2 -1.1794 4.632469684906648 1.4143002909919256 21.476974392543823 0 0 0
1451 484 1 0.5897 4.015422195136893 4.656294884860298 20.935619626294347 0 0 0
1445 482 1 0.5897 1.960856702648789 1.2077763361618374 19.4581882299204 0 0 0
1446 482 1 0.5897 2.983650900721802 2.1083495648994317 18.798900032025895 0 0 0
1461 487 1 0.5897 5.436894342727558 2.8486770143158187 18.32149959048115 0 0 0
1459 487 2 -1.1794 4.888299977455771 3.35760083729676 17.72464956226551 0 0 0
1462 488 2 -1.1794 1.491222750928713 4.338540332135434 18.737355721063622 0 0 0
1466 489 1 0.5897 4.114013699453755 4.946405622890402 17.842504093293012 0 0 0
1447 483 2 -1.1794 5.717066879963312 4.55766095053338 20.679838066966557 0 0 0
1448 483 1 0.5897 6.092436060569878 5.339449221830315 21.084920046061036 0 0 0
121 41 2 -1.1794 4.404990316508525 7.637000146536502 4.243582062546382 0 0 0
122 41 1 0.5897 3.6455464737867977 7.472188045799296 3.6847666752695662 0 0 0
123 41 1 0.5897 5.145730940567044 7.669890018099735 3.6382594702382827 0 0 0
124 42 2 -1.1794 2.5996827772741598 7.965489099640127 2.0308337968503087 0 0 0
125 42 1 0.5897 2.7927187162295475 7.173091338995432 1.5298022437550496 0 0 0
126 42 1 0.5897 3.126707756869597 8.647243365923215 1.6141191495484253 0 0 0
129 43 1 0.5897 4.938001949129703 11.248022375663421 3.362457023340944 0 0 0
130 44 2 -1.1794 2.9873171342624922 10.938134917696466 3.328378672870175 0 0 0
132 44 1 0.5897 3.012322449382573 10.01484422521487 3.57956104773376 0 0 0
133 45 2 -1.1794 1.0756300792160005 8.957110004232574 5.0368729958890945 0 0 0
135 45 1 0.5897 0.3720753426537823 9.429574977607578 4.59190349064517 0 0 0
137 46 1 0.5897 0.851034923391294 7.908513487306747 1.8329142668866818 0 0 0
139 47 2 -1.1794 4.645783946719455 9.629976592667258 0.6486925771353571 0 0 0
142 48 2 -1.1794 1.160208418869695 10.950992507622962 1.362754845307482 0 0 0
143 48 1 0.5897 1.9238373653975223 11.030738906841348 1.9343361195567588 0 0 0
144 48 1 0.5897 1.2645311446228114 11.655475483039657 0.7232178937076681 0 0 0
149 50 1 0.5897 1.4581768075863064 7.238549112273592 4.808993790541596 0 0 0
131 44 1 0.5897 2.542854829178797 11.372874563249473 4.056145536280653 0 0 0
140 47 1 0.5897 4.567288957047909 10.564670840653546 0.45798902489177984 0 0 0
26 9 1 0.5897 5.029473632913753 6.372493801813643 1.276854436609469 0 0 0
148 50 2 -1.1794 1.634611844681453 6.301159959116694 4.729275025899242 0 0 0
507 169 1 0.5897 4.285332620458264 6.464405970581419 5.505035914204999 0 0 0
127 43 2 -1.1794 5.853873833844868 11.015628310383986 3.5153170572838985 0 0 0
270 90 1 0.5897 0.7513695001588329 11.87415171236772 4.628746664133046 0 0 0
168 56 1 0.5897 5.759249204720944 8.4177532447585 1.592850629163284 0 0 0
1574 525 1 0.5897 1.2873796076361712 9.432790976837708 0.04596952690221534 0 0 1
647 216 1 0.5897 5.891626121322088 7.579862096046245 8.7361936309742 0 0 0
698 233 1 0.5897 0.41742539742568074 11.353556972669228 10.01877699566279 1 0 0
621 207 1 0.5897 4.620574080963506 8.839526737944238 5.657879539101258 0 0 0
648 216 1 0.5897 5.913915780532088 6.7905316443993735 7.444584002474785 0 0 0
699 233 1 0.5897 0.3517848897220768 10.69102468431062 8.659171027472572 1 0 0
607 203 2 -1.1794 5.8961058469827075 10.934578053139616 9.110868109348909 0 0 0
506 169 1 0.5897 3.86331917813339 6.730266399926576 6.934376617250299 0 0 0
628 210 2 -1.1794 1.4726834732843517 6.338509826695487 10.849798656704571 0 0 0
605 202 1 0.5897 2.94565738403014 8.6513918592375 7.489979799306457 0 0 0
625 209 2 -1.1794 4.381633480786326 12.144813448529765 6.47099598106025 0 0 0
603 201 1 0.5897 4.08979934978765 7.4120564816804295 9.289829219917927 0 0 0
616 206 2 -1.1794 0.11849306656353448 7.560135374619291 7.667973890674332 0 0 0
134 45 1 0.5897 1.248670832667925 9.471277182995188 5.825469051954225 0 0 0
602 201 1 0.5897 4.572839179620591 6.9532837263977845 10.64923677266173 0 0 0
624 208 1 0.5897 1.610467956415192 11.407622337464216 6.630521779824223 0 0 0
612 204 1 0.5897 2.845582195478514 11.522584607205347 9.745308679580987 0 0 0
606 202 1 0.5897 1.7944743164065355 7.76707337540965 7.919575973734666 0 0 0
626 209 1 0.5897 4.477382711294462 11.194306796862126 6.530597136539622 0 0 0
611 204 1 0.5897 4.11885396427379 11.018225007350507 9.100174551229767 0 0 0
604 202 2 -1.1794 2.7410427336381447 7.875376898467 8.011631369711488 0 0 0
615 205 1 0.5897 0.8034220141563511 9.481294280642512 10.512910102266538 0 0 0
619 207 2 -1.1794 4.630695137245521 9.305923844598636 6.493681417331907 0 0 0
613 205 2 -1.1794 1.5197133340984377 9.05034133324137 10.97917232418691 0 0 0
623 208 1 0.5897 2.2574711781405132 10.712413294576486 7.809447673183961 0 0 0
630 210 1 0.5897 1.5402279320658532 7.292194310955372 10.895698405147423 0 0 0
610 204 2 -1.1794 3.231636137405413 10.74786586190192 9.336702669922325 0 0 0
620 207 1 0.5897 5.211465284538276 8.787632320486205 7.050705171942263 0 0 0
601 201 2 -1.1794 4.73133744788335 7.610714476915437 9.971852766228132 0 0 0
622 208 2 -1.1794 1.5364253379403265 10.63107537598685 7.185208556145738 0 0 0
614 205 1 0.5897 2.311140811398514 9.345901980461061 10.529189822120287 0 0 0
1101 367 1 0.5897 4.548310563138403 9.131708274051338 11.355969016131864 0 0 0
1081 361 2 -1.1794 4.543069367747156 7.6838651144098575 15.912227677406474 0 0 0
1082 361 1 0.5897 4.614853014896847 8.39982415192007 16.543445157423562 0 0 0
1083 361 1 0.5897 4.322077335792696 6.918003471578593 16.442136934201024 0 0 0
1084 362 2 -1.1794 2.757460826810014 7.606722524364443 13.613496502785415 0 0 0
1085 362 1 0.5897 3.114384204305816 7.596727904313984 14.501582654857742 0 0 0
1086 362 1 0.5897 3.1663123013654157 8.366519369056814 13.199081750651706 0 0 0
1089 363 1 0.5897 5.011145247092086 10.782656390449015 14.969710072984993 0 0 0
1090 364 2 -1.1794 3.2885380611232833 10.921195186947406 14.950355821690692 0 0 0
1091 364 1 0.5897 2.9139350005955285 11.658551796664021 15.432200529413548 0 0 0
1092 364 1 0.5897 3.001930948242339 10.147243468094315 15.435176433998926 0 0 0
1095 365 1 0.5897 0.8524125673522145 9.216816575614706 15.649490757507923 0 0 0
1097 366 1 0.5897 1.0020433772860335 7.199989748447981 13.758861410838845 0 0 0
1099 367 2 -1.1794 4.440037564256829 9.452892084706061 12.251128208410087 0 0 0
1102 368 2 -1.1794 1.4239610361674833 11.018757115735392 12.85681728316442 0 0 0
1104 368 1 0.5897 2.183592982773765 10.953129689588359 13.435476688140001 0 0 0
1093 365 2 -1.1794 1.5076456162574876 8.966693854389971 16.30087391359314 0 0 0
1103 368 1 0.5897 1.549830707319463 10.3195878841398 12.215327451042558 0 0 0
1100 367 1 0.5897 5.3068300532849175 9.359167035778244 12.6462069207524 0 0 0
1094 365 1 0.5897 1.3267127823170175 8.04425754780061 16.4813109890768 0 0 0
1107 369 1 0.5897 4.505732874826878 11.354528689052087 12.040172206058106 0 0 0
1128 376 1 0.5897 5.902033540494713 7.406117572790817 12.897211330838402 0 0 0
987 329 1 0.5897 3.8684382348746973 6.328689143129215 12.717354753730666 0 0 0
1087 363 2 -1.1794 5.967940868087435 10.757718234578395 14.980447312295198 0 0 0
1228 410 2 -1.1794 1.303323369546025 12.275452517380288 16.51277027145206 0 0 0
1127 376 1 0.5897 5.747090965358156 7.871850900035461 14.329298491829888 0 0 0
1105 369 2 -1.1794 4.689791633149556 12.264241203081246 12.274113942848887 0 0 0
1096 366 2 -1.1794 0.06304609038356296 7.141560316560313 13.582587808942444 0 0 0
1178 393 1 0.5897 0.011882984869742541 11.394807956121515 15.634582202841015 1 0 0
1179 393 1 0.5897 0.1662960235117494 10.726362515979462 14.2850883259978 1 0 0
1108 370 2 -1.1794 1.2715183621959831 6.1586819041543786 16.57462883557967 0 0 0
141 47 1 0.5897 4.657783417644249 9.209783329281034 22.838190555764594 0 0 -1
1608 536 1 0.5897 5.675019524121445 7.6239462181345825 20.204878974043933 0 0 0
1606 536 2 -1.1794 6.052182910382121 7.485067054925332 19.33617298768059 0 0 0
1567 523 2 -1.1794 6.12902812120674 10.920114145747672 20.545649912593518 0 0 0
1710 570 1 0.5897 2.1282335248542332 12.087432301266526 21.65354482803171 0 0 0
1588 530 2 -1.1794 1.091438501484561 6.304353306375582 22.469392798273944 0 0 0
1576 526 2 -1.1794 0.07422105703390999 7.221874972514262 19.038968509191648 0 0 0
1658 553 1 0.5897 0.21305906534512775 9.997943360449408 21.090994760089057 1 0 0
1564 522 2 -1.1794 2.798323730899621 7.8050967746223625 19.38697218268556 0 0 0
1563 521 1 0.5897 3.9856233191894237 7.88318404156168 21.03974549756166 0 0 0
1709 570 1 0.5897 0.6331179229874448 12.177678761643591 21.433791046767475 0 0 0
1566 522 1 0.5897 3.194911333355233 7.180639126683543 18.77955268828854 0 0 0
1583 528 1 0.5897 0.8515897090179989 10.467344817275178 18.911067342139024 0 0 0
1570 524 2 -1.1794 3.299363499156327 10.866449689200975 20.862963643624134 0 0 0
1562 521 1 0.5897 4.501277042156131 7.08503690583033 22.218239228709827 0 0 0
1585 529 2 -1.1794 4.9841589024239195 12.156935811424413 17.44724492173977 0 0 0
1584 528 1 0.5897 1.5541957768341466 10.044640063258337 17.63848912015515 0 0 0
1580 527 1 0.5897 3.854523476670744 9.251144491392198 18.45040825913751 0 0 0
1561 521 2 -1.1794 4.715428235738223 7.830095883558943 21.65680196361378 0 0 0
1572 524 1 0.5897 4.187371826229829 11.130505132056095 20.622313956893592 0 0 0
1589 530 1 0.5897 1.1264544058248536 7.260664059343445 22.448547790771226 0 0 0
1587 529 1 0.5897 5.112365286127231 11.215594228804479 17.564003371286624 0 0 0
1565 522 1 0.5897 1.869948032401541 7.5723081817795 19.39831956221249 0 0 0
1581 527 1 0.5897 5.333519616055194 8.929112408496547 18.476481749962822 0 0 0
1582 528 2 -1.1794 1.67244336485449 10.5703005801469 18.42961858531358 0 0 0
1575 525 1 0.5897 2.077396829763419 9.562323343389897 21.810524195401026 0 0 0
1579 527 2 -1.1794 4.68251128152029 9.46049663540244 18.018197323098 0 0 0
1573 525 2 -1.1794 1.309104686706318 9.132868586739459 22.18668151624238 0 0 0
1571 524 1 0.5897 2.8577664029270564 10.719348594344124 20.026574843103692 0 0 0
1230 410 1 0.5897 1.3152736264295122 11.859007268670092 17.374523768538644 0 0 0
241 81 2 -1.1794 4.356904143582546 13.849375098348755 4.214847349153466 0 0 0
242 81 1 0.5897 4.401087836548823 13.01244438921715 4.677217371180783 0 0 0
243 81 1 0.5897 3.6069531404680055 13.759425274019383 3.6268995864751137 0 0 0
244 82 2 -1.1794 2.773661519582647 13.796822049803378 1.9779483908493165 0 0 0
245 82 1 0.5897 1.843259069674489 14.019109028563358 1.944258117862422 0 0 0
246 82 1 0.5897 3.21282611375589 14.53851431574923 1.5617579068570944 0 0 0
250 84 2 -1.1794 3.065444618043159 16.85637435493853 3.7363108829273237 0 0 0
251 84 1 0.5897 2.6949262890721877 16.96178541571117 2.8600719032906907 0 0 0
252 84 1 0.5897 4.012607421112668 16.85845156593694 3.5982040412168477 0 0 0
253 85 2 -1.1794 1.2261141700541867 15.19884814795566 4.798858887736162 0 0 0
255 85 1 0.5897 2.026075204567677 15.52639812499584 4.387803604626792 0 0 0
259 87 2 -1.1794 4.638298751504521 15.638406321212305 0.564518102521086 0 0 0
262 88 2 -1.1794 1.5075604111877534 16.71739000962146 1.3310318466486077 0 0 0
263 88 1 0.5897 1.64350064727273 15.977315616481608 0.7394238413346405 0 0 0
264 88 1 0.5897 1.43575426718445 17.476797158942375 0.7528163492144561 0 0 0
269 90 1 0.5897 1.0542683676540487 13.318074934846981 4.968032477605393 0 0 0
254 85 1 0.5897 0.5246650387272638 15.719305948997944 4.407324288255369 0 0 0
260 87 1 0.5897 4.788496664410827 16.579988463391256 0.4805683727611635 0 0 0
287 96 1 0.5897 5.66339222907168 14.241999389033245 2.926415568240447 0 0 0
146 49 1 0.5897 3.8116813238654585 12.553426454872962 0.8886896402330016 0 0 0
339 113 1 0.5897 0.201285192167397 17.72518939087723 3.8714717845400437 1 0 0
256 86 2 -1.1794 0.00933655690480012 13.947660390392548 2.12921636119569 0 0 0
740 247 1 0.5897 4.457623134260524 15.061166962334033 5.5348899430859895 0 0 0
338 113 1 0.5897 0.203716100057253 17.018831545586355 2.532499502972956 1 0 0
147 49 1 0.5897 5.250118680077674 12.995110018234017 1.054864881787073 0 0 0
247 83 2 -1.1794 5.82386679952342 16.96438410298838 3.5201050060655072 0 0 0
265 89 2 -1.1794 4.680512000026521 18.400763095394563 0.5501249344863652 0 0 0
145 49 2 -1.1794 4.692428971729589 12.40971686152691 0.5425315595772893 0 0 0
288 96 1 0.5897 5.720726145148539 14.858143253252655 1.54479795432573 0 0 0
268 90 2 -1.1794 1.3825283693442434 12.427149598577035 5.089206093231684 0 0 0
389 130 1 0.5897 2.024385702925112 18.238233279468737 4.391090417611288 0 0 0
737 246 1 0.5897 1.1132143473578462 13.878096294615364 7.863829241778219 0 0 0
732 244 1 0.5897 2.819278228618864 16.53108626104237 9.802460433394085 0 0 0
725 242 1 0.5897 3.485522669120297 14.716190461442256 7.645463299124358 0 0 0
748 250 2 -1.1794 1.608551780114542 12.6590504551763 10.633030346331534 0 0 0
726 242 1 0.5897 3.203841465526385 13.24600011792719 7.419658324267 0 0 0
727 243 2 -1.1794 6.091790119472439 16.965213311974317 9.102712348392076 0 0 0
817 273 2 -1.1794 -0.03507073935362764 16.947779263232114 9.210813310297056 1 0 0
869 290 1 0.5897 0.7409713111277881 18.30585668175413 10.248862318491758 0 0 0
730 244 2 -1.1794 3.4124339611652386 16.952014676561582 9.18022516128224 0 0 0
870 290 1 0.5897 2.2282252511015677 18.46459878632487 10.015005892269047 0 0 0
818 273 1 0.5897 0.42584541121089337 16.93099233405928 8.372080716243651 1 0 0
736 246 2 -1.1794 0.20695874942767867 13.684830915484369 7.623947695785888 0 0 0
728 243 1 0.5897 5.162283736291172 16.792561488117283 9.252394758332168 0 0 0
733 245 2 -1.1794 1.7295877446173442 15.361134540402787 10.817000857896605 0 0 0
724 242 2 -1.1794 2.8891076760547696 14.012001684652825 7.899632871770843 0 0 0
742 248 2 -1.1794 1.6865605269196753 16.879062052786306 6.995572003384881 0 0 0
721 241 2 -1.1794 4.674916400857198 13.964004967080289 9.974168107484697 0 0 0
743 248 1 0.5897 1.623662567823124 17.61880736028401 6.391414436117628 0 0 0
722 241 1 0.5897 3.858404272042443 14.06667718947767 9.485331538462978 0 0 0
731 244 1 0.5897 2.973346338349635 16.865661067635234 8.33408782301383 0 0 0
749 250 1 0.5897 1.7114057995390572 13.609989199809524 10.66952589160551 0 0 0
735 245 1 0.5897 1.0137119040988831 15.704170553325167 10.282170520668123 0 0 0
741 247 1 0.5897 4.786215681435135 16.469109677080056 5.983797729900941 0 0 0
744 248 1 0.5897 1.6884627112469741 16.106824836566382 6.430031006843603 0 0 0
739 247 2 -1.1794 4.6165548277081765 15.588311928588954 6.317867089598244 0 0 0
723 241 1 0.5897 5.354439365036297 13.926163759093614 9.301102479981163 0 0 0
627 209 1 0.5897 5.183359958103687 12.491769152419687 6.8622110758482515 0 0 0
768 256 1 0.5897 6.086035402967235 14.732945853735437 7.408176083648947 0 0 0
1221 407 1 0.5897 4.5945258671174605 15.128257826749635 11.282765938007195 0 0 0
1201 401 2 -1.1794 4.74738965366318 14.43275332670346 15.65630328523643 0 0 0
1204 402 2 -1.1794 3.1377700498795718 13.787961113649684 13.727692538579571 0 0 0
1205 402 1 0.5897 3.6998303087061717 14.192049854207383 14.38874977606074 0 0 0
1206 402 1 0.5897 3.6417186660847096 13.038924486412363 13.409616098656286 0 0 0
1210 404 2 -1.1794 3.4513130069193174 16.972365331384573 14.896033475612194 0 0 0
1211 404 1 0.5897 2.9442599897782427 17.617800693358863 15.388474521097002 0 0 0
1212 404 1 0.5897 4.36373859041548 17.178211685566424 15.099263035268166 0 0 0
1213 405 2 -1.1794 1.811685088481944 15.329851290798679 16.532657032770075 0 0 0
1214 405 1 0.5897 1.0589492333490886 15.539904402682433 15.979972348507019 0 0 0
1215 405 1 0.5897 2.5388140651960343 15.814649257556185 16.142211929509727 0 0 0
1218 406 1 0.5897 1.2058208110819222 14.030932332578635 13.867229574654107 0 0 0
1222 408 2 -1.1794 1.4542419551390842 17.169865032391645 12.880473852447947 0 0 0
1223 408 1 0.5897 1.4621486256486302 17.831679312669554 12.188998619858099 0 0 0
1224 408 1 0.5897 2.313095777391619 17.246681595651307 13.296004304046079 0 0 0
1229 410 1 0.5897 1.396742131299262 13.210148502090224 16.696617935694636 0 0 0
1220 407 1 0.5897 3.9242945265053124 15.077495362657729 12.639237764759539 0 0 0
1202 401 1 0.5897 5.418333056355212 14.297429890666123 14.987185930089993 0 0 0
1203 401 1 0.5897 4.792804717189726 13.6488440876463 16.203671797727857 0 0 0
1219 407 2 -1.1794 4.528638890498736 15.600629880274886 12.112655793079757 0 0 0
1227 409 1 0.5897 4.470829725975087 17.389678325186708 12.169037588082073 0 0 0
1106 369 1 0.5897 4.620477369695889 12.743143006875538 11.448256286463458 0 0 0
734 245 1 0.5897 1.5194135724540472 15.64160698210332 11.707703167517662 0 0 0
1700 567 1 0.5897 4.590888501192336 15.556834371834913 17.07930547540493 0 0 0
1350 450 1 0.5897 0.979647284277432 18.143565846445977 15.9601790421267 0 0 0
1216 406 2 -1.1794 0.2527874419791706 13.99095625239713 13.946761791809681 0 0 0
1298 433 1 0.5897 0.2280976248831144 16.99278819179325 14.350433033991512 1 0 0
1247 416 1 0.5897 5.990729760792224 14.498448598260984 12.994606178037547 0 0 0
1217 406 1 0.5897 -0.07153023387400265 14.503812023476378 13.20650036685394 0 0 0
1225 409 2 -1.1794 4.45842731266743 18.33781409076609 12.038396052480792 0 0 0
750 250 1 0.5897 1.6140651247110633 12.38173466159349 11.549141285237713 0 0 0
1696 566 2 -1.1794 0.24204804361783688 13.534814289241677 19.14912186779864 0 0 0
1586 529 1 0.5897 5.662187013982619 12.560508489077042 17.989097603587165 0 0 0
1689 563 1 0.5897 5.131483966007475 17.15742816783176 20.750467972609634 0 0 0
1728 576 1 0.5897 5.83983835887353 14.691323138829661 18.873611000939462 0 0 0
1779 593 1 0.5897 0.3211695420301412 17.58627951839047 21.382043032663784 1 0 0
1701 567 1 0.5897 3.793983157216527 15.260442058900408 18.331856805709187 0 0 0
1830 610 1 0.5897 2.364517136596122 18.38258233451504 21.98282354542809 0 0 0
1708 570 2 -1.1794 1.3442613602345705 12.543117672104378 21.96002561763129 0 0 0
1699 567 2 -1.1794 4.502645404373593 15.810491881731 17.998034238269717 0 0 0
1707 569 1 0.5897 4.383514635194904 17.675308547345313 17.960794913756324 0 0 0
1778 593 1 0.5897 0.41973508143618254 16.84081426279212 20.068129555827376 1 0 0
1682 561 1 0.5897 5.336466964060723 13.868248362071881 20.671308980936978 0 0 0
1681 561 2 -1.1794 4.696646601341157 13.993451616825798 21.3721368576208 0 0 0
1686 562 1 0.5897 3.291397846253645 13.894887162549768 20.064480289146466 0 0 0
1704 568 1 0.5897 1.783577644106838 17.88966857832811 18.373399494246396 0 0 0
1697 566 1 0.5897 1.150888982670899 13.82956317059816 19.206783787590233 0 0 0
1702 568 2 -1.1794 1.6986421708158033 17.061353679005396 18.84549060651941 0 0 0
1694 565 1 0.5897 1.0235613707935838 15.604342961716885 21.72010083457406 0 0 0
1703 568 1 0.5897 1.5285186685146248 16.41238279133129 18.16278811892411 0 0 0
1690 564 2 -1.1794 3.4206575672307884 16.99953960354887 20.833623511584282 0 0 0
1693 565 2 -1.1794 1.8342041809204468 15.206602824638253 22.037675451345976 0 0 0
1683 561 1 0.5897 4.900003125466091 13.30758020379974 22.008075060511633 0 0 0
1691 564 1 0.5897 2.9136739073941027 16.32928822659076 21.291792360862157 0 0 0
1692 564 1 0.5897 2.930356583007974 17.1622949182622 20.027825055774017 0 0 0
1695 565 1 0.5897 1.6443662894440154 14.269045988149388 22.07133048386463 0 0 0
1684 562 2 -1.1794 2.8624760752115677 13.86420387025798 19.20932949186001 0 0 0
1685 562 1 0.5897 3.112107036519873 13.014579923213985 18.845992032629702 0 0 0
1687 563 2 -1.1794 6.084707356516058 17.16580016779256 20.837014909909897 0 0 0
261 87 1 0.5897 4.5675606463277845 15.325339854176402 22.712179192009017 0 0 -1
361 121 2 -1.1794 4.823888864522629 20.27105591193638 4.265287760664609 0 0 0
362 121 1 0.5897 3.981394380486023 20.18665038781492 3.818884850382259 0 0 0
364 122 2 -1.1794 2.9319362240882194 20.072541535452665 2.116188857865624 0 0 0
365 122 1 0.5897 3.104634891146803 20.856096201094164 1.5942672077107227 0 0 0
370 124 2 -1.1794 3.3624670581274936 23.443609324471584 3.4054680446763683 0 0 0
371 124 1 0.5897 4.270296814334505 23.166929785508195 3.5299484111692534 0 0 0
372 124 1 0.5897 2.8422682241341777 22.747614464089544 3.806939416398392 0 0 0
373 125 2 -1.1794 1.6476481119175772 21.47100833413846 4.669966803930783 0 0 0
382 128 2 -1.1794 1.4134092265397062 23.34955193191524 1.3634564501822615 0 0 0
383 128 1 0.5897 2.2023716386879277 23.48453895930198 1.8883493422879463 0 0 0
390 130 1 0.5897 1.37392911265277 19.59165860715686 4.583281989305823 0 0 0
375 125 1 0.5897 0.7992255857847207 21.801763980391176 4.3750545241861225 0 0 0
366 122 1 0.5897 1.985326538317726 19.945694066580682 2.0526474026387076 0 0 0
384 128 1 0.5897 1.6252808372070124 22.6065250721142 0.7984637484913032 0 0 0
363 121 1 0.5897 4.766994997546754 19.66287834874257 5.00222475655146 0 0 0
380 127 1 0.5897 4.457287817207099 22.88812283249287 0.5112424173457222 0 0 0
381 127 1 0.5897 5.143989017682118 21.618367168293453 0.9672570891814536 0 0 0