LAMMPS (30 Jul 2021)
  using 1 OpenMP thread(s) per MPI task
package omp 0
using multi-threaded neighbor list subroutines
echo both

include		in.partitions
variable        pid world 0
include		in.temp
variable        temperature equal 269.16
variable	tempDamp equal 100.0
include		in.pressure
variable        pressure equal 11125.0
variable        pressureDamp equal 1000.0 # This is 1 ps
include		in.seed
variable        seed world 745823

units		real
atom_style	full
read_restart    restart.lmp.${pid}
read_restart    restart.lmp.0
Reading restart file ...
  restart file = 30 Jul 2021, LAMMPS = 30 Jul 2021
  restoring atom style full from restart
  triclinic box = (-3.0994742 -0.22178108 0.047067536) to (14.709473 22.801780 19.182930) with tilt (-0.076334455 -5.8359696 -0.25219895)
  4 by 4 by 4 MPI processor grid
  restoring pair style lj/cut/tip4p/long/omp from restart
  restoring bond style harmonic/omp from restart
  restoring angle style harmonic/omp from restart
  1008 atoms
  672 bonds
  336 angles
Finding 1-2 1-3 1-4 neighbors ...
  special bond factors lj:    0        0        0       
  special bond factors coul:  0        0        0       
     2 = max # of 1-2 neighbors
     1 = max # of 1-3 neighbors
     1 = max # of 1-4 neighbors
     2 = max # of special neighbors
  special bonds CPU = 1.152 seconds
  read_restart CPU = 1.369 seconds

include 	in.setup
variable	out_freq equal 1000
variable	out_freq2 equal 10000
variable	out_freq3 equal 1000

timestep	2.0

neigh_modify    delay 7 every 1

include		in.tip4p
# This is TIP4P/Ice

# create groups ###
group ox type 2
336 atoms in group ox
group hy type 1
672 atoms in group hy

# set charges - beside manually ###
set group ox charge -1.1794
Setting atom values ...
  336 settings made for charge
set group hy charge 0.5897
Setting atom values ...
  672 settings made for charge

# ### TIP3P Potential Parameters ###
pair_style lj/cut/tip4p/long/omp 2 1 1 1 0.1577 8.5
pair_coeff 1 1*2 0.000 0.000
pair_coeff 2 2 0.21084 3.1668
bond_style  harmonic
bond_coeff  1 450 0.9572
angle_style harmonic
angle_coeff 1 55 104.52
kspace_style pppm/tip4p/omp 1.0e-5
pair_modify tail yes

thermo          ${out_freq}
thermo          1000
thermo_style    custom step temp pe etotal epair emol press lx ly lz vol pxx pyy pzz pxy pxz pyz enthalpy

restart 	${out_freq3} restart.lmp.${pid} restart2.lmp.${pid}
restart 	1000 restart.lmp.${pid} restart2.lmp.${pid}
restart 	1000 restart.lmp.0 restart2.lmp.${pid}
restart 	1000 restart.lmp.0 restart2.lmp.0


include         in.dump
dump            myDump all atom ${out_freq2} dump.water.${pid}
dump            myDump all atom 10000 dump.water.${pid}
dump            myDump all atom 10000 dump.water.0
dump            myDump2 all dcd ${out_freq2} dump.dcd
dump            myDump2 all dcd 10000 dump.dcd
dump_modify     myDump append yes
dump_modify     myDump2 append yes


variable natoms 	equal  "count(all)"                        # NUMBER ATOMS
variable H      	equal  "enthalpy/v_natoms"                 # ENTHALPY-per-atom
variable Vol      	equal  "vol/v_natoms"                 # volume-per-atom
fix AVG all 		ave/time ${out_freq} 1 ${out_freq} v_Vol v_H file vol_enthalpy.dat
fix AVG all 		ave/time 1000 1 ${out_freq} v_Vol v_H file vol_enthalpy.dat
fix AVG all 		ave/time 1000 1 1000 v_Vol v_H file vol_enthalpy.dat



fix 		1 all shake 1e-6 200 0 b 1 a 1
       0 = # of size 2 clusters
       0 = # of size 3 clusters
       0 = # of size 4 clusters
     336 = # of frozen angles
  find clusters CPU = 0.016 seconds
fix             2 all nph tri ${pressure} ${pressure} ${pressureDamp}
fix             2 all nph tri 11125 ${pressure} ${pressureDamp}
fix             2 all nph tri 11125 11125 ${pressureDamp}
fix             2 all nph tri 11125 11125 1000
fix             3 all temp/csvr ${temperature} ${temperature} ${tempDamp} ${seed}
fix             3 all temp/csvr 269.16 ${temperature} ${tempDamp} ${seed}
fix             3 all temp/csvr 269.16 269.16 ${tempDamp} ${seed}
fix             3 all temp/csvr 269.16 269.16 100 ${seed}
fix             3 all temp/csvr 269.16 269.16 100 745823


run             250000
PPPM initialization ...
  extracting TIP4P info from pair style
  using 12-bit tables for long-range coulomb (../kspace.cpp:340)
  G vector (1/distance) = 0.38368261
  grid = 24 30 32
  stencil order = 5
  estimated absolute RMS force accuracy = 0.0019304294
  estimated relative force accuracy = 5.8134309e-06
  using double precision FFTW3
  3d grid and FFT values/proc = 4080 384
Last active /omp style is kspace_style pppm/tip4p/omp
Neighbor list info ...
  update every 1 steps, delay 7 steps, check yes
  max neighbors/atom: 2000, page size: 100000
  master list distance cutoff = 10.8154
  ghost atom cutoff = 10.8154
  binsize = 5.4077, bins = 5 5 4
  1 neighbor lists, perpetual/occasional/extra = 1 0 0
  (1) pair lj/cut/tip4p/long/omp, perpetual
      attributes: half, newton on, omp
      pair build: half/bin/newton/tri/omp
      stencil: half/bin/3d/tri
      bin: standard
Per MPI rank memory allocation (min/avg/max) = 9.341 | 9.346 | 9.348 Mbytes
Step Temp PotEng TotEng E_pair E_mol Press Lx Ly Lz Volume Pxx Pyy Pzz Pxy Pxz Pyz Enthalpy 
16500000    269.07985   -4775.1308   -4236.9379   -4775.1308            0     11396.45    17.808947    23.023561    19.135863    7846.1897    10380.233    11581.801    12227.315    57.122915   -1194.2256    113.76264   -2932.8578 
16501000    271.25686   -4819.4226   -4276.8754   -4819.4226            0    11322.182     17.80164    22.792425    19.331228    7843.5021    10961.541    12176.553    10828.454   -1399.7452    379.32876   -502.53768   -2981.7373 
16502000    270.43941   -4796.8767   -4255.9645   -4796.8767            0    11932.769    18.062319    22.909184    18.960524    7845.7318    12544.061    10662.967    12591.278    1584.9214   -140.33215    2167.7964   -2890.5938 
16503000    265.36402    -4804.692   -4273.9311    -4804.692            0     10128.21     17.67626    23.125113    19.282518    7882.0283    13252.178     7980.253    9152.1974    -31.29218   -1294.8074   -864.33948   -3109.6803 
16504000    264.29285   -4846.3088   -4317.6904   -4846.3088            0    8662.1957    17.743816    23.221593     19.06979    7857.5103    7155.9257    8366.5232    10464.138    256.99003   -300.12344    1750.9606   -3325.0571 
16505000    272.60048   -4802.2472   -4257.0126   -4802.2472            0    12365.849    17.594622    23.254335    19.079563    7806.4269    14823.826    11169.811    11103.908   -1065.0084   -451.15731   -1880.2272   -2849.1764 
16506000    278.92107   -4810.1365   -4252.2599   -4810.1365            0    11277.812    17.445346    23.333148    19.264893    7841.8679    13806.243    11426.008    8601.1831    22.958951    1559.3747   -1748.7201   -2962.4662 
16507000     271.3504   -4804.9661   -4262.2318   -4804.9661            0    13314.095    17.695502    23.144415    18.990403    7777.5583    13804.466    12767.779    13370.042    323.75934   -50.235542   -20.773025   -2752.0444 
16508000    277.18539   -4817.0088   -4262.6038   -4817.0088            0    12002.773    17.590958      23.1418    19.221494    7824.8094     12636.97    11515.262    11856.086   -526.67548     669.2301   -97.559282   -2892.8856 
16509000    272.00378   -4773.7368   -4229.6957   -4773.7368            0    12216.764    17.726655    23.381294    18.870495    7821.2939    12449.993    11671.876    12528.423    89.948502    -511.0185   -1435.9265   -2836.1838 
16510000    289.96383   -4833.2058   -4253.2423   -4833.2058            0    11136.198     17.44481    23.294893    19.258348     7826.111    11281.976    10068.137     12058.48    537.18589   -453.24227    432.06489   -2982.2035 
16511000    276.71591   -4820.0547   -4266.5887   -4820.0547            0    11084.237    17.707013    23.224234    19.003657    7814.9084    12167.278    9707.5422    11377.892   -110.14654   -326.91504   -558.05797   -3003.2913 
16512000    280.13292   -4782.2963   -4221.9958   -4782.2963            0    12055.239    17.515251    23.390169    19.205354    7868.1394    13378.967     11001.23     11785.52    740.69925    881.19902    1086.5017   -2838.6723 
16513000    269.74318   -4758.6071   -4219.0875   -4758.6071            0    12511.128    17.749631    23.305012    18.899494    7817.8773    11951.132    11333.564    14248.689   -1847.5046   -1295.0497   -154.11394   -2792.6222 
16514000     271.9341   -4811.0474   -4267.1456   -4811.0474            0    12341.953    17.636876    23.083427    19.198995    7816.2859    12923.384    11383.387     12719.09   -1393.8971    385.89085    -109.7264   -2860.2553 
16515000    279.47783   -4825.2549   -4266.2648   -4825.2549            0    10283.446    17.698932     23.15316    19.154467    7849.2362    10621.843      10430.5    9797.9966   -863.98238    186.84739    334.86162   -3089.0872 
16516000    278.95812   -4820.2291   -4262.2784   -4820.2291            0    10763.428    17.753835    23.009821    19.238228    7859.0577    11354.118    9861.9694    11074.198    893.55318    242.77597    2047.7382   -3028.6141 
16517000     275.1061   -4814.7616   -4264.5154   -4814.7616            0    12022.498     17.76937    22.905767    19.225136     7825.035     13203.09    11519.697    11344.706   -1473.2321   -726.25069   -1388.7634   -2892.5067 
16518000    256.26243    -4804.867   -4292.3105    -4804.867            0    11390.025    17.819936    22.922693    19.206639    7845.5455    13767.588    10643.163    9759.3253   -151.78263   -76.928372   -125.91102   -2989.0725 
16519000     267.8046   -4782.1716   -4246.5293   -4782.1716            0    13935.292    17.778167    22.911121    19.111807    7784.5777    13901.286    13412.371     14492.22    618.65377    659.39106    1357.9016   -2664.4545 
16520000    273.70401   -4823.3735   -4275.9316   -4823.3735            0    12203.472     17.82242    22.813882    19.310097    7851.4583      13634.1    12562.389    10413.928   -258.83592    585.77825    111.04208   -2878.5674 
16521000    269.27411   -4816.2212   -4277.6397   -4816.2212            0    11675.185    17.787961    22.809396    19.200993    7790.4697    10587.936    12138.232    12299.387    432.96072   -447.53709   -1153.4951   -2951.1518 
16522000    273.21335   -4819.4798   -4273.0193   -4819.4798            0    9941.5986    17.902369    22.707573    19.406198    7888.9951    9832.7764    9642.8911    10349.128    1514.0875   -454.47288   -436.81328   -3129.2096 
16523000    263.79365   -4840.6241   -4313.0042   -4840.6241            0    10352.017    17.954142    22.782733    19.293268    7891.8034    9861.4059    10353.173     10841.47   -213.67145    1051.3379   -1746.7154   -3121.5507 
16524000    274.71237    -4778.783   -4229.3243    -4778.783            0    10034.943    18.015959    22.517625    19.516646    7917.4465    9794.4228    9933.4251    10376.981    267.42074    821.41401    1389.0442   -3070.6111 
16525000    268.83432   -4773.0624   -4235.3605   -4773.0624            0    10813.111    17.880317      22.7185    19.377538     7871.427    9022.7116    12003.813    11412.807   -1045.1513    1464.0587     466.2168   -2994.0513 
16526000    267.55686   -4777.1422   -4241.9954   -4777.1422            0    12397.655    17.918374    22.840249    19.173458    7846.9318     11922.22     12541.12    12729.625     1206.237   -7.4167486    1374.2106   -2823.2145 
16527000    282.10731   -4793.2477   -4228.9982   -4793.2477            0    10877.032    17.768609    22.983117    19.280733    7873.8278    10889.803    11113.671    10627.622   -149.44432    911.19853   -689.38281   -2979.9701 
16528000    267.68171   -4831.7742   -4296.3777   -4831.7742            0    9443.3814    17.918744    22.893192    19.311372    7921.8583    9262.7174    9486.5136    9580.9133    803.58286    466.82166   -320.46037   -3205.3633 
16529000    273.02128   -4811.3729   -4265.2966   -4811.3729            0    11507.116    17.865721      22.8014    19.283417    7855.3592     10973.29    12908.121    10639.937   -2053.0437    1088.4233    310.41548   -2947.0143 
16530000    282.31504   -4798.6204   -4233.9555   -4798.6204            0    10620.415    17.814875    22.780992    19.314569    7838.6348    9289.7822    12044.833    10526.629    210.07512    -1156.622    261.83152   -3019.8461 
16531000    280.13186   -4787.7931   -4227.4948   -4787.7931            0    9253.9357    17.808177    23.121745    19.186631     7900.213    6728.4202    10778.737     10254.65   -193.01122   -41.278259   -1008.0627   -3161.2887 
16532000     270.5576   -4796.7167   -4255.5681   -4796.7167            0    10749.182    17.827335    22.820455    19.356662    7874.8301      12069.5    11160.272    9017.7734    2084.8218    725.67182   -156.90235   -3021.0642 
16533000    263.73182   -4794.4624   -4266.9661   -4794.4624            0    10436.346    17.808959    22.950213    19.204624    7849.3022    11559.836    10261.024    9488.1771    150.18151   -200.04912    814.19916   -3072.2757 
16534000    253.88074    -4808.462   -4300.6692    -4808.462            0    10210.452    17.912671    23.181161    18.991082    7885.7907    10003.233    8662.1782    11965.944    220.64462   -1767.1427    883.82657   -3126.4042 
16535000    267.08408   -4842.0667   -4307.8655   -4842.0667            0    11253.578    17.676936    23.070558    19.219877    7838.1884    11757.528    11230.404    10772.802    1310.5385   -84.747278   -389.76231   -3021.4472 
16536000    271.45772   -4844.6726   -4301.7236   -4844.6726            0    10452.291    17.702276    22.885226    19.342344    7835.9817    12960.299    10111.699    8284.8733   -186.98478    261.83091   -695.68807   -3107.2384 
16537000    262.21399    -4780.132   -4255.6716    -4780.132            0    13934.558    17.718411    22.965471    19.153347    7793.7199    14386.358    13631.872    13785.445    1128.9031   -866.72725   -169.84215   -2671.8222 
16538000    267.67029    -4807.563   -4272.1893    -4807.563            0    10489.513    17.974361    22.771069    19.281633     7891.884    12101.954    9727.4367     9639.147    622.20532    615.01985    587.15846   -3064.8985 
16539000    263.94377   -4801.7865   -4273.8663   -4801.7865            0    8916.7347    17.817162    22.848164    19.387603    7892.4881    8655.3797    11448.712    6646.1124   -31.110904   -479.30213   -1184.2935   -3247.5159 
16540000    276.73296   -4805.0552   -4251.5551   -4805.0552            0    10985.199    17.914078    23.003358    19.030058    7841.9817     9243.816    10723.221     12988.56   -1672.8075   -373.82783   -670.29468    -2995.208 
16541000    260.77347   -4792.1388   -4270.5596   -4792.1388            0    10126.828    17.756615    23.070404    19.254191    7887.5235    7649.9914    11176.361    11554.132   -263.98405    1052.2238    1196.3388    -3105.656 
16542000    268.09645   -4789.7304   -4253.5044   -4789.7304            0    12945.843    17.837459    23.004441    18.971305    7784.6998    11407.761    14778.522    12651.246   -1104.1248     1061.533   -3112.5663   -2783.7387 
16543000     278.5969     -4793.38   -4236.1518     -4793.38            0    11417.563    17.898616    22.930043    19.131896    7852.0368    11162.144    12334.047    10756.499   -1594.4899    860.34533   -1979.3601    -2928.682 
16544000    273.69392   -4841.2201   -4293.7985   -4841.2201            0    11503.109    17.652802      22.8429    19.330116    7794.6989    12076.673    11559.496    10873.157    545.44141   -1020.4966    400.96954   -2986.1517 
16545000    261.39209   -4832.1687   -4309.3523   -4832.1687            0    10550.737    17.990379    22.841493    19.128414     7860.384    11572.538    9852.2846    10227.388   -1570.2677   -135.89943    575.81496   -3099.8619 
16546000    261.13137   -4804.1603   -4281.8652   -4804.1603            0    12771.909    17.743279    22.788174    19.354708     7825.823    14012.974    12968.735    11334.018    1114.9947    1107.3333    2105.2877   -2824.1868 
16547000    273.78861   -4800.6332   -4253.0222   -4800.6332            0    12803.933    17.708864    23.196347    18.996283     7803.311    14385.381    11731.236    12295.181    268.77423   -121.04423    783.62566   -2795.8926 
16548000    257.99601   -4802.6962   -4286.6723   -4802.6962            0    10847.909    17.686005    23.103791      19.1848    7839.1733    9994.3873    11367.651     11181.69    1163.0466    725.51964    2132.9453    -3046.471 
16549000    286.11719   -4817.1232   -4244.8535   -4817.1232            0     13311.38    17.673821    22.986728    19.198021    7799.4516    13698.939    13998.206    12236.995   -1097.0215    695.59897   -743.29712   -2730.7239 
16550000    262.71881   -4816.0374   -4290.5673   -4816.0374            0    12420.828    17.749708    22.992639    19.140824    7811.6119    13016.012    12100.575    12145.896    156.17786   -760.22224    606.22436   -2875.5326 
16551000     276.5051   -4756.2388   -4203.1945   -4756.2388            0    11713.639    17.904921    22.942344    19.165334    7872.7523    10660.681    11713.622    12766.613    2153.2971    10.333446   -1326.1987   -2858.2811 
16552000    276.56213   -4830.6503   -4277.4919   -4830.6503            0     13184.53    17.720375    22.637006    19.335504    7756.1713    13052.674    14458.861    12042.055    213.48612    332.26812   -1083.8814   -2786.1132 
16553000    264.00607   -4828.7121   -4300.6674   -4828.7121            0    12999.748    17.824828    22.742254    19.161995    7767.8272    15433.108    12577.869    10988.268    1197.7204   -968.46746   -2358.3056   -2827.9806 
16554000    270.88343   -4773.7915   -4231.9911   -4773.7915            0    12523.763    17.707688    23.083103    19.151609     7828.189    11772.444    12607.988    13190.857    64.636523   -67.215953    164.66419   -2802.2019 
16555000    279.73514   -4807.5605   -4248.0557   -4807.5605            0    11090.518    17.739212    23.194049    19.103195    7859.8977    12181.521    10949.452     10140.58    -491.7265    1684.8689   -178.88897   -2976.7657 
16556000    280.97109   -4788.1604   -4226.1835   -4788.1604            0    11822.773    17.697099    23.296888    19.017977    7840.8711    15082.681    9588.7908    10796.848   -238.61239    1059.9023    708.38619   -2874.2368 
16557000    269.69216   -4830.5275   -4291.1099   -4830.5275            0    12055.185    17.482953    23.262213    19.178472    7799.7346    13907.687    11224.827    11033.042   -375.09232   -801.01666    880.87087   -2919.8189 
16558000    260.41449   -4788.1002    -4267.239   -4788.1002            0    11645.766    17.750517    23.241671    18.965159     7824.108     8340.712    11820.993    14775.594   -523.58353    423.77743   -2452.5964   -2938.3804 
16559000    271.76754    -4824.425   -4280.8564    -4824.425            0    9571.0652    17.787134    23.056663    19.226829    7885.1525    10382.021    9041.7588    9289.4154    160.33346    70.251626     507.1928   -3180.2139 
16560000    266.06953   -4804.0955   -4271.9235   -4804.0955            0    11591.825    17.787134    23.053874    19.129086    7844.1177    13345.909    11037.575    10391.991   -802.89655    502.63777   -407.78188   -2945.8372 
16561000    277.25594   -4777.1788   -4222.6327   -4777.1788            0    12092.462    17.760006    23.060913    19.055685    7804.4835    11862.233    12755.339    11659.814    400.27756    1388.3935   -63.067307    -2846.264 
16562000    287.53356   -4795.7601   -4220.6574   -4795.7601            0    9538.8758    17.809171    23.240892    19.152673    7927.3106    10086.721    8130.0883    10399.818    1290.7721    647.25233   -262.42692   -3117.8518 
16563000    282.57378   -4810.5726   -4245.3901   -4810.5726            0    9339.8193    17.721298    23.121268     19.31138     7912.623    11633.197    7678.2593    8708.0016   -877.95968   -408.77942   -1029.1024   -3167.5984 
16564000    276.05941   -4834.5587   -4282.4058   -4834.5587            0    9833.2477    17.771968    22.950032    19.278103    7862.9065    8796.1941    10476.897    10226.652   -576.55817   -198.27023    833.30508   -3154.8034 
16565000     266.6641   -4823.1287   -4289.7676   -4823.1287            0    12933.937     17.77376    23.025139    19.081282    7808.8864    13658.577    11610.415    13532.817   -164.30201   -984.63613     3013.557   -2816.7914 
16566000    276.83797    -4775.146   -4221.4358    -4775.146            0    12688.689    17.721226    23.043567    19.211546    7845.2319    13837.592    12291.855    11936.619    201.53548     745.3056   -1304.4278   -2769.6638 
16567000    266.31857   -4816.4942   -4283.8242   -4816.4942            0    11596.065    17.873121    23.001558    19.122522    7861.4529     11446.57    11137.858    12203.767    604.57923   -240.94498    1097.2737   -2954.3211 
16568000    274.67062   -4819.1844   -4269.8092   -4819.1844            0    9298.8124    17.759637    23.043762    19.238022    7873.1382    10073.153    9138.0666    8685.2175   -775.66374   -1248.5037    719.38491   -3202.1043 
16569000    256.96986   -4815.3317   -4301.3603   -4815.3317            0    13888.361    17.938129    22.780839    19.010842    7768.6973    13112.644     14463.19    14089.249   -1489.0852    1780.2372    84.513515   -2727.8301 
16570000    275.35066   -4811.2127   -4260.4774   -4811.2127            0    9975.4913    17.739122    23.007406    19.310398    7881.1757     11070.87    10164.435    8691.1689   -957.38375   -344.00971   -32.214538   -3113.9057 
16571000    270.96541   -4805.9965   -4264.0322   -4805.9965            0    12081.036    17.869273    22.961902    19.113759    7842.6143    13133.274    11230.807    11879.028    -2359.388   -446.88264    853.91338   -2882.2458 
16572000    281.87441   -4775.9272   -4212.1436   -4775.9272            0    11026.122    17.741255    23.046774    19.244791    7868.7852    13457.044    9176.6791    10444.643   -1445.7075   -774.65829     707.1088   -2946.8061 
16573000    261.74078    -4832.066   -4308.5521    -4832.066            0    11403.331    17.836695    23.033931     19.10415    7848.9251    12313.792    11687.855    10208.345    -427.3768    719.86713     163.4326   -3003.2297 
16574000    255.52936   -4821.8895   -4310.7992   -4821.8895            0    11097.614    17.830979    22.859083    19.281682    7859.2102     10672.19    11505.997    11114.656    1478.6537   -381.32844    1606.3465   -3038.8071 
16575000    276.58523   -4831.9856    -4278.781   -4831.9856            0    10303.045    17.759106    22.661109     19.45255    7828.5047    11608.531     9677.007    9623.5962    304.93961   -118.08163   -1382.8436   -3102.4751 
16576000    265.97481   -4787.0574   -4255.0749   -4787.0574            0    10171.254    17.943162    22.919059    19.089881      7850.53    12144.483    8548.3106     9820.969     345.2661   -947.45184   -258.29454   -3090.5484 
16577000    262.84656    -4840.377   -4314.6514    -4840.377            0    11383.432    17.730971    22.777262    19.403666    7836.4222    11090.907     12171.08    10888.308     560.9498    650.80636     -1825.09   -3013.6825 
16578000    285.93768   -4789.9528   -4218.0421   -4789.9528            0    11728.305    17.927495    22.800175    19.195415    7846.1265    10893.235    11611.164    12680.515    -1166.352    537.26376    -350.3437    -2875.999 
16579000    265.09751   -4814.0442   -4283.8165   -4814.0442            0    11117.942    17.757031    22.771401    19.343886     7821.748    11603.562    12071.641    9678.6209    51.257513    -287.8322   -1047.3456   -3015.5687 
16580000    285.03742   -4804.0045   -4233.8944   -4804.0045            0    10292.561     17.80258     23.03307    19.198283    7872.2187    9721.9002    9752.2859    11403.497   -823.95295   -576.32634   -263.83101   -3052.2237 
16581000    271.04584   -4813.0819   -4270.9568   -4813.0819            0    11820.801    17.879066    22.791997    19.240063    7840.3184    12137.989    10700.406    12624.008    1033.8797   -995.80998    1047.8008   -2919.3309 
16582000    250.88678   -4795.7533   -4293.9488   -4795.7533            0    12174.094    17.801424    22.853619    19.190817    7807.3419    13111.301    12106.448    11304.532   -3.7325746    1135.0358   -521.15476   -2907.7812 
16583000    266.54255   -4782.1326   -4249.0145   -4782.1326            0    11969.197    17.917287    22.737761    19.218085    7829.4285     11925.79    12643.038    11338.764   -143.31758     105.5707    858.75021   -2882.3215 
16584000    277.20463   -4783.7059   -4229.2624   -4783.7059            0    9378.6985    18.014213     22.80068    19.300044    7927.2286    10041.009    8130.4662    9964.6209   -313.32116   -311.87634   -1176.5733   -3144.9864 
16585000    268.08943   -4827.6697   -4291.4578   -4827.6697            0    11254.611    17.850657    22.771588    19.320011    7853.3487     10630.02    12203.872    10929.941   -894.72234    279.60074     150.1935    -3002.433 
16586000     265.1073   -4827.4584    -4297.211   -4827.4584            0    10560.955    17.778901    22.921595    19.356529    7888.1875    10559.046    9596.7284     11527.09    172.87794   -678.92867    1127.3769   -3082.2669 
16587000    263.10693   -4813.3564     -4287.11   -4813.3564            0    12143.035    17.815779    22.919542    19.205784    7842.2881    11814.856    13172.219    11442.031    393.78061   -361.18297   -1514.4469   -2898.2901 
16588000     277.3287   -4829.1288   -4274.4371   -4829.1288            0    10425.195    17.744383    22.925705    19.326816    7862.1965    11556.593    9847.4869    9871.5062    1368.5666    73.686672     724.6636   -3079.0626 
16589000    249.98627   -4818.4215    -4318.418   -4818.4215            0    11947.124    17.897926    22.892556    19.104685    7827.7489     11200.35    11840.046    12800.977   -762.07516    695.13328   -2028.2093   -2954.5381 
16590000    265.76202   -4814.7992   -4283.2423   -4814.7992            0    11980.377    17.778748    22.849179    19.308739    7843.7853    10947.018    12068.765    12925.349    585.64922    178.60397    754.79553   -2912.7642 
16591000    268.12403   -4811.9183   -4275.6371   -4811.9183            0    11541.372    17.680166    23.259974    19.029356    7825.6359    10894.262    11561.167    12168.687    967.57184    718.33463    143.73274   -2958.4334 
16592000    263.96532   -4814.8833     -4286.92   -4814.8833            0    11176.579    17.767509    23.134359    19.122498    7860.1107    10071.059    10913.023    12545.654    1204.4827    -2.117268    685.48687   -3005.7303 
16593000    269.15727   -4797.6437   -4259.2959   -4797.6437            0    10254.867    17.743235    23.202324    19.160639    7888.1342     11477.75    8888.3553    10398.496   -443.29434    606.92958    1020.8285   -3079.5724 
16594000      274.739   -4821.7539   -4272.2419   -4821.7539            0    11550.292    17.691958     23.17476    19.106687    7833.8732    9814.1429    12123.015    12713.717    164.37309    906.54084    1689.8328   -2952.6326 
16595000    257.62092   -4812.1033   -4296.8297   -4812.1033            0    11707.537    17.499045    23.162865    19.216983    7789.1814    11889.873    11059.386    12173.353    148.56626   -1644.6907   -377.51826   -2966.8859 
16596000    268.44372   -4795.5231   -4258.6025   -4795.5231            0    11897.395    17.695995     22.99987    19.203984    7816.1288    11136.354    11695.963    12859.869    905.70264   -378.40869    321.08768   -2902.4158 
16597000     271.6975   -4814.7248   -4271.2962   -4814.7248            0    12996.609    17.927661    22.952237    19.014038    7823.8947    11513.675    12421.477    15054.675   -792.94134    110.98356   -1292.9366   -2788.3379 
16598000    275.50788   -4823.9396   -4272.8898   -4823.9396            0    10685.829     17.71844    22.909426    19.348452    7853.9099    10464.658    11449.173    10143.656    1396.0238    623.90288   -452.67646   -3048.9219 
16599000    265.35882     -4796.73   -4265.9795     -4796.73            0    11226.837    17.960657    22.874534    18.992139    7802.7615    9479.3764    11828.244    12372.892    979.61985   -637.03639    218.37118   -2988.4185 
16600000    268.84732   -4809.7285   -4272.0006   -4809.7285            0     12814.52    17.700611    22.875983    19.318983    7822.6207    13564.784    13362.684    11516.091    170.80777    573.20185    585.56209   -2810.0575 
16601000    254.62803    -4823.441   -4314.1535    -4823.441            0    11696.043    17.779516    23.041137    19.149299    7844.7066    12752.756    11054.286    11281.088    1059.5703   -196.48829   -380.34813   -2976.0443 
16602000    269.35584   -4800.0737   -4261.3287   -4800.0737            0    10878.687     17.68618    23.117608    19.149218    7829.3909    9959.6873    10306.169    12370.204   -197.44995   -986.48675   -2191.9387   -3019.1607 
16603000    271.82213   -4801.4445   -4257.7666   -4801.4445            0    11844.599    17.848207    23.009746    19.139122    7860.1063    11611.697    11649.986    12272.114   -712.18337    455.17342   -1518.8468   -2900.0014 
16604000    285.79722   -4819.6322   -4248.0024   -4819.6322            0    11504.787    17.756144    23.017061    19.135084     7820.399    12409.199    10086.271    12018.891    1484.5086    -264.9787    616.26444   -2935.8527 
16605000    283.33429   -4779.0185   -4212.3149   -4779.0185            0    11816.303    17.629545    23.281857    19.034926     7812.858    10029.382    12262.636     13156.89   -45.792145    227.71077   -467.03001   -2865.9356 
16606000    264.37218    -4836.491    -4307.714    -4836.491            0    9397.7021    17.614811    23.270197    19.284738    7904.8164    9341.3746    10004.065    8847.6667   -23.580027    1105.8022    1281.4452   -3224.3127 
16607000    270.86074   -4797.2604   -4255.5054   -4797.2604            0    11654.084    17.845522    23.130482    18.957187    7825.0631    12341.857    10677.585    11942.809   -207.09364   -685.31868   -2103.6891   -2925.5353 
16608000    269.06842   -4780.6135   -4242.4434   -4780.6135            0    11317.964    17.692789    22.979235    19.351596    7867.7161    12129.662    11277.042    10547.188   -684.31221    1277.5367   -677.00003   -2943.7911 
16609000    266.74712    -4817.608   -4284.0808    -4817.608            0    9824.3861    18.033913    22.782207    19.140947    7864.1028    8998.1636    10714.152     9760.843    739.34202    121.44192    147.10249   -3157.3232 
16610000    284.29861   -4819.2722   -4250.6398   -4819.2722            0     10591.79    17.972652    22.652625    19.399082    7897.9047    10816.208     11290.42    9668.7435    -1763.648     298.3823   -1587.8774   -3030.6473 
16611000      275.516   -4783.8938   -4232.8277   -4783.8938            0     11589.93    17.972445    22.657743    19.275437    7849.2477    12999.921    11057.222    10712.648   -195.30997   -611.94493    315.22282    -2906.091 
16612000    270.21164   -4792.6162   -4252.1596   -4792.6162            0    13033.296    17.923189    22.751919    19.127608    7799.9887    11806.918    13420.841     13872.13    836.90581    1455.0429    19.488319   -2769.5591 
16613000     273.6722   -4835.5459   -4288.1676   -4835.5459            0    12001.643    17.770296    22.782522    19.309595     7817.531    13854.714    12741.779    9408.4356    1544.1305   -1123.0492   -1302.3487   -2919.8523 
16614000    275.30688    -4801.619   -4250.9712    -4801.619            0    9106.7678     17.85362    22.943487    19.292697     7902.757    7305.9795    10579.958    9434.3654    886.88987    85.448335   -414.78321   -3201.3834 
16615000    267.32435   -4798.8642   -4264.1824   -4798.8642            0    11751.656    17.716552    22.853193    19.338621    7829.8169    11215.924    11838.486    12200.558   -873.16658   -1735.6844   -561.44723   -2922.2626 
16616000    262.89829   -4831.0872   -4305.2582   -4831.0872            0    9990.8976    17.905989    22.922337    19.168444    7867.6326    8147.4367    10674.864    11150.392    257.45104   -378.59457    1891.6144   -3158.8891 
16617000    256.88018   -4821.1643   -4307.3722   -4821.1643            0    10612.791    17.712629    22.793626    19.434019    7846.1948    11557.712     10738.53    9542.1322    160.65375   -144.12265    -198.1648   -3092.9643 
16618000    264.16403    -4819.453   -4291.0923    -4819.453            0    12601.782    17.934635    22.861747    19.017699    7797.5815    11421.275    12278.357    14105.714    498.02874    96.510685   -224.80319   -2858.0211 
16619000    273.26635   -4831.7874   -4285.2209   -4831.7874            0    9854.1092    17.523975     23.28357    19.154883    7815.5887    10654.431    9447.1695    9460.7275   -1150.4545   -50.315478   -804.08628   -3162.0264 
16620000    274.92984   -4818.8485   -4268.9549   -4818.8485            0    11346.432    17.689739    23.241733     19.01384    7817.3537    11004.803    11130.623    11903.871   -151.29149    449.43788      24.1847   -2975.3699 
16621000    273.04244   -4827.9361   -4281.8175   -4827.9361            0    11577.783    17.447422    23.366754    19.116836    7793.7355     10876.98    11471.665    12384.705    798.34065    703.59259   -934.45991   -2965.8445 
16622000    265.19465   -4777.2684   -4246.8463   -4777.2684            0    11412.412    17.885257    23.048027     19.14439    7891.6985    10963.321    11763.641    11510.274    1486.4701    1332.3794    1757.3473   -2933.3652 
16623000    267.02987   -4812.3878   -4278.2951   -4812.3878            0    10359.752    17.712895    23.124764    19.156969    7846.8194    10064.976    9909.1804    11105.098   -751.06817    183.38679   -366.45269   -3092.7478 
16624000    270.38238   -4800.1891   -4259.3909   -4800.1891            0    9749.9261    17.731416    23.156686    19.238046    7899.1578     10767.96    8723.1186    9758.6995   -819.42603   -1620.4824   -978.70896   -3136.1886 
16625000    266.27971   -4779.5553    -4246.963   -4779.5553            0    9136.6434    17.746334    23.123348    19.293666    7917.2458    10046.875    8756.7532    8606.3016    1225.6854   -346.55213    -676.5546   -3192.0013 
16626000    272.35433   -4830.4794   -4285.7371   -4830.4794            0    10655.406    17.836524    23.011012    19.111162     7843.918    11093.602    9545.2924    11327.324    646.90952   -14.711491   -494.62731   -3066.8066 
16627000    265.16783    -4812.216   -4281.8476    -4812.216            0    12624.916    17.960279     22.76727    19.131485    7822.9889    11031.356    15042.784    11800.608   -461.79535    1549.6741   -658.68884   -2841.4675 
16628000    258.42472   -4804.9326   -4288.0513   -4804.9326            0    12273.041    17.670284    22.930425    19.322414    7829.1934     14073.97    10778.171    11966.982    241.43564   -892.82907    1663.3377   -2886.7062 
16629000    285.99572   -4798.0155   -4225.9887   -4798.0155            0    8883.1145    17.898528    23.150046     19.12962    7926.3912    9870.2676    8626.9664    8152.1093   -1288.2335   -1281.9288   -450.35059   -3199.1159 
16630000     266.1004   -4853.4008   -4321.1671   -4853.4008            0    9296.9494    17.757322    22.859266     19.37174    7863.3642    7795.0816    10776.921    9318.8456   -766.24662    649.21851   -1692.5134   -3255.0013 
16631000    250.56092   -4809.5643   -4308.4115   -4809.5643            0    12556.853     17.93094     22.69773    19.198061    7813.4499    13585.593    12302.112    11782.854   -785.93332    426.25381    181.66884   -2877.5436 
16632000    289.92374   -4807.2417   -4227.3584   -4807.2417            0    11482.081    17.802545     22.90239    19.304314    7870.7712     11758.78    12216.913    10470.551    104.27972    958.16339    799.10336   -2909.3633 
16633000    271.11883    -4788.456   -4246.1848    -4788.456            0    11108.043    17.676849    23.188655    19.199335    7869.8529      11129.3    10885.661    11309.169   -456.30464    411.58452    1446.6226   -2971.2732 
16634000    254.20174   -4807.7021   -4299.2673   -4807.7021            0     10040.24    17.775529    23.088752    19.143641    7856.8335    8837.1884    10330.463    10953.069   -587.44179   -282.41154    446.91578   -3148.8178 
16635000    261.58454   -4818.1337   -4294.9323   -4818.1337            0    10349.715    17.829605    23.151523    19.028206    7854.5106    9488.7205    10783.695     10776.73    420.22384     378.8539   -1252.7446   -3109.3727 
16636000    288.94827   -4823.6827   -4245.7505   -4823.6827            0    10621.092    17.671186    22.999543    19.262447    7828.8213    9895.0389    12062.519    9905.7188    519.96389     1926.243   -1188.7137   -3033.0838 
16637000    272.08873   -4819.1682   -4274.9571   -4819.1682            0    12029.412    17.771373    22.848115    19.193686    7793.4502    11456.362    12150.456    12481.418   -230.70585    -107.6027   -746.08881   -2907.7004 
16638000    261.91575   -4803.0717   -4279.2079   -4803.0717            0    10259.683    17.720787    22.957944    19.395087    7890.5577    11851.502    10189.339    8738.2085   -1476.5547    349.95916   -394.98849   -3098.5678 
16639000    268.34401    -4835.091   -4298.3698    -4835.091            0    12093.538    17.859807    22.867311    19.106963    7803.3938    10121.194    12799.306    13360.113   -414.55645   -518.11549    678.81767   -2922.0709 
16640000    288.71361   -4836.5346   -4259.0717   -4836.5346            0    8300.9811    17.760974    23.016811    19.353429    7911.7007    9761.4904    8621.7358    6519.7172   -1914.3897    309.33647    669.30313    -3301.271 
16641000    262.29014   -4815.1722   -4290.5595   -4815.1722            0    9418.3502    17.935553    22.821571    19.212384     7863.965    8997.2078    9952.6347    9305.2081    455.23686    367.20605    728.33644   -3210.3891 
16642000    268.89787   -4814.4321   -4276.6031   -4814.4321            0    10412.897    17.838388    23.039329    19.154766    7872.3118    9408.1022    9930.8072    11899.781   -283.61514   -150.57316    916.50046   -3081.1027 
16643000    265.86429    -4816.467   -4284.7056    -4816.467            0    10775.746    17.812962     23.09052    19.113041    7861.3956    10483.552    10853.724    10989.963    1127.3611   -478.47577    3080.1539    -3049.262 
16644000    270.71668   -4802.0228    -4260.556   -4802.0228            0    11060.361    17.697371    22.970567    19.254962    7827.5014    10838.937     10119.03    12223.115   -206.74589   -898.91199   -1877.8927   -2997.9486 
16645000    264.76715   -4804.7119   -4275.1449   -4804.7119            0    11351.759    17.766491       23.013    19.129164    7821.1547    8651.4861    12642.398    12761.392   -1030.8108   -75.195976   -16.071954   -2980.3233 
16646000     264.3444   -4798.9607   -4270.2393   -4798.9607            0    13584.542    17.786888    22.893383    19.079564    7769.2371    12531.574    14165.521    14056.529    283.22382    368.21389    16.882673   -2731.0244 
16647000    265.87422   -4840.3106   -4308.5293   -4840.3106            0    10663.384    17.935327    22.892906    19.151712    7863.5351    9447.6029    11182.049    11360.501    -357.4252    645.57831    268.08515   -3085.6354 
16648000    264.42644   -4813.2655   -4284.3799   -4813.2655            0    9584.3129    17.783092    23.026863    19.201995    7863.0021    10000.697    8752.1666    10000.075    352.01147   -150.64898    308.87607   -3185.3102 
16649000    274.60195   -4794.8715   -4245.6336   -4794.8715            0    8309.8759    17.874382    23.168761    19.120906    7918.4892    8281.3995    8812.9302    7835.2981   -1.8653518   -675.96155   -510.00852   -3285.9839 
16650000    255.44191   -4806.6464    -4295.731   -4806.6464            0    10514.151    17.783106    22.925785    19.299422    7868.2135    10965.113    10735.539    9841.8006    -698.2834   -903.74926    1291.2379    -3089.234 
16651000    267.19516   -4768.3852   -4233.9619   -4768.3852            0      10184.5    18.016425    23.014904    19.119842    7927.9719    11482.641    9659.6024    9411.2569   -61.140761    841.20268    222.84086   -3056.4164 
16652000    274.12677   -4814.0317   -4265.7443   -4814.0317            0    10116.275    17.786075     22.89387    19.354046    7880.8143    10298.258     10080.05    9970.5158   -2135.6708    823.36285   -928.28441   -3103.0444 
16653000    270.28527   -4797.2231   -4256.6192   -4797.2231            0    11871.012     17.90954    22.733696    19.277728    7848.9277    11532.704    12996.625    11083.705    1713.1493    951.69677    137.13244   -2897.7616 
16654000    268.65562   -4808.8999   -4271.5555   -4808.8999            0    11618.322    17.871386    22.683035     19.20612    7785.7245    10142.621    12016.246      12696.1    621.17729    297.52538   -2430.1029   -2952.3321 
16655000    255.54401   -4798.6886    -4287.569   -4798.6886            0    10612.019    17.885273    22.870524    19.280652    7886.6652    10312.559    11322.305    10201.193   -288.33446    -360.0432    -1501.301    -3066.986 
16656000    260.99264   -4839.8403   -4317.8228   -4839.8403            0    9147.8402    17.963219    22.929797    19.277203     7940.144    8272.6846    9086.9232    10083.913     95.00594   -56.779496    350.66103   -3258.5134 
16657000    266.01691   -4800.9897    -4268.923   -4800.9897            0    11346.183     17.92632    22.479327    19.497164    7856.8036    11021.159    11797.961    11219.428   -948.94796    825.08248   -632.90302   -2968.8386 
16658000    260.16251   -4829.1152   -4308.7581   -4829.1152            0    9891.9266    17.966872    22.803964    19.181926    7859.1405    10712.705    9908.6443    9054.4306    724.74513    368.75789    202.57381   -3174.9702 
16659000    265.24542   -4824.9567   -4294.4331   -4824.9567            0    11258.461    17.819664    22.684805    19.357346    7824.9285    8702.7131    12528.348    12544.323    2193.3652    467.03659    -508.0387   -3009.6338 
16660000     271.0366   -4802.6901   -4260.5834   -4802.6901            0    12286.749    17.919814    22.866188    19.136395    7841.2877    9659.0029    13196.267    14004.976    1767.4372    1290.8093    300.37296    -2855.506 
16661000    267.04008   -4837.3873   -4303.2742   -4837.3873            0    9590.1172     17.68171    23.091038    19.238413     7854.833    10409.763    9907.2536    8453.3347    506.99756   -647.63828   -721.81065   -3204.6814 
16662000    271.55123   -4818.7616   -4275.6256   -4818.7616            0    9632.1609     17.83318     23.14397    19.079785    7874.8107    9094.4402    9593.9979    10208.045    689.13413    1360.1132   -1575.6157   -3169.4101 
16663000    264.34828   -4807.0108   -4278.2815   -4807.0108            0    12316.342    17.628543    23.240242    19.066935    7811.5634    12685.802    12562.756    11700.467   -332.63642    767.88793   -259.67586   -2875.1591 
16664000    272.54954   -4831.2797    -4286.147   -4831.2797            0    10728.744    17.585736     23.54119    18.933296    7838.1793    11129.657     9769.633    11286.943   -211.96033    235.02374    662.33099   -3059.7248 
16665000     260.6295   -4797.0534   -4275.7622   -4797.0534            0    12682.294    17.664439    22.992493     19.16856     7785.301    13649.423    12348.833    12048.627   -77.483437     425.5668    2305.9144   -2835.8065 
16666000    280.32369   -4781.8222   -4221.1402   -4781.8222            0     10624.76    17.751691    23.339846    18.957352    7854.4429    9222.1519    10521.903    12130.224    613.59884    571.68355    562.72655   -3004.0847 
16667000    257.55648   -4802.9946   -4287.8498   -4802.9946            0    12274.939     17.71101     23.09489    19.160463    7837.2774    11655.317    12368.766    12800.735   -218.72282   -67.220441    -807.6529   -2884.8408 
16668000    276.67463   -4790.7108   -4237.3274   -4790.7108            0    13236.053      17.8458    22.838726    19.113226    7790.0792     12451.53    12505.846    14750.784    325.50229   -745.68629    2160.0456   -2733.5752 
16669000    298.14617    -4830.094   -4233.7648    -4830.094            0    8842.7221    17.805002    23.094876     19.19988    7895.0737    8182.6845      9342.16    9003.3218    -732.5115   -941.90223   -1545.8563   -3215.6001 
16670000    267.79804   -4796.3184   -4260.6892   -4796.3184            0    11253.255    17.688754    23.099445    19.161821    7829.5277    12719.558     10986.91    10053.297     448.3283    778.79957    715.78928   -2975.7292 
16671000    270.04433   -4804.0881   -4263.9661   -4804.0881            0     9822.982    17.857287    23.087119    19.146669    7893.6608     9295.074    9418.8162    10755.056    1666.0802    1313.8767    128.21767   -3133.1351 
16672000    272.12202   -4825.8783   -4281.6006   -4825.8783            0    11597.613    17.736515    23.010093     19.16591    7821.9696    10821.604    10983.769    12987.465    2100.7523    807.07291    2554.4134   -2958.5983 
16673000    268.79583   -4824.6609    -4287.036   -4824.6609            0     12392.87    17.650073    23.078814    19.096647    7778.8811    10845.308    13163.244    13170.059   -362.79891   -1084.3835   -748.25621   -2881.1021 
16674000    256.01811   -4775.5352   -4263.4674   -4775.5352            0    12540.928    17.409709    23.308292    19.210654    7795.5029    15564.715    10693.763    11364.306   -98.460127   -1049.6152    1392.6659   -2837.6966 
16675000    273.36776   -4829.5841   -4282.8148   -4829.5841            0    9451.3809    17.866535    23.136318    19.048994    7874.2035    9501.3018    8372.9558    10479.885    536.55478   -721.74751    780.81446   -3197.4449 
16676000    269.64208   -4816.4502   -4277.1328   -4816.4502            0    11975.062    17.751796     23.04896    19.108861    7818.5899    12211.101    11448.675     12265.41    316.69837    794.77308    297.64009    -2911.663 
16677000    267.05714   -4787.0563    -4252.909   -4787.0563            0    11363.782    17.842684    23.065195    19.091748    7857.1127    10199.068    11245.709    12646.569    537.63618    1426.5759   -567.72432   -2950.7568 
16678000    275.27578   -4815.3506   -4264.7651   -4815.3506            0    10711.318    17.731956    23.167972    19.162391    7872.1685    12722.178    9941.0274    9470.7497    610.52086     170.3377    204.96927   -3035.0254 
16679000    274.39647    -4799.233   -4250.4061    -4799.233            0    10551.305    17.671329    23.369629    19.049431    7866.8893    12553.455    9113.6519    9986.8077   -244.04055   -389.09159    408.08092   -3039.8495 
16680000    267.09058   -4787.0709   -4252.8567   -4787.0709            0    11728.449    17.616282     23.22863    19.149511      7836.02    12930.773    10042.993    12211.581   -1429.0909   -1473.2853    184.84636   -2912.5259 
16681000    268.97312   -4829.8703   -4291.8909   -4829.8703            0    10767.158    17.816026    23.021884    19.124927    7844.2508    10493.504    10094.878    11713.091   -599.69114   -579.24965    320.04964   -3060.1242 
16682000    271.56937   -4790.8454   -4247.6731   -4790.8454            0    12841.287    17.774212    22.776521    19.297837    7812.4341    11602.975    13613.864    13307.021   -927.66296    1467.6101    656.52663    -2784.584 
16683000    268.99117   -4842.2689   -4304.2534   -4842.2689            0    10009.816     18.01184    22.774746    19.241915    7893.3241    9875.6011     10143.03    10010.816    540.34323   -168.83264    957.02392   -3151.9631 
16684000    258.96653   -4831.3007   -4313.3357   -4831.3007            0    8888.7119    17.910219    22.750524    19.449096    7924.8619    10076.735    8826.2497    7763.1512    2226.5925   -28.130517    158.74334   -3286.0141 
16685000    285.09474   -4813.9484   -4243.7237   -4813.9484            0    10783.681     17.92051    22.751326    19.244405    7846.2397    9083.4957    11644.496     11623.05   -56.001372   -505.74315     1676.425    -3009.754 
16686000    258.83065   -4781.0636   -4263.3703   -4781.0636            0     9396.697    17.828983    22.918236    19.363194    7911.9724    9967.4781     8506.866    9715.7468    455.73365   -1530.9627   -108.81735   -3179.1042 
16687000    267.02317   -4823.6417   -4289.5624   -4823.6417            0    10066.075    17.897293    22.860143    19.226851    7866.3718    8938.2413    10646.425    10613.558    407.74549    540.66689   -465.11768   -3134.7524 
16688000    280.58927   -4793.7369   -4232.5236   -4793.7369            0     13310.29    17.822138     22.74042    19.199729    7781.3216    13143.584    13038.442    13748.845    -1109.853   0.61795635    -756.9871   -2722.0374 
16689000     258.9893   -4821.2681   -4303.2575   -4821.2681            0    9687.2763    17.792268    23.163071    19.157387    7895.2108      10743.4    8401.8752    9916.5539    1177.9904   -1538.3084    1170.4423   -3187.8301 
16690000    282.40654    -4780.624    -4215.776    -4780.624            0    11331.447    17.651585    22.923238     19.35403    7831.2498    9828.0969    12590.393    11575.852    1082.8853    1439.0606    1065.1934   -2921.6029 
16691000    263.59311   -4790.0163   -4262.7975   -4790.0163            0    12256.786    17.763485    23.183937    19.008883    7828.3811    14128.917    11527.884    11113.557   -17.779654    362.89114    1668.5913   -2863.4536 
16692000    280.24818   -4816.4851   -4255.9541   -4816.4851            0      11605.9     17.66958    22.979182    19.260032    7820.1986    11754.322    12643.825    10419.553    130.47724   -369.21015    377.81093   -2932.3062 
16693000    265.33024   -4805.5657   -4274.8725   -4805.5657            0    11890.714    17.884007     23.04794    18.960984    7815.5187    11372.276    11192.341    13107.526   -726.59705   -747.45766    -746.2523   -2919.5531 
16694000    272.28388   -4801.2101   -4256.6087   -4801.2101            0    12688.941    17.652901    22.923655    19.260579    7794.1596    14484.295    12537.042    11045.487   -452.08411   -497.15034  -0.95921693    -2814.259 
16695000    267.46522   -4815.1393   -4280.1758   -4815.1393            0     9009.906    18.171604    22.859393    19.099927    7933.9539    8212.0067    8443.0726    10374.639   -41.586763   -481.13738   -1877.1186   -3237.6524 
16696000    272.86288   -4817.9308   -4272.1713   -4817.9308            0    11306.676    17.833975    22.720863     19.33816    7835.8866    11874.234    10933.976    11111.819    1.3202829   -2079.0898    1174.8903   -2980.0628 
16697000     269.2938   -4815.5014   -4276.8805   -4815.5014            0    9841.3275    17.898608    22.889307    19.266579     7893.262    9377.2874    10180.307    9966.3879   -109.91886   -281.16353   -189.48879   -3143.9948 
16698000    281.22642   -4821.9332   -4259.4456   -4821.9332            0    12779.681    17.859568    22.706702    19.226551    7796.9792    13210.461    13722.243    11406.338   -1294.8536   -192.89702    386.53357   -2806.2561 
16699000    270.56068   -4781.4201   -4240.2654   -4781.4201            0    13934.698    17.954783    22.625668    19.244692    7817.9434    11764.062    15152.415    14887.617    852.84515    278.09522   -686.27217   -2651.4773 
16700000    266.05718    -4801.536   -4269.3888    -4801.536            0    12448.101    17.855084     22.72515    19.254062    7812.5177    12808.816     12822.02    11713.467    17.105264   -142.89895    914.84202   -2851.0826 
16701000    273.94109   -4817.5642   -4269.6482   -4817.5642            0    10811.441    17.862753    22.845322    19.191032    7831.4828    9757.2029    10448.162    12228.958     -673.362   -2222.7301     1074.118   -3034.8287 
16702000    270.84086   -4810.9348   -4269.2196   -4810.9348            0    10121.051    17.968055    22.694238    19.309439    7873.8351    9137.0833     10430.13    10795.938    765.18461   -443.46548    14.694422   -3107.0011 
16703000    274.06207   -4852.0117   -4303.8537   -4852.0117            0    11697.885    17.725187    22.802614    19.292936      7797.83    10513.557    14137.097    10443.002   -2202.3032    704.71376   -318.00708    -2973.531 
16704000    262.12678   -4830.5673   -4306.2814   -4830.5673            0    10967.683     17.79251    23.040395    19.052519    7810.5125    10764.424    11086.357    11052.268    401.24361     1184.371    1629.3044   -3056.9711 
16705000    266.78227   -4835.3224   -4301.7249   -4835.3224            0    10779.849    17.577642    23.200025    19.186803    7824.4117    10571.959    10413.726     11353.86   -1006.1244     532.2519   -3213.0316   -3071.6254 
16706000    269.20087   -4813.2646   -4274.8296   -4813.2646            0     12828.86    17.684153    23.399534    18.829298    7791.5814    12438.627    12207.414    13840.538    88.767895    786.19368   -907.77627   -2817.0578 
16707000    269.21465   -4802.8113   -4264.3487   -4802.8113            0    12093.906    17.560298    23.101834    19.291126    7825.9295     10938.19    14017.998     11325.53    1381.0332    783.29823    2094.6515   -2884.0331 
16708000    276.18695   -4803.5886   -4251.1806   -4803.5886            0    11350.507    17.828588    23.153701    19.042718    7860.7917    10784.887    11023.328    12243.307    1117.4341   -270.23426   -1105.1173   -2949.9404 
16709000     268.0667   -4813.4733   -4277.3068   -4813.4733            0    9320.0711    17.674036     23.17967     19.27008    7894.5343    11433.342    9023.8085    7503.0626   -619.51354   -407.84287    -160.3983   -3204.2526 
16710000    275.99186   -4817.5293   -4265.5115   -4817.5293            0    10108.622    17.973849    23.024533    19.119131    7912.2515    9741.6426    10810.869    9773.3547    704.50066    475.52223   -395.65799   -3099.0566 
16711000     274.7966   -4811.3393   -4261.7122   -4811.3393            0    11314.368    17.776914    22.783828    19.371713    7846.0505    12151.421    12392.634      9399.05    1306.3958    524.67572   -991.51015   -2967.0475 
16712000    274.82171   -4816.4953   -4266.8179   -4816.4953            0    12940.723    17.927486    22.917191    18.997055    7804.8952    12145.888    13151.387    13524.894    1020.4875    184.61514    590.08276   -2793.8222 
16713000    262.96414   -4795.7319   -4269.7711   -4795.7319            0    10567.185    17.772208     22.96458    19.247335    7855.4396    10572.549    10718.985    10410.019     1543.672   -438.09539    1.8810186   -3059.1572 
16714000    259.67236   -4804.3283   -4284.9515   -4804.3283            0    11606.394    17.907191    23.006973    19.075201    7858.7971    11449.401    10020.369    13349.412     863.2633   -1400.9097   -814.65059   -2954.7137 
16715000    268.66472   -4863.9232   -4326.5606   -4863.9232            0    10143.274    17.908756    22.869397    19.204681    7865.5159    10158.659    9846.3494    10424.813    2316.6231    1338.8434   -1228.7794   -3163.0208 
16716000     262.0291   -4798.4648   -4274.3742   -4798.4648            0    12969.578    17.885159    22.736607    19.250446    7828.1523    13398.367     13010.68    12499.689   -763.85998   -228.57322    1364.0281   -2793.6948 
16717000    259.91104   -4829.7287   -4309.8745   -4829.7287            0      9916.04    17.816978    23.048696    19.120379    7851.9385     10953.38    9647.1261     9147.614   -25.571759   -605.83723   -1269.7058   -3174.3643 
16718000    271.62036   -4791.1882   -4247.9139   -4791.1882            0    11925.429    17.868673      22.8303     19.24193    7849.6906    11420.423    10864.581    13491.283    1083.6695   -567.49411   -704.60852   -2882.6945 
16719000    271.22423   -4814.8732   -4272.3913   -4814.8732            0     11330.15    17.692438    22.797489    19.341488     7801.257    12537.589    11796.319    9656.5428   -911.81674    198.56575   -1224.3725   -2983.3223 
16720000    255.59442   -4816.4415    -4305.221   -4816.4415            0    12781.941    17.921259    22.761022    19.131683    7803.9315    12013.169    13110.827    13221.827    85.740109    467.23104    1756.7871   -2850.4785 
16721000    258.63948   -4793.2241   -4275.9132   -4793.2241            0    12161.385    17.832992    22.718798     19.28143     7811.758    13491.185    12005.416    10987.554     1244.839    821.58912    612.31254   -2890.4094 
16722000    259.02145   -4825.0308    -4306.956   -4825.0308            0    10243.344     17.78373    22.873021     19.27986    7842.4229    11335.097    10010.922    9384.0124   -821.46787   -1163.9344   -1098.1773   -3135.3869 
16723000    255.56965   -4825.9225   -4314.7516   -4825.9225            0    9457.3268    17.932633    22.941833     19.22391    7908.8602    8639.0429    9352.6848    10380.253    651.18387    -1169.402    330.59578   -3223.9188 
16724000    273.63709   -4818.7882   -4271.4803   -4818.7882            0    11917.142    17.848313    22.616873    19.473306    7860.8484    11268.267    12739.352    11743.806   -265.69185    366.78478    3077.4941   -2905.2704 
16725000     266.9367   -4836.5337   -4302.6273   -4836.5337            0    9666.2667    17.908872    22.921301    19.162259    7866.0051    8875.3056    10867.227    9256.2671   -1745.9078    837.53994   -51.065116   -3193.7362 
16726000    265.19009    -4795.509    -4265.096    -4795.509            0    13026.556    17.831633    22.579769    19.361546    7795.6196    13626.445    14467.829    10985.395   -1445.4756    731.45757   -813.57491   -2784.0923 
16727000    279.14723    -4769.002   -4210.6731    -4769.002            0    12302.321    17.863509    22.709392    19.339591    7845.4811    10725.885    13687.134    12493.944   -404.30234    -206.6615    387.19358   -2803.0625 
16728000    285.53086   -4805.9235   -4234.8266   -4805.9235            0    12621.625    18.036044    22.544365    19.241209    7823.6905    12884.506    14255.108    10725.261   -1939.6445   -572.75708    537.07897   -2794.6928 
16729000    277.95668   -4822.4532   -4266.5055   -4822.4532            0    9446.4062    18.014561    22.629804    19.451263     7929.618    7574.5681     10703.63     10061.02    -785.6159    285.31867    -178.8549   -3174.0726 
16730000    266.37352   -4763.4525   -4230.6725   -4763.4525            0    11459.797    17.827767    22.915919    19.310175    7888.9724    12009.812    11690.471    10679.109   -643.92131    791.21759    216.22011   -2912.1934 
16731000    283.35428   -4806.6933   -4239.9497   -4806.6933            0    11608.916    17.938106    22.889836    19.104415    7844.2785    8954.2812     13724.24    12148.227   -1538.8963    1691.4396   -936.06674   -2911.8809 
16732000    273.60706    -4815.581   -4268.3331    -4815.581            0    11364.186    17.610736     22.84788    19.408022    7809.1665    12239.259    12596.619    9256.6811   -1640.6654   -92.237673    164.92165   -2974.0809 
16733000    257.54244   -4810.3192   -4295.2025   -4810.3192            0     12431.64    17.856384     23.07201    18.995708    7825.9023     11550.13    11415.617    14329.172    1554.3869   -110.89346    2447.2118   -2876.3452 
16734000    278.66194   -4792.0035   -4234.6452   -4792.0035            0    12535.475    17.624869     23.17691     19.06588    7788.2212    12081.876    11906.151    13618.397    150.70727   -999.23846    951.15994   -2810.8256 
16735000    261.38905   -4809.4592   -4286.6488   -4809.4592            0    13256.333    17.512296    23.390111    19.019508    7790.6671    14582.556    11271.422    13915.021    1720.6979    222.89833   -355.61302    -2780.479 
16736000    276.32417   -4827.2932   -4274.6107   -4827.2932            0    10974.453    17.635879    23.196506    19.092927    7810.7403    12594.193    10192.561    10136.606   -527.21511     374.7779   -479.98364   -3024.4928 
16737000    247.97678   -4775.5212    -4279.537   -4775.5212            0    10608.654    17.835927    23.068472    19.129247    7870.6823    9888.9048    10033.446    11903.612   -1134.3326    104.76329   -1665.7586   -3061.8138 
16738000    268.68407   -4790.2157   -4252.8144   -4790.2157            0    11305.209    17.723648    23.001631    19.209654     7831.254    11715.665    11547.924    10652.038    199.76565    150.66557   -1357.9273   -2961.6373 
16739000    271.32982   -4822.0172   -4279.3241   -4822.0172            0    10493.422    17.917705    22.948564     19.10365    7855.1454    10025.142    10608.314    10846.809    752.44159    169.00547    422.56958   -3077.2057 
16740000    280.52845    -4806.094   -4245.0024    -4806.094            0    12341.208    17.646557    22.828328    19.434246    7828.9186    13365.514    12931.963    10726.147    1134.6778    161.80467    590.69075   -2835.9234 
16741000     261.9314   -4819.2963   -4295.4011   -4819.2963            0    10521.815    18.021212     22.95902    19.018025    7868.6961    10325.627    9416.4752    11823.344   -73.558038    1238.7167   -895.06767   -3087.9506 
16742000    268.48554   -4826.9652   -4289.9609   -4826.9652            0    8514.8539    17.889589    23.049436    19.223599    7926.7536    9869.4839    7719.8027    7955.2751    -970.2342    988.82741   -2773.6791   -3305.6134 
16743000    287.21364   -4809.0332   -4234.5704   -4809.0332            0    11335.476    17.693847    23.158287    19.134251    7840.4353    10794.409     11042.71    12169.309    1768.8287     43.81245     617.2694   -2938.4188 
16744000     276.7422   -4803.0379   -4249.5193   -4803.0379            0    10872.447    17.763273    23.059643    19.139529    7839.8329     8473.094    11388.969    12755.278   -1353.3372    246.15027    997.63019    -3006.408 
16745000    275.90973   -4793.3024   -4241.4489   -4793.3024            0    10639.716    17.870343    23.116684    19.061898    7874.5286    9272.1118    10897.215    11749.822   -178.15218    365.22963   -483.76559   -3019.5634 
16746000    258.43236   -4795.1279   -4278.2312   -4795.1279            0    10443.992    17.644585    23.061388    19.358032    7876.9502    10609.087    10658.387    10064.501    1449.9722      2379.23    1474.7969   -3078.4543 
16747000    275.05802   -4819.0587   -4268.9086   -4819.0587            0    11719.398    17.773236     23.11886    19.016277    7813.7304    12421.256    10762.765    11974.172     8.508332   -1519.1069    1520.9868   -2933.4218 
16748000     268.9804   -4764.2747   -4226.2807   -4764.2747            0    12769.456    17.616181    22.904212    19.376266    7818.0275    13457.958    13920.176    10930.233    1474.4352   -548.12859   -326.86154    -2770.334 
16749000     263.4786   -4816.0672   -4289.0775   -4816.0672            0    9463.7733    18.027585    22.810246    19.084443    7847.7836    9227.5706    10219.006    8944.7428    411.33418   -1047.3152    2271.1599   -3205.9309 
16750000    284.80175   -4809.0096   -4239.3709   -4809.0096            0    9697.9374    17.779315    22.915628    19.392523    7900.9827    8767.7162    11007.682    9318.4139    450.18881    766.04796     662.2737   -3121.8996 
Loop time of 547.513 on 64 procs for 250000 steps with 1008 atoms

Performance: 78.902 ns/day, 0.304 hours/ns, 456.610 timesteps/s
99.2% CPU use with 64 MPI tasks x 1 OpenMP threads

MPI task timing breakdown:
Section |  min time  |  avg time  |  max time  |%varavg| %total
---------------------------------------------------------------
Pair    | 28.006     | 32.46      | 36.962     |  32.7 |  5.93
Bond    | 0.28673    | 0.29235    | 0.30354    |   0.7 |  0.05
Kspace  | 254.55     | 263.42     | 277.25     |  26.7 | 48.11
Neigh   | 4.5235     | 5.0941     | 6.1604     |  16.1 |  0.93
Comm    | 107.22     | 119.66     | 127.18     |  39.0 | 21.85
Output  | 1.7888     | 1.7926     | 1.8034     |   0.3 |  0.33
Modify  | 114.84     | 118.51     | 121.08     |  16.2 | 21.64
Other   |            | 6.288      |            |       |  1.15

Nlocal:        15.7500 ave          20 max          11 min
Histogram: 1 1 7 8 11 16 8 4 7 1
Nghost:        2513.59 ave        2533 max        2490 min
Histogram: 2 4 7 7 3 9 10 14 5 3
Neighs:        5286.62 ave        6698 max        3717 min
Histogram: 2 0 7 8 11 16 8 4 5 3

Total # of neighbors = 338344
Ave neighs/atom = 335.65873
Ave special neighs/atom = 2.0000000
Neighbor list builds = 10007
Dangerous builds = 1

unfix		3
unfix		2
unfix		1

write_data	data.final.${pid}
write_data	data.final.0
System init for write_data ...
PPPM initialization ...
  extracting TIP4P info from pair style
  using 12-bit tables for long-range coulomb (../kspace.cpp:340)
  G vector (1/distance) = 0.37932833
  grid = 24 27 36
  stencil order = 5
  estimated absolute RMS force accuracy = 0.0024455549
  estimated relative force accuracy = 7.3647161e-06
  using double precision FFTW3
  3d grid and FFT values/proc = 4050 480
Last active /omp style is kspace_style pppm/tip4p/omp
WARNING: Not all mixed pair coeffs generated from mixing. Use write_data with 'pair ij' option to store all pair coeffs. (../write_data.cpp:312)

write_restart   restart.lmp.${pid}
write_restart   restart.lmp.0
System init for write_restart ...
PPPM initialization ...
  extracting TIP4P info from pair style
  using 12-bit tables for long-range coulomb (../kspace.cpp:340)
  G vector (1/distance) = 0.37932833
  grid = 24 27 36
  stencil order = 5
  estimated absolute RMS force accuracy = 0.0024455549
  estimated relative force accuracy = 7.3647161e-06
  using double precision FFTW3
  3d grid and FFT values/proc = 4050 480
Last active /omp style is kspace_style pppm/tip4p/omp
Total wall time: 0:09:09
