LAMMPS data file via write_data, version 30 Jul 2021, timestep = 33250000

1008 atoms
2 atom types
672 bonds
1 bond types
336 angles
1 angle types

-3.0952323430918423 14.70523134264239 xlo xhi
-0.06609006778357518 22.646089067776337 ylo yhi
0.09854514713423335 19.13145285286094 zlo zhi
0.07141511287767971 -6.502326610392397 0.09838971478922556 xy xz yz

Masses

1 1.008
2 15.999

Pair Coeffs # lj/cut/tip4p/long/omp

1 0 0
2 0.21084 3.1668

Bond Coeffs # harmonic/omp

1 450 0.9572

Angle Coeffs # harmonic/omp

1 55 104.52

Atoms # full

55 19 2 -1.1794 -0.5139300403169909 4.237789883324077 3.675944351893913 0 0 0
56 19 1 0.5897 -1.1638719305652903 3.7981858214140227 3.1278355833864846 0 0 0
57 19 1 0.5897 0.18670198680106997 4.479941811936765 3.070313134465551 0 0 0
121 41 2 -1.1794 -2.3575422960228156 2.6455103178125414 2.578793183022348 1 0 0
122 41 1 0.5897 -2.1913124904976433 2.1800220642011325 1.7592386426069344 1 0 0
21 7 1 0.5897 1.2537802755309304 2.310489623369221 0.878788044853752 0 0 0
31 11 2 -1.1794 1.1083614833359254 1.2735269809696692 2.3756142856584903 0 0 0
86 29 1 0.5897 -2.0736952886434814 1.8318190361574083 4.1786080383954545 1 0 0
32 11 1 0.5897 1.0405399546168415 1.397901514249554 3.322153625181449 0 0 0
46 16 2 -1.1794 1.956540155776871 4.757637588503533 2.636041270179902 0 0 0
48 16 1 0.5897 2.001353183063684 5.525527824568899 3.2055756406715017 0 0 0
70 24 2 -1.1794 3.8658733957090767 0.41513067833247186 1.6764355686039165 0 0 0
669 223 1 0.5897 -5.016850574527147 1.6195207587506728 8.846493316842835 1 0 0
71 24 1 0.5897 3.2667405492109634 0.6971514400196691 2.367543643034461 0 0 0
98 33 1 0.5897 -3.8725572226546694 5.1242788920074815 8.454123973039074 1 0 0
123 41 1 0.5897 -3.3034555036954476 2.792152388253619 2.583974180999011 1 0 0
16 6 2 -1.1794 5.3971958462818534 4.799882669375664 0.3207653412333199 0 0 0
54 18 1 0.5897 3.1963067806363767 3.354653276862164 3.052334246982562 0 0 0
401 134 1 0.5897 2.320108440532807 0.1429826137767319 8.869866954362683 0 1 0
53 18 1 0.5897 4.54719690039978 2.7005187438367977 2.8544701618718564 0 0 0
482 161 1 0.5897 -1.1456231198057962 0.0504600142300647 0.9894237408908896 1 1 0
52 18 2 -1.1794 3.8618702262450686 2.8393664555335105 3.5081109125570773 0 0 0
47 16 1 0.5897 2.0892062425619002 5.105132805603586 1.7540957972339064 0 0 0
33 11 1 0.5897 0.5126772753652222 0.5487231640945576 2.185682130759657 0 0 0
602 201 1 0.5897 -0.3850104101518701 5.1814417919064555 0.5434360306922115 1 0 1
124 42 2 -1.1794 -4.7900079956351895 2.5449551314327827 7.330179428582421 1 0 0
6 2 1 0.5897 3.7329078557424644 1.4358946266822903 4.708283268736109 0 0 0
159 53 1 0.5897 -3.0209889439725357 4.343757924299964 5.479435092294842 1 0 0
87 29 1 0.5897 -3.1082345482263527 1.1312338008116845 5.0336674385545 1 0 0
85 29 2 -1.1794 -2.1735964797547345 1.333312249554388 4.989627962402775 1 0 0
45 15 1 0.5897 0.7521349738760428 4.837961233663403 7.139659971542045 0 0 0
78 26 1 0.5897 0.4182443141921821 2.8166507894221695 4.5962772096030795 0 0 0
76 26 2 -1.1794 1.075819009428458 2.1772367693138714 4.870142567261967 0 0 0
59 20 1 0.5897 1.8381534862853437 3.414337186658053 5.901836468677537 0 0 0
43 15 2 -1.1794 -0.16691830014529385 5.069466027695623 7.273887544896672 0 0 0
60 20 1 0.5897 2.990246327293625 3.8000798505033253 6.804879864645348 0 0 0
34 12 2 -1.1794 0.10100149572462902 1.1773045497699341 7.13690915079203 0 0 0
35 12 1 0.5897 0.3246279607760685 1.8497395059301687 7.780210761028521 0 0 0
36 12 1 0.5897 -0.768850139312554 0.8749215433575483 7.398176746038009 0 0 0
44 15 1 0.5897 -0.2117060455589077 5.354916008094288 8.18628685060392 0 0 0
67 23 2 -1.1794 -2.2142130563943185 0.43612936973893446 8.169007873170774 0 0 0
157 53 2 -1.1794 -3.5711005279223738 4.86828332918382 4.8976648427842004 1 0 0
58 20 2 -1.1794 2.225815861434624 4.161974504041018 6.356671126323646 0 0 0
22 8 2 -1.1794 0.5820135244393891 2.790284816519184 9.311885220368444 0 0 0
101 34 1 0.5897 -2.4171467975973044 4.559229998758171 0.24521939258199496 1 0 0
135 45 1 0.5897 -1.4160548468910314 3.8836168359402463 7.023565160305563 1 0 0
126 42 1 0.5897 -3.9191150568293134 2.935756299641797 7.258315106222731 1 0 0
77 26 1 0.5897 0.6936625202394016 1.7543111593950083 5.639143554797234 0 0 0
134 45 1 0.5897 -1.978476948948824 2.618778251687338 6.410766256350465 1 0 0
133 45 2 -1.1794 -2.239240586488776 3.424448521325238 6.85685732172118 1 0 0
69 23 1 0.5897 -2.4885171170316016 1.157261932817188 8.735385955442101 0 0 0
158 53 1 0.5897 -4.144926832080953 4.231650508667921 4.471579838372108 1 0 0
527 176 1 0.5897 4.154458916944253 1.8672354326945988 0.49947721290940705 0 0 1
5 2 1 0.5897 3.2888445402021445 0.05373328999787008 5.1379718513715185 0 0 0
97 33 2 -1.1794 -3.932249481703016 4.7420469292403205 9.329635415069598 1 0 0
522 174 1 0.5897 2.1274186755101105 5.463748007384687 9.089227982117364 0 0 0
125 42 1 0.5897 -5.38731481889382 3.2354120987383723 7.042508708065834 1 0 0
4 2 2 -1.1794 3.9965147216680563 0.6891772124945907 5.246067184952309 0 0 0
18 6 1 0.5897 4.865981778093787 4.005593009919178 0.26404493404335905 0 0 0
163 55 2 -1.1794 -1.9942634956053957 1.4812668104296947 0.15214589389925193 1 0 0
90 30 1 0.5897 -5.012744337099905 1.3578061089430593 5.939376503117953 1 0 0
24 8 1 0.5897 1.2322352354838397 3.4395667647884536 9.579979235795363 0 0 0
68 23 1 0.5897 -3.033227926981152 0.04425342369714391 7.8658985875679335 0 0 0
606 202 1 0.5897 -5.816204796904733 4.665210843687584 9.463259863155548 1 0 0
523 175 2 -1.1794 -2.2555701471848786 2.6288972773182078 9.922141651813261 0 0 0
626 209 1 0.5897 -5.587325156638517 1.8347451639926087 12.444765562937699 1 0 0
23 8 1 0.5897 0.6034164189220457 2.129132454854999 10.003761232320535 0 0 0
528 176 1 0.5897 -3.4407369017938665 2.7722898758915964 18.86393302132855 0 0 0
536 179 1 0.5897 -1.808176989386376 1.7166273070310625 13.143158514438664 0 0 0
591 197 1 0.5897 -4.941907931085929 0.3114561238506876 14.319185273599615 1 0 0
576 192 1 0.5897 -0.07227178876209805 0.8476046370932672 11.706366554435203 0 0 0
628 210 2 -1.1794 -7.785127426886271 2.6030628894997423 16.771228780612383 1 0 0
535 179 2 -1.1794 -1.6228375114954456 1.3048443996991597 12.2993201632595 0 0 0
575 192 1 0.5897 1.2334794879041056 0.08209812043497278 11.675794323287613 0 0 0
537 179 1 0.5897 -1.8908722952328612 1.955761449934382 11.650690199189727 0 0 0
561 187 1 0.5897 -3.450239534423811 3.5836648866889935 13.664987170395795 0 0 0
571 191 2 -1.1794 -5.527186293391761 0.3406510497492755 17.64203430522931 0 0 0
164 55 1 0.5897 -8.129577363933938 2.062330107595595 18.444363478318635 1 0 -1
627 209 1 0.5897 -6.5694323373028665 2.825120648791838 11.856063768236465 1 0 0
557 186 1 0.5897 0.466546908884629 2.6847555145275788 13.440045497460712 0 0 0
558 186 1 0.5897 -0.15912936747930395 3.8652973324327817 12.728099772828887 0 0 0
559 187 2 -1.1794 -3.8475380501721688 4.263382311829545 13.12056456959342 0 0 0
560 187 1 0.5897 -4.484809055117845 3.796135642497894 12.580493755164017 0 0 0
625 209 2 -1.1794 -5.655332666552266 2.5453227796420723 11.806992963702312 1 0 0
668 223 1 0.5897 -5.36510324518156 1.6957658067427794 10.317661604026185 1 0 0
556 186 2 -1.1794 0.6752129287259763 3.5415851157188305 13.067670869630081 0 0 0
580 194 2 -1.1794 -2.3558930370318096 2.5885086991526727 14.552255554346246 0 0 0
552 184 1 0.5897 -2.2582850713527227 4.717183275662191 12.377136071232574 0 0 0
589 197 2 -1.1794 -5.627187129140978 0.9396333581350795 14.091081398647107 1 0 0
550 184 2 -1.1794 -1.36069777278591 4.990595845932399 12.187611800372128 0 0 0
629 210 1 0.5897 -8.461304317467551 3.2732264662111628 16.671628980181275 1 0 0
551 184 1 0.5897 -1.1560519623372771 5.631132204871705 12.868670780266362 0 0 0
99 33 1 0.5897 -3.7988602716517947 5.480770189180571 9.923382438219411 1 0 0
582 194 1 0.5897 -1.7241358633944213 3.1321682596280613 15.022844328707817 0 0 0
667 223 2 -1.1794 -5.087367138461305 1.0835492896501449 9.636424594165259 1 0 0
547 183 2 -1.1794 -3.469708242299335 4.923559842068814 16.965663475778193 0 0 0
639 213 1 0.5897 -5.542448430206424 4.044415937117061 15.105784099122207 1 0 0
538 180 2 -1.1794 -3.1139903290729505 1.072129488967372 16.763380192185572 0 0 0
540 180 1 0.5897 -4.043322073005804 0.8670147131072585 16.866329893138975 0 0 0
630 210 1 0.5897 -7.993783899544173 1.9504628756341442 16.1029707406758 1 0 0
539 180 1 0.5897 -2.9041195950404157 1.6205040168540223 17.519169308646255 0 0 0
638 213 1 0.5897 -6.22278643120649 3.195880182833378 16.159010718280626 1 0 0
549 183 1 0.5897 -4.1035722994266335 4.237432483142096 16.756645257548847 0 0 0
562 188 2 -1.1794 -0.7677011161729963 4.351892141277339 16.11696968380297 0 0 0
526 176 2 -1.1794 -2.4945708634822283 2.6273857232458373 18.856500663934106 0 0 0
564 188 1 0.5897 -1.5520587873546319 4.571299193248816 16.61983012665204 0 0 0
593 198 1 0.5897 -7.473514239796591 0.787168426530641 14.285915988636683 1 0 0
525 175 1 0.5897 -1.394018407999729 2.99306591781672 9.718520745626558 0 0 0
637 213 2 -1.1794 -5.379319323888108 3.336080079947212 15.728629838736023 1 0 0
663 221 1 0.5897 -7.28412018271296 4.60148702318117 14.111677227015953 1 0 0
581 194 1 0.5897 -2.67613230474302 1.9696675154825654 15.208617469911463 0 0 0
590 197 1 0.5897 -5.375636343551485 1.7443229850170963 14.544158103648343 1 0 0
563 188 1 0.5897 -0.6336744769601257 5.104460017868966 15.540759938896544 0 0 0
524 175 1 0.5897 -2.8639797196491275 3.3517722638351177 9.768720668650396 0 0 0
20 7 1 0.5897 -5.521565942997855 1.9457370515153514 18.49671337523887 0 0 -1
661 221 2 -1.1794 -6.696778142890109 5.284031664784739 14.436254062843632 1 0 0
574 192 2 -1.1794 0.6612281756412912 0.6246867688619412 11.133252974848594 0 0 0
614 205 1 0.5897 -7.219251429045306 5.666622308106719 17.394599539734827 1 0 0
508 170 2 -1.1794 0.7240379948928295 1.0830489039623838 14.388742750293314 0 0 0
165 55 1 0.5897 -9.18217804019013 1.0338579732609074 18.800050036734916 1 0 -1
987 329 1 0.5897 -2.902965184895877 0.033996433171717896 11.69931153380468 1 1 0
548 183 1 0.5897 -3.5403302335482527 5.54467180235409 16.240750765577708 0 0 0
603 201 1 0.5897 -6.538175620382177 3.9425713109618012 18.958717236742537 1 0 0
601 201 2 -1.1794 -7.207846224800175 4.626507286434091 18.954674584823344 1 0 0
986 329 1 0.5897 -4.139629349730258 0.2686678474800709 10.858336991001272 1 1 0
19 7 2 -1.1794 -5.263920842561656 2.71480574369459 19.004881144592616 0 0 -1
587 196 1 0.5897 -0.8455836867038564 5.648480695094236 10.48466360326029 0 0 0
84 28 1 0.5897 -3.7057102091372167 5.676633326054383 18.64491361792495 0 0 -1
520 174 2 -1.1794 2.472702649761426 4.766988963480848 9.647406208735612 0 0 0
289 97 2 -1.1794 -2.331812755721444 10.164761058541874 2.466131905208695 1 0 0
332 111 1 0.5897 -1.8865305208156964 9.313510232555169 0.9405796326118707 1 0 0
255 85 1 0.5897 -2.0360387094439076 8.957719612561856 3.9515019081568448 1 0 0
147 49 1 0.5897 -0.9371048254529901 7.384178940158898 0.9376984648410049 1 0 0
146 49 1 0.5897 -1.2880296132624496 6.571031865677324 2.1655586097591355 1 0 0
145 49 2 -1.1794 -0.5566475783889531 6.7967864829143965 1.590727591293478 1 0 0
174 58 1 0.5897 3.836969723939969 9.201829483183046 4.4062395797870755 0 0 0
112 38 2 -1.1794 -3.0713802111854593 6.517535509879242 2.6624700248911535 1 0 0
65 22 1 0.5897 2.611176189670191 7.555428698685544 8.512016181088487 0 0 0
113 38 1 0.5897 -3.1495649478446306 6.017179331295204 3.47472622450323 1 0 0
114 38 1 0.5897 -3.2174053016921778 5.873903692563368 1.9693478056460074 1 0 0
29 10 1 0.5897 5.019645495476825 7.164038325520533 2.39827843550003 0 0 0
201 67 1 0.5897 2.0116842128482624 8.505375227520718 2.3985075568861878 0 0 0
188 63 1 0.5897 0.949796882925261 9.761131792157762 0.9694936240048814 0 0 0
200 67 1 0.5897 0.5874784273675724 7.99650605147049 2.3294197308821016 0 0 0
835 279 2 -1.1794 -5.190343241530876 8.670945526583704 9.611010272353708 1 0 0
199 67 2 -1.1794 1.1051370185040144 8.768980043261639 2.5564588948254423 0 0 0
239 80 1 0.5897 3.8276937105610553 8.846189706174242 1.4296907204772504 0 0 0
238 80 2 -1.1794 3.6497990718238977 8.037429409100437 1.9099262485789652 0 0 0
173 58 1 0.5897 3.4901222348013805 7.8105200186018156 4.892209943378142 0 0 0
10 4 2 -1.1794 2.2143705525936923 6.4514629578568705 4.711788805499796 0 0 0
240 80 1 0.5897 3.312889304096287 7.434155578402321 1.2476756251924468 0 0 0
245 82 1 0.5897 1.074473709645038 9.638039846461755 4.102445176524965 0 0 0
221 74 1 0.5897 4.613943206795513 10.829840620038219 2.8194562209646894 0 0 0
291 97 1 0.5897 -3.250852788144292 10.431639876706445 2.4863487225856478 1 0 0
187 63 2 -1.1794 1.1523834010273326 10.179179640050881 0.1325808112310804 0 0 0
12 4 1 0.5897 1.302507812920549 6.662644628853204 4.9122477811149645 0 0 0
110 37 1 0.5897 -3.9768612690209277 5.971839175742619 6.2298966636989315 1 0 0
837 279 1 0.5897 -5.7039230820527855 8.067785657142636 9.073876116199012 1 0 0
301 101 2 -1.1794 -2.3293073269331033 10.805072803162536 6.6514704100287245 1 0 0
303 101 1 0.5897 -1.5802548978245863 11.249896851923461 7.047991131916487 1 0 0
8 3 1 0.5897 -0.47614279343375854 6.256177311179569 5.96193658475729 0 0 0
254 85 1 0.5897 -1.4231791887532421 8.02708443524823 4.976301930229238 1 0 0
253 85 2 -1.1794 -2.0775958442549665 8.71860225864841 4.877357766084256 1 0 0
302 101 1 0.5897 -1.9461145476015447 10.069535247558546 6.173705561249751 1 0 0
244 82 2 -1.1794 0.9463514591879827 10.18716588206211 4.875771591658464 0 0 0
220 74 2 -1.1794 3.848870858524112 10.775982768982281 3.3921972583098667 0 0 0
294 98 1 0.5897 -4.887468500325568 10.004797282843443 8.290237751683076 1 0 0
109 37 2 -1.1794 -4.055544505491342 6.385404440566952 7.089398906633035 1 0 0
7 3 2 -1.1794 -0.5182980776331716 6.597121785302726 5.0685603087009135 0 0 0
64 22 2 -1.1794 2.2363984895514974 6.943894048063294 7.878290228243122 0 0 0
237 79 1 0.5897 -2.4359776274441525 8.588199722550415 8.564729292108344 0 0 0
257 86 1 0.5897 -4.063532682873356 8.58313294879076 5.1708464929069144 1 0 0
290 97 1 0.5897 -1.857010305254648 10.91119683770857 2.831596697228261 1 0 0
292 98 2 -1.1794 -4.8847624698171295 10.348345653343653 7.396860281544927 1 0 0
191 64 1 0.5897 0.616515068342705 9.552796828882032 8.800077814232502 0 0 0
293 98 1 0.5897 -3.9654053392846045 10.54680538629858 7.2187396011804505 1 0 0
202 68 2 -1.1794 0.22104238564612455 8.705914711784066 7.131882414565928 0 0 0
203 68 1 0.5897 -0.6435595945393633 8.44251664481569 7.447200288060036 0 0 0
204 68 1 0.5897 0.7993164199995144 7.987845816228937 7.389208357281299 0 0 0
246 82 1 0.5897 0.6077594753315889 9.588581843115179 5.541647620591515 0 0 0
235 79 2 -1.1794 -2.087040221330685 7.7684156268937645 8.214946921090217 0 0 0
236 79 1 0.5897 -2.8436046886412707 7.334578132147949 7.820511593180795 0 0 0
111 37 1 0.5897 -4.99708007792451 6.506956672780229 7.211986787515161 1 0 0
189 63 1 0.5897 2.1031499485454264 10.289770630220474 0.14335876333158154 0 0 0
66 22 1 0.5897 2.9842933798712545 6.647844126219243 7.359446450928847 0 0 0
588 196 1 0.5897 -1.1150678029263368 6.6010149708650685 9.339242260922589 0 0 0
9 3 1 0.5897 -0.6031495565866622 5.818468820002766 4.518503841165694 0 0 0
331 111 2 -1.1794 -1.842655819304375 8.783887990303597 0.14462397097224247 1 0 0
172 58 2 -1.1794 4.102564295100533 8.531927788020871 5.036280739493666 0 0 0
82 28 2 -1.1794 2.4652497599085885 6.17474493227822 0.28313909623055045 0 0 0
11 4 1 0.5897 2.418085597878769 5.70656076365308 5.277400411431848 0 0 0
228 76 1 0.5897 1.987821477606225 11.14733431831995 5.935246278424019 0 0 0
694 232 2 -1.1794 3.7833035643730586 10.291126908318127 0.18438963443436274 0 0 1
696 232 1 0.5897 4.28470524454666 11.104125594959584 0.2470073885694397 0 0 1
618 206 1 0.5897 -6.532334851443524 5.809840489420283 11.246659930682327 1 0 0
798 266 1 0.5897 -7.957383860228353 9.690865002438247 16.369423294324456 1 0 0
759 253 1 0.5897 -5.7419790759750216 8.734437960550292 13.530042350993844 1 0 0
651 217 1 0.5897 -4.562826475414154 6.769507649092666 11.46570556564126 1 0 0
677 226 1 0.5897 0.5268346448035848 9.264266407223866 15.422558069305643 0 0 0
797 266 1 0.5897 -6.720301380243724 10.515668090623176 16.654538665606992 1 0 0
795 265 1 0.5897 -5.699999537577278 9.626210510719103 11.14320112316565 1 0 0
693 231 1 0.5897 -2.1655315390927377 9.772941700953345 10.666133896188896 0 0 0
649 217 2 -1.1794 -3.7356077504866843 6.858930249465566 10.992399818190458 1 0 0
650 217 1 0.5897 -3.1847986133358455 7.387873636838147 11.569364092941868 1 0 0
742 248 2 -1.1794 0.411678488488306 7.91074857943571 11.431049363068766 0 0 0
793 265 2 -1.1794 -5.797650462305006 9.827850206262887 12.073683582632905 1 0 0
743 248 1 0.5897 0.7191741599233117 8.671811697675379 10.938499390654023 0 0 0
744 248 1 0.5897 0.1919164171705776 7.263825244155743 10.760823886928723 0 0 0
741 247 1 0.5897 -5.611119415687405 8.699580641856908 18.056106282951845 0 0 0
617 206 1 0.5897 -7.061593754848594 7.086482743531601 11.864495162714732 1 0 0
703 235 2 -1.1794 -1.9999880293236112 8.670598790508006 12.189665867279839 0 0 0
704 235 1 0.5897 -1.083707205486129 8.508817400508855 11.964851569760508 0 0 0
705 235 1 0.5897 -1.9615808801213381 9.235253771611816 12.961457785671183 0 0 0
513 171 1 0.5897 -3.8339189254928234 5.940016891036454 14.065055281795766 0 0 0
706 236 2 -1.1794 -2.8850472748855562 8.839641253090932 16.765347543251607 0 0 0
707 236 1 0.5897 -3.7552589259875173 8.482984920788562 16.943910147560416 0 0 0
750 250 1 0.5897 -2.7790089216350253 10.677595702129848 14.061829315321273 0 0 0
333 111 1 0.5897 -8.122610427045803 9.506015107401474 18.486285038229553 1 0 -1
807 269 1 0.5897 -4.554667743409547 11.345933612042106 16.2541233226559 1 0 0
796 266 2 -1.1794 -7.627960893037627 10.391503778379898 16.932110556391265 1 0 0
748 250 2 -1.1794 -2.015782798965576 10.239877048951875 14.438798398046266 0 0 0
514 172 2 -1.1794 -0.7461485889432584 6.407465319554284 14.40286334975873 0 0 0
708 236 1 0.5897 -2.2808560014682593 8.170517522340461 17.087038010155922 0 0 0
749 250 1 0.5897 -2.370829836064922 9.712140070416085 15.154166009010916 0 0 0
615 205 1 0.5897 -7.0624033132262465 6.072471957822535 15.944653600032211 1 0 0
512 171 1 0.5897 -4.263879850652868 7.286438606897787 14.60724635435331 0 0 0
511 171 2 -1.1794 -3.556089425000562 6.6435356300065465 14.651506425955006 0 0 0
515 172 1 0.5897 -1.6257550772058735 6.776121299629758 14.484394064495794 0 0 0
516 172 1 0.5897 -0.16075154153628546 7.157150585484658 14.510443647265193 0 0 0
724 242 2 -1.1794 0.857900252349105 10.755997663748321 12.735949655091575 0 0 0
757 253 2 -1.1794 -5.683846185736654 8.407733805300781 14.427833222889683 1 0 0
695 232 1 0.5897 -2.5668008762366643 10.082083196447647 18.323826275376234 0 0 0
758 253 1 0.5897 -5.410081534137722 9.16713336359857 14.942076077967341 1 0 0
616 206 2 -1.1794 -6.348172213887418 6.4518898898944315 11.932120520117598 1 0 0
762 254 1 0.5897 -7.5096191760491715 8.510930158894215 14.718976989497891 1 0 0
568 190 2 -1.1794 -0.9971266324491737 7.190652894701341 17.723981999107608 0 0 0
83 28 1 0.5897 -4.644406968006609 6.846733840314676 18.848752368229846 0 0 -1
836 279 1 0.5897 -4.5227645937764605 8.11967250093195 10.01926282183299 1 0 0
678 226 1 0.5897 0.5313490979972011 9.337830378591281 13.910610919615298 0 0 0
739 247 2 -1.1794 -5.377258773794926 7.906558005682888 17.57390472600195 0 0 0
613 205 2 -1.1794 -7.463115399907267 6.348650456815993 16.768797607831942 1 0 0
740 247 1 0.5897 -6.215229049994143 7.5465579487608565 17.283366394636744 0 0 0
794 265 1 0.5897 -5.0899979705946095 10.444618548651196 12.260974531322852 1 0 0
569 190 1 0.5897 -1.2246166918236394 6.397247621596425 18.20887553557064 0 0 0
805 269 2 -1.1794 -5.156643832067585 10.784419187843895 15.765816339989986 1 0 0
586 196 2 -1.1794 -0.4386184102300814 6.033205390245365 9.70836667645826 0 0 0
676 226 2 -1.1794 0.6898854992818988 8.7383025691222 14.63976787480877 0 0 0
691 231 2 -1.1794 -2.1093289005569678 10.252948405774863 9.83990215880574 0 0 0
726 242 1 0.5897 0.1275100580288262 11.262464667234738 12.38061833787194 0 0 0
570 190 1 0.5897 -0.2257984258789083 6.946477670391203 17.212465371140134 0 0 0
662 221 1 0.5897 -6.432168112705111 5.7658285023115186 13.652596404173941 1 0 0
725 242 1 0.5897 1.2133963083408066 11.305291178054832 13.434456433474235 0 0 0
192 64 1 0.5897 1.1315887843755732 10.6773210418635 9.672785498552756 0 0 0
692 231 1 0.5897 -1.1715680472397318 10.389963682542497 9.705157466819651 0 0 0
190 64 2 -1.1794 0.5777909959520517 9.896780909876474 9.692342761979535 0 0 0
280 94 2 -1.1794 -3.2697510552650155 14.013256250849734 2.6468513014341126 1 0 0
184 62 2 -1.1794 5.377415623356489 12.583700416274317 0.4787372839922926 0 0 0
1004 335 1 0.5897 -4.964343596810734 16.950255491712447 9.13567206773298 1 0 0
690 230 1 0.5897 1.9719196710070594 13.002395389386656 9.31058349741787 0 0 0
223 75 2 -1.1794 -0.5656533356215157 11.953790665755381 3.4841075442463842 0 0 0
232 78 2 -1.1794 2.08084780404141 14.500519678401938 8.307927613417908 0 0 0
369 123 1 0.5897 1.3879234392939086 16.595060532211143 3.551193270922933 0 0 0
277 93 2 -1.1794 -4.189575072734465 13.922165297974413 7.214756040868998 1 0 0
326 109 1 0.5897 -2.9274212346494 11.947943062000569 5.463238106230788 1 0 0
226 76 2 -1.1794 2.3400575286064083 11.79699468155743 6.5434274216390635 0 0 0
408 136 1 0.5897 4.032916412406856 16.233528909870984 1.228366245204876 0 0 0
281 94 1 0.5897 -3.2206100748967383 13.582023032399341 3.4999666178737456 1 0 0
756 252 1 0.5897 -1.3994617607525668 14.602233231157156 9.318479771869079 0 0 0
423 141 1 0.5897 -2.183440884822721 16.487474391935095 4.163054995000484 1 0 0
341 114 1 0.5897 3.269787531922895 15.646510423731641 5.258788254152136 0 0 0
227 76 1 0.5897 1.6236376400149375 11.965900689695225 7.155311374312288 0 0 0
407 136 1 0.5897 4.817239836639859 15.260513061480479 2.0827579240445484 0 0 0
234 78 1 0.5897 1.4955399397626383 14.977496793834428 7.719614475429921 0 0 0
404 135 1 0.5897 -1.3891014983011036 15.700633192934191 7.872076334307823 0 0 0
403 135 2 -1.1794 -2.2826326840466464 15.661312308770897 8.213203452786873 0 0 0
282 94 1 0.5897 -2.3729722769338446 14.297150718252094 2.469327979059048 1 0 0
178 60 2 -1.1794 2.086453435061628 14.058296616119794 5.080073667776675 0 0 0
180 60 1 0.5897 2.0412249189530787 13.686356949744754 4.199406184870463 0 0 0
368 123 1 0.5897 2.3499670840214737 16.073031528470807 2.505461530633519 0 0 0
314 105 1 0.5897 0.18108932917040788 15.067477328237903 2.168729310791688 1 0 0
175 59 2 -1.1794 -0.6099387378076351 13.763618845274125 5.521795478013709 0 0 0
313 105 2 -1.1794 -0.6375308741408041 14.738596285307525 1.7973884077861422 1 0 0
315 105 1 0.5897 -0.3664202116134456 14.046490926526394 1.194454877028829 1 0 0
225 75 1 0.5897 -0.7741397519401794 12.687513990585805 4.062240152832816 0 0 0
278 93 1 0.5897 -3.566580067841571 14.575748128962179 7.532412633772433 1 0 0
279 93 1 0.5897 -5.04731552713284 14.26860018516807 7.460748508490202 1 0 0
252 84 1 0.5897 2.9432218066161067 14.515117948126234 0.8549513045923905 0 0 0
214 72 2 -1.1794 1.9868101978297315 12.690809847303985 2.731807449745921 0 0 0
215 72 1 0.5897 2.038183111893761 12.970437942197126 1.8178582624254567 0 0 0
216 72 1 0.5897 1.067064264272144 12.458827716994586 2.860582615963618 0 0 0
176 59 1 0.5897 -1.109243069064378 14.564896242236737 5.363947195788865 0 0 0
406 136 2 -1.1794 3.9368912551235073 15.61215461615998 1.950146629230008 0 0 0
500 167 1 0.5897 -1.3758501985411618 15.996853929690838 0.6953322582981734 1 0 0
177 59 1 0.5897 0.3033182206227836 14.021167981116614 5.395443372797742 0 0 0
367 123 2 -1.1794 1.4165520283515098 16.166452598799268 2.695954866578341 0 0 0
421 141 2 -1.1794 -2.0470569144648705 16.085257214800222 5.020833485547501 1 0 0
179 60 1 0.5897 2.1848546534677036 13.300067531240579 5.656020825633106 0 0 0
340 114 2 -1.1794 3.7307022771171443 16.481786995418076 5.337103281691061 0 0 0
425 142 1 0.5897 -3.968848771869465 16.00297570920916 5.072706418082758 1 0 0
327 109 1 0.5897 -3.8006476875830435 13.174297379133794 5.622629940418354 1 0 0
211 71 2 -1.1794 -0.1964529224733793 12.12320860277781 7.684879715117873 0 0 0
212 71 1 0.5897 -0.3318642208980287 12.678107851109203 8.452825515357297 0 0 0
213 71 1 0.5897 -0.3492173493974797 12.703876879427959 6.939408433322339 0 0 0
370 124 2 -1.1794 0.23409623001425883 16.221877675777236 7.30421664695488 0 0 0
267 89 1 0.5897 -3.722177867579721 12.906774711904735 8.701492970463306 1 0 0
325 109 2 -1.1794 -3.4454242330315012 12.578612004127582 4.9630640786410405 1 0 0
405 135 1 0.5897 -2.407985203674702 16.501161638379273 8.654846799995457 0 0 0
233 78 1 0.5897 2.8998835288194513 14.420796454368425 7.818963197515553 0 0 0
371 124 1 0.5897 0.5158724338857681 16.84511616349473 7.973680508386296 0 0 0
250 84 2 -1.1794 2.339243815820219 14.01999689655855 0.30163575293082906 0 0 0
499 167 2 -1.1794 -2.0931804260369598 16.41368554444813 0.21795383283470798 1 0 0
372 124 1 0.5897 0.3716251063904754 16.68128405932005 6.475806181967058 0 0 0
269 90 1 0.5897 -3.362800504563433 12.690479624007404 1.2009114709665214 1 0 0
222 74 1 0.5897 3.1906994909091004 11.324766408281016 2.965721059944737 0 0 0
422 141 1 0.5897 -1.6737386291678629 16.78470118189263 5.55701351982678 1 0 0
266 89 1 0.5897 -3.147588773716056 11.744088488400296 9.482533166623735 1 0 0
265 89 2 -1.1794 -3.603779505905739 12.578340483455959 9.592699770854436 1 0 0
462 154 1 0.5897 -4.926652307468432 16.947063854495845 6.937295135460088 1 0 0
224 75 1 0.5897 -0.09635118100010764 11.333949778004207 4.042494382889929 0 0 0
910 304 2 -1.1794 0.7692479081402852 15.720904978387525 11.110208098095454 0 0 0
785 262 1 0.5897 -7.006189442580201 14.634308618162308 12.0136514167812 1 0 0
727 243 2 -1.1794 -3.7584700161031273 11.77765615515266 12.831240652042226 0 0 0
718 240 2 -1.1794 -1.2334268736091234 12.316038422488255 11.891546312071906 0 0 0
772 258 2 -1.1794 -6.306996580858282 12.412368568454326 9.929094255618573 1 0 0
720 240 1 0.5897 -1.1047912699654354 12.944091476102923 12.60217864584197 0 0 0
911 304 1 0.5897 0.09441365963607629 15.929997068627424 11.756008312209017 0 0 0
873 291 1 0.5897 -2.3450557170977655 15.859441949849316 12.10211360009857 0 0 0
830 277 1 0.5897 -7.016342622031662 13.006933250361008 15.126001588124378 1 0 0
251 84 1 0.5897 -4.650475817217171 14.78700828657406 18.853244674328927 0 0 -1
729 243 1 0.5897 -3.9491918577153022 12.581775738152698 13.314057350087625 0 0 0
755 252 1 0.5897 -0.19192576906316283 14.534401927359946 10.228931497241177 0 0 0
737 246 1 0.5897 -0.5951067997820294 15.51418643333671 18.38867458299054 0 0 0
784 262 2 -1.1794 -6.209677844338364 14.108445395615862 12.086359359670052 1 0 0
829 277 2 -1.1794 -6.609927893961494 12.579678723856537 14.37212222539225 1 0 0
719 240 1 0.5897 -1.2006791333061884 12.84543351363593 11.094740024806043 0 0 0
786 262 1 0.5897 -6.261081655400211 13.71412114956601 12.95702135440458 1 0 0
817 273 2 -1.1794 -3.6836742402140192 14.821424243759273 11.306008359392175 1 0 0
818 273 1 0.5897 -4.492054851823717 14.53822610478189 11.733409441396342 1 0 0
819 273 1 0.5897 -3.4118386987485736 14.067261143659811 10.78310725809968 1 0 0
930 310 1 0.5897 -7.229969463069981 15.901089465920903 14.563727815139972 1 0 0
730 244 2 -1.1794 -0.9689592929232793 12.236485351777608 15.990442458449229 0 0 0
679 227 2 -1.1794 -3.7431642620619865 14.019201680685448 14.50167610053075 0 0 0
783 261 1 0.5897 -8.399819073359996 14.128879732429512 16.849436934666635 1 0 0
684 228 1 0.5897 -0.518180817672163 14.9071351468812 14.111204261040907 0 0 0
682 228 2 -1.1794 -1.0898692641159355 14.142157154224748 14.045793454800084 0 0 0
844 282 2 -1.1794 0.5987788202737363 16.297068164952428 14.438896299271825 0 0 0
683 228 1 0.5897 -0.8332695524331566 13.586972716227962 14.78209273319666 0 0 0
926 309 1 0.5897 -4.7395565733496685 15.558421236013869 14.412467500192 1 0 0
774 258 1 0.5897 -5.369675018479244 12.294892572151365 9.774434108136791 1 0 0
876 292 1 0.5897 -2.246203647338114 15.668192358035975 16.856172231283324 0 0 0
681 227 1 0.5897 -3.7318078596062607 13.692638930393095 15.401329292799373 0 0 0
907 303 2 -1.1794 -5.675738746175455 15.767404382627653 17.72331971009295 0 0 0
925 309 2 -1.1794 -5.47270178527892 16.153541946879386 14.255674035191355 1 0 0
680 227 1 0.5897 -2.8200946724456575 14.138033870494102 14.277749866812412 0 0 0
908 303 1 0.5897 -6.262868844139035 15.335935776227222 17.10268939652815 0 0 0
728 243 1 0.5897 -2.9305941491610126 11.956311443407337 12.385108959370921 0 0 0
1005 335 1 0.5897 -4.762897792069996 15.9075364237069 10.214629500327991 1 0 0
715 239 2 -1.1794 -3.5630256977175545 12.705923082099154 16.91032788413017 0 0 0
716 239 1 0.5897 -3.7250013244139364 13.145769267773417 17.744760041654864 0 0 0
871 291 2 -1.1794 -1.7223603252761146 16.561639917997326 12.290346426724186 0 0 0
874 292 2 -1.1794 -3.0485724358823587 16.16981945433485 16.71186350141989 0 0 0
736 246 2 -1.1794 -0.8841675553676049 14.855301667033666 17.75752595994267 0 0 0
912 304 1 0.5897 1.3874545137786374 15.162235978693023 11.581315888450058 0 0 0
773 258 1 0.5897 -6.357610603241088 12.835975378828012 10.785811266039524 1 0 0
909 303 1 0.5897 -4.906350265552098 16.000569310457003 17.203706444885526 0 0 0
781 261 2 -1.1794 -7.514713926275922 13.821270880701674 16.65392319766775 1 0 0
782 261 1 0.5897 -7.237289808550646 13.367062414173914 17.44947487684238 1 0 0
875 292 1 0.5897 -2.8625600284586277 16.702910232738965 15.938889101826353 0 0 0
717 239 1 0.5897 -2.609434539027175 12.64723540562849 16.851035281964577 0 0 0
831 277 1 0.5897 -7.306218398818876 12.039615388317916 13.998359397869857 1 0 0
688 230 2 -1.1794 2.1570971803787433 12.179667117159411 9.763508124759708 0 0 0
738 246 1 0.5897 -0.08428813935251345 14.591713933302684 17.302614362730772 0 0 0