LAMMPS data file via write_data, version 30 Jul 2021, timestep = 26500000

972 atoms
2 atom types
648 bonds
1 bond types
324 angles
1 angle types

0.07549723156345856 19.924503768429265 xlo xhi
0.08197003156102767 19.918030968415053 ylo yhi
0.14048508211746835 20.559512917886188 zlo zhi

Masses

1 1.008
2 15.999

Pair Coeffs # lj/cut/tip4p/long/omp

1 0 0
2 0.21084 3.1668

Bond Coeffs # harmonic/omp

1 450 0.9572

Angle Coeffs # harmonic/omp

1 55 104.52

Atoms # full

10 4 2 -1.1794 1.1684988223273123 4.141663109789037 4.074779037948631 0 0 0
11 4 1 0.5897 1.2220319110804867 3.352312523105295 3.5359512588400586 0 0 0
31 11 2 -1.1794 1.1651217239026512 2.067598982098202 2.2243121174118294 0 0 0
33 11 1 0.5897 1.7429663034026417 2.1767873532741264 1.469025222467301 0 0 0
23 8 1 0.5897 2.534158308272846 0.8765518710728847 4.178440511538568 0 0 0
12 4 1 0.5897 2.0613353276846453 4.276232431036151 4.392682834929357 0 0 0
16 6 2 -1.1794 3.990996892344269 4.112358334720193 3.7830331645754414 0 0 0
18 6 1 0.5897 4.1582519400724145 3.1919880226608064 3.5799884349565914 0 0 0
4 2 2 -1.1794 4.208441340116541 1.39079440397473 3.3063505903659345 0 0 0
17 6 1 0.5897 4.279597721947811 4.5864571193860515 3.003158137491839 0 0 0
6 2 1 0.5897 4.842391673041975 1.0092413563279625 3.913648152969567 0 0 0
114 38 1 0.5897 3.401678401974435 7.772164789243618 3.9156281139753806 0 0 0
22 8 2 -1.1794 1.930054536136792 0.7871777407170911 4.915571918592272 0 0 0
110 37 1 0.5897 1.976430128622617 9.055100184742923 0.705741076074558 0 0 0
5 2 1 0.5897 4.2161278155353905 0.803095067428526 2.5508266921478095 0 0 0
113 38 1 0.5897 4.893672922700934 7.7163482755575865 4.166592091005738 0 0 0
15 5 1 0.5897 4.702672976957019 6.423849295147541 2.123884980984373 0 0 0
14 5 1 0.5897 4.099458907759402 5.6221905186643815 0.9900918734334353 0 0 0
20 7 1 0.5897 0.965247675503178 5.278029195294642 2.7039120030696946 0 0 0
112 38 2 -1.1794 4.246288497480327 7.94422762374692 3.4993179430225614 0 0 0
126 42 1 0.5897 4.111841783761288 9.65660626683975 3.6734409430008617 0 0 0
141 47 1 0.5897 0.9500603221531482 7.917049581956777 2.3251513338077383 0 0 0
19 7 2 -1.1794 0.8235761998156805 5.931068376393795 2.0185455795606084 0 0 0
132 44 1 0.5897 0.8903605565564873 7.483592598091209 4.910740893984335 0 0 0
140 47 1 0.5897 1.0074532952960986 9.381848474901584 2.7034089519408506 0 0 0
674 225 1 0.5897 2.1194658990756845 5.57134305954229 0.6489377738095685 0 0 1
139 47 2 -1.1794 0.8071360988529052 8.795807861545315 1.9735463765695427 0 0 0
13 5 2 -1.1794 4.8071711419110885 5.607858749501569 1.6344834997261815 0 0 0
32 11 1 0.5897 0.2865228194895171 2.2268575500484675 1.8793455947637447 0 0 0
236 79 1 0.5897 1.0507024369934632 0.3090108138540491 2.050073327021891 0 1 0
111 37 1 0.5897 3.402406741161866 9.169178479999278 0.21006166604522994 0 0 0
130 44 2 -1.1794 1.8423760904713835 7.492937950227769 4.811166206119831 0 0 0
131 44 1 0.5897 2.1358720969372134 6.685991007607275 5.234226386105321 0 0 0
325 109 2 -1.1794 2.624233556925864 2.6049205072666095 6.790276443365764 0 0 0
326 109 1 0.5897 2.472194077350583 1.9104084394511474 6.149369498908672 0 0 0
327 109 1 0.5897 3.538529886101156 2.4946189314578966 7.051419228962903 0 0 0
355 119 2 -1.1794 1.0841488503563728 2.0979367756469243 8.996848559509903 0 0 0
356 119 1 0.5897 1.6629890293259864 2.32012178842923 8.267564732378084 0 0 0
27 9 1 0.5897 2.5579229186742785 4.442047904759067 6.477063857702899 0 0 0
102 34 1 0.5897 0.18835873494470773 0.9250896804131749 5.440518713135013 1 0 0
337 113 2 -1.1794 4.375006884624914 5.983308446826086 8.590211397447902 0 0 0
330 110 1 0.5897 4.319720885669383 1.124292855118809 9.4442892250338 0 0 0
433 145 2 -1.1794 2.5146506332226504 9.029780848927816 6.99739221044944 0 0 0
438 146 1 0.5897 4.171040142769898 8.847102699135208 10.044378629554515 0 0 0
357 119 1 0.5897 0.20303897326469703 2.271278652125905 8.665347535086365 0 0 0
344 115 1 0.5897 1.0287044054228862 5.330670501236791 9.45182505794886 0 0 0
26 9 1 0.5897 1.7277677869308254 5.503901880987189 7.166513427658023 0 0 0
25 9 2 -1.1794 2.4248514811208106 5.388972977097711 6.520629428261642 0 0 0
468 156 1 0.5897 4.299919898453642 9.060327778935463 7.2141895009241885 0 0 0
343 115 2 -1.1794 0.7920218271420724 5.7567594862460405 8.627997090590545 0 0 0
437 146 1 0.5897 4.114051167468049 7.390115457366839 9.637039115155906 0 0 0
464 155 1 0.5897 1.378311205652028 8.715311386326968 8.331494614592659 0 0 0
342 114 1 0.5897 4.18397018322667 5.018235624167603 10.197416757201754 0 0 0
339 113 1 0.5897 3.9146314835451235 5.767212411097136 7.779268067393126 0 0 0
463 155 2 -1.1794 0.8182530912153103 8.430244981350816 9.053544644790412 0 0 0
345 115 1 0.5897 0.7471817372047612 6.688264367057405 8.843796782113518 0 0 0
435 145 1 0.5897 2.3193739215132854 8.57541355075769 6.177831124914928 0 0 0
328 110 2 -1.1794 4.109092014396727 1.7795738593002874 10.10950734063482 0 0 0
561 187 1 0.5897 1.3536908521376025 0.16851865526415474 8.977116495366781 0 1 0
335 112 1 0.5897 1.2315205137765042 3.328795460785972 10.238377565174074 0 0 0
443 148 1 0.5897 1.1238115355824831 9.831541689765384 10.12352683353291 0 0 0
434 145 1 0.5897 2.5022096499476123 9.958476837012908 6.76579811994612 0 0 0
649 217 2 -1.1794 2.7452068428013354 2.4205399099908464 14.015314331416981 0 0 0
650 217 1 0.5897 2.695755831853685 1.6864438482330837 13.402999762253145 0 0 0
348 116 1 0.5897 2.6720246222521156 1.0726033866380158 11.110579471720513 0 0 0
651 217 1 0.5897 2.0766709249747084 2.2296793014526406 14.673287423145359 0 0 0
346 116 2 -1.1794 2.2323846729680397 0.609231944403367 11.823513131443516 0 0 0
683 228 1 0.5897 4.61105172038566 2.759781817974057 14.58294528386269 0 0 0
350 117 1 0.5897 2.452253201768063 4.25154924201362 13.579794254391816 0 0 0
347 116 1 0.5897 1.3471773984373046 0.9732903468677856 11.836499177342976 0 0 0
334 112 2 -1.1794 1.2380207810354402 4.119409905236364 10.777960906524665 0 0 0
329 110 1 0.5897 4.744718706076281 1.624995042669086 10.808347566189456 0 0 0
792 264 1 0.5897 4.649739163459505 9.007044909177615 14.240388592119983 0 0 0
436 146 2 -1.1794 4.243640454207968 7.95955525950346 10.395461523054909 0 0 0
789 263 1 0.5897 1.6420025225284618 8.681219977973635 15.44296897432237 0 0 0
349 117 2 -1.1794 2.5764922601255655 5.200489658798182 13.56095863182553 0 0 0
351 117 1 0.5897 3.3724272846195023 5.34851699965497 14.071728946414988 0 0 0
668 223 1 0.5897 1.1414197272476214 5.774084219792052 14.739295523026637 0 0 0
757 253 2 -1.1794 2.674619366566074 9.262534391080147 14.129762131297637 0 0 0
759 253 1 0.5897 2.298009587188942 8.790345708410126 13.387157015137761 0 0 0
455 152 1 0.5897 2.8417580442975128 7.535813589433839 11.446147447937486 0 0 0
456 152 1 0.5897 2.3200393670347146 6.519088904095357 12.4391676744558 0 0 0
454 152 2 -1.1794 2.092765928830758 7.344292470875111 12.010626310574082 0 0 0
336 112 1 0.5897 2.164343581988119 4.278446791444763 10.959523589604048 0 0 0
533 178 1 0.5897 0.27500235012727686 7.70884714177113 12.075941907500416 1 0 0
340 114 2 -1.1794 4.028691549595252 4.401831472955573 10.913091539434026 0 0 0
341 114 1 0.5897 4.101422093086515 3.538438691431263 10.506241214996283 0 0 0
658 220 2 -1.1794 1.3170888883260279 4.073043184759712 17.35144936745247 0 0 0
664 222 2 -1.1794 4.026866723974262 3.948711747163153 17.33612820450884 0 0 0
671 224 1 0.5897 2.137745263510999 1.5671633002117091 18.96782247351299 0 0 0
653 218 1 0.5897 3.5086044494036877 0.9828910986666034 17.319731345357724 0 0 0
670 224 2 -1.1794 2.0575009718785777 0.9077726761052981 18.278595086700257 0 0 0
652 218 2 -1.1794 4.307082971522122 1.215678955947874 16.845866738016834 0 0 0
672 224 1 0.5897 1.1139665378608827 0.7960503767084695 18.162020504098358 0 0 0
665 222 1 0.5897 3.08281752084788 4.066646841380271 17.441856116366957 0 0 0
666 222 1 0.5897 4.128314660146194 3.0274776738509375 17.09673799770975 0 0 0
681 227 1 0.5897 0.9490905099656235 2.536463423471659 16.49950221822411 0 0 0
654 218 1 0.5897 4.407663801169236 0.5247007820788967 16.1911180361285 0 0 0
659 220 1 0.5897 0.6367899778413014 4.134978526924115 18.022012195777265 0 0 0
662 221 1 0.5897 4.323958972646689 5.142993588865063 16.083318793625423 0 0 0
660 220 1 0.5897 1.0741299517902845 4.732432392057142 16.701500233745925 0 0 0
761 254 1 0.5897 4.067796175341436 9.062843659648388 16.784534431795638 0 0 0
787 263 2 -1.1794 0.92054830322008 8.489211170941884 16.042069073463715 0 0 0
675 225 1 0.5897 2.6018092611590053 5.932831463818035 19.67920614585395 0 0 0
788 263 1 0.5897 1.013172678145554 9.133806476176952 16.743627560204875 0 0 0
760 254 2 -1.1794 4.02351643351362 8.12221355168333 16.95638582715422 0 0 0
778 260 2 -1.1794 2.120112245700121 7.212495166060531 18.564694310800466 0 0 0
780 260 1 0.5897 2.5682609391340727 7.588371604049886 17.806964915401416 0 0 0
779 260 1 0.5897 2.1695374405699437 7.893935838820724 19.235116502001286 0 0 0
679 227 2 -1.1794 0.7211009303785907 1.8879078777838503 15.833434294512035 0 0 0
858 286 1 0.5897 0.310554259214001 7.144174013877242 18.547896883520234 1 0 0
669 223 1 0.5897 0.7022742366656649 6.777794821339284 15.784150863263735 0 0 0
667 223 2 -1.1794 0.5531392404454102 5.880192339757013 15.486923419787479 0 0 0
2 1 1 0.5897 2.476666778998096 3.4401961761142585 20.147676367964856 0 0 -1
663 221 1 0.5897 4.290970378835079 6.656298014202682 16.055520661380754 0 0 0
673 225 2 -1.1794 2.7420193361185854 5.307619710420366 20.39034376814712 0 0 0
1 1 2 -1.1794 2.6144777186039723 2.5449841001080613 20.457300737107396 0 0 -1
762 254 1 0.5897 4.631418091089827 7.982015542651814 17.68239671948871 0 0 0
109 37 2 -1.1794 2.494119835612046 9.163401009679703 20.326930108858484 0 0 -1
3 1 1 0.5897 3.564868823557627 2.461833619244231 20.535844431200346 0 0 -1
661 221 2 -1.1794 4.479307856467183 5.893092186757981 15.509336058554341 0 0 0
240 80 1 0.5897 2.6943314858763947 13.83015167465707 4.427627519459909 0 0 0
129 43 1 0.5897 0.9046648533978606 13.549404832866042 2.037552865825039 0 0 0
120 40 1 0.5897 1.0263851454542756 11.39144303462237 3.0752675822994306 0 0 0
118 40 2 -1.1794 1.228788647838062 10.758591253583383 3.764323204420152 0 0 0
119 40 1 0.5897 2.1765952905563735 10.825374829475214 3.8806544974375567 0 0 0
127 43 2 -1.1794 0.7136611708250199 12.634676567541014 1.8300896168653364 0 0 0
124 42 2 -1.1794 4.054536327612613 10.61174837609784 3.699822931141776 0 0 0
222 74 1 0.5897 4.275415702216795 13.64041103980042 2.563298937399306 0 0 0
123 41 1 0.5897 3.977073911370193 12.095656803336674 0.9614737843857368 0 0 0
220 74 2 -1.1794 4.037063404474793 14.233454737906055 3.275865578713582 0 0 0
783 261 1 0.5897 1.8712075823227674 12.227797732388018 0.36618811970929127 0 0 1
247 83 2 -1.1794 1.1110989426197182 15.24636807122618 2.471140151155821 0 0 0
229 77 2 -1.1794 4.5965259948410555 19.203257243319445 1.636676330524989 0 0 0
125 42 1 0.5897 4.609661599239724 10.86519946493904 4.43730721465834 0 0 0
890 297 1 0.5897 2.002271847202101 18.925249901944856 0.3013147274495544 0 0 1
226 76 2 -1.1794 1.6835296863905327 17.54753757396387 3.8577827613646476 0 0 0
221 74 1 0.5897 4.103164640728428 15.108056109774937 2.8924927026136524 0 0 0
230 77 1 0.5897 4.173493476964307 19.03776296632398 0.7941032388139374 0 0 0
235 79 2 -1.1794 0.94735140515848 19.221629047922153 1.8201816431584472 0 0 0
234 78 1 0.5897 3.4420067786283064 17.12799618450751 3.5925486429541564 0 0 0
248 83 1 0.5897 1.1735552944862786 15.892855849681354 3.1742899646939113 0 0 0
228 76 1 0.5897 1.0118096582008789 17.667677354728266 4.529091487842643 0 0 0
227 76 1 0.5897 1.4260372450591765 18.140499088383322 3.1518384737618477 0 0 0
233 78 1 0.5897 4.548525803057427 17.641699081922326 2.6960049582255325 0 0 0
249 83 1 0.5897 1.7691167244060837 15.521754486728195 1.8328071410351674 0 0 0
232 78 2 -1.1794 4.348878885529151 16.95920886106459 3.336801044370682 0 0 0
122 41 1 0.5897 4.410798505514496 11.572858630505895 2.3144509776497615 0 0 0
238 80 2 -1.1794 2.059560406586077 13.723815243467941 5.136182168378028 0 0 0
219 73 1 0.5897 3.614734981196631 15.909094801453222 0.344987865390708 0 0 0
121 41 2 -1.1794 4.6714045508708875 12.173115927890638 1.6158451984867037 0 0 0
317 106 1 0.5897 0.30629421773088694 13.856385022420909 5.177351604915225 1 0 0
217 73 2 -1.1794 2.6648024696633037 16.005660445179238 0.2770794331398001 0 0 0
133 45 2 -1.1794 2.438620359756995 11.758431428343377 6.981346544607973 0 0 0
134 45 1 0.5897 1.7544507810581482 12.117156895603994 7.546614794084074 0 0 0
135 45 1 0.5897 3.257998795337865 12.000121153031174 7.413226418272273 0 0 0
453 151 1 0.5897 1.0241408892779882 11.862716360791232 9.539588056897264 0 0 0
451 151 2 -1.1794 0.8397522202547623 12.612075029874191 8.973249895870332 0 0 0
450 150 1 0.5897 4.195320083184108 11.479738532555066 9.475580678954502 0 0 0
446 149 1 0.5897 4.366704022507298 13.544621948113623 8.869603865302839 0 0 0
243 81 1 0.5897 2.277717398264317 18.82379844335418 7.321814727742847 0 0 0
239 80 1 0.5897 2.3641347225652183 12.95468804321375 5.617804691980153 0 0 0
573 191 1 0.5897 0.9712533267580609 14.50107504587894 9.242769070958555 0 0 0
559 187 2 -1.1794 1.2279105668458332 19.08845442011144 8.729784065404747 0 0 0
24 8 1 0.5897 2.2444454402521474 19.854616635446995 5.391658816501161 0 -1 0
572 191 1 0.5897 1.1087811261139806 15.864803171176906 9.885668094362437 0 0 0
541 181 2 -1.1794 2.362342691166801 15.885308042959966 6.785081476439918 0 0 0
571 191 2 -1.1794 0.8646069427813665 15.435683716253099 9.065606698186402 0 0 0
555 185 1 0.5897 4.204377360600927 19.102015067948024 7.72994934328452 0 0 0
558 186 1 0.5897 4.229756193308015 17.939714072836583 9.854088667791288 0 0 0
543 181 1 0.5897 2.2161096253523787 15.119510633577317 6.229745470280621 0 0 0
576 192 1 0.5897 4.16839682626351 15.632443264085364 7.315954004304261 0 0 0
560 187 1 0.5897 0.2836492491766661 19.00291554704351 8.597959033269364 0 0 0
542 181 1 0.5897 1.7095803156411729 15.805503585884434 7.4806598811813805 0 0 0
241 81 2 -1.1794 2.8825113602158057 18.63684210458421 6.603793005311976 0 0 0
242 81 1 0.5897 2.828000852991436 17.688603279047065 6.48483278787472 0 0 0
553 185 2 -1.1794 4.6863388994622674 19.304137552357247 8.53189960316086 0 0 0
551 184 1 0.5897 1.3492279555429347 18.030488099705163 10.15116792567089 0 0 0
544 182 2 -1.1794 4.052727302332116 14.65572808997738 10.176821065845344 0 0 0
445 149 2 -1.1794 4.6505610009482385 12.76158685028683 8.397841005033682 0 0 0
557 186 1 0.5897 4.322328111500131 16.469450283951293 10.203048191934167 0 0 0
448 150 2 -1.1794 4.069073888768515 10.815138050288148 10.152809332138244 0 0 0
457 153 2 -1.1794 2.6278232579364778 11.891338767900766 13.303304500888824 0 0 0
458 153 1 0.5897 1.9132299521708105 12.045832291691587 13.92119530914551 0 0 0
459 153 1 0.5897 3.4201005702778926 12.114813802854506 13.791839035667435 0 0 0
562 188 2 -1.1794 1.9423953679649135 13.902113565066331 11.625940820690568 0 0 0
563 188 1 0.5897 2.2125091322406867 13.106239778558615 12.08409389569281 0 0 0
449 150 1 0.5897 4.6005322347901965 11.118564751118413 10.888851204360869 0 0 0
442 148 2 -1.1794 1.3369155887615238 10.608314613973413 10.640708617777197 0 0 0
556 186 2 -1.1794 4.29334529405519 17.340857524969817 10.598128424087644 0 0 0
444 148 1 0.5897 2.292501196686455 10.658792972283162 10.615363191768344 0 0 0
769 257 2 -1.1794 4.778065826325862 12.737992040367999 14.877164213052916 0 0 0
564 188 1 0.5897 2.099289294552279 14.60622161294468 12.255133676090036 0 0 0
758 253 1 0.5897 2.535591596147222 10.186560000864047 13.922087374826157 0 0 0
566 189 1 0.5897 2.4407010755512943 17.58226008002065 13.511824184783906 0 0 0
550 184 2 -1.1794 1.5906770569005986 17.54409240689213 10.939444242407227 0 0 0
867 289 1 0.5897 2.218876674177482 15.371309289581355 14.366179504592864 0 0 0
866 289 1 0.5897 3.5314279183124233 15.771515012802498 13.7265348695847 0 0 0
879 293 1 0.5897 4.087020403179107 18.806163881380247 14.551459701365644 0 0 0
565 189 2 -1.1794 2.5739783905180844 18.505993077167055 13.724510204233288 0 0 0
885 295 1 0.5897 0.9588863917866891 18.715637166108017 14.618998868719245 0 0 0
865 289 2 -1.1794 2.5865342768392385 15.762185657684448 13.573514185913439 0 0 0
552 184 1 0.5897 2.545489282156706 17.486495504090836 10.902892930099876 0 0 0
567 189 1 0.5897 2.3890435657711135 18.96945420647809 12.907647360783406 0 0 0
545 182 1 0.5897 3.241571077562131 14.450482169222639 10.64180928867992 0 0 0
620 207 1 0.5897 0.119537564291847 17.682733886085224 11.980141228726206 1 0 0
642 214 1 0.5897 0.10636268019754745 13.81494762552792 11.613359155162067 1 0 0
546 182 1 0.5897 4.748126390312662 14.38095345472863 10.77449824773334 0 0 0
777 259 1 0.5897 0.8957082144633469 13.181049447172674 15.420223234521542 0 0 0
775 259 2 -1.1794 0.6928781676385681 12.280794723716546 15.165897513256647 0 0 0
883 295 2 -1.1794 0.24081038900648274 18.995761153685304 15.186624602048889 0 0 0
896 299 1 0.5897 0.20024814494806265 15.187657034443673 14.978617570879546 0 0 0
877 293 2 -1.1794 4.733969521505982 18.888585367726773 15.252144415974941 0 0 0
888 296 1 0.5897 2.420513620056078 13.428477287553966 19.026211026156044 0 0 0
768 256 1 0.5897 1.1359604051897016 11.439156716401929 16.748245674169073 0 0 0
773 258 1 0.5897 3.226824018240235 10.952536361352427 17.33715094645997 0 0 0
766 256 2 -1.1794 1.3952115162027525 10.872670020288584 17.47498834244797 0 0 0
886 296 2 -1.1794 1.977956419954292 14.186962261621556 18.64524676394386 0 0 0
772 258 2 -1.1794 4.172296501202305 10.96258368018483 17.187761878097163 0 0 0
774 258 1 0.5897 4.284553860532895 11.488346291142056 16.395776979014027 0 0 0
965 322 1 0.5897 0.20146096014302922 13.934673858803155 18.653187485073136 1 0 0
767 256 1 0.5897 0.8173914742595492 11.126183352416739 18.194797923571162 0 0 0
869 290 1 0.5897 3.2882145039401167 14.384268228660614 17.38957014222642 0 0 0
870 290 1 0.5897 4.782187867038792 14.18839322089927 17.537300038441657 0 0 0
880 294 2 -1.1794 3.8411506524193197 17.232812316414034 17.312507484395127 0 0 0
887 296 1 0.5897 2.133524586775349 14.894735624673146 19.270647798618707 0 0 0
878 293 1 0.5897 4.433505445992256 18.2818208945811 15.92877296805707 0 0 0
876 292 1 0.5897 0.8692427944476095 17.83063552245031 16.625609039111495 0 0 0
868 290 2 -1.1794 4.1130796868264605 14.46309146682934 16.9102981221487 0 0 0
874 292 2 -1.1794 1.0851298871923762 17.20646560238865 17.318483164941366 0 0 0
891 297 1 0.5897 2.427991025229108 19.372721806389098 19.338127001778 0 0 0
875 292 1 0.5897 0.49222462330618455 17.429876198593306 18.03599802199284 0 0 0
881 294 1 0.5897 2.909219410484876 17.225474874251564 17.531055173490262 0 0 0
895 299 2 -1.1794 0.9352967018025682 14.928027571061497 15.534115172591676 0 0 0
897 299 1 0.5897 0.9408355231998126 15.57269481456953 16.241666250467404 0 0 0
882 294 1 0.5897 4.057945169192813 16.31388494273307 17.154861596508827 0 0 0
781 261 2 -1.1794 2.5657586126262477 11.932586816609225 20.19636169795015 0 0 0
889 297 2 -1.1794 2.6897337415086335 18.807263942593714 20.064774832301783 0 0 0
218 73 1 0.5897 2.5365583793699114 16.899271375796225 20.377872248800184 0 0 -1
884 295 1 0.5897 0.4894901994722237 19.874955289391615 15.472015995755042 0 0 0
782 261 1 0.5897 2.469939760121795 10.980529114494715 20.170518520167 0 0 0
771 257 1 0.5897 4.591599059432476 13.471028021643479 15.46380538862707 0 0 0
138 46 1 0.5897 6.992357815150703 7.4489043253082565 5.096159856575219 0 0 0
68 23 1 0.5897 7.931013746401006 1.9643275758228111 1.4200205240874313 0 0 0
175 59 2 -1.1794 7.516495805006077 8.5500843209311 2.357490516357026 0 0 0
47 16 1 0.5897 7.690123550320245 3.2620922981443896 3.1374510660088597 0 0 0
46 16 2 -1.1794 8.096305840296054 3.946759246381514 3.6689873331197416 0 0 0
67 23 2 -1.1794 7.273993561401118 1.80948385551914 2.098727134507138 0 0 0
69 23 1 0.5897 6.449951817196432 2.0962382215867095 1.7049728893379963 0 0 0
48 16 1 0.5897 7.490475575806793 4.074978210281835 4.398931939996282 0 0 0
177 59 1 0.5897 8.24105159591967 8.737072833468744 1.7605358133561888 0 0 0
166 56 2 -1.1794 8.76748610016013 7.800500323152458 5.09010387119078 0 0 0
55 19 2 -1.1794 7.58530192780537 5.891745838981735 1.681988636346224 0 0 0
176 59 1 0.5897 7.478531129719748 7.594423900232671 2.396901828440902 0 0 0
41 14 1 0.5897 9.83406301702048 0.804042450803695 4.078965718281585 0 0 0
711 237 1 0.5897 8.829679366458928 5.60127886490637 0.33225128920799013 0 0 1
34 12 2 -1.1794 5.319141279511171 2.3992382555547103 0.2879773830885811 0 0 0
56 19 1 0.5897 6.6739091640365515 5.763565256341266 1.4188253171015506 0 0 0
143 48 1 0.5897 5.8735040922890205 9.010112789993471 1.2656994160606168 0 0 0
57 19 1 0.5897 7.71280414651162 5.283202909907415 2.4097813744384204 0 0 0
145 49 2 -1.1794 9.191928523862655 9.257577029894417 0.22060640432203052 0 0 0
9 3 1 0.5897 5.3501694119423275 4.303704652977919 4.835863643293807 0 0 0
142 48 2 -1.1794 5.221417109767388 9.05045697717787 0.5661009130230155 0 0 0
149 50 1 0.5897 9.955609186362139 7.90861222692367 3.6286719515092094 0 0 0
37 13 2 -1.1794 9.352921422022916 2.5114166759176793 0.3318478583794373 0 0 0
155 52 1 0.5897 7.780856816146914 9.858366848072961 3.5603739722085312 0 0 0
358 120 2 -1.1794 5.345158247266722 2.4259049499198087 7.238163318914293 0 0 0
391 131 2 -1.1794 7.366596578592054 2.308133649936169 9.096106622758997 0 0 0
362 121 1 0.5897 9.005759419344226 3.949265323519905 6.6756433830913915 0 0 0
361 121 2 -1.1794 9.060575711654678 3.016727673583223 6.884568333813052 0 0 0
167 56 1 0.5897 8.981102788373901 6.986198208976287 5.545684583598297 0 0 0
392 131 1 0.5897 7.993314345740548 2.4772332290661088 8.39260214871345 0 0 0
359 120 1 0.5897 5.960998403664235 2.3882453147795992 7.970020259180677 0 0 0
8 3 1 0.5897 5.771034263577181 3.8546539074535247 6.219037885850946 0 0 0
360 120 1 0.5897 5.586603434505058 1.68446869325414 6.682964268924888 0 0 0
393 131 1 0.5897 7.34663189762484 1.3544272973040687 9.175624287179083 0 0 0
381 127 1 0.5897 7.645310166554017 5.321906142317268 9.265215907255962 0 0 0
499 167 2 -1.1794 7.554194145380915 8.66160907762705 8.858355991197593 0 0 0
379 127 2 -1.1794 7.294647475682209 5.782629698720547 8.50295291705286 0 0 0
467 156 1 0.5897 5.504264464119476 8.331901379797571 6.656476580819768 0 0 0
380 127 1 0.5897 7.334328643209191 6.708444449119642 8.742894080139473 0 0 0
500 167 1 0.5897 7.628672661541697 9.30584870803509 9.562400439496018 0 0 0
501 167 1 0.5897 6.858830868909334 9.00117042655809 8.294912018269809 0 0 0
469 157 2 -1.1794 9.222051841493654 9.726326742373294 6.990471202006637 0 0 0
61 21 2 -1.1794 9.233762868031919 5.746562670658505 6.654414875615048 0 0 0
59 20 1 0.5897 8.694770912376086 1.7414772206401288 5.768048738657416 0 0 0
338 113 1 0.5897 5.297318950660892 5.818765021304122 8.39377084546658 0 0 0
470 157 1 0.5897 8.772316387903174 9.405411990519154 7.772156519837551 0 0 0
168 56 1 0.5897 8.991683502933038 8.490674401527764 5.714338167555657 0 0 0
62 21 1 0.5897 8.51916798699592 5.855303095745471 7.281972392586011 0 0 0
7 3 2 -1.1794 6.018656422104244 4.443916600173968 5.506501487455584 0 0 0
466 156 2 -1.1794 5.257068026511929 9.058646809438033 7.228325460913795 0 0 0
137 46 1 0.5897 6.168123541529737 6.235337653714127 5.47022783374238 0 0 0
28 10 2 -1.1794 5.8257113021685605 0.3418493734025103 5.416721456410506 0 0 0
136 46 2 -1.1794 6.1016108879392075 7.178166671426998 5.318799320578668 0 0 0
363 121 1 0.5897 9.963270343803957 2.8888003336768855 7.176299316081071 0 0 0
60 20 1 0.5897 8.870340898888543 0.23848224861705702 5.72153162114194 0 0 0
29 10 1 0.5897 6.756484526919491 0.5231870143391907 5.285952233660552 0 0 0
58 20 2 -1.1794 8.468896892008216 0.9686448008817362 5.2503871164989295 0 0 0
354 118 1 0.5897 5.891282982007487 1.7205651859952749 12.949514339476346 0 0 0
790 264 2 -1.1794 5.512643219219376 9.400960400265738 14.111729991784602 0 0 0
386 129 1 0.5897 9.036274346695219 4.458778072130152 13.779983972735367 0 0 0
462 154 1 0.5897 5.649905960714494 7.677880257691678 11.407911989915362 0 0 0
331 111 2 -1.1794 5.967216689946305 4.9845676658649865 12.710192868173444 0 0 0
686 229 1 0.5897 8.944888097560026 2.3262463473002977 14.600807921574718 0 0 0
382 128 2 -1.1794 8.60188362067069 0.8469801907673273 11.898358330862482 0 0 0
383 128 1 0.5897 8.843767377711957 1.5786610236000564 12.466166305514216 0 0 0
685 229 2 -1.1794 9.296375873335846 2.672484349373691 13.780534333402748 0 0 0
684 228 1 0.5897 5.6110909883095275 3.6685289663627754 13.90017954773008 0 0 0
353 118 1 0.5897 6.8454528876788805 1.1017329041576172 11.950188402345347 0 0 0
384 128 1 0.5897 9.130832752580046 0.969898196559088 11.110079640960425 0 0 0
372 124 1 0.5897 7.310839679485947 4.641316409295409 11.587119132659616 0 0 0
352 118 2 -1.1794 5.914303672325798 1.186847074130479 12.155233099880247 0 0 0
387 129 1 0.5897 9.125278326400222 5.805404233163918 13.093942263642179 0 0 0
370 124 2 -1.1794 7.929834372150985 4.425021411010136 10.889735207430144 0 0 0
333 111 1 0.5897 6.161545465831543 5.915621303578489 12.602371857710581 0 0 0
794 265 1 0.5897 9.334680171849383 8.27260714652848 13.423333494905226 0 0 0
793 265 2 -1.1794 9.376429097933755 8.936278576641048 14.111841127901117 0 0 0
491 164 1 0.5897 9.720945066458949 7.732608075976054 11.20285472431749 0 0 0
377 126 1 0.5897 9.752483449696815 4.23072652186146 10.65573341910307 0 0 0
461 154 1 0.5897 6.092544279805074 8.338721811318969 12.69603362838865 0 0 0
460 154 2 -1.1794 6.323228446350426 7.637181549833339 12.08701538505787 0 0 0
682 228 2 -1.1794 5.549521595532646 2.8771883269270475 14.43521396825582 0 0 0
385 129 2 -1.1794 9.033324728265953 5.399669920235204 13.95601794592068 0 0 0
492 164 1 0.5897 8.345983963882837 7.317957754331533 11.682087631922014 0 0 0
490 164 2 -1.1794 9.27656169164002 7.2387761112443005 11.892009379832448 0 0 0
791 264 1 0.5897 6.020441159568405 9.12055430721051 14.873174202749162 0 0 0
705 235 1 0.5897 7.713008229016367 5.806591891086051 15.123230128475146 0 0 0
371 124 1 0.5897 7.520129213255975 3.6969222302597413 10.42251403756043 0 0 0
795 265 1 0.5897 9.211912651199036 9.763114916142884 13.658466183798772 0 0 0
332 111 1 0.5897 5.24495654843695 4.818405872770514 12.104362760656429 0 0 0
824 275 1 0.5897 8.120169403750388 8.902994980510307 15.355595237571498 0 0 0
677 226 1 0.5897 5.715029502043244 0.9430986945401475 18.030160077808915 0 0 0
655 219 2 -1.1794 5.864953542539976 4.702234578349989 19.14033933149695 0 0 0
704 235 1 0.5897 6.271257143450914 5.873183416390709 15.580422794454552 0 0 0
144 48 1 0.5897 5.578751950903032 8.495659507259862 20.29173900616734 0 0 -1
702 234 1 0.5897 9.901967536744205 4.068854312942845 17.840067233371766 0 0 0
676 226 2 -1.1794 6.244698809849866 0.7481008347382401 18.803275272077492 0 0 0
716 239 1 0.5897 7.503744233104274 0.9949852942460353 15.885913070703248 0 0 0
657 219 1 0.5897 6.675848137137699 4.477414862028318 18.684035415922356 0 0 0
695 232 1 0.5897 7.845371726149063 3.2843368098426207 17.171630410033295 0 0 0
38 13 1 0.5897 9.321060737957799 1.9781094203357352 19.95662580984645 0 0 -1
694 232 2 -1.1794 8.034961791270618 4.097666700688702 17.639392970503426 0 0 0
708 236 1 0.5897 7.993706589891423 0.7443387881806173 18.596711113371217 0 0 0
706 236 2 -1.1794 8.950581375099171 0.7695835819359808 18.587741998928728 0 0 0
815 272 1 0.5897 8.86674857836539 6.621321094089724 18.974088903874375 0 0 0
814 272 2 -1.1794 8.586500369754207 7.425627324601828 18.537246449761284 0 0 0
696 232 1 0.5897 7.8388170835134225 4.789325099720567 17.00740637222587 0 0 0
703 235 2 -1.1794 7.169209947853608 6.000135139790097 15.88683442918453 0 0 0
823 275 2 -1.1794 7.4344995095894415 8.723109365356057 15.998861816362924 0 0 0
784 262 2 -1.1794 5.894800120528086 7.461290400157212 18.913953093740442 0 0 0
825 275 1 0.5897 7.377631592570896 7.768040463724647 16.028274460406507 0 0 0
786 262 1 0.5897 6.78024028376265 7.489980530794641 18.55134630331349 0 0 0
785 262 1 0.5897 5.728597393075447 6.531291834534407 19.06806357057471 0 0 0
715 239 2 -1.1794 7.651753943913163 1.9404183841865819 15.909001077614205 0 0 0
816 272 1 0.5897 8.796525196339754 8.122258116660685 19.15923129360118 0 0 0
656 219 1 0.5897 5.172029699245117 4.502802042514575 18.51075005301126 0 0 0
35 12 1 0.5897 5.545991712508464 1.7229297152706773 20.06871422829683 0 0 -1
709 237 2 -1.1794 9.489966733414334 5.23861504596067 20.160696998689343 0 0 0
710 237 1 0.5897 9.420259376892904 4.290891423090079 20.275744652032987 0 0 0
36 12 1 0.5897 5.4868059953241675 3.2245550865580603 20.2520261680934 0 0 -1
797 266 1 0.5897 9.884400239571862 7.803807636170243 17.42758820419258 0 0 0
717 239 1 0.5897 6.8706327149347315 2.315616358538872 15.502325157079357 0 0 0
272 91 1 0.5897 7.611833336935017 18.471309912241935 2.3225305159685434 0 0 0
819 273 1 0.5897 8.649165936676527 12.308966338154596 0.5711345058418704 0 0 1
156 52 1 0.5897 8.888026396543719 10.764845241105988 4.054881228260683 0 0 0
154 52 2 -1.1794 7.935547386364688 10.703954801108424 3.981464367753346 0 0 0
163 55 2 -1.1794 7.491001703667175 12.792629920402412 2.153345712481801 0 0 0
165 55 1 0.5897 7.6495326738037805 12.092732681181399 2.7868174496443863 0 0 0
164 55 1 0.5897 6.639656443901124 12.581210184999522 1.770158339168172 0 0 0
231 77 1 0.5897 5.532586587032487 19.11546866701539 1.456631700386893 0 0 0
285 95 1 0.5897 7.587639760239136 14.764857861266618 2.3383840492037113 0 0 0
264 88 1 0.5897 9.332333252992479 17.600785598345905 4.079867955706101 0 0 0
284 95 1 0.5897 7.977980200717045 16.164066132190168 2.7648403863518083 0 0 0
927 309 1 0.5897 8.60414282208586 18.772208363190536 0.4936444058462699 0 0 1
254 85 1 0.5897 8.876664062194008 15.706099684657831 0.7048821555503526 0 0 0
283 95 2 -1.1794 7.687716128741659 15.657123644623812 2.0065349559369614 0 0 0
262 88 2 -1.1794 8.434341904811376 17.709458022908475 3.7666144060936655 0 0 0