LAMMPS (30 Jul 2021)
  using 1 OpenMP thread(s) per MPI task
package omp 0
using multi-threaded neighbor list subroutines
echo both

include		in.partitions
variable        pid world 0
include		in.temp
variable        temperature equal 241.10
variable	tempDamp equal 100.0
include		in.pressure
variable        pressure equal 4000.0
variable        pressureDamp equal 1000.0 # This is 1 ps
include		in.seed
variable        seed world 745823

units		real
atom_style	full
read_restart    restart.lmp.${pid}
read_restart    restart.lmp.0
Reading restart file ...
  restart file = 30 Jul 2021, LAMMPS = 30 Jul 2021
  restoring atom style full from restart
  triclinic box = (-3.2841133 -0.26415833 -0.073511511) to (14.894112 22.844157 19.303510) with tilt (-0.091694249 -6.7515467 -0.056023669)
  4 by 4 by 4 MPI processor grid
  restoring pair style lj/cut/tip4p/long/omp from restart
  restoring bond style harmonic/omp from restart
  restoring angle style harmonic/omp from restart
  1008 atoms
  672 bonds
  336 angles
Finding 1-2 1-3 1-4 neighbors ...
  special bond factors lj:    0        0        0       
  special bond factors coul:  0        0        0       
     2 = max # of 1-2 neighbors
     1 = max # of 1-3 neighbors
     1 = max # of 1-4 neighbors
     2 = max # of special neighbors
  special bonds CPU = 1.530 seconds
  read_restart CPU = 1.885 seconds

include 	in.setup
variable	out_freq equal 1000
variable	out_freq2 equal 10000
variable	out_freq3 equal 1000

timestep	2.0

neigh_modify    delay 7 every 1

include		in.tip4p
# This is TIP4P/Ice

# create groups ###
group ox type 2
336 atoms in group ox
group hy type 1
672 atoms in group hy

# set charges - beside manually ###
set group ox charge -1.1794
Setting atom values ...
  336 settings made for charge
set group hy charge 0.5897
Setting atom values ...
  672 settings made for charge

# ### TIP3P Potential Parameters ###
pair_style lj/cut/tip4p/long/omp 2 1 1 1 0.1577 8.5
pair_coeff 1 1*2 0.000 0.000
pair_coeff 2 2 0.21084 3.1668
bond_style  harmonic
bond_coeff  1 450 0.9572
angle_style harmonic
angle_coeff 1 55 104.52
kspace_style pppm/tip4p/omp 1.0e-5
pair_modify tail yes

thermo          ${out_freq}
thermo          1000
thermo_style    custom step temp pe etotal epair emol press lx ly lz vol pxx pyy pzz pxy pxz pyz enthalpy

restart 	${out_freq3} restart.lmp.${pid} restart2.lmp.${pid}
restart 	1000 restart.lmp.${pid} restart2.lmp.${pid}
restart 	1000 restart.lmp.0 restart2.lmp.${pid}
restart 	1000 restart.lmp.0 restart2.lmp.0


include         in.dump
dump            myDump all atom ${out_freq2} dump.water.${pid}
dump            myDump all atom 10000 dump.water.${pid}
dump            myDump all atom 10000 dump.water.0
dump            myDump2 all dcd ${out_freq2} dump.dcd
dump            myDump2 all dcd 10000 dump.dcd
dump_modify     myDump append yes
dump_modify     myDump2 append yes


variable natoms 	equal  "count(all)"                        # NUMBER ATOMS
variable H      	equal  "enthalpy/v_natoms"                 # ENTHALPY-per-atom
variable Vol      	equal  "vol/v_natoms"                 # volume-per-atom
fix AVG all 		ave/time ${out_freq} 1 ${out_freq} v_Vol v_H file vol_enthalpy.dat
fix AVG all 		ave/time 1000 1 ${out_freq} v_Vol v_H file vol_enthalpy.dat
fix AVG all 		ave/time 1000 1 1000 v_Vol v_H file vol_enthalpy.dat



fix 		1 all shake 1e-6 200 0 b 1 a 1
       0 = # of size 2 clusters
       0 = # of size 3 clusters
       0 = # of size 4 clusters
     336 = # of frozen angles
  find clusters CPU = 0.875 seconds
fix             2 all nph tri ${pressure} ${pressure} ${pressureDamp}
fix             2 all nph tri 4000 ${pressure} ${pressureDamp}
fix             2 all nph tri 4000 4000 ${pressureDamp}
fix             2 all nph tri 4000 4000 1000
fix             3 all temp/csvr ${temperature} ${temperature} ${tempDamp} ${seed}
fix             3 all temp/csvr 241.1 ${temperature} ${tempDamp} ${seed}
fix             3 all temp/csvr 241.1 241.1 ${tempDamp} ${seed}
fix             3 all temp/csvr 241.1 241.1 100 ${seed}
fix             3 all temp/csvr 241.1 241.1 100 745823


run             250000
PPPM initialization ...
  extracting TIP4P info from pair style
  using 12-bit tables for long-range coulomb (../kspace.cpp:340)
  G vector (1/distance) = 0.382618
  grid = 24 30 36
  stencil order = 5
  estimated absolute RMS force accuracy = 0.0020103705
  estimated relative force accuracy = 6.054171e-06
  using double precision FFTW3
  3d grid and FFT values/proc = 4320 480
Last active /omp style is kspace_style pppm/tip4p/omp
Neighbor list info ...
  update every 1 steps, delay 7 steps, check yes
  max neighbors/atom: 2000, page size: 100000
  master list distance cutoff = 10.8154
  ghost atom cutoff = 10.8154
  binsize = 5.4077, bins = 5 5 4
  1 neighbor lists, perpetual/occasional/extra = 1 0 0
  (1) pair lj/cut/tip4p/long/omp, perpetual
      attributes: half, newton on, omp
      pair build: half/bin/newton/tri/omp
      stencil: half/bin/3d/tri
      bin: standard
Per MPI rank memory allocation (min/avg/max) = 9.350 | 9.359 | 9.366 Mbytes
Step Temp PotEng TotEng E_pair E_mol Press Lx Ly Lz Volume Pxx Pyy Pzz Pxy Pxz Pyz Enthalpy 
  250000    246.47007   -4836.8222   -4343.8516   -4836.8222            0    3351.7961    18.178226    23.108316    19.377021    8139.6699    4274.6991    3109.8244    2670.8647   -176.77313    654.74174   -1137.3808   -3945.9641 
  251000    251.63836   -4882.2911   -4378.9833   -4882.2911            0    4542.2625    17.907446     22.95566     19.58467     8050.812    5501.3902    4322.5355    3802.8616   -1803.6625   -983.64942   -632.80132   -3845.6634 
  252000    236.40491    -4845.103    -4372.264    -4845.103            0    3732.1604    18.190328    23.031535    19.367123    8113.8787    3369.6597    4291.3751    3535.4464   -1027.2809   -58.279793   -629.83299   -3930.6277 
  253000    227.26706   -4836.5568   -4381.9945   -4836.5568            0    2647.7958     18.09325    23.089763    19.466029    8132.3005    3311.4531    1731.2753    2900.6591    1160.8179   -1171.1038    609.12467   -4067.9626 
  254000    231.33092   -4873.5198   -4410.8294   -4873.5198            0    3786.3828    18.106485    22.875418    19.474605    8066.2532    4998.3021    3755.1358    2605.7106   -1342.0853    298.43233   -2227.0013   -3965.4067 
  255000    237.32514   -4848.4513   -4373.7717   -4848.4513            0    2631.4001    18.325878    22.864923    19.512414    8176.0872    2472.4149    2779.3554    2642.4299    302.64924    1035.0207    1656.4532   -4060.0039 
  256000    241.92364   -4841.5447   -4357.6675   -4841.5447            0    4495.0642    18.137696     22.83503    19.522479    8085.7194    4576.6284    4390.2207    4518.3436   -1633.1961   -167.20451   -1088.6901   -3827.6009 
  257000    243.50343   -4867.8309   -4380.7939   -4867.8309            0    4283.3865    18.285465     22.78196    19.372146    8070.0242    3891.5929    4634.3931    4324.1734   -310.86725   -1317.5018     1207.712   -3876.6692 
  258000    244.50866   -4863.1076   -4374.0601   -4863.1076            0    3551.2348    18.112965    22.789365    19.597629    8089.5674    2997.4632    5020.0854    2636.1558   -2021.8483    662.45051   -1209.2625   -3955.0924 
  259000    251.41281   -4843.4712   -4340.6145   -4843.4712            0    5032.9328    18.289197    22.646098    19.534129    8090.6251    4720.4201    5624.5972    4753.7812    492.59265   -597.69734    866.70933   -3746.7613 
  260000    254.14826   -4866.9327   -4358.6048   -4866.9327            0    3479.9356    18.331704    22.802046    19.350298    8088.4311    3012.9514    2933.0731    4493.7825   -472.78874   -802.48673   -391.93828   -3948.1065 
  261000    240.54874   -4864.2405   -4383.1133   -4864.2405            0    3573.6915    18.248186    22.886583    19.458135    8126.4686    2515.9234      4075.16    4129.9911    626.77056    1245.6228    2593.3935   -3959.5729 
  262000    242.64406    -4818.312   -4332.9939    -4818.312            0     5371.324     18.13613    22.952643    19.475152    8106.9628    3774.5531     6037.899      6301.52   -443.82134    1314.8144    -1463.251   -3697.9329 
  263000    253.77094   -4831.9573   -4324.3841   -4831.9573            0     5474.661    18.021986    22.970825     19.52575     8083.268     6378.328    4279.1172    5766.5378   -80.629325   -857.56358   -59.200331   -3678.9972 
  264000    240.92512   -4863.0946   -4381.2146   -4863.0946            0    2750.7244    18.129013    23.261486    19.318225    8146.6457    2519.8523    1769.9064    3962.4146    361.66455   -795.95022   -370.88762   -4054.3997 
  265000    250.86203   -4877.8356   -4376.0805   -4877.8356            0    4617.5525    17.948808    23.073514    19.417741    8041.7036    2912.4353    5082.8966    5857.3257   -1719.6442    945.76816   -786.41826    -3834.534 
  266000    233.48229    -4834.336   -4367.3426    -4834.336            0    3928.7619    18.062215    22.920379    19.595346    8112.3322    7587.5845    2953.6134    1245.0879   -1406.4923   -162.22734    121.92988   -3902.5306 
  267000    243.99414    -4860.082   -4372.0636    -4860.082            0    6564.3482    18.182302    22.680355    19.437555    8015.6799    6979.8889    6259.4614    6453.6944    442.30131    16.164064    591.32019   -3604.6882 
  268000    238.51136   -4875.6171   -4398.5649   -4875.6171            0    2641.3626    18.285347    22.886829    19.529361    8172.9125    1486.9646    2985.5914     3451.532    258.78375    909.12486   -95.045138   -4083.7316 
  269000    234.95096   -4845.0261   -4375.0951   -4845.0261            0    4150.7387    18.186475    22.739623    19.512944    8069.6478    3178.3723    5088.2807    4185.5632    205.28952   -498.26961   -604.95613   -3886.6049 
  270000    241.34357   -4865.6857   -4382.9688   -4865.6857            0    4126.6672    18.159413     22.84552    19.485503    8083.7796    3500.2679    4396.8822    4482.8514     400.4399    525.96659    809.50373    -3896.461 
  271000    234.89824   -4871.6198   -4401.7943   -4871.6198            0    2913.1097    18.117026    22.912794    19.535841    8109.5558    2688.3788    3792.8777    2258.0727   -118.78219    822.87981   -2271.1524   -4057.2621 
  272000    241.38789   -4859.5389   -4376.7333   -4859.5389            0    2870.7351    18.221398    22.999642    19.482699    8164.9191    2239.9539    2359.7161    4012.5352    325.91233    156.88385    1992.1648   -4034.8948 
  273000    231.12827   -4867.4297   -4405.1446   -4867.4297            0    4311.0597    18.126012    23.119525    19.302685    8089.0753    5093.0109    3442.5221    4397.6461     168.8604    694.10172   -596.81277   -3896.5652 
  274000    246.62284   -4821.5143   -4328.2381   -4821.5143            0    4644.9863    17.895487    23.186725    19.463292    8076.0542    5325.4231    4908.3575    3701.1782     986.1855    527.01172   -80.014671   -3781.1472 
  275000    241.54119   -4831.4958   -4348.3835   -4831.4958            0    3962.4704    18.101629    23.190754    19.325321     8112.585    3861.0786    3825.9789    4200.3536    1193.9515   -417.24068     399.4209   -3879.5689 
  276000    252.40224   -4857.5837    -4352.748   -4857.5837            0    5308.9721    17.977683    23.072891    19.389645    8042.7688    5815.0169    5692.6875     4419.212    2368.2999    391.58163   -701.93534   -3730.0293 
  277000      257.232   -4867.7132   -4353.2174   -4867.7132            0    1622.2791    18.137058    23.115854    19.442637    8151.3955    1993.7154    1230.8141    1642.3077    33.735788    483.12703   -51.241489   -4160.3613 
  278000    236.96435   -4856.9024   -4382.9444   -4856.9024            0    5067.6652    18.112674    23.064862    19.222413    8030.4768    3485.9064    5757.5023    5959.5871    252.99112     540.7303    1183.9296   -3789.4384 
  279000    236.50893   -4852.3617   -4379.3146   -4852.3617            0    4052.2001    18.011967    22.951768    19.519014    8069.2869    5802.7458    3891.6209    2462.2336   -1070.6331   -1545.8435   -644.28015   -3902.4425 
  280000    251.32162   -4852.4175   -4349.7432   -4852.4175            0     3804.174    18.162502    22.957844    19.409072    8093.0374    3018.0809    3654.2616    4740.1794     123.8364   -434.29749    1443.9733   -3900.7417 
  281000    247.46466   -4847.2106   -4352.2507   -4847.2106            0    2289.9298    18.130123    23.064817    19.528541    8166.2101    2619.5992    1886.8141    2363.3759   -854.12053   -205.91826    1371.1861   -4079.5297 
  282000    245.10675   -4855.9975   -4365.7537   -4855.9975            0     3043.774     18.25258    22.903053    19.477952    8142.5593    2246.6887    4706.8312    2177.8022      -1251.6    799.43984    1174.0659   -4004.3029 
  283000    244.38867    -4861.588   -4372.7804    -4861.588            0    5292.6866    18.122025    22.839422    19.394215     8027.199    4600.1274    5497.2267    5780.7056   -786.04896    -521.6335    588.97361   -3753.1738 
  284000    233.89919   -4868.9237   -4401.0964   -4868.9237            0    3299.6466    18.146886    22.856355    19.555284    8110.9779    4519.0118    3138.0308    2241.8971   -2195.5148    27.242771    1095.8474   -4010.7803 
  285000    237.99118   -4884.5201   -4408.5083   -4884.5201            0    3359.6902    18.211168    22.809786    19.443759    8076.7985    2553.9093    3435.6649    4089.4964    530.60364   -663.07092    350.68413   -4012.7643 
  286000    237.08443    -4872.489   -4398.2908    -4872.489            0    3231.8969    18.157499       22.876    19.441405    8075.3951    3831.2792    2439.4616    3424.9499   -311.63713   -1576.3617      1316.42   -4017.6659 
  287000    245.85844   -4857.4457   -4365.6984   -4857.4457            0    5322.6095    17.979176    22.793527    19.591157     8028.629    5424.9104    6863.3336    3679.5844   0.33864578    688.74882   -125.95705   -3742.4777 
  288000    236.05796   -4851.6561    -4379.511   -4851.6561            0     3144.521    18.193892    23.054432    19.382444    8129.9634    2216.2881    2557.8104    4659.4645    638.71565   -191.70949   -241.37588    -4006.674 
  289000    235.91946   -4852.1847   -4380.3167   -4852.1847            0    4199.7678    18.043807    22.968998    19.443622    8058.3735    6505.9525    3064.9628    3028.3879    1153.2356    -801.4775   -1473.7801   -3886.7469 
  290000    236.67409   -4844.3364    -4370.959   -4844.3364            0    3059.6588    18.210574    22.883554    19.576228    8157.8578    3896.1596    3010.0571    2272.7595   -1934.4371   -642.16023   -1024.3528   -4006.9392 
  291000    237.89792   -4845.6796   -4369.8544   -4845.6796            0    3977.1116    18.071042    22.824594    19.520462    8051.4917    2495.5481    4489.4107    4946.3759    976.56507   -773.32794   -727.39615    -3902.851 
  292000    245.96659   -4855.0532   -4363.0896   -4855.0532            0    5642.5488    18.035741    22.982934    19.407665    8044.7539    4994.8053    5886.8673    6045.9736   -353.17127    65.820866   -466.73443   -3701.0805 
  293000    248.47526   -4857.0179   -4360.0367   -4857.0179            0    3732.8012    18.124295    22.966001    19.440705    8092.0492     4187.684     3375.587    3635.1324    542.68563    1275.8173   -1718.9711    -3919.513 
  294000    234.14416   -4871.4159   -4403.0987   -4871.4159            0    4240.3399    18.280568    22.857781    19.338494    8080.6519    3182.7521    4045.4567     5492.811   -1495.8547   -245.90199    773.56453    -3903.383 
  295000    244.10653   -4894.2522    -4406.009   -4894.2522            0    4173.8361    18.069955    22.904139    19.484001    8063.9752     4394.054    5122.9448    3004.5095   -127.70261    2309.7243    1911.4366   -3915.1458 
  296000    234.10459   -4869.1333   -4400.8952   -4869.1333            0    2448.1565    18.166757    23.148268    19.370897    8146.0237    894.47702    2917.2752    3532.7172   -110.34417     452.9105    463.93822   -4110.0508 
  297000    256.93982   -4887.7877   -4373.8763   -4887.7877            0    4632.0097    18.090124     23.01754    19.390754    8074.1189    4884.0215    4695.7017     4316.306    240.03227    -605.0247   -1637.2716   -3828.4444 
  298000    228.84214   -4852.4179   -4394.7053   -4852.4179            0    4274.3183    18.027729    22.902221     19.58826    8087.5037    4478.1539     6155.953    2188.8481    461.64426   -1.6624401    1625.0873   -3890.5582 
  299000    243.10836   -4844.4125   -4358.1657   -4844.4125            0    4986.1273     18.12687    22.909187    19.340279    8031.4737    5391.5041    4326.7632    5240.1146     871.3429   -565.20244    -2086.094   -3774.1366 
  300000    225.96046   -4846.3439    -4394.395   -4846.3439            0    4976.7414    18.120784    23.018451    19.386168    8086.2105    3723.2848    6424.4913     4782.448   -557.22424    1421.9602   -788.66278   -3807.4925 
  301000    257.87414   -4827.1723   -4311.3922   -4827.1723            0    4020.1271     18.02902    23.091308    19.550084    8138.9671    6057.7089    3832.7899    2169.8824    441.50355    30.194631    -1038.079   -3834.2092 
  302000    245.11298    -4885.189   -4394.9327    -4885.189            0    6099.4796    18.283235    22.701899    19.301855    8011.5082    5168.6656     6903.733    6226.0403   -1182.9839   -860.57025   -1216.2208   -3682.2718 
  303000    230.62364   -4873.7031   -4412.4273   -4873.7031            0    4669.1569    18.059401    22.855596    19.550034    8069.4399    4185.7717    6151.1402    3670.5587   -1365.6113    929.36538   -1118.7701   -3862.9399 
  304000     254.2963   -4850.1698   -4341.5458   -4850.1698            0    4711.0957    18.072962    23.080704    19.369689    8079.8079    5383.6004    4318.2196    4431.4672    -1053.042   -129.90049   -1795.0757   -3786.4105 
  305000    241.92487   -4848.4034   -4364.5237   -4848.4034            0    4707.8546    18.055378    23.260848    19.301103    8106.1428    4156.9638    4289.1467    5677.4532    792.70879    288.11925   -17.992588   -3807.9622 
  306000    247.18988   -4828.9048   -4334.4945   -4828.9048            0    2917.9725    17.977402    23.174813    19.506199      8126.73    2077.9944    3175.4695    3500.4536   -56.017918    521.42653   -905.91615   -3988.6563 
  307000    237.69012   -4884.5782   -4409.1686   -4884.5782            0    3433.6157    18.195739     23.02127    19.253013    8064.8757    1889.2465    2773.9506    5637.6501    38.535987    214.32866   -1479.3503   -4005.3138 
  308000    238.02082   -4864.0215   -4387.9505   -4864.0215            0    2021.8369    18.183703    22.949297    19.608695    8182.7711    4047.8208     1282.503    735.18676    317.70856    154.07512    1334.3821   -4146.6699 
  309000    244.01138   -4863.0916   -4375.0387   -4863.0916            0    3187.4509    18.293776     22.92997    19.430428    8150.5927    2917.6536    2678.3476    3966.3514   -288.46978   -616.88706   -169.46662   -3996.1527 
  310000    236.29855   -4856.4355   -4383.8093   -4856.4355            0    5148.2597    18.176798    22.644641    19.548394    8046.2568    4052.9309    6589.3957    4802.4526    347.20656   -10.441908    267.03366   -3779.6795 
  311000    247.14854   -4850.1618   -4355.8342   -4850.1618            0    3399.8525    18.239715    22.664234    19.614914    8108.5931    2216.4575    4836.2811     3146.819   -1701.8345   -309.84342   -88.734975   -3953.7829 
  312000     250.4453   -4832.6907   -4331.7692   -4832.6907            0    4319.5139    18.208274    22.862726    19.484588    8111.2545    4136.9352    4422.8832    4398.7232    -680.7741    97.955144    99.770319   -3820.7952 
  313000     249.3293   -4848.4719   -4349.7825   -4848.4719            0    3509.8949    18.031026    23.050793    19.585795    8140.4327     3355.923    5136.4446    2037.3172   -875.31409    1897.0055    -1656.066   -3933.0882 
  314000    238.99397   -4862.3883   -4384.3709   -4862.3883            0    5349.1195    18.117438    23.140016     19.24551    8068.4452    3904.2237    4634.7954    7508.3394    1275.8141   -180.04628    460.57624     -3754.94 
  315000    236.44563   -4871.0565    -4398.136   -4871.0565            0    5281.4323    17.997517    23.063761    19.338614    8027.2739    5168.5938      5311.91    5363.7929   -440.39445   -307.66023   -735.65199   -3779.8411 
  316000    242.32195   -4824.0503   -4339.3764   -4824.0503            0    3117.5617    18.131945    23.152275    19.383364    8137.0544    3098.1849    3097.9595    3156.5408    1026.0337   -366.14863    -228.9163   -3969.4135 
  317000    225.12333   -4843.5563   -4393.2818   -4843.5563            0    3155.7533    17.993174    23.174392    19.445053    8108.2148    4039.0406    3038.0335    2390.1857    1142.3745   -294.32875    735.51883    -4020.114 
  318000    253.68801   -4879.8347   -4372.4274   -4879.8347            0    4959.2421    18.155781    22.880773     19.42821    8070.8341    3946.3017    5588.0587     5343.366   -871.52372    1023.1033   -795.98105   -3788.7006 
  319000    227.34964   -4872.7768   -4418.0495   -4872.7768            0     3309.502    18.112121    22.906331    19.543615    8108.2988    2763.1018    3609.7899    3555.6143    1277.9173   -402.93879    262.44393   -4026.6968 
  320000    251.13381    -4858.038   -4355.7393    -4858.038            0    5997.7875    18.149426     22.82119    19.435885    8050.1785    7677.0692    5830.9119    4485.3816   -341.42572   -773.25211   -1327.6064   -3651.5775 
  321000    233.89468   -4846.7544   -4378.9361   -4846.7544            0    3015.2689    18.181235    22.910758    19.509206    8126.4792    3483.9113    3931.2551    1630.6405   -78.195852    1031.2387   -494.82183   -4021.5774 
  322000    248.82345   -4821.2224   -4323.5447   -4821.2224            0    2961.5713    18.194843    22.992265      19.5376    8173.3724    3277.2976     2408.223    3199.1934   -637.82444   -317.53837   -6.3151488   -3970.5247 
  323000    232.26523   -4882.3751   -4417.8159   -4882.3751            0    3419.5353     18.24483    22.829129    19.415232    8086.7072    3216.7781    4282.1849    2759.6429   -529.51592    -454.1016   -262.07316   -4014.5285 
  324000    238.95468   -4888.8177   -4410.8788   -4888.8177            0    3369.0735      18.2312    22.706633    19.650279    8134.6092    3338.3693    3900.3739    2868.4773   -427.44056    622.52528    622.85195    -4011.189 
  325000    238.98143   -4865.7491   -4387.7567   -4865.7491            0    1273.7007    18.282194    22.869911      19.5875    8189.7718    2401.7505    1070.3491    349.00249   -1306.3241   -601.82473    281.08436   -4235.6267 
  326000    240.66617   -4848.5587   -4367.1966   -4848.5587            0    4943.4432    18.151065    22.731299     19.58401    8080.3093     4863.165    6320.0128    3647.1518   -1248.4646   -129.81344   -507.97532   -3784.6463 
  327000     231.0871   -4877.2842   -4415.0814   -4877.2842            0    5143.6591    18.097025    22.832655    19.454816     8038.791    5829.0873    4293.8431     5308.047    153.71904   -458.42002     1347.924   -3812.0516 
  328000    255.78759   -4843.5301   -4331.9233   -4843.5301            0    4389.1416    18.096551    23.102775    19.303402    8070.3767    3479.2701    4166.7602    5521.3945   -1418.4897    556.35447    2271.3643   -3815.3294 
  329000    241.46455    -4881.716   -4398.7571    -4881.716            0    2746.3638    18.019939    23.148622    19.519841     8142.443    2808.7218    1927.8158     3502.554   -1736.8889    770.48072   -107.62499   -4072.6287 
  330000    253.27522   -4855.5694   -4348.9876   -4855.5694            0    4002.0155    18.140877    23.170966    19.301749    8113.3288    3442.1592    4099.4744     4464.413     328.5486    1557.4518    231.46477   -3875.4508 
  331000    253.50335   -4882.4951    -4375.457   -4882.4951            0    3158.6782    18.040176    23.005874    19.567696    8121.1813    3145.2891     2711.529    3619.2166    354.22351   -1285.9958   -588.36129    -4001.346 
  332000    233.72058   -4871.2443   -4403.7743   -4871.2443            0    6106.6416    18.049336    22.959885    19.374046    8028.8114    4595.2595    6286.5908    7438.0747   -310.82643     500.9289   -981.85724   -3688.7355 
  333000    253.27349   -4863.8918   -4357.3135   -4863.8918            0    3758.1004    18.082319    22.902418    19.551892    8097.0021     3800.981     4374.388    3098.9323    358.47066    218.25317    730.38147   -3913.5327 
  334000    251.11124   -4841.5996    -4339.346   -4841.5996            0    4958.4693    18.153142    22.777892    19.456507    8045.0768    4363.3739     5971.608    4540.4261   -1047.0805    409.79117    -423.8512   -3757.5728 
  335000    232.17853   -4851.9051   -4387.5193   -4851.9051            0    4471.5189    18.259369    22.670649    19.440202    8047.3052    4370.5653    5271.0227    3772.9686     114.5045    1619.5252    1476.0916   -3862.7343 
  336000    238.32601   -4867.2187   -4390.5372   -4867.2187            0    3400.3587    18.192686    22.857471    19.538592    8124.9045    1945.2416    3258.2573    4997.5772   -324.15033   -979.97808   -467.85113   -3987.6172 
  337000    229.25348   -4856.6524   -4398.1171   -4856.6524            0    4855.3761    18.167059    22.813545     19.55202    8103.4328    5148.1615    5182.9485    4235.0185   -63.330658    251.36372    2100.8383   -3824.3075 
  338000     248.9299   -4871.0264   -4373.1358   -4871.0264            0    4112.4051    18.252793    22.847569    19.386842    8084.9324    3614.5889    4453.6839    4268.9423   -1393.7081    72.742441   -506.44563   -3888.2403 
  339000    226.07155   -4878.3238   -4426.1528   -4878.3238            0    3720.3789    17.922093    22.983703    19.623638    8083.2919    5248.3106    3231.9679    2680.8582   -346.19007   -290.40654   -179.38064   -3987.5703 
  340000    239.75297   -4869.3896    -4389.854   -4869.3896            0    4123.4357    18.156751    23.002248    19.323984    8070.5861    4469.9946    3157.7834    4742.5292   -1192.5245   -724.10902   -370.38772   -3904.5206 
  341000    227.43195    -4841.167    -4386.275    -4841.167            0    4363.0174    18.112095    22.900066    19.538465    8103.9332     5280.633    4860.5108    2947.9085   -234.70481    530.01981   -1002.1969   -3870.6206 
  342000    243.13384   -4869.9652   -4383.6674   -4869.9652            0    5384.4578    18.221378    22.798595    19.303163    8018.9552    3454.3574    5249.7911     7449.225   -1395.0707   -585.92375   -1858.9951   -3753.9646 
  343000    250.91417   -4855.8263    -4353.967   -4855.8263            0     3863.115    18.132236    22.641729    19.716397    8094.4716    3936.4415    2666.7793     4986.124   -492.16802   -521.65142    1684.9725   -3897.9279 
  344000    244.59869   -4869.6736    -4380.446   -4869.6736            0    2882.5928    18.286809    22.855886    19.461733    8134.2495    1521.3568    3169.6855    3956.7362   -193.28162   -490.89004    80.096617   -4038.4849 
  345000     228.9158   -4871.8783   -4414.0184   -4871.8783            0    4820.8242    18.122115      22.6364    19.633893    8054.2046    5927.7913    4371.1898    4163.4914    1153.9389   -427.67252    603.38409   -3847.7533 
  346000    243.20676   -4852.1851   -4365.7416   -4852.1851            0    4629.9078    17.990495    22.979913    19.513832    8067.4088    4919.1274    4238.7555    4731.8403   -188.57424    529.18057   -874.34486   -3821.0103 
  347000    224.62836   -4828.8227   -4379.5383   -4828.8227            0    3935.6197    18.067067     23.29127    19.327328    8133.0353     4860.435    2369.3249    4577.0993   -284.98962   -1091.5658     377.6995   -3912.7266 
  348000    237.56781   -4858.3632   -4383.1982   -4858.3632            0    4608.9151    17.961133    23.112688    19.410783    8057.9994     5621.423    2552.2555    5653.0667    -1904.827   -783.70252    -748.7982   -3841.5693 
  349000    242.77178   -4872.2792   -4386.7056   -4872.2792            0    4897.2726     18.17573    22.921733    19.336055    8055.7723    4482.7029    4171.6944    6037.4206   -229.82517    296.49274     1024.774   -3811.3487 
  350000    233.69754   -4849.7565   -4382.3326   -4849.7565            0    3745.8103    18.219456    22.945554    19.351476    8089.9911    1528.0744    4458.0736    5251.2829   -1192.8123    1277.7125   -1879.4412   -3940.3861 
  351000    236.60241    -4891.269    -4418.035    -4891.269            0    3284.1457     18.17985    22.876757    19.461448    8093.9387    3487.1609     2977.383    3387.8932    1259.5278    161.57187   -1209.3446   -4030.3685 
  352000    240.46317   -4853.6065   -4372.6505   -4853.6065            0    4429.9328    18.344364     22.67331    19.432058    8082.3262    4693.7974     4448.203    4147.7981    1720.2923    236.59944   -1455.4284   -3850.4835 
  353000    252.70253   -4868.9244   -4363.4881   -4868.9244            0    4515.2814    18.043734    22.851657    19.619052    8089.5087    4860.7792    4540.7654    4144.2995   -179.34417   -339.05741     162.7854   -3830.7879 
  354000    249.10806   -4855.0844   -4356.8375   -4855.0844            0    3303.7982    18.083724    23.062289    19.413298    8096.3561     2911.907    3789.9808    3209.5067   -1401.0465    133.40987    1794.1171   -3966.7347 
  355000    250.60026   -4839.2254   -4337.9939   -4839.2254            0    3771.4974    18.126246    23.120413    19.353053    8110.5993    5047.2656     2755.808    3511.4188    652.42384   -1420.7548    1015.1701   -3891.8832 
  356000    237.46267   -4888.3535   -4413.3988   -4888.3535            0    3291.2565     18.08666    23.059469    19.520899    8141.5575    3766.7973    2741.9555    3365.0166   -450.37185   -207.35362   -195.84658   -4022.6073 
  357000    256.68637   -4885.3594   -4371.9549   -4885.3594            0    3683.8509    18.279633    23.110188    19.109036    8072.5312   -159.87875    5476.2373     5735.194    -513.2933    1043.5364    1383.1711   -3938.2567 
  358000    247.64402   -4847.8466   -4352.5279   -4847.8466            0    4747.1153    17.872131    22.985794    19.594246    8049.4164    7000.0823    4681.5171    2559.7465    594.00957   -77.861506     577.6773   -3795.2523 
  359000    245.14881   -4884.9182   -4394.5903   -4884.9182            0    3405.7463    18.187196    22.979365    19.343141    8084.0835    3067.8319    3144.8295    4004.5775    272.10596    216.36394    494.76876   -3993.0594 
  360000    250.26749   -4859.3052   -4358.7393   -4859.3052            0    4043.2571    18.152223    23.003262    19.418255    8108.2932    3339.9894    4309.9862    4479.7957    956.34482   -155.98232    822.97767   -3880.6196 
  361000    267.90633   -4880.8269   -4344.9812   -4880.8269            0    3691.5228    18.056274    22.833429    19.597408      8079.75    5351.0465    3615.1102    2108.4116    419.75977   -170.05783    1479.2906   -3909.9911 
  362000    240.10655   -4847.3361   -4367.0933   -4847.3361            0    4342.1302     18.33097    22.853121      19.3143    8091.1443    3237.2743    4320.3849    5468.7315    209.84485   -919.51652    789.51135   -3854.7174 
  363000    240.71049   -4874.4033   -4392.9526   -4874.4033            0    5898.1648    18.054683    22.587053    19.628816    8004.6722    5905.5477      6447.32    5341.6268    1.7306556    321.79349   -1355.4707   -3704.4012 
  364000    245.55536   -4855.9482   -4364.8072   -4855.9482            0    3149.8784    18.293551    22.824648    19.496588    8140.6809    3024.8757    3976.7127    2448.0468    898.44348    1189.6718   -815.13697   -3990.8427 
  365000    228.09716   -4835.1178   -4378.8954   -4835.1178            0    3875.8283    18.222743    22.910302    19.448345    8119.4611    3295.7584    3783.9626    4547.7641   -1449.6658    1388.9937   -555.95127    -3919.943 
  366000    238.64455   -4883.6396    -4406.321   -4883.6396            0    3514.7399    18.058288    23.042241    19.407972    8075.7238    2636.5238    3153.9068    4753.7892    1047.9176   -473.68246   -22.733862   -3992.3685 
  367000    228.51767   -4867.2821   -4410.2186   -4867.2821            0    4837.9049    18.040498     23.21134    19.234773    8054.4487    4672.7953    4160.3045    5680.6149   -26.686215    519.33604    1192.8462   -3841.9298 
  368000     233.1996   -4870.6569   -4404.2289   -4870.6569            0    4507.2017    17.923831    23.103485    19.481681    8067.4214    6265.1892    3878.0003    3378.4155   -476.02424   -683.19528   -658.16358   -3873.9338 
  369000     236.1428   -4876.3139   -4403.9991   -4876.3139            0    5090.5266    18.191549    22.968639    19.272696    8052.8096     4329.167    5125.1902    5817.2225    2335.9209    444.09896    828.65433   -3806.1577 
  370000    234.71514   -4854.2589   -4384.7996   -4854.2589            0    3399.7493    18.256231    22.934692    19.370994    8110.6553    1908.1499    3456.1383    4834.9598   -76.233798    314.68794   -102.55956   -3982.6583 
  371000    238.32233   -4883.3673   -4406.6932   -4883.3673            0    2903.7276    18.055137    22.915851    19.593036    8106.5956    3355.4837    3009.8945    2345.8047    383.91882     761.4037   -399.35959    -4063.396 
  372000    246.51385   -4841.8839   -4348.8258   -4841.8839            0    4093.0229    18.206248    22.874606     19.39756    8078.3222    4118.4427    4529.0382    3631.5879   -806.01284   -20.921572   -1175.6999   -3866.6102 
  373000    232.37117   -4846.0776   -4381.3065   -4846.0776            0    4421.6768     18.18122    22.800953    19.438429    8058.1841    5775.3391    3724.9643    3764.7269   -75.446995   -440.67677   -520.32413   -3861.6695 
  374000    238.87031   -4841.9233   -4364.1532   -4841.9233            0    5543.6786    18.029378     22.82966    19.559991    8050.9814    5721.8693    5622.3486    5286.8178    548.43509    218.68025    535.34078   -3713.2405 
  375000    259.73427     -4874.32   -4354.8194     -4874.32            0    4805.1988    18.195823    23.012289    19.323569    8091.3099    4248.5107    4498.5783    5668.5075    282.30969    111.42508    118.81316   -3787.7893 
  376000    246.40137   -4885.6926   -4392.8594   -4885.6926            0    3202.3016    18.001185    23.386776    19.247137    8102.8463    3183.1381    1870.6885    4553.0782   -729.47943    356.65181   -294.16482    -4014.438 
  377000    235.09193   -4869.0618   -4398.8489   -4869.0618            0    4256.3741    18.081654    23.146377    19.335165    8092.2458    4650.6598    3507.8034     4610.659   -816.39927    429.18413   -813.53934   -3896.5239 
  378000    239.03804   -4875.2759   -4397.1703   -4875.2759            0    2281.0101    18.014067    23.219864     19.47508    8146.1179    2004.4108    2581.5683    2257.0511   -313.46888    244.66091    182.21952     -4126.18 
  379000    251.46579   -4831.6381   -4328.6754   -4831.6381            0    3899.4011    18.318873    22.854225    19.345809    8099.3871     96.88163    6097.4608     5503.861   -1270.9019   -81.375825   -397.83941   -3868.0733 
  380000    240.60382   -4893.2491   -4412.0118   -4893.2491            0    5300.4118    18.072891     22.74916    19.598203    8057.6655    3966.4966    7430.2365    4504.5024   -1128.0256     352.4954      717.308   -3789.1456 
  381000    235.82543   -4882.3322   -4410.6522   -4882.3322            0    4966.5488    18.231502    22.731403    19.425092    8050.2946    5288.0784    3773.1155    5838.4525    104.12658   -1536.5446    -692.3766   -3827.5531 
  382000    244.64264   -4847.5145    -4358.199   -4847.5145            0    1913.8129    18.163727    23.016011    19.537387    8167.7323    669.02982    2384.0067    2688.4021    120.54315    -238.2286    1754.5548   -4130.2295 
  383000    241.06156   -4840.8657   -4358.7128   -4840.8657            0    4660.6615    18.152883    22.973167     19.43401    8104.5497    5408.9279    4221.2847    4351.7721   -145.05411    442.03772   -730.70018   -3807.8387 
  384000    237.71625   -4884.1955   -4408.7336   -4884.1955            0    3763.6442    18.124095     22.89674    19.423306    8060.3361    4554.5906    4061.5208     2674.821    455.14664    80.345911    -445.1272   -3966.3107 
  385000    237.30986   -4864.9452   -4390.2962   -4864.9452            0    6316.6497    17.996064    23.002098    19.390644    8026.7037    4679.6382    6859.2103    7411.1007   -156.99707   -192.28401   -926.62017   -3650.8613 
  386000    258.75373   -4876.1386   -4358.5992   -4876.1386            0    4333.2717    18.259632    23.048842    19.255426    8103.9035    1886.1943    4609.3205    6504.3003   -319.09018   -445.28852   -506.82407   -3846.4623 
  387000    239.17338   -4869.4191   -4391.0428   -4869.4191            0    5566.2969    17.963913    22.921845      19.4814    8021.7789    6133.5211    5503.5672    5061.8025    2167.0987   -426.55326    273.13149    -3739.845 
  388000    235.06047    -4847.351    -4377.201    -4847.351            0    7561.2895    18.028785    23.009158    19.260705    7989.8636    7673.6445    7093.4975    7916.7266    736.23328    672.81508   -295.93142   -3496.1296 
  389000    240.96994   -4885.4481   -4403.4784   -4885.4481            0    5875.9822    18.065654    23.039614    19.274861    8022.6922    6246.0868     5164.783    6217.0767    -634.2387    864.74309   -256.97263   -3715.9724 
  390000    249.10205   -4865.3141   -4367.0792   -4865.3141            0    2951.9794    18.073877    23.091197    19.525145    8148.7694    5141.4817    2051.1379    1663.3187     538.5867   -120.30373    -699.5844   -4016.2617 
  391000    228.22987   -4849.3511   -4392.8632   -4849.3511            0    2420.1322     18.21197    22.934144    19.512642    8149.9612    1897.4437    2931.9655    2430.9874    83.581967   -1166.3629   -167.21835   -4105.2091 
  392000    232.50473   -4836.0489   -4371.0107   -4836.0489            0    5771.3443    18.035799    22.982189    19.376312    8031.5229    6458.1892     5539.394    5316.4495   -167.89415    -776.9386    202.70986   -3695.0043 
  393000    228.44895   -4845.2532   -4388.3271   -4845.2532            0    2080.4041     17.99683    23.110867    19.526765    8121.6179    3836.7077    2471.8257   -67.320983   -141.45304   -1045.7962    445.41647   -4141.9127 
  394000    246.58927    -4871.598    -4378.389    -4871.598            0    4256.5888     18.09119    23.328126    19.168002    8089.5398    4751.9203     3681.762    4336.0841    -957.3574    860.74455   -1636.0736   -3876.2067 
  395000    240.20195   -4863.3808   -4382.9473   -4863.3808            0    5383.7362    17.999028    22.904616     19.49987    8039.0324    6109.3847    5512.4306    4529.3932    280.64789    880.01911    137.55943   -3751.7524 
  396000    244.60479   -4881.9804   -4392.7406   -4881.9804            0    2680.9815    18.200108    22.968625    19.376614    8100.0342    1635.3959    3293.0258    3114.5229    -282.2489    794.39483    234.53363   -4076.0344 
  397000    228.26333   -4866.6314   -4410.0765   -4866.6314            0    3654.8871     18.21071    23.021449     19.30978    8095.3731    3788.6903    3005.9509    4170.0202   -1373.3969    762.88456   -488.03466   -3978.5706 
  398000    236.40876   -4863.9471   -4391.1004   -4863.9471            0    5156.6015    18.041791    22.788203    19.476921    8007.7409    6712.6764    5788.9042    2968.2239   -143.71547   -793.72995    38.475638   -3788.8883 
  399000    254.71954   -4868.7465   -4359.2759   -4868.7465            0    4734.1457    18.115093    22.989799     19.48382    8114.2774    4085.7253    3433.7016    6683.0101    734.86289   -625.69796   -361.70535   -3799.0446 
  400000    239.35478   -4864.8612    -4386.122   -4864.8612            0    6269.5787     18.06688    22.852961     19.36265    7994.4839    7163.6954    5404.7887    6240.2521   -790.08631   -1575.2498   -10.351963   -3655.1434 
  401000    244.21513   -4822.9703   -4334.5098   -4822.9703            0    2117.8553     18.25278    23.258629    19.318344    8201.3064     2952.019    1002.4967    2399.0503   -481.88491   -393.72478   -370.10429   -4081.1981 
  402000    251.91722   -4876.2566    -4372.391   -4876.2566            0    4806.7969    17.965709    23.172658    19.395562     8074.629    4713.3262    4623.8523    5083.2122   -1177.3082   -234.27866    572.82108   -3806.3418 
  403000    242.23764   -4851.6856   -4367.1804   -4851.6856            0    2775.7159     18.13342    23.194172    19.315272    8123.8038    4179.7518    932.66678    3214.7293    624.76869   -385.27528    487.66404   -4038.3209 
  404000    247.82444   -4881.7427   -4386.0632   -4881.7427            0    4563.5753    18.010811    23.226382    19.287439    8068.4364    5015.5922    4502.6098    4172.5239    1953.0652    1265.1076    2233.3596   -3849.0679 
  405000     236.0303   -4861.8896   -4389.7999   -4861.8896            0    4039.3883    18.172899    22.781939     19.53092    8086.0718    3664.1192    4585.9145    3868.1312   -906.88534   -403.20835   -944.06052   -3913.4466 
  406000    236.37527   -4883.7568   -4410.9771   -4883.7568            0    3343.0278    18.195621    22.817547    19.529121    8108.0896    3551.1707    3345.2496    3132.6632   -112.14916   -1195.2176    126.87919   -4015.6702 
  407000    240.79029   -4862.0327   -4380.4224   -4862.0327            0      2661.85     18.30798    22.461605    19.758499    8125.2205    1690.5802    4118.0386    2176.9312   -966.23302     -471.761   -105.55503   -4064.9985 
  408000     245.7832   -4897.3803   -4405.7835   -4897.3803            0    7669.6009    18.109532    22.685921    19.410042    7974.2548    6694.3989    8168.7352    8145.6687    103.90523    144.18394     675.6503   -3513.8371 
  409000     244.0025   -4888.4937   -4400.4585   -4888.4937            0    1989.9766    18.138915    23.085281    19.432832     8137.342    3463.7604    1563.0849    943.08455    173.79362   -549.64449    373.67163   -4164.2985 
  410000    251.42174   -4874.5419   -4371.6673   -4874.5419            0    3650.2067    18.062217    23.148977    19.360485    8095.0418    4727.7267    3124.2455    3098.6479   -532.13876   -249.09653    1311.9873   -3940.7317 
  411000    239.31542   -4883.7105   -4405.0501   -4883.7105            0    4423.4961    18.108002    23.054333    19.319007    8065.0653     3603.041    4529.6553    5137.7918   -816.52568    749.94262   -1718.2371   -3884.7554 
  412000    242.92909    -4868.087   -4382.1988    -4868.087            0    1640.0938    18.042395    23.000123    19.667416    8161.5316    1668.8648     2268.901    982.51567    1072.8333   -132.47156    579.90558   -4186.9824 
  413000    228.14681   -4833.3091   -4376.9873   -4833.3091            0    5630.3666    18.111382    22.844261    19.422689    8035.9655    4559.3241    6225.7652    6106.0104    1152.2793    226.19485    1513.4696   -3717.1291 
  414000    231.66856   -4855.1872   -4391.8215   -4855.1872            0    2452.2649    18.169999    22.957787    19.638247    8191.9565    4298.9113    1581.4998    1476.3835    925.07738    236.04797   -647.55211   -4098.8463 
  415000    239.66073   -4868.5663   -4389.2152   -4868.5663            0    3818.6889    18.277354    22.865245    19.348584     8086.086    3635.4219    3841.2033    3979.4415     482.8856   -737.42504   -1342.6579   -3938.8877 
  416000     245.9207   -4826.1201   -4334.2483   -4826.1201            0    3305.4731    18.176507    22.963568    19.497943    8138.3919    2531.2472    4205.0959    3180.0761    643.08336    1007.2022   -557.99422   -3941.9214 
  417000    236.61317   -4871.8149   -4398.5593   -4871.8149            0    2692.7234    18.168861    23.008478    19.375188    8099.5621    2188.7377    2929.0204     2960.412    1185.9597   -409.35983    369.13825   -4080.4846 
  418000    240.00702   -4840.2886   -4360.2449   -4840.2886            0    5216.2469    17.984719    23.257437    19.336565    8088.0686    5212.9801    4481.2724    5954.4883   -834.73303    47.060519    1333.3502   -3744.9563 
  419000    254.50122   -4853.1993   -4344.1654   -4853.1993            0    4242.8252    18.132304    23.119316    19.331696     8103.972    3157.4242    4474.5339    5096.5175   -883.48138   -174.25555   -669.95347   -3842.7138 
  420000     242.0141   -4856.9391    -4372.881   -4856.9391            0    4150.6886    18.021733    23.035782    19.515505    8101.7589    5681.8151    4662.9896     2107.261    978.68797   -493.09552      786.479   -3882.4529 
  421000    234.49264   -4835.2704   -4366.2561   -4835.2704            0    3547.5496    18.272402    22.786528    19.547278    8138.7946    2144.7041    4264.8455    4233.0991    714.47568    378.52181   -357.85285   -3945.1763 
  422000    233.89111   -4862.5194   -4394.7082   -4862.5194            0    4453.2277    18.181968      22.7487    19.468424    8052.4545    4451.7229    5914.2359    2993.7242    -2008.147    156.37059   -634.31558   -3871.7355 
  423000    233.15888   -4881.9314   -4415.5849   -4881.9314            0     569.4908     18.24171    23.151279    19.510624    8239.7055    495.62682    229.00896     983.8366   -407.63216     -27.6507     2015.657   -4347.1505 
  424000    243.97704   -4873.7671   -4385.7829   -4873.7671            0    5334.8745    17.947364     23.13337    19.316155    8019.7397    4632.7979    4605.7455    6766.0803    135.98993    551.32763    256.33733   -3761.8177 
  425000    237.34462    -4876.508   -4401.7895    -4876.508            0    2406.0445    17.994507    23.210987    19.475541    8134.3544    3844.8501    1905.8357    1467.4475     441.4156   -721.14624    -1415.156   -4116.3575 
  426000      247.543   -4880.0731   -4384.9565   -4880.0731            0    4664.8671      18.1435    23.015832    19.252457    8039.5903    4510.1783    4687.3878    4797.0351    1528.6944    688.99248    2351.5572   -3838.0046 
  427000     255.2341   -4863.3431   -4352.8434   -4863.3431            0     4202.242    18.192615    22.921178    19.357847    8072.1478    3562.6763     3837.723    5206.3266    588.26145   -1124.0078    3281.4929   -3858.1387 
  428000    242.89351   -4848.4911   -4362.6741   -4848.4911            0     4280.147    18.127825    22.719294    19.585683    8066.3908    4676.4275    4794.8401    3369.1733    335.00554   -1053.8754   -697.63263   -3859.1575 
  429000    244.98901   -4851.1997   -4361.1914   -4851.1997            0    5062.8262    18.257696    22.754995    19.464351    8086.5385    4305.6992     5501.304    5381.4755   -218.53231   -1940.5502    978.06258   -3764.1128 
  430000    241.07455   -4856.5325   -4374.3537   -4856.5325            0    3434.9786    18.320983    22.695448     19.60181    8150.4896    2669.5667    3695.8448    3939.5243   -871.29869   -374.05674   -861.04004   -3966.0497 
  431000    239.61625   -4873.1783   -4393.9162   -4873.1783            0     6435.197    18.139672    22.605914    19.521755    8005.1665    7858.3877    5562.3685    5884.8349    1038.1384   -1132.1423   -1094.8851   -3642.6253 
  432000    243.34041   -4855.1208   -4368.4099   -4855.1208            0    5193.6083    18.117981    22.881026    19.421921    8051.5125    3634.5015    6021.0658    5925.2577    170.97142   -366.50787   -213.27086   -3758.5605 
  433000    230.64523   -4862.6697   -4401.3507   -4862.6697            0    3605.5289    18.147279    23.019529    19.411571    8109.0253    4326.4295    3245.4225    3244.7346    256.82768   -1363.8099    1511.3651   -3974.9543 
  434000    238.18273   -4886.6342   -4410.2393   -4886.6342            0    2786.6785    18.024376    23.164848    19.398009    8099.2882    1433.1245    2749.6415    4177.2696    74.643342   -827.19104   -3393.1328   -4081.0774 
  435000    251.21027   -4857.0274   -4354.5758   -4857.0274            0    4401.5763    18.117879    22.927967    19.441961    8076.3098    3921.0454    3727.5693     5556.114    1358.1081    806.05668   -377.59625   -3836.1375 
  436000    243.48152   -4852.5803   -4365.5872   -4852.5803            0    4687.3652    18.086507    23.001824    19.402371    8071.8257    5930.4036    3818.3867    4313.3053   -216.02514   -123.73157   -996.69281   -3813.7938 
  437000    246.36062   -4879.3771   -4386.6255   -4879.3771            0    5040.6875    18.123202     22.76202    19.573396    8074.4309    5972.0947    5576.9205    3573.0473    537.34241   -919.28243   -415.60997   -3793.0477 
  438000    246.17931   -4851.5117   -4359.1227   -4851.5117            0    4469.8657    18.105505     22.93623    19.470253    8085.4515     3932.976    4480.6088    4996.0122    111.65096   -425.41011   -90.422313    -3832.045 
  439000    229.11041   -4864.5304   -4406.2813   -4864.5304            0    4760.7007    18.022909    22.967948    19.428816    8042.5433    4323.3705    5407.9793    4550.7523   -870.56889    22.699224     -797.009    -3847.888 
  440000    250.62327   -4837.1168   -4335.8393   -4837.1168            0    5134.6217    18.208517    22.685093    19.520743    8063.2754    6016.3737    5301.1521    4086.3394   -644.69057    34.091853   -179.83222   -3732.0355 
  441000     260.2986   -4892.9728   -4372.3435   -4892.9728            0    3251.8197    18.205392    22.871885    19.489375    8115.2124    2187.3742    4911.2525    2656.8322   -1953.0653    944.73613   -2239.5806   -3987.4839 
  442000    239.61825   -4841.1548   -4361.8887   -4841.1548            0    3693.9589    18.242693    22.738429     19.57968    8121.8501    3995.5442     4805.315    2281.0175    970.15233     1123.959    1197.8253   -3924.3435 
  443000    243.91522   -4874.5654   -4386.7048   -4874.5654            0    3995.8811    18.181735    22.875317    19.419081    8076.6474    3082.3617    4589.0843    4316.1974   -369.18805    -57.09082    787.72946   -3916.0315 
  444000    242.82413   -4857.8103    -4372.132   -4857.8103            0     4191.316    18.049085    23.190186     19.32352    8088.0841    2812.8038    4861.0166    4900.1275   -793.91249    519.23949    -465.9447   -3877.7394 
  445000     246.0644   -4862.6565   -4370.4973   -4862.6565            0    3996.1269    17.866291    23.264478    19.449288    8084.0951    5745.2937    2873.2317    3369.8554   -1002.3305   -355.47074   -158.16399    -3899.361 
  446000    245.26164   -4888.4755   -4397.9219   -4888.4755            0    1792.5137    18.133202    23.187076    19.381759    8149.1758    1691.5116    1793.1834     1892.846   -292.01166    245.49942   -224.81689   -4184.8864 
  447000    237.20513   -4856.2952   -4381.8556   -4856.2952            0    5250.2489    18.083574      22.9454    19.389633    8045.4346    4077.8151    6107.1638    5565.7678   -1883.3133     736.6057    76.363607   -3765.8208 
  448000    233.95931   -4847.6486   -4379.7011   -4847.6486            0    4040.5218    18.032387    23.090108    19.459213    8102.2277    3996.8927    3584.6365    4540.0364   -357.63819   -244.80957    436.58086   -3902.2622 
  449000     248.4986   -4862.8487   -4365.8208   -4862.8487            0    3947.0964    18.230951    22.867564    19.434367    8102.1376    3494.2807    4343.1206    4003.8879   -656.16601    254.13024   -167.05548   -3899.4265 
  450000    238.88594    -4864.969   -4387.1677    -4864.969            0    4969.6917    18.162735    22.737114    19.528529     8064.661    4450.6652    4654.5313    5803.8787   -1363.2597    155.76711   -414.13642   -3802.6583 
  451000    246.82824   -4876.8265   -4383.1396   -4876.8265            0    3812.8453    18.223061    22.702069    19.578641    8099.7071    5121.1559    4358.9744    1958.4056   -437.24975   -527.20541   -385.11082   -3932.7437 
  452000    241.01048   -4860.1282   -4378.0775   -4860.1282            0    3122.5744    18.295286    22.620302    19.695739    8150.9812    1674.6302    4256.2032    3436.8899    889.09259    284.20604    1678.7123   -4006.8855 
  453000    226.81602   -4862.5215   -4408.8615   -4862.5215            0    4476.9988    18.122522    22.822962    19.496343    8063.8752    4877.3294    5047.8436    3505.8235    80.922612   -252.02973    1130.8875   -3882.3514 
  454000    228.09001   -4868.0113   -4411.8031   -4868.0113            0     4165.545    18.257298    22.877296    19.393879    8100.3888    3343.7623    4692.4212    4460.4514    534.95215    865.19317   -929.55629   -3919.7028 
  455000    237.64164   -4883.7293   -4408.4167   -4883.7293            0    5616.0777    18.011825    22.741191    19.623915    8038.1585    7136.8225    6387.4386    3323.9722     -760.909    1568.3773    278.17419   -3750.0534 
  456000    235.32385   -4868.4555   -4397.7787   -4868.4555            0    4107.6011    18.283511    22.936619    19.283874    8086.9228    3105.4124    4083.1339     5134.257   -356.55007    515.33591   -717.72918   -3913.3304 
  457000    239.37384   -4862.0181   -4383.2408   -4862.0181            0    3407.7965    18.089742    22.955767    19.581461    8131.4738    4182.7674    3741.0928    2299.5295   -1346.2912   -75.747273    -784.0776    -3979.113 
  458000    242.16329   -4846.8669   -4362.5104   -4846.8669            0    6055.0781    18.080949    22.897415    19.397365    8030.6449    6022.8467      6396.02    5746.3675    494.89732    131.27803   -52.483405   -3653.3474 
  459000    244.57077   -4868.5316   -4379.3598   -4868.5316            0    5304.7554    18.184215    23.065665    19.131969    8024.5411     3806.941     5261.098    6846.2272    1301.3148   -93.888139   -77.052038   -3758.5459 
  460000    252.88226   -4878.2771   -4372.4813   -4878.2771            0    2760.7794     18.13068    23.041168    19.507425    8149.2667    3261.0357    3514.6038    1506.6986    786.07615    1133.3965   -1031.4079   -4044.3663 
  461000    251.43249   -4886.7458   -4383.8498   -4886.7458            0    4743.4784    18.132145    22.902768    19.408059    8059.7074    5347.3611    4036.5586    4846.5155     1536.423    165.52893    1196.7012   -3826.2892 
  462000    245.48688   -4866.6133   -4375.6092   -4866.6133            0    5067.2058    18.263442    22.614235     19.47007    8041.4071    4233.8892    6160.2211    4807.5071   -542.52795   -113.81837   -59.067343   -3781.3492 
  463000    229.80432    -4840.282    -4380.645    -4840.282            0    4525.9362    18.170611    22.516386      19.6866    8054.5065    3382.6338    5358.9484    4836.2265    199.00261   -220.76946    563.71871   -3848.9982 
  464000    232.57562   -4850.7826   -4385.6026   -4850.7826            0    3865.7565    18.186523    22.861602    19.469498    8094.8927    2199.8722    5422.1367    3975.2605   -1396.9751    516.94136   -1632.2881    -3929.228 
  465000    231.71573   -4891.0268   -4427.5667   -4891.0268            0    2975.8741    18.059533    23.160378    19.437485    8130.0315    3688.8048    2055.0381    3183.7795    -134.1808    173.90909   -1451.1886   -4074.7227 
  466000    237.93539   -4859.2258   -4383.3256   -4859.2258            0    5388.6437    17.999252    23.132604    19.227196    8005.6189    5777.4615    5610.7658    4777.7039   -599.77524    277.21744    798.24235   -3754.1813 
  467000    226.62935   -4857.0903   -4403.8036   -4857.0903            0    4993.8685    18.019986    23.117558    19.336217     8055.044    3990.2674    5747.9066    5243.4314   -684.30701   -178.77014   -458.74946   -3817.1512 
  468000    244.75763   -4848.5163   -4358.9708   -4848.5163            0    4033.3575    17.961723    23.099663    19.446468    8068.5292    5607.3718    4697.3759    1795.3248   -296.53689    428.26926    154.68829   -3884.3607 
  469000     234.4504   -4850.8143   -4381.8845   -4850.8143            0    3317.1066    18.100234    23.203798    19.247447    8083.8155    2953.6425    2943.8049    4053.8724   -1220.2145   -68.792312   -1085.8357   -3990.8171 
  470000    235.23269   -4887.9277   -4417.4332   -4887.9277            0    5455.0654    18.004688    23.026208    19.377317    8033.4419    4097.6319    6366.3974    5901.1669     1400.471    1074.1046   -282.86403   -3778.3204 
  471000    231.60822   -4848.5567   -4385.3116   -4848.5567            0    4929.2098    18.074722    22.999818    19.361968    8049.0667    7098.6716    4160.9156    3528.0422    1130.4384    286.43057    1552.9115   -3806.6846 
  472000     227.1599   -4880.1646   -4425.8167   -4880.1646            0     3278.251    18.194076     22.96423    19.474107     8136.534    3458.0637    3842.0936    2534.5957   -640.86006    788.77161   -2273.6913   -4036.8096 
  473000    237.80122   -4887.5487   -4411.9169   -4887.5487            0    3267.6506    18.196233    22.726668    19.608761    8109.0018    3222.5572    3314.5406    3265.8538      1441.55   -899.27099    398.79477   -4025.4797 
  474000    248.65377   -4879.8132   -4382.4749   -4879.8132            0    1852.7254    18.310236    22.918719    19.506573    8185.8781    881.46212    1645.6439    3031.0701   -38.195122   -232.66268    1181.7017   -4161.2917 
  475000    236.27968   -4872.9074   -4400.3189   -4872.9074            0    4127.8596    18.069303    22.878421    19.441593    8037.0985    3726.9882    3511.2502    5145.3404   -579.57465   -1455.9693   -449.98928   -3916.4808 
  476000    238.03616   -4856.5026   -4380.4009   -4856.5026            0    5530.5389    17.886795    23.257883     19.37585    8060.5278    6705.7258    4553.3322    5332.5587     1531.167   -444.10451     1693.573    -3730.261 
  477000    260.30631   -4847.6807   -4327.0359   -4847.6807            0    4847.7705     18.09831    22.985357    19.435759    8085.2001    5774.3118    4561.7747     4207.225    551.05357    610.17881    831.41649   -3755.4142 
  478000    238.19154   -4834.7346   -4358.3221   -4834.7346            0    3585.9505    18.244027    23.080283    19.358955    8151.6167    3883.5026    3905.5665    2968.7825    300.71957    245.95052    62.988954   -3932.0136 
  479000    253.63624   -4879.4429   -4372.1391   -4879.4429            0    4578.3017    18.049865    23.041313    19.407477    8071.4259    4122.0792    4212.2067    5400.6193   -398.60492    514.26376    1045.5864   -3833.2113 
  480000    255.86983   -4853.6334   -4341.8621   -4853.6334            0    2966.3503    18.055794    23.063584    19.523675    8130.2702    2919.2819    2258.8126    3720.9565   -44.510774   -552.03247   -583.94829   -3990.1371 
  481000    249.37648   -4851.0163   -4352.2325   -4851.0163            0    4189.3078    18.198634    22.865548    19.380134     8064.495    5943.1327    3584.7162    3040.0745   -1216.4634   -500.67704    618.22971    -3859.518 
  482000     238.1486   -4863.3503   -4387.0237   -4863.3503            0    3168.4929    18.083361    22.901528    19.655334    8139.9935    3756.0746    3037.2188    2712.1852   -88.866735    91.571616   -1129.8804   -4010.8809 
  483000    232.16399   -4855.8508   -4391.4942   -4855.8508            0      6173.62     18.19634    22.779918    19.345421    8018.8928    6866.3116      5533.17    6121.3783    895.46939    241.62995    501.77572   -3669.5058 
  484000    243.62767    -4844.474   -4357.1885    -4844.474            0    4059.0288    18.298638     22.84946    19.357298    8093.5573    4029.8057    4410.9657    3736.3152    893.10162    1112.7757    389.95027   -3878.0761 
  485000    239.89972   -4886.1112   -4406.2821   -4886.1112            0    3668.4321    18.070217    22.889524    19.595131     8104.912    4085.2973    4006.0733    2913.9256   -1245.9586    550.35493   -432.34388   -3972.6667 
  486000    250.00218   -4893.8537   -4393.8185   -4893.8537            0    3943.9956    18.249656    22.854538    19.367995    8078.1478    4195.6077    3759.7062    3876.6729   -528.69087    186.90807    1124.3362   -3929.1704 
  487000    236.97776   -4871.1925   -4397.2077   -4871.1925            0    3111.2356    18.187617    22.828218    19.599245    8137.4278     3487.857    3884.8595    1960.9903   -540.48555   -262.80306    233.43647   -4027.9786 
  488000    239.73254   -4825.8118   -4346.3171   -4825.8118            0    4918.1621    17.980137     22.87735    19.635283    8076.7359    4378.5524    6473.1631    3902.7708   -927.59363    167.69296   -71.570348   -3767.0023 
  489000    233.52565   -4843.6535   -4376.5733   -4843.6535            0     2878.052    18.246522    22.930757    19.452286     8138.964    1317.0137    3831.0482    3486.0939    1040.1063   -714.25501   -632.12711    -4034.953 
  490000    239.16865   -4849.8136   -4371.4467   -4849.8136            0     3474.876    18.083441    22.965284    19.486577    8092.6071    4147.6408    3520.4552    2756.5319   -358.54038    375.20423    1143.3678   -3961.3336 
  491000    243.83237   -4893.2441   -4405.5493   -4893.2441            0    3306.4374    18.051034    23.111847    19.411227    8098.2228    2415.4158    4282.8324    3221.0641   -811.23827    1062.9496   -39.965985   -4015.0449 
  492000    246.06759   -4885.4697   -4393.3041   -4885.4697            0    2946.5592    18.173601    23.178606    19.297138    8128.7019    2568.0632    2303.3356    3968.2787    508.96374    345.73999    1911.0141   -4043.9931 
  493000    256.68707   -4857.9159     -4344.51   -4857.9159            0    4716.7976    17.918162    23.050633    19.604439     8097.123     7610.522    4612.5718    1927.2991   -1622.4379   -94.220583    766.28568   -3787.5117 
  494000     239.5422   -4847.8271   -4368.7131   -4847.8271            0    2729.2652    18.115799    23.112456    19.490591     8160.722     3367.792    2160.9501    2659.0535   -131.33994   -514.81396    1299.8163   -4043.8875 
  495000    242.52529   -4828.9779   -4343.8974   -4828.9779            0    5511.5153    17.974095    22.977817    19.530821    8066.3352    4923.9533    5481.2283    6129.3643   -164.83905    604.67404    527.55371    -3695.527 
  496000    239.27406   -4870.4157    -4391.838   -4870.4157            0    3632.1107    18.114512    23.088415    19.458263    8138.1335    4071.3644    3609.4012    3215.5663   -43.576845    701.62973    555.06628   -3960.7562 
  497000    239.64735   -4854.9171   -4375.5928   -4854.9171            0    5444.7201    18.030301    22.961905    19.426647    8042.8277    5176.4417     5874.976    5282.7425    970.71873    1052.7638   -502.73631   -3736.9467 
  498000     251.4971   -4859.3143   -4356.2891   -4859.3143            0     2119.183    17.987087    23.252876    19.487925    8150.8539    759.41673    2665.5125    2932.6199     428.3126    517.09618    -2071.295   -4104.3779 
  499000    238.66865   -4868.3928    -4391.026   -4868.3928            0    5469.1956    18.069317    23.172118    19.195742    8037.3409    5223.0466    4873.9681    6310.5721   -187.53411    1062.3172   -1891.9335   -3749.9467 
  500000    244.18427   -4828.6668   -4340.2681   -4828.6668            0    5562.3793     18.05421    23.148339    19.255709    8047.4418    5297.2593    4773.5385      6616.34    795.76698   -411.91542    141.84921   -3687.4467 
Loop time of 495.663 on 64 procs for 250000 steps with 1008 atoms

Performance: 87.156 ns/day, 0.275 hours/ns, 504.375 timesteps/s
99.2% CPU use with 64 MPI tasks x 1 OpenMP threads

MPI task timing breakdown:
Section |  min time  |  avg time  |  max time  |%varavg| %total
---------------------------------------------------------------
Pair    | 27.957     | 31.527     | 35.53      |  30.6 |  6.36
Bond    | 0.27417    | 0.28363    | 0.2971     |   0.9 |  0.06
Kspace  | 238.01     | 244.66     | 251.5      |  21.5 | 49.36
Neigh   | 3.7423     | 4.1688     | 4.5994     |  12.4 |  0.84
Comm    | 92.269     | 98.508     | 105.89     |  33.9 | 19.87
Output  | 0.78898    | 0.79033    | 0.79573    |   0.1 |  0.16
Modify  | 102.87     | 107.16     | 111.25     |  23.1 | 21.62
Other   |            | 8.572      |            |       |  1.73

Nlocal:        15.7500 ave          20 max          12 min
Histogram: 4 6 4 15 0 11 16 2 3 3
Nghost:        2483.20 ave        2513 max        2454 min
Histogram: 2 4 4 6 16 11 12 7 1 1
Neighs:        5197.67 ave        6669 max        3863 min
Histogram: 4 6 4 15 6 6 15 2 3 3

Total # of neighbors = 332651
Ave neighs/atom = 330.01091
Ave special neighs/atom = 2.0000000
Neighbor list builds = 8358
Dangerous builds = 0

unfix		3
unfix		2
unfix		1

write_data	data.final.${pid}
write_data	data.final.0
System init for write_data ...
PPPM initialization ...
  extracting TIP4P info from pair style
  using 12-bit tables for long-range coulomb (../kspace.cpp:340)
  G vector (1/distance) = 0.38330912
  grid = 24 30 32
  stencil order = 5
  estimated absolute RMS force accuracy = 0.0019459882
  estimated relative force accuracy = 5.8602858e-06
  using double precision FFTW3
  3d grid and FFT values/proc = 4080 384
Last active /omp style is kspace_style pppm/tip4p/omp
WARNING: Not all mixed pair coeffs generated from mixing. Use write_data with 'pair ij' option to store all pair coeffs. (../write_data.cpp:312)

write_restart   restart.lmp.${pid}
write_restart   restart.lmp.0
System init for write_restart ...
PPPM initialization ...
  extracting TIP4P info from pair style
  using 12-bit tables for long-range coulomb (../kspace.cpp:340)
  G vector (1/distance) = 0.38330912
  grid = 24 30 32
  stencil order = 5
  estimated absolute RMS force accuracy = 0.0019459882
  estimated relative force accuracy = 5.8602858e-06
  using double precision FFTW3
  3d grid and FFT values/proc = 4080 384
Last active /omp style is kspace_style pppm/tip4p/omp
Total wall time: 0:08:20
