LAMMPS data file via write_data, version 30 Jul 2021, timestep = 9250000

1920 atoms
2 atom types
1280 bonds
1 bond types
640 angles
1 angle types

-0.08392920136220994 24.813930201353678 xlo xhi
-0.0930799023570259 24.82308090235746 ylo yhi
-0.026593088112679908 22.836593088105502 zlo zhi

Masses

1 1.008
2 15.999

Pair Coeffs # lj/cut/tip4p/long/omp

1 0 0
2 0.21084 3.1668

Bond Coeffs # harmonic/omp

1 450 0.9572

Angle Coeffs # harmonic/omp

1 55 104.52

Atoms # full

1 1 2 -1.1794 4.510742868748503 1.2941026327620693 4.116944068622515 0 0 0
2 1 1 0.5897 4.487816762442297 2.001666025761977 4.761127395827574 0 0 0
3 1 1 0.5897 5.0677931422164955 1.6277738099578773 3.4137585943388 0 0 0
4 2 2 -1.1794 2.700356326206304 1.0722576431578195 2.0028568641364544 0 0 0
19 7 2 -1.1794 4.375113156616461 3.3548458658385716 0.9419184652060952 0 0 0
6 2 1 0.5897 1.757902670887045 1.2082223455564618 2.0998642385040647 0 0 0
150 50 1 0.5897 1.5831966584533854 6.075706364348659 5.581646447399438 0 0 0
9 3 1 0.5897 5.008945517139743 4.908947026499124 3.7515006869774137 0 0 0
10 4 2 -1.1794 3.129114905162691 4.777270284666721 3.4532389264841044 0 0 0
11 4 1 0.5897 2.598298907092503 5.465483148500811 3.8541684703468033 0 0 0
12 4 1 0.5897 2.849569824029359 4.76112384147073 2.5379844540933085 0 0 0
21 7 1 0.5897 5.269947152814646 3.1158422214572465 1.183308402999059 0 0 0
15 5 1 0.5897 1.3852940016718671 1.80619952123165 4.920700183264934 0 0 0
24 8 1 0.5897 1.3861562670036922 5.507986084475816 0.5651433949473592 0 0 0
47 16 1 0.5897 6.004827920042249 0.9174291980866334 1.698675286727733 0 0 0
13 5 2 -1.1794 1.1376938831399053 2.713868382915149 4.7445514542686675 0 0 0
14 5 1 0.5897 1.9557535789555738 3.1407451860719298 4.4902232831976665 0 0 0
20 7 1 0.5897 3.821938241436878 2.811148289579536 1.5027524383232909 0 0 0
22 8 2 -1.1794 1.4647283239777897 4.9889738429280435 1.3655027496162957 0 0 0
27 9 1 0.5897 4.5638191358896725 5.241546282199391 0.5102148829073727 0 0 0
387 129 1 0.5897 4.060417736244034 0.32147340284862636 1.0200918964416974 0 1 0
5 2 1 0.5897 3.0487652417371525 1.1654230101056293 2.889439373996882 0 0 0
16 6 2 -1.1794 0.08001675372764122 1.607645780374865 2.295406016036548 0 0 0
23 8 1 0.5897 0.6022163318592191 5.04902478568218 1.7760852642494538 0 0 0
28 10 2 -1.1794 1.5883273028706681 0.03920684324274332 5.017910512808997 0 0 0
98 33 1 0.5897 0.18125414448728205 5.127167950740988 3.616226613967321 1 0 0
7 3 2 -1.1794 5.953253040798967 5.0639013875812 3.771305968262472 0 0 0
1455 485 1 0.5897 1.070060056955566 3.142146042779388 0.30447366272549903 0 0 1
507 169 1 0.5897 4.804296113022805 5.964714945788564 5.481471335989061 0 0 0
500 167 1 0.5897 3.7118824289957533 2.8677805167841557 7.153023962204539 0 0 0
481 161 2 -1.1794 4.553376089860656 1.45679319524852 10.025994141505045 0 0 0
503 168 1 0.5897 1.192594247888616 3.7842606284600393 6.361902945069089 0 0 0
488 163 1 0.5897 6.064706048775223 3.991798199602476 9.627077223324779 0 0 0
484 162 2 -1.1794 2.6499108300496625 1.4750391944325372 8.005972623212235 0 0 0
485 162 1 0.5897 3.0012185532504265 1.3091076048454169 8.88070047223491 0 0 0
486 162 1 0.5897 3.0089554441274675 0.7712293704871102 7.465707640213767 0 0 0
501 167 1 0.5897 4.38246719449368 3.944176958063588 6.326357104753151 0 0 0
489 163 1 0.5897 4.906959724048038 4.714803941213728 8.972464744959643 0 0 0
490 164 2 -1.1794 3.1288269644864277 4.347308819930499 8.831375909980954 0 0 0
491 164 1 0.5897 2.876511179733488 5.158512663862272 9.272343783131763 0 0 0
492 164 1 0.5897 2.8181714519158008 3.652175749755861 9.411401148329782 0 0 0
493 165 2 -1.1794 1.6505453826035121 2.6481314033237373 10.476685145839129 0 0 0
504 168 1 0.5897 2.07816592805738 4.326543352024083 7.463396489678675 0 0 0
482 161 1 0.5897 5.202542950028763 1.6034946099626424 9.338117131534181 0 0 0
579 193 1 0.5897 0.0057215383051316265 3.8331323697944426 9.701058493067633 1 0 0
497 166 1 0.5897 0.9696083490122354 1.722047287128328 7.7551827582560255 0 0 0
483 161 1 0.5897 4.590238286087197 2.2479884213227823 10.563405784406383 0 0 0
527 176 1 0.5897 5.956003971316961 0.7740224056879051 7.349758080078691 0 0 0
502 168 2 -1.1794 1.3468290147841695 4.564930188539387 6.893808243167742 0 0 0
494 165 1 0.5897 1.5834697180420156 1.7097273656956322 10.652984441010883 0 0 0
499 167 2 -1.1794 4.068954593321695 3.0408884432506014 6.28202818362727 0 0 0
1347 449 1 0.5897 4.597073427440458 0.1397075180441021 11.309559691865275 0 1 0
629 210 1 0.5897 0.9190582479056306 5.891556053391294 10.096220375435172 0 0 0
487 163 2 -1.1794 5.863203932934548 4.693221231744182 9.007765028864215 0 0 0
496 166 2 -1.1794 0.04835034416854758 1.8617917790680554 7.536388451640805 0 0 0
528 176 1 0.5897 5.78524643019941 2.251150282073296 7.0656726288981995 0 0 0
505 169 2 -1.1794 4.78800235543623 5.637901611978578 6.380933930149626 0 0 0
628 210 2 -1.1794 1.6905534114688243 6.077539160605149 10.631314400618406 0 0 0
506 169 1 0.5897 4.027535483237623 6.0632466000757494 6.77704422999311 0 0 0
495 165 1 0.5897 1.4010235110008717 3.0656381806014275 11.301029244436258 0 0 0
979 327 2 -1.1794 4.6181840503911875 3.445201625572565 12.015347840351495 0 0 0
961 321 2 -1.1794 4.433068971486172 1.568119396604289 15.691481584773662 0 0 0
962 321 1 0.5897 5.171458700931562 1.27153572868626 15.159565853738185 0 0 0
963 321 1 0.5897 4.3857312451718995 0.9369383643708304 16.409468204849233 0 0 0
964 322 2 -1.1794 2.7958077312685052 1.4799015138645948 13.412619801338009 0 0 0
965 322 1 0.5897 3.0361707410140046 1.6924841275980678 14.31436079406698 0 0 0
966 322 1 0.5897 1.9019157772991684 1.1435466243245205 13.475461103024207 0 0 0
987 329 1 0.5897 4.704552574594356 5.035801903009399 12.091964706669465 0 0 0
970 324 2 -1.1794 3.2530965187145298 5.028009898293399 14.814170651112258 0 0 0
971 324 1 0.5897 4.144115622026761 4.678764323204927 14.829639506844785 0 0 0
972 324 1 0.5897 2.733273113401976 4.380498766627393 15.290253068199299 0 0 0
1460 487 1 0.5897 4.581421731637842 2.7685089676348698 16.937081482494552 0 0 0
975 325 1 0.5897 1.0698851983105575 3.6048213480392315 15.642613266370502 0 0 0
984 328 1 0.5897 2.319183178285572 4.684970365307256 13.234856547792598 0 0 0
980 327 1 0.5897 3.699111530444991 3.3048517393664576 12.242785496027228 0 0 0
988 330 2 -1.1794 1.4879916366719617 0.061500692169722454 16.439519057170887 0 0 0
990 330 1 0.5897 1.7159171355876437 0.8771895630598187 16.885463421582504 0 0 0
982 328 2 -1.1794 1.6126436530556199 4.342592126080281 12.68740906703683 0 0 0
1346 449 1 0.5897 3.8241265807342892 0.2337289717876695 12.60774193466068 0 1 0
981 327 1 0.5897 5.106112548122887 3.091982467345053 12.759176613744826 0 0 0
967 323 2 -1.1794 5.960163909102927 4.789421218169473 14.97692229573373 0 0 0
973 325 2 -1.1794 1.796092781388067 3.196492296062153 16.11380745954321 0 0 0
983 328 1 0.5897 1.462856847120137 5.025754178078445 12.033954402344602 0 0 0
1109 370 1 0.5897 0.8492815727175036 6.020335036603561 16.103771687804308 0 0 0
976 326 2 -1.1794 -0.007373835762450612 1.3896212514690045 13.515127281674603 0 0 0
1058 353 1 0.5897 0.1367390571855198 4.479200704377227 13.963620135295463 1 0 0
974 325 1 0.5897 1.8156089904436463 3.64452142868382 16.95938563726267 0 0 0
1008 336 1 0.5897 6.042638531062003 0.8311557196531671 12.997852555581158 0 0 0
1110 370 1 0.5897 2.3588868099348126 6.093272448026531 16.01788326771901 0 0 0
985 329 2 -1.1794 4.85707638424815 5.966494249802447 12.255474280336946 0 0 0
1459 487 2 -1.1794 4.587543736432851 3.192261145819484 17.79528371556543 0 0 0
1463 488 1 0.5897 1.0328871085895088 4.273770127077828 19.180493450735515 0 0 0
1441 481 2 -1.1794 4.213199314507393 1.5956758170006842 21.280196683729027 0 0 0
1442 481 1 0.5897 3.5209297676395828 1.637072478125274 20.62053451898441 0 0 0
1443 481 1 0.5897 4.150328470635137 2.429124901164199 21.74664803912632 0 0 0
1444 482 2 -1.1794 2.579752310003087 1.2743069576887216 19.038788085965766 0 0 0
386 129 1 0.5897 4.70587892839497 0.1216639845386456 22.528649174651513 0 1 -1
1446 482 1 0.5897 2.831716049295644 2.0404566035180496 18.523343383621736 0 0 0
1469 490 1 0.5897 0.9047763288503329 0.9589738075887488 22.427342441798576 0 0 0
1450 484 2 -1.1794 3.2254882703772916 4.3166523063263575 20.959178076695125 0 0 0
1451 484 1 0.5897 4.15016541782512 4.514283494949114 20.81073954632814 0 0 0
1452 484 1 0.5897 2.841249596415224 4.294011383089582 20.082852771453613 0 0 0
1453 485 2 -1.1794 1.0917049953443891 2.8727877232899144 22.24946616494253 0 0 0
1447 483 2 -1.1794 5.887193156196459 4.757266008855692 20.485489687290197 0 0 0
1466 489 1 0.5897 4.634673483464529 4.986104644854029 17.61069116642985 0 0 0
1590 530 1 0.5897 2.2169454980348497 5.8198233831053185 21.581070494535634 0 0 0
1461 487 1 0.5897 5.272118345414161 2.735173319463421 18.28370282392254 0 0 0
1462 488 2 -1.1794 1.7008062491755793 4.271362066046347 18.494930491602716 0 0 0
1445 482 1 0.5897 1.6433297236599647 1.3904324997916633 19.199237717844596 0 0 0
1487 496 1 0.5897 6.101478782582921 1.8197614392159032 20.169564821219307 0 0 0
1464 488 1 0.5897 1.621131805254195 5.129874947167272 18.079267833662826 0 0 0
1454 485 1 0.5897 1.8458309060504878 3.333596985946591 21.8819334471448 0 0 0
1826 609 1 0.5897 3.98083480893552 0.0781656262284583 18.663275061313435 0 1 0
1465 489 2 -1.1794 4.520725094963172 5.930311277875344 17.718738019934143 0 0 0
1488 496 1 0.5897 5.793769590355444 0.9337435606720661 18.981313503647964 0 0 0
1468 490 2 -1.1794 1.1421518844197045 0.06586767914835831 22.17793479663306 0 0 0
1448 483 1 0.5897 6.135007874993142 5.681711988766911 20.472301000176962 0 0 0
1538 513 1 0.5897 0.11668493840828376 4.150473883220658 21.136568964736526 1 0 0
125 42 1 0.5897 3.2582012870003063 7.138107775305502 1.8982850694459714 0 0 0
121 41 2 -1.1794 4.421918390748152 7.709226118336291 4.201829112577587 0 0 0
122 41 1 0.5897 3.712440598289416 7.87961496040382 3.5823786987460537 0 0 0
123 41 1 0.5897 5.171613762938074 7.482578137292627 3.6516457717246027 0 0 0
124 42 2 -1.1794 2.8527380212848863 7.991123663402643 2.0536423936974773 0 0 0
139 47 2 -1.1794 4.549254767166124 9.654704569949146 0.7382293663844322 0 0 0
126 42 1 0.5897 3.3771312110716885 8.603629990359153 1.5379008683209903 0 0 0
149 50 1 0.5897 1.178686073301541 7.227656900815964 4.686623036780697 0 0 0
143 48 1 0.5897 0.8413142877722541 10.799365895987876 2.101457996953176 0 0 0
130 44 2 -1.1794 3.129083843796315 10.712382850467444 3.695213210403733 0 0 0
135 45 1 0.5897 1.8244330524942067 9.377292726100983 4.186766354341611 0 0 0
132 44 1 0.5897 2.863111006543965 10.647036448638984 2.778106956800169 0 0 0
148 50 2 -1.1794 1.315590066626744 6.280322365020875 4.6857567751048235 0 0 0
133 45 2 -1.1794 1.0919238678472172 9.2155914922422 4.78123425821254 0 0 0
131 44 1 0.5897 2.5375717200918553 11.364489104191117 4.070737520048023 0 0 0
137 46 1 0.5897 1.1348504104103585 7.598706440004195 2.142150288968323 0 0 0
145 49 2 -1.1794 4.752171027734727 12.291051783042388 0.8020509749780749 0 0 0
144 48 1 0.5897 1.3053426719476457 11.550887763111344 0.8720137878959652 0 0 0
142 48 2 -1.1794 1.5165130019652573 10.797290091166547 1.423059162566383 0 0 0
129 43 1 0.5897 5.009978078935776 10.938221161083911 4.019692042291165 0 0 0
167 56 1 0.5897 5.865204773051854 8.493248634766204 1.4319522188806386 0 0 0
140 47 1 0.5897 4.537142880637468 10.610392739027915 0.7901800971590617 0 0 0
26 9 1 0.5897 5.298843097381222 6.476618670445304 0.9856605978481541 0 0 0
136 46 2 -1.1794 0.1918984321516809 7.501765808895308 2.2746708283546906 0 0 0
270 90 1 0.5897 0.6803985737775251 12.18071970939339 4.349839056755209 0 0 0
127 43 2 -1.1794 5.89716966474767 11.02618592730936 3.6714492734654423 0 0 0
1574 525 1 0.5897 1.7465125019827314 9.541887340771874 0.0781587617707853 0 0 1
25 9 2 -1.1794 4.541331728687044 6.197669751283718 0.47138509191444566 0 0 0
134 45 1 0.5897 1.3375214112973772 9.661826068370203 5.591586890597527 0 0 0
620 207 1 0.5897 5.137229760019226 8.813845267964865 7.138558410602479 0 0 0
624 208 1 0.5897 1.2013104456480725 11.377312733324114 6.68532799576105 0 0 0
601 201 2 -1.1794 4.436708965355838 7.703649575723087 9.914797369985092 0 0 0
625 209 2 -1.1794 4.4381188031539685 12.071250470219255 6.543521738800668 0 0 0
603 201 1 0.5897 3.777025014970086 7.490315592929453 9.25493733059856 0 0 0
604 202 2 -1.1794 2.876276776139058 7.324237404519678 7.9024133042922085 0 0 0
605 202 1 0.5897 3.3230566818212877 8.012067814765034 7.409034597774546 0 0 0
606 202 1 0.5897 1.9455127932427176 7.480929022864301 7.743530825080043 0 0 0
698 233 1 0.5897 -0.0331468411923375 10.055529080284865 9.968351855367283 1 0 0
610 204 2 -1.1794 3.178786390178806 10.663032604859312 9.166809657264317 0 0 0
611 204 1 0.5897 4.113259234220244 10.72115627763644 9.365554509843598 0 0 0
607 203 2 -1.1794 5.953931277346731 10.715566340077038 9.332872366717256 0 0 0
619 207 2 -1.1794 4.379619086546443 9.21719067487869 6.714920673695383 0 0 0
615 205 1 0.5897 2.0851369392796046 9.308081462380796 9.876871480221816 0 0 0
612 204 1 0.5897 2.787511873773751 11.400340677167152 9.635254697016029 0 0 0
621 207 1 0.5897 4.523564576237743 9.074482973019586 5.7794974184454375 0 0 0
647 216 1 0.5897 5.683403225791837 7.836292128241189 8.716463998152516 0 0 0
630 210 1 0.5897 1.7200058614446914 7.0326894577324 10.686143404755011 0 0 0
622 208 2 -1.1794 1.1726721032355176 10.535373135875533 7.1397463559196215 0 0 0
623 208 1 0.5897 2.0476234996468845 10.435128650864696 7.514615553732668 0 0 0
626 209 1 0.5897 4.306062612923973 11.157430488693409 6.795867756290721 0 0 0
613 205 2 -1.1794 1.4963496522000233 8.819854199238407 10.452278979762173 0 0 0
602 201 1 0.5897 4.29079471292456 7.067079687350294 10.614530032332208 0 0 0
648 216 1 0.5897 6.10765629725165 7.113705182372022 7.455716085441891 0 0 0
750 250 1 0.5897 0.9612528665475331 12.07380234718913 10.115254002967543 0 0 0
1101 367 1 0.5897 4.497613683902746 9.035786246365669 11.276166172994502 0 0 0
699 233 1 0.5897 0.05903083190681896 10.902198947269927 8.716838932456675 1 0 0
614 205 1 0.5897 1.5042263050539963 9.30931773205147 11.274763217504743 0 0 0
616 206 2 -1.1794 0.10223568445050024 7.649949255456305 7.683000664804585 0 0 0
1178 393 1 0.5897 0.18102447812081823 11.446210825231121 15.327305226074262 1 0 0
1100 367 1 0.5897 5.168503448665099 9.145756736286655 12.628711495094556 0 0 0
1081 361 2 -1.1794 4.656929812062426 7.764500121713198 15.688745038932058 0 0 0
1082 361 1 0.5897 4.481081361174166 8.517503900034725 16.252849223655538 0 0 0
1083 361 1 0.5897 4.567259330214569 7.006150956190938 16.265824887736397 0 0 0
1084 362 2 -1.1794 2.931905889220878 7.655546106339949 13.613239878672587 0 0 0
1085 362 1 0.5897 3.537479832909995 7.708589267451508 14.352543633830004 0 0 0
1086 362 1 0.5897 3.2402794940323774 8.324446731390044 13.001995192289481 0 0 0
1107 369 1 0.5897 4.552664144105179 11.28337762760945 11.910958944445351 0 0 0
1089 363 1 0.5897 5.012755778751782 10.735646821553676 15.008202019276627 0 0 0
1090 364 2 -1.1794 3.0921484593657813 10.476433066670666 15.002637525283133 0 0 0
1088 363 1 0.5897 6.048689509764786 11.813116895653032 15.248181421100172 0 0 0
1092 364 1 0.5897 2.4667572554126367 9.837169219231887 15.343779228105323 0 0 0
1095 365 1 0.5897 0.5571450595726687 9.22189511971624 15.913875797120163 0 0 0
1099 367 2 -1.1794 4.440135916316301 9.493954993389215 12.114553605377251 0 0 0
1094 365 1 0.5897 1.2285695162731667 8.022652984877858 16.548485438904628 0 0 0
1093 365 2 -1.1794 1.2764117773867028 8.977193659957393 16.49602333210851 0 0 0
1097 366 1 0.5897 0.9854117512669196 7.884400099614501 13.463675082810822 0 0 0
1087 363 2 -1.1794 5.915206384519228 10.97767742988764 14.80053368566889 0 0 0
1091 364 1 0.5897 2.6479344265560982 11.319307504939609 15.094328187550092 0 0 0
1102 368 2 -1.1794 1.5826196294687442 10.610842296062817 12.690881250393359 0 0 0
1103 368 1 0.5897 1.6713663985993412 11.385206514613353 12.135320828871805 0 0 0
1104 368 1 0.5897 2.35429728375977 10.631761451890771 13.25673225577682 0 0 0
1127 376 1 0.5897 6.044718663876112 8.255198056511508 14.264592122407048 0 0 0
1096 366 2 -1.1794 0.051983660438261414 7.844976430301828 13.255642234952429 0 0 0
1179 393 1 0.5897 0.2595823844845902 10.67499177414972 14.027050539294727 1 0 0
1105 369 2 -1.1794 4.635918373752809 12.21071099759537 12.13299827669447 0 0 0
1128 376 1 0.5897 6.1312584315585585 7.498141774396364 12.956544267293992 0 0 0
1108 370 2 -1.1794 1.6255679058535897 6.259153942082358 16.61019782948749 0 0 0
986 329 1 0.5897 4.162192739444039 6.220499593502378 12.862705671000418 0 0 0
1230 410 1 0.5897 1.671992526878487 12.354318498217634 16.95088436920086 0 0 0
1579 527 2 -1.1794 4.387409119547096 9.493289967242069 17.957808781110042 0 0 0
1589 530 1 0.5897 1.7671228612655818 7.1697902645883325 22.097784970997143 0 0 0
1576 526 2 -1.1794 0.12375021550643123 7.627167461208243 19.101666464263268 0 0 0
1561 521 2 -1.1794 4.869010707936919 8.090513687082778 21.399400470160113 0 0 0
1562 521 1 0.5897 4.802487834578334 7.330907004138562 21.9779597082843 0 0 0
1563 521 1 0.5897 4.120733802120444 8.0081790775158 20.808289268154546 0 0 0
1564 522 2 -1.1794 2.9661089880434597 7.469074430988903 19.485532940860793 0 0 0
1565 522 1 0.5897 2.036247471896077 7.680183366886542 19.402375354823885 0 0 0
1566 522 1 0.5897 3.085065709386849 6.690647314318953 18.941423792531772 0 0 0
1658 553 1 0.5897 0.35355422423686833 10.088290745452742 21.194652178013087 1 0 0
1570 524 2 -1.1794 3.189009985954559 10.764922801802363 20.741200062040566 0 0 0
1571 524 1 0.5897 2.921153477290873 10.767794627070229 19.822318525394337 0 0 0
1572 524 1 0.5897 4.1274281646364654 10.951900866940464 20.718196761455918 0 0 0
1584 528 1 0.5897 1.7702741602736987 10.28242840645599 17.79809370703652 0 0 0
1573 525 2 -1.1794 1.7459915864016176 8.998953139265595 22.153089431232342 0 0 0
1580 527 1 0.5897 3.9003159589699385 8.869649212905296 18.496278733399652 0 0 0
1588 530 2 -1.1794 1.4809623762719848 6.2611174083342975 22.004999411972825 0 0 0
1575 525 1 0.5897 2.305263330548687 9.471005367572559 21.53623604073271 0 0 0
1581 527 1 0.5897 5.297062268160546 9.393221089319733 18.238220669077407 0 0 0
1582 528 2 -1.1794 1.7390790426885738 11.045378066057422 18.375235830698276 0 0 0
1583 528 1 0.5897 1.069096775500976 10.828618318732287 19.023501996403407 0 0 0
1710 570 1 0.5897 2.1781527831054843 12.095359708128143 21.811495704352964 0 0 0
1587 529 1 0.5897 4.545600521057856 11.287406711826428 17.680408294051805 0 0 0
141 47 1 0.5897 4.4060489843671755 9.462915063896238 22.674697047832478 0 0 -1
1585 529 2 -1.1794 4.902058935108704 12.157515607720166 17.50146460618882 0 0 0
1709 570 1 0.5897 0.6841060384598459 12.071520115200787 21.568887286826055 0 0 0
1567 523 2 -1.1794 5.845776830832934 11.032131620658165 20.63918788473366 0 0 0
1657 553 2 -1.1794 -0.037071952886219436 10.723568178706374 20.594675643285395 1 0 0
1586 529 1 0.5897 5.838306481174801 12.075163125381327 17.68249964227428 0 0 0
1467 489 1 0.5897 5.273785606208696 6.20459630902759 18.241981355247184 0 0 0
1608 536 1 0.5897 6.068730345295266 7.962112529127818 19.918271637791985 0 0 0
1578 526 1 0.5897 0.028826471663926156 7.7619594108901 20.044491496212522 0 0 0
146 49 1 0.5897 4.0195879687031395 12.68410388147222 1.2763444539438455 0 0 0
147 49 1 0.5897 5.5258555155973275 12.53682626979366 1.309121873809128 0 0 0
241 81 2 -1.1794 4.5006150818714605 14.057690722946086 4.45680740966445 0 0 0
269 90 1 0.5897 1.3685809335457424 13.400442079221522 4.924643098435073 0 0 0
243 81 1 0.5897 3.777122541695736 13.817839873766182 3.8778904577539315 0 0 0
244 82 2 -1.1794 2.960821055662394 13.839852769381306 2.03265613884104 0 0 0
245 82 1 0.5897 2.0178867462737737 13.983192587674637 1.9523595358919583 0 0 0
246 82 1 0.5897 3.3540897508297514 14.514488857675678 1.4791629675400182 0 0 0
338 113 1 0.5897 0.008594871018530473 16.82886571709914 2.6035835846554654 1 0 0
250 84 2 -1.1794 3.3246246225906098 17.31535389236831 3.677694407422278 0 0 0
251 84 1 0.5897 3.0940474333286807 17.30655242000462 2.7487958568164563 0 0 0
252 84 1 0.5897 4.2815505998501076 17.297735253658992 3.6875940876150906 0 0 0
256 86 2 -1.1794 0.14284984969926157 13.962190301647704 2.01025500663134 0 0 0
253 85 2 -1.1794 1.494302708490475 15.19508327969979 4.952087605791999 0 0 0
242 81 1 0.5897 4.651194199706461 13.27649366269524 4.988988588675534 0 0 0
264 88 1 0.5897 1.3594350890566116 18.048059705031907 0.7106123911882786 0 0 0
259 87 2 -1.1794 4.524324595319451 15.942953266261906 0.6469411731899367 0 0 0
260 87 1 0.5897 4.627582296246942 16.866477252836358 0.41754487466589746 0 0 0
262 88 2 -1.1794 1.3460613190677426 17.232313476245082 1.2111517948220907 0 0 0
263 88 1 0.5897 1.5970529931679827 16.558756801844424 0.5791159448097762 0 0 0
254 85 1 0.5897 0.7447662039790519 15.6790170916121 4.605482672744161 0 0 0
255 85 1 0.5897 2.1917196667516645 15.34330707596671 4.3135355996465865 0 0 0
247 83 2 -1.1794 6.025543281933889 17.241179651980755 3.637688226716088 0 0 0
288 96 1 0.5897 5.8903320579298315 14.878408015230407 1.7447140109386041 0 0 0
268 90 2 -1.1794 1.3588249279493503 12.44445690655556 4.971365145868701 0 0 0
389 130 1 0.5897 1.972023820441251 18.509126375660617 4.329814696804434 0 0 0
287 96 1 0.5897 5.7848447499306515 14.263915310869356 3.124156226825313 0 0 0
257 86 1 0.5897 0.1714268087119848 14.652097393366606 1.347412331038668 0 0 0
339 113 1 0.5897 0.15279979187515025 17.71841202394486 3.8199477567826854 1 0 0
740 247 1 0.5897 4.870974250238863 15.450893034631683 5.603192849337235 0 0 0
726 242 1 0.5897 3.2460038898608166 13.225483209324855 7.308414197239373 0 0 0
721 241 2 -1.1794 4.500989064403982 13.704136260887577 9.90941931671902 0 0 0
722 241 1 0.5897 3.73712153747237 14.0293603005772 9.433126211348231 0 0 0
736 246 2 -1.1794 0.14002696634819145 13.555464480911306 7.316385478497004 0 0 0
724 242 2 -1.1794 2.8358582144000963 13.971566556712615 7.745796185876473 0 0 0
725 242 1 0.5897 3.1615766017811375 14.736543237313342 7.2715837206007 0 0 0
739 247 2 -1.1794 4.76069127759049 15.82846670069061 6.475771862172412 0 0 0
727 243 2 -1.1794 5.876885882431207 16.982308448924066 9.325545332339484 0 0 0
728 243 1 0.5897 4.972750853145344 17.294150395411684 9.28788326316644 0 0 0
730 244 2 -1.1794 3.0051037508912675 16.886499752661127 9.2088691261694 0 0 0
733 245 2 -1.1794 1.574060147444996 15.154250261893658 10.699411198189889 0 0 0
732 244 1 0.5897 2.4928444063317214 16.29449424069865 9.759556539123352 0 0 0
744 248 1 0.5897 1.4454742999163734 16.334436072687158 6.402767298593411 0 0 0
749 250 1 0.5897 1.4629697898503924 13.33124200705717 10.792630433581943 0 0 0
735 245 1 0.5897 0.7064419150693712 15.283758528124318 10.316524438052216 0 0 0
737 246 1 0.5897 1.0572841443761187 13.825294755108033 7.360563503667052 0 0 0
741 247 1 0.5897 4.477138624434291 16.72822468760702 6.3138662954700715 0 0 0
1221 407 1 0.5897 4.627090041627597 15.061062585199164 11.286097200371975 0 0 0
742 248 2 -1.1794 1.3483622668049022 17.057361762055173 7.0225198425068704 0 0 0
723 241 1 0.5897 5.16132079843241 13.55718780149728 9.232310561702839 0 0 0
731 244 1 0.5897 2.4626208009312878 17.02113089922707 8.43189435007475 0 0 0
743 248 1 0.5897 1.1670015525057456 17.820742893530152 6.474328717480086 0 0 0
870 290 1 0.5897 2.2132497484393943 18.168597593742255 10.2564384630002 0 0 0
748 250 2 -1.1794 1.7100311751743327 12.42788629176305 10.594916859380755 0 0 0
768 256 1 0.5897 5.949647060331358 14.626458541718055 7.440924795807726 0 0 0
818 273 1 0.5897 -0.02167066129704446 16.994637466032497 8.288761834310124 1 0 0
869 290 1 0.5897 0.7471951360767131 18.326679520169762 9.913952168007826 0 0 0
627 209 1 0.5897 5.1719976849478355 12.36553017973978 7.082915175382626 0 0 0
1106 369 1 0.5897 4.3094570462472 12.672620801178287 11.360871635849454 0 0 0
1220 407 1 0.5897 4.005933812599425 15.373518014891046 12.630756797965729 0 0 0
1201 401 2 -1.1794 4.523930944574767 14.396390166014498 15.6590347389195 0 0 0
1213 405 2 -1.1794 1.565984073498596 15.33033846242346 16.37244977168069 0 0 0
1203 401 1 0.5897 4.580321612885546 13.628217147587094 16.227265841163064 0 0 0
1204 402 2 -1.1794 2.913213749970692 14.007667268763228 13.414926448420523 0 0 0
1205 402 1 0.5897 3.3573454161466834 14.063935231567307 14.260904611317136 0 0 0
1206 402 1 0.5897 3.485805446347926 13.458650650464527 12.879342501919822 0 0 0
1219 407 2 -1.1794 4.748904753927799 15.596502073681062 12.070057351797892 0 0 0
1210 404 2 -1.1794 3.1248928877590525 17.15865973142624 14.624145513628209 0 0 0
1207 403 2 -1.1794 5.829614050096105 17.305134249690013 14.831605598360913 0 0 0
1212 404 1 0.5897 4.0818796371096 17.173011805359742 14.633624238863243 0 0 0
1211 404 1 0.5897 2.8685244176217974 17.83512462165925 15.250897174425704 0 0 0
1202 401 1 0.5897 5.079126381188615 14.18169042100516 14.909517512733483 0 0 0
1227 409 1 0.5897 4.856386372456193 17.522882427332046 12.078190361736928 0 0 0
1214 405 1 0.5897 0.8865368961125292 15.744332825586453 15.84038665310709 0 0 0
1218 406 1 0.5897 1.0543488637158838 13.868144641015569 13.468452056024017 0 0 0
1229 410 1 0.5897 1.3673083926975755 13.564317974294196 16.093695710918812 0 0 0
1215 405 1 0.5897 2.3876345192351884 15.583259317836182 15.951680814062867 0 0 0
1222 408 2 -1.1794 1.0591799674641815 17.11968375372179 12.76864277934058 0 0 0
1223 408 1 0.5897 1.015803102831099 17.72172938606827 12.025817307055794 0 0 0
1224 408 1 0.5897 1.8495112850470812 17.379256097512975 13.24205079299294 0 0 0
1228 410 2 -1.1794 1.4228222854572052 12.609254198502398 16.062613381348473 0 0 0
1216 406 2 -1.1794 0.09800773930021892 13.829264385741846 13.46453330543972 0 0 0
1247 416 1 0.5897 5.8015683095450825 14.436397177413296 13.021533092180015 0 0 0
1700 567 1 0.5897 4.514321102712516 15.704570843090545 17.10869983534878 0 0 0
1248 416 1 0.5897 6.077870778289568 12.99042255250937 13.374485158028675 0 0 0
1225 409 2 -1.1794 4.572356716204081 18.4368117948173 12.062727900113364 0 0 0
1350 450 1 0.5897 0.6907312898314187 18.439819477741217 15.910484894185851 0 0 0
734 245 1 0.5897 1.4992896352199874 15.504274760096182 11.587105222759979 0 0 0
1298 433 1 0.5897 0.04298784073511541 16.885258966699126 14.333344666778517 1 0 0
1708 570 2 -1.1794 1.3670188367942202 12.549607462382433 22.039201931070036 0 0 0
1728 576 1 0.5897 5.922023065376412 14.742948516013945 18.7440673762506 0 0 0
1681 561 2 -1.1794 4.6103997475317176 13.97666517780901 21.573857728437428 0 0 0
1699 567 2 -1.1794 4.489672128509754 16.03914232714916 18.005114705093103 0 0 0
1682 561 1 0.5897 5.30260466117561 13.961982276056936 20.91298691670649 0 0 0
1684 562 2 -1.1794 2.9220801729390207 13.997696113205565 19.155801484878932 0 0 0
1685 562 1 0.5897 3.3202232690204814 13.340137697946478 18.585503201350416 0 0 0
1686 562 1 0.5897 3.459320095517979 13.985340419855177 19.94783892164061 0 0 0
1693 565 2 -1.1794 1.7078028184045944 15.452004617425255 21.986053137457716 0 0 0
1689 563 1 0.5897 5.1335286774517925 17.08209233213642 20.385976017034892 0 0 0
1690 564 2 -1.1794 3.27816979774037 17.28106117573591 20.70367501707912 0 0 0
1691 564 1 0.5897 2.9305473704474543 16.559094569815723 21.227193768576086 0 0 0
1692 564 1 0.5897 2.8451863661248606 17.192066966039395 19.854731990673546 0 0 0
1704 568 1 0.5897 1.5402589727826008 17.806521638206892 18.10015351611363 0 0 0
1779 593 1 0.5897 0.13139322105070353 17.83817512641328 21.208602182740794 1 0 0
1697 566 1 0.5897 1.107536707915745 13.605768966903527 19.25761730837444 0 0 0
1707 569 1 0.5897 4.8471347827545275 17.947840130261316 17.81138162126643 0 0 0
1694 565 1 0.5897 0.9472678345199197 15.858543564440764 21.570791476924718 0 0 0
1703 568 1 0.5897 1.4137893005181725 16.30514476458077 17.953022686281994 0 0 0
1701 567 1 0.5897 3.811013814445318 15.519983014761259 18.436424432513782 0 0 0
1702 568 2 -1.1794 1.7145283646513165 16.983815907041258 18.55726056039243 0 0 0
1683 561 1 0.5897 4.935456214421792 13.411250068208039 22.274414487167284 0 0 0
1696 566 2 -1.1794 0.1663182879179036 13.432479421853195 19.243389113714375 0 0 0
1687 563 2 -1.1794 6.06270561691553 17.105465148616588 20.614462255275154 0 0 0
1695 565 1 0.5897 1.5889939556831418 14.513790192812689 21.8383203929103 0 0 0
1778 593 1 0.5897 0.3215868252378254 17.072813365865937 19.916449519341622 1 0 0
261 87 1 0.5897 4.409977662774265 15.498370030438707 22.6702521449064 0 0 -1
459 153 1 0.5897 0.2216985737048986 23.32024492127901 2.9688154438297847 1 0 0
373 125 2 -1.1794 1.8015057533065082 21.499368822793215 4.891784687874 0 0 0
361 121 2 -1.1794 4.39300603574982 20.379705214069613 4.145448131277376 0 0 0
362 121 1 0.5897 3.569289260077232 20.393758179137183 3.658203033248784 0 0 0
376 126 2 -1.1794 0.06846890256705399 20.183192480079402 1.8874122668502982 0 0 0
364 122 2 -1.1794 2.849578951401953 20.094987671197472 1.7681248612757778 0 0 0
365 122 1 0.5897 3.3253884509058245 20.918178012515416 1.6579933979982524 0 0 0
366 122 1 0.5897 1.9305303497695223 20.35533806101668 1.8289174294516242 0 0 0
375 125 1 0.5897 1.171401878000381 22.10246401945505 4.497590037374769 0 0 0
370 124 2 -1.1794 3.2221258023468726 23.20093134032884 3.4158015810053692 0 0 0
371 124 1 0.5897 4.175990915574202 23.131566168880468 3.377744930316524 0 0 0
372 124 1 0.5897 2.959198114319341 22.543283405040487 4.059633536376887 0 0 0
380 127 1 0.5897 4.566435032132251 22.930113957938637 0.5882812413353652 0 0 0
384 128 1 0.5897 1.4120102598865516 22.641741012158075 0.7397305218300437 0 0 0
458 153 1 0.5897 0.021643636288355028 24.118077454171427 4.239664968327305 1 0 0
363 121 1 0.5897 4.375304964359695 19.550282796475223 4.62285567335739 0 0 0
388 130 2 -1.1794 1.3476211309726023 18.911095497612685 4.933698039370127 0 0 0
390 130 1 0.5897 1.4810874322638243 19.852704687308435 4.825322844480751 0 0 0
382 128 2 -1.1794 1.1761206492455385 23.3003192071414 1.3930077427930494 0 0 0