LAMMPS data file via write_data, version 30 Jul 2021, timestep = 42000000

864 atoms
2 atom types
576 bonds
1 bond types
288 angles
1 angle types

0.17161914854625415 18.035953251449914 xlo xhi
0.18500710273959875 23.444170697267467 ylo yhi
0.14577508303561615 22.067420716958857 zlo zhi

Masses

1 1.00794
2 15.9994

Atoms # full

707 1 1 0.5897 3.099191202687876 1.9365270998968123 3.8646220759302 0 0 0
706 1 2 -1.1794 3.1142546944574816 1.821059573568484 2.914521256311399 0 0 0
30 1 1 0.5897 5.2609571635862595 3.9894230137193034 2.355517323122862 0 0 0
708 1 1 0.5897 2.3251195917392526 2.2664578348867535 2.60608565548666 0 0 0
29 1 1 0.5897 4.5075814085941674 2.6765105385425394 2.3354911524604867 0 0 0
28 1 2 -1.1794 5.316009897336737 3.090039858358924 2.0326902684891826 0 0 0
495 1 1 0.5897 8.208123578726479 2.195564142625482 2.7970421600617 0 0 0
1 1 2 -1.1794 0.876215443139187 3.1403308599166655 2.04663046656891 0 0 0
494 1 1 0.5897 6.694873771595336 2.2300962691672948 2.8272147701249155 0 0 0
493 1 2 -1.1794 7.448281371786369 1.7538262148486212 3.1761891696469653 0 0 0
846 1 1 0.5897 7.587614929166611 1.8345770858289037 4.9639698951438795 0 0 0
3 1 1 0.5897 0.8723865068344024 4.0133692138126715 2.4389699470216084 0 0 0
136 1 2 -1.1794 5.2769276844499275 5.721417226166387 2.866969112609308 0 0 0
597 1 1 0.5897 0.7745264148141237 5.723232890323901 4.028239613194351 0 0 0
137 1 1 0.5897 5.298708955123055 5.710961981979287 3.8238750905253065 0 0 0
595 1 2 -1.1794 0.8407471816417413 5.713049992089128 3.0733755548287 0 0 0
668 1 1 0.5897 5.307622031910145 3.2577798919550904 0.22541413434318502 0 0 0
20 1 1 0.5897 0.8408805004929673 3.1618554017616245 0.2922986476877062 0 0 0
685 1 2 -1.1794 5.302651945838193 5.866003512952053 5.610613061791942 0 0 0
786 1 1 0.5897 0.2035113727578235 2.824550664836436 6.5297214142923306 0 0 0
678 1 1 0.5897 5.213225638231006 5.010145043685613 10.130106859805649 0 0 0
487 1 2 -1.1794 3.1793609056087164 2.0515367651557983 5.668043235724704 0 0 0
784 1 2 -1.1794 0.9922110655657153 3.2972780876430647 6.7956635150840095 0 0 0
84 1 1 0.5897 6.153404836580658 2.855036683449097 6.455965748048033 0 0 0
181 1 2 -1.1794 0.9126921523278833 5.904344599224963 5.832786621909533 0 0 0
82 1 2 -1.1794 5.381420304230544 3.366507374185744 6.698196936853526 0 0 0
845 1 1 0.5897 7.5571572371304105 1.0219717629895704 6.240919863517537 0 0 0
176 1 1 0.5897 9.037203761159713 2.6943402431525882 9.78217716201303 0 0 0
183 1 1 0.5897 0.927085814743434 5.00180214089696 6.151132256135338 0 0 0
35 1 1 0.5897 0.8947761789600607 3.976073983442791 9.735536381013363 0 0 0
674 1 1 0.5897 3.7941090141289364 2.3717178470417366 10.062338898207873 0 0 0
675 1 1 0.5897 2.9669590932972016 1.1051245631343276 10.00487952027312 0 0 0
356 1 1 0.5897 7.446809932114094 1.1079241193217522 9.958374946707702 0 0 0
275 1 1 0.5897 5.208247603255479 3.3513074279220763 8.544385986323821 0 0 0
83 1 1 0.5897 4.643819843602553 2.8710374550000277 6.342260088848263 0 0 0
785 1 1 0.5897 0.9693362467052389 3.283099290490755 7.752497798068064 0 0 0
676 1 2 -1.1794 5.256930521263381 5.923894913612791 10.411681409317294 0 0 0
686 1 1 0.5897 5.348686835610447 5.003820004968466 6.023728839642478 0 0 0
274 1 2 -1.1794 5.149952066943873 3.323446886765839 9.499416823505541 0 0 0
112 1 2 -1.1794 0.7660529644856172 5.734103832133999 10.273274485340899 0 0 0
488 1 1 0.5897 2.4100196130831306 2.501132216752737 6.01764989079635 0 0 0
34 1 2 -1.1794 0.8327961536449993 3.0661145658959583 9.44524492579825 0 0 0
276 1 1 0.5897 5.9701473949881105 2.916197028325068 9.778137920022434 0 0 0
844 1 2 -1.1794 7.627914034324327 1.9196954270614812 5.916540678545285 0 0 0
489 1 1 0.5897 3.1206940206043887 1.1644842904710937 6.022778680545047 0 0 0
355 1 2 -1.1794 7.478530105983964 2.0129113633394247 10.268415398923628 0 0 0
673 1 2 -1.1794 3.0372467603564393 1.9431331737217883 10.461991740101217 0 0 0
36 1 1 0.5897 1.6281629805327362 2.652507085097535 9.780772967921878 0 0 0
166 1 2 -1.1794 3.1023496182874735 1.78766092604842 13.230641145120988 0 0 0
167 1 1 0.5897 3.174699864538598 1.8253944149159507 12.276911321105008 0 0 0
457 1 2 -1.1794 5.227280189592747 3.3122386449935695 14.10092538830349 0 0 0
458 1 1 0.5897 5.960331854621584 2.831326902246168 13.716740796939405 0 0 0
459 1 1 0.5897 4.455806614411965 2.7903322138985294 13.880299524322233 0 0 0
762 1 1 0.5897 5.277441062106918 4.9671854360566305 13.415792951038192 0 0 0
594 1 1 0.5897 8.11673380210034 2.463372624679029 13.315503673455494 0 0 0
168 1 1 0.5897 2.2931036656005404 2.2589493556933236 13.428770253686897 0 0 0
71 1 1 0.5897 5.249168512998415 3.258222531702925 15.893347505516 0 0 0
592 1 2 -1.1794 7.328758292372764 2.0232543955002447 12.996698596547926 0 0 0
466 1 2 -1.1794 0.8274979902821119 3.2433529790971747 13.84487440479443 0 0 0
593 1 1 0.5897 7.378826351387163 1.1426099145450466 13.368315915551616 0 0 0
468 1 1 0.5897 0.7409765758539228 3.1945048568094467 14.796915436512409 0 0 0
365 1 1 0.5897 0.7040976863744283 4.918227240789985 13.34153504651042 0 0 0
357 1 1 0.5897 7.405577080465118 1.9432130018221685 11.220293584068585 0 0 0
113 1 1 0.5897 0.7921968929098241 5.738287584835957 11.230121988208662 0 0 0
760 1 2 -1.1794 5.1820994866970524 5.892139959426935 13.188859489240766 0 0 0
761 1 1 0.5897 5.192634872181575 5.906774445450842 12.23181711701909 0 0 0
133 1 2 -1.1794 0.7504443071996666 3.1178796542580707 16.56071638103647 0 0 0
364 1 2 -1.1794 0.6832039585666273 5.8170031351497835 13.013052510515445 0 0 0
599 1 1 0.5897 8.959710722945532 2.720307462813821 17.06218114725573 0 0 0
755 1 1 0.5897 7.573249035879553 1.9693562499507757 18.64596697133851 0 0 0
277 1 2 -1.1794 5.207918947420876 5.8208626569659145 17.777927008031767 0 0 0
40 1 2 -1.1794 7.530036757671969 1.9541663319741416 20.45695651015536 0 0 0
360 1 1 0.5897 9.024105775170982 2.6889775856556857 20.97042915583073 0 0 0
70 1 2 -1.1794 5.255421974298936 3.2165198740780765 16.849629541319956 0 0 0
290 1 1 0.5897 2.9269640268815302 0.9929394204138211 17.333417266394072 0 0 0
754 1 2 -1.1794 7.5783781674480295 1.9352807168934232 17.689375559233042 0 0 0
646 1 2 -1.1794 0.5450982420373949 5.854646220593445 20.533205843308394 0 0 0
648 1 1 0.5897 0.6051521957630714 5.794450219872623 19.57977930196226 0 0 0
569 1 1 0.5897 2.268012436878163 2.3242757138493464 20.70336547586085 0 0 0
278 1 1 0.5897 5.202336239254145 4.9164390091692445 17.464684971834007 0 0 0
756 1 1 0.5897 6.758312843240911 2.3552811533360694 17.42986880202618 0 0 0
41 1 1 0.5897 6.7509660088826156 2.430600834579552 20.74384056533101 0 0 0
289 1 2 -1.1794 3.0088985966121786 1.9120123464282055 17.587821611806557 0 0 0
21 1 1 0.5897 0.7304973159529653 4.136429941854175 21.060760719307584 0 0 0
42 1 1 0.5897 7.414877892889957 1.0716881865974413 20.80925083114031 0 0 0
144 1 1 0.5897 5.230091186049491 5.938403676341185 19.48872806433428 0 0 0
291 1 1 0.5897 2.224062228404394 2.3299654156154452 17.23342398384977 0 0 0
72 1 1 0.5897 4.464719701302131 2.725746819782552 17.07361778310767 0 0 0
143 1 1 0.5897 5.250153529862702 5.0028071942208 20.678718830949077 0 0 0
19 1 2 -1.1794 0.7815259855791674 3.2015153755620838 21.25939873954629 0 0 0
134 1 1 0.5897 0.6601582130661111 3.9590116968430284 17.008486463178986 0 0 0
571 1 2 -1.1794 0.7244780008725423 5.579021112519658 17.81274558851433 0 0 0
669 1 1 0.5897 4.520284087900769 2.8115076811286026 20.9334361821195 0 0 0
568 1 2 -1.1794 3.061866073958614 1.8689705758694823 20.422757169528587 0 0 0
142 1 2 -1.1794 5.2295448311235555 5.930979530394527 20.445910305989354 0 0 0
667 1 2 -1.1794 5.296112335225068 3.3093361314050003 21.191307990223343 0 0 0
570 1 1 0.5897 3.0672060661826337 1.9609250090332344 19.469986883090844 0 0 0
323 1 1 0.5897 7.507356298509146 0.30020595719793874 17.026611052997897 0 1 0
123 1 1 0.5897 3.0384804161394707 8.696903458113654 2.8241449776110215 0 0 0
121 1 2 -1.1794 3.0256129594045835 9.615130798614063 3.0940040808273293 0 0 0
122 1 1 0.5897 3.057649414425967 9.584744566536203 4.050197429604571 0 0 0
44 1 1 0.5897 1.5534636096889305 10.383775042223908 2.5861910801862464 0 0 0
218 1 1 0.5897 5.983196344661664 10.661035182191537 2.5420686666276877 0 0 0
417 1 1 0.5897 8.210205726464833 6.623188215797738 2.3268357015444394 0 0 0
219 1 1 0.5897 4.473198494054927 10.55196000300294 2.548752301219043 0 0 0
254 1 1 0.5897 2.9652750216476047 7.032813507530474 1.1858724006401244 0 0 0
415 1 2 -1.1794 7.488466100226952 7.197594761731548 2.0711576600287227 0 0 0
217 1 2 -1.1794 5.19132719463713 11.097339174386256 2.2276880277856748 0 0 0
66 1 1 0.5897 7.4571676388959505 9.850751570554232 3.8726394681600818 0 0 0
65 1 1 0.5897 7.5252913981350185 8.968309626129885 2.6444314619679283 0 0 0
64 1 2 -1.1794 7.490200575316666 9.8852692165466 2.916621843160622 0 0 0
253 1 2 -1.1794 3.0600138766265346 7.046494683164547 2.1382872873199927 0 0 0
255 1 1 0.5897 2.265510702403638 6.623949008429796 2.4645888964186646 0 0 0
416 1 1 0.5897 6.701311702438239 6.740123638220005 2.3667118912327973 0 0 0
43 1 2 -1.1794 0.7651285579368947 10.829521740411598 2.2762159495230767 0 0 0
396 1 1 0.5897 0.7438532307048422 10.905492118113816 0.4653161777764325 0 0 0
162 1 1 0.5897 7.469346128243263 7.163130758954213 0.28598689390665416 0 0 1
138 1 1 0.5897 4.463231657840172 6.176655819307768 2.6503986878176016 0 0 0
363 1 1 0.5897 5.226180704271504 10.961927730966057 0.5180202635265888 0 0 1
773 1 1 0.5897 8.896845550433602 10.635329651522374 2.241249945908454 0 0 0
712 1 2 -1.1794 7.352073895011316 9.756415562071389 5.59855135583083 0 0 0
45 1 1 0.5897 0.8666291136562441 11.732794810581796 2.576097648867614 0 0 0
165 1 1 0.5897 9.065677328746807 6.140092023653613 5.918690159790827 0 0 0
552 1 1 0.5897 0.7154923827993088 11.794538315840322 6.320853100464103 0 0 0
793 1 2 -1.1794 2.9789099714601686 9.646067714842154 5.8179469667783925 0 0 0
11 1 1 0.5897 2.4287821755648586 6.700036300460656 6.378043019701309 0 0 0
677 1 1 0.5897 6.068361883091181 6.255057558120835 10.026751928192201 0 0 0
528 1 1 0.5897 8.251801993312268 6.656393171347746 9.630963226668728 0 0 0
15 1 1 0.5897 1.5728663555322795 10.632065369917925 9.70634385985144 0 0 0
258 1 1 0.5897 3.8107251301532714 10.21790323375355 10.070556520360466 0 0 0
526 1 2 -1.1794 7.491228951888703 7.097841969302153 9.252940901377364 0 0 0
147 1 1 0.5897 7.559688271724655 7.064658939867976 7.392979193771309 0 0 0
820 1 2 -1.1794 7.496382117789479 9.54625599149991 10.430036580719408 0 0 0
527 1 1 0.5897 7.45566194794965 7.941987354726126 9.702727601819578 0 0 0
114 1 1 0.5897 1.5225795458368936 6.258229572807313 10.010229683705901 0 0 0
822 1 1 0.5897 8.278936171974731 9.964173856573236 10.070580084835294 0 0 0
551 1 1 0.5897 0.7118284968289893 10.915479294512867 7.553361177017497 0 0 0
649 1 2 -1.1794 3.0411784287401638 7.249327491718837 9.522251506700272 0 0 0
577 1 2 -1.1794 5.19648175935181 11.0145138292981 6.852620380728378 0 0 0
714 1 1 0.5897 7.440057280793646 8.843406692855766 5.872056141693094 0 0 0
580 1 2 -1.1794 5.314007311653034 11.016256701390377 9.571967375501247 0 0 0
687 1 1 0.5897 4.5415128414669255 6.284477626878146 6.012850035021981 0 0 0
651 1 1 0.5897 3.8216177990614253 6.783574482367098 9.822639701505832 0 0 0
12 1 1 0.5897 3.173752374033488 8.01721238857387 6.420292761315119 0 0 0
713 1 1 0.5897 8.093914239072516 10.202001702526324 6.007664578447987 0 0 0
257 1 1 0.5897 3.002299498377912 8.93844567852097 10.036152146277601 0 0 0
146 1 1 0.5897 6.792596618782876 6.64938539334831 6.15561772051869 0 0 0
550 1 2 -1.1794 0.6563924179812467 10.8804230857183 6.598399981278691 0 0 0
795 1 1 0.5897 3.6791998541510273 10.233203825996743 6.102700870641744 0 0 0
13 1 2 -1.1794 0.7909656748210271 11.030015278618714 9.323559952726509 0 0 0
10 1 2 -1.1794 3.1903127201458337 7.126705989261615 6.770826525720862 0 0 0
578 1 1 0.5897 5.937448724110307 10.582271090888316 6.4279104816349015 0 0 0
650 1 1 0.5897 3.0943019023493177 7.215554555560866 8.567111673860305 0 0 0
581 1 1 0.5897 6.061419123872292 10.475345355672761 9.82695815783218 0 0 0
256 1 2 -1.1794 2.989074048923905 9.833214644793927 10.375787975823645 0 0 0
794 1 1 0.5897 2.1743088906722354 10.06864290576379 6.118442136349541 0 0 0
145 1 2 -1.1794 7.60780022799334 7.064753531042733 6.4369778173228465 0 0 0
582 1 1 0.5897 5.34086264801425 11.027021339983996 8.61519246946574 0 0 0
828 1 1 0.5897 7.4572624652841855 7.13470913168657 15.01950097552075 0 0 0
261 1 1 0.5897 0.8061894351897124 10.986099150515223 14.991914044130654 0 0 0
332 1 1 0.5897 2.8707048803755773 7.941607765058218 13.808620943482342 0 0 0
797 1 1 0.5897 2.990316116623509 9.718714870524714 12.14521998696734 0 0 0
796 1 2 -1.1794 3.001999868188431 9.638794316400123 13.099016302405193 0 0 0
798 1 1 0.5897 2.2500332196638775 10.153408272392502 13.392203069503745 0 0 0
722 1 1 0.5897 4.5007446093607815 10.424124182495275 13.675276961538016 0 0 0
259 1 2 -1.1794 0.835327852855085 11.04790418369676 14.037145130022473 0 0 0
721 1 2 -1.1794 5.2635991636901975 10.929851616129005 13.955509381784799 0 0 0
723 1 1 0.5897 5.246287964231491 10.880594969578816 14.911295727762955 0 0 0
331 1 2 -1.1794 2.8438150039618186 7.050921592341643 14.158037965914643 0 0 0
225 1 1 0.5897 2.938233085621053 6.9582849103818285 15.962349444932352 0 0 0
826 1 2 -1.1794 7.43740038399868 7.219191202951112 14.066232866953651 0 0 0
475 1 2 -1.1794 7.6274227405652635 9.813475061949113 13.166023134873708 0 0 0
476 1 1 0.5897 6.810501390465898 10.263003368672724 13.382389754075973 0 0 0
477 1 1 0.5897 7.499213336454036 8.918441232981403 13.48005667363691 0 0 0
827 1 1 0.5897 6.644676703789866 6.753143067455497 13.800455926064098 0 0 0
333 1 1 0.5897 3.6404121065790034 6.63813883114412 13.824422874650708 0 0 0
366 1 1 0.5897 1.4617848147579546 6.227958049472448 13.388793130899522 0 0 0
821 1 1 0.5897 7.559752743684677 9.690042181592961 11.374261398439533 0 0 0
851 1 1 0.5897 8.8196002369342 6.305791397601278 13.407464235927556 0 0 0
104 1 1 0.5897 9.048277995780692 10.695238436554382 13.800612501231775 0 0 0
445 1 2 -1.1794 0.9831042813965427 10.9696116648541 16.751891434536525 0 0 0
520 1 2 -1.1794 7.442998422259249 6.976608787189656 16.785833809374104 0 0 0
447 1 1 0.5897 0.1933398630395189 10.516454977299986 17.04712934976761 1 0 0
140 1 1 0.5897 6.68159953639523 10.201625059991587 20.87683930483724 0 0 0
6 1 1 0.5897 2.9212399785450764 7.898459711056387 21.053177765607813 0 0 0
279 1 1 0.5897 4.38657679584777 6.191655992656092 17.45517596072351 0 0 0
246 1 1 0.5897 8.989660723520311 10.432430179943005 17.13813357128679 0 0 0
679 1 2 -1.1794 5.28039675563392 10.829036496100864 16.73017845404256 0 0 0
627 1 1 0.5897 2.3353638816705167 9.98299810738191 17.47888262699522 0 0 0
139 1 2 -1.1794 7.47512174520715 9.796875760793137 20.526480648198923 0 0 0
689 1 1 0.5897 3.725825367755935 10.08229012672264 20.866780853764702 0 0 0
462 1 1 0.5897 8.962992383738737 6.234863504612069 20.87497020684313 0 0 0
287 1 1 0.5897 8.95716992824706 10.567307499085961 20.970568379175937 0 0 0
160 1 2 -1.1794 7.522221263096395 7.169423785404443 21.25190101690794 0 0 0
161 1 1 0.5897 6.752164791550389 6.6781508045482 20.965708515568846 0 0 0
711 1 1 0.5897 8.796039135946423 6.193077500134699 17.475863553721187 0 0 0
647 1 1 0.5897 1.3642612175678568 6.272233374665715 20.799374022239814 0 0 0
8 1 1 0.5897 7.485785166578396 9.678318386211782 18.67419604340713 0 0 0
394 1 2 -1.1794 0.7814904983146954 10.95307444016167 21.431674441620842 0 0 0
626 1 1 0.5897 3.035681078614587 9.525200836379883 18.740592258170093 0 0 0
7 1 2 -1.1794 7.5320867176601976 9.592071704220183 17.722003817833034 0 0 0
141 1 1 0.5897 7.433027891974969 8.88846512547545 20.825061942728894 0 0 0
361 1 2 -1.1794 5.19479995555521 10.944317935311423 21.483131573450365 0 0 0
690 1 1 0.5897 2.2172906372382086 9.954698158104389 20.858089900821263 0 0 0
9 1 1 0.5897 6.729535796574353 10.00582367704026 17.404242985795957 0 0 0
680 1 1 0.5897 4.530538087005933 10.355737071474984 17.090648818185283 0 0 0
688 1 2 -1.1794 3.012949541535714 9.553279232263954 20.508743413403515 0 0 0
572 1 1 0.5897 1.478006238909055 6.0724376399534705 17.488749860391856 0 0 0
521 1 1 0.5897 6.646502959582392 6.642647922859991 17.1985373985897 0 0 0
522 1 1 0.5897 7.477912682940889 7.898078370889183 17.0423565507598 0 0 0
224 1 1 0.5897 2.929739816889547 7.823195596950316 17.204808279514207 0 0 0
5 1 1 0.5897 3.6526563065400066 6.574395267675204 20.99322382984312 0 0 0
625 1 2 -1.1794 3.115570285465722 9.521745911524016 17.786726898670782 0 0 0
223 1 2 -1.1794 2.9006262972687455 6.910604675582789 16.917631891853333 0 0 0
4 1 2 -1.1794 2.8615422231971244 6.987146842838547 21.339669068343962 0 0 0
681 1 1 0.5897 5.202013069136499 11.712503266059258 17.09001453504105 0 0 0
200 1 1 0.5897 5.202311682067529 13.622686289370098 4.831392105740624 0 0 0
173 1 1 0.5897 4.572946959594975 14.104625519538354 2.830950511912653 0 0 0
172 1 2 -1.1794 5.385881489929323 13.670098475467862 3.0889745494511622 0 0 0
293 1 1 0.5897 3.1193008433231166 16.583388934703386 2.6548174642423175 0 0 0
558 1 1 0.5897 3.145098934958648 14.847572757238616 1.273468055367553 0 0 0
556 1 2 -1.1794 3.129571570766265 14.888037574242894 2.2296982865450694 0 0 0
557 1 1 0.5897 2.369706821287807 14.362420607779756 2.479838705700933 0 0 0
478 1 2 -1.1794 7.601676757736144 15.060362423712498 2.152324087257803 0 0 0
174 1 1 0.5897 5.2883056840134035 12.771707164334517 2.7735264894360814 0 0 0
479 1 1 0.5897 8.321048147885046 14.53671768878352 2.5052161752380626 0 0 0
449 1 1 0.5897 7.706359843617663 16.74145902307488 2.8290101939676804 0 0 0
480 1 1 0.5897 6.810123278033604 14.603433501108327 2.436761465156905 0 0 0
373 1 2 -1.1794 0.9418310019664587 13.442721748763887 3.0426155228768246 0 0 0
374 1 1 0.5897 0.8414007617544562 13.531202173452657 3.990422096292404 0 0 0
308 1 1 0.5897 7.491817537582338 17.41532907368608 4.966674417254625 0 0 0
448 1 2 -1.1794 7.716547180805383 17.622729076039455 3.202371114666907 0 0 0
294 1 1 0.5897 3.2158602697139016 17.553216090335475 3.8132313339682224 0 0 0
317 1 1 0.5897 7.568796475044598 14.85653503600781 0.3784663835639449 0 0 0
375 1 1 0.5897 0.19606434881031748 13.918392547918279 2.676814432961074 0 0 0
238 1 2 -1.1794 3.143714929554169 17.537045801923064 5.597759383542093 0 0 0
292 1 2 -1.1794 3.153340886042183 17.517943928750093 2.8587151593409135 0 0 0
59 1 1 0.5897 8.99853642607499 13.878919906802848 10.08285035099926 0 0 0
812 1 1 0.5897 3.7879608296883034 14.437619144821692 9.662108172313346 0 0 0
813 1 1 0.5897 2.2753554304809684 14.476751110794607 9.611881227130176 0 0 0
199 1 2 -1.1794 5.148231775375882 13.611359801015148 5.787009160837786 0 0 0
655 1 2 -1.1794 0.8001958782971689 13.46207513492292 5.773161703782684 0 0 0
201 1 1 0.5897 5.940903056127507 14.062451038310813 6.077599523691852 0 0 0
518 1 1 0.5897 7.511914115381219 15.711208338217437 6.468845893863757 0 0 0
239 1 1 0.5897 3.0903674526550224 16.65352359163397 5.962021520631933 0 0 0
307 1 2 -1.1794 7.462080445094779 17.38564270532769 5.922962541975467 0 0 0
766 1 2 -1.1794 0.8337232166010867 13.608349402740672 10.306842625692731 0 0 0
184 1 2 -1.1794 7.492150836410593 17.420725282363023 10.49117362863572 0 0 0
384 1 1 0.5897 3.014437368327675 16.523206905741162 10.038857809107958 0 0 0
376 1 2 -1.1794 7.579899760371902 14.853864623945704 9.551281402009627 0 0 0
454 1 2 -1.1794 5.279120019479101 13.646291696862654 10.343659998301563 0 0 0
377 1 1 0.5897 6.756058705099117 14.434960574181863 9.800393269117546 0 0 0
456 1 1 0.5897 5.235035764868204 12.729428259648165 10.072460852482541 0 0 0
18 1 1 0.5897 3.652011735726022 14.50835660882886 6.3223534405147666 0 0 0
656 1 1 0.5897 1.5259330838971756 13.986035009517153 6.112282046740377 0 0 0
16 1 2 -1.1794 2.8989969129328252 15.015440070518245 6.6257845829792075 0 0 0
186 1 1 0.5897 7.517412935392934 16.5207744425175 10.166235133632071 0 0 0
382 1 2 -1.1794 2.923802704427843 17.395917487322045 10.421361139254827 0 0 0
378 1 1 0.5897 7.542802777220744 14.907283100371808 8.596282778747817 0 0 0
517 1 2 -1.1794 7.454953629155949 14.803191133819304 6.766165172585746 0 0 0
519 1 1 0.5897 8.217933202488604 14.37519362208345 6.377668267373539 0 0 0
811 1 2 -1.1794 3.0554819018049795 14.923075763685077 9.282576199547574 0 0 0
17 1 1 0.5897 2.969462673744487 15.001931936651507 7.58030340403191 0 0 0
14 1 1 0.5897 0.76026900189597 11.909323222041722 9.700409674619122 0 0 0
579 1 1 0.5897 5.1918903260631595 11.898522846028804 6.48567879323093 0 0 0
429 1 1 0.5897 5.985539823180241 13.975343333559922 13.418402174460965 0 0 0
232 1 2 -1.1794 2.9185922632120613 14.71936095324703 13.89022029084193 0 0 0
234 1 1 0.5897 2.953989010160399 14.733452138859874 14.84667420525106 0 0 0
606 1 1 0.5897 3.057078155084094 16.40988831945993 13.400024917006638 0 0 0
427 1 2 -1.1794 5.229861254937796 13.541257023143121 13.022467864508979 0 0 0
233 1 1 0.5897 3.741092488775395 14.307339813058784 13.62567506860045 0 0 0
639 1 1 0.5897 1.371928356904943 14.086845001504457 13.331160514766987 0 0 0
428 1 1 0.5897 5.277031755415157 12.639796175847358 13.340711506630315 0 0 0
297 1 1 0.5897 8.180022887550445 14.444322735385052 13.716318952390624 0 0 0
296 1 1 0.5897 7.408313936139647 14.807965319146644 14.966993233383892 0 0 0
295 1 2 -1.1794 7.384099427972119 14.885456038313057 14.01323025479247 0 0 0
270 1 1 0.5897 7.538497073202776 16.594704227449043 13.5312401660373 0 0 0
638 1 1 0.5897 0.6186821010197849 12.774891145252539 13.387081214044343 0 0 0
637 1 2 -1.1794 0.5482510332566761 13.675164642510149 13.069764041149051 0 0 0
455 1 1 0.5897 5.236506107985992 13.616183778405201 11.299447897851616 0 0 0
767 1 1 0.5897 0.7730706427134107 13.654794460853827 11.261000492850062 0 0 0
269 1 1 0.5897 7.520741796233723 17.451388544657803 12.283193306388346 0 0 0
268 1 2 -1.1794 7.575526005496983 17.50486032143278 13.237339167628715 0 0 0
605 1 1 0.5897 3.0677207252180754 17.33380427970939 12.200813434276533 0 0 0
604 1 2 -1.1794 3.120362063387911 17.33339396319065 13.156579216787213 0 0 0
51 1 1 0.5897 8.082006720644735 14.302684514961975 17.0596802340321 0 0 0
159 1 1 0.5897 7.480714079233957 17.364970104090716 19.44715624196673 0 0 0
823 1 2 -1.1794 3.069350192643752 14.722328421662233 16.639849912775286 0 0 0
584 1 1 0.5897 3.05970700603712 16.439365957005414 17.25000197825612 0 0 0
49 1 2 -1.1794 7.290547874033997 14.750657919319268 16.761083601930377 0 0 0
683 1 1 0.5897 6.022761402671985 13.878507858154547 20.75797409829298 0 0 0
716 1 1 0.5897 2.9464198961416908 17.46489400838906 19.428249437433312 0 0 0
117 1 1 0.5897 8.945619399277797 13.957954642085546 20.749365758434756 0 0 0
583 1 2 -1.1794 3.022218810545601 17.325590078192008 17.609641532476104 0 0 0
682 1 2 -1.1794 5.229766404637234 13.450097719432884 20.435682611493277 0 0 0
50 1 1 0.5897 7.379629326481606 15.643254563421364 17.094959149212233 0 0 0
666 1 1 0.5897 3.0509260178411814 15.766774379662287 21.025157850890164 0 0 0
124 1 2 -1.1794 5.101026367409699 13.347113068399748 17.70457834367312 0 0 0
126 1 1 0.5897 5.891525266766904 13.797152888951048 17.406541998437213 0 0 0
53 1 1 0.5897 0.8297863201901082 13.576272775303492 18.651485583578243 0 0 0
451 1 2 -1.1794 0.9987475565808617 13.475756006764476 20.415635806703 0 0 0
715 1 2 -1.1794 2.971510174299319 17.42927042918057 20.384472999832347 0 0 0
452 1 1 0.5897 0.918301417192709 12.58754846249252 20.763132869120323 0 0 0
610 1 2 -1.1794 7.503975671831938 17.36736619295928 17.680170836008653 0 0 0
664 1 2 -1.1794 3.128684781709052 14.897781667311808 21.418796021519938 0 0 0
157 1 2 -1.1794 7.487207458369664 17.32893220160731 20.403667159355347 0 0 0
665 1 1 0.5897 2.384333912954143 14.408297661797137 21.06867243416026 0 0 0
684 1 1 0.5897 4.512619727098621 13.983933713033286 20.777668637610034 0 0 0
316 1 2 -1.1794 7.508599215319791 14.775081359226354 21.348273348383522 0 0 0
825 1 1 0.5897 2.276522932624957 14.348573681611756 17.024541876475325 0 0 0
52 1 2 -1.1794 0.8065155176666489 13.580788260694197 17.69456792819768 0 0 0
824 1 1 0.5897 3.7853839034584866 14.225067350656095 17.035149622838464 0 0 0
318 1 1 0.5897 7.475500782915803 15.677776641205382 21.031760554515635 0 0 0
125 1 1 0.5897 5.118039117563355 13.437729648202536 18.657338340152812 0 0 0
362 1 1 0.5897 5.182277040867102 11.8663071055687 21.226406238320234 0 0 0
453 1 1 0.5897 0.19949448428663885 13.918407533256273 20.701126025520395 0 0 0
446 1 1 0.5897 0.8762485129053498 11.867370022923955 17.066133360993216 0 0 0
267 1 1 0.5897 5.926574388637509 21.687393704150807 2.788617413650122 0 0 0
696 1 1 0.5897 1.4175115385534796 21.742607711271482 2.651802114058348 0 0 0
266 1 1 0.5897 4.416345845541747 21.65239120832787 2.8886956026739816 0 0 0
265 1 2 -1.1794 5.2065729037594215 21.21866965617994 3.210679776158995 0 0 0
228 1 1 0.5897 5.3013659588278665 19.566117654772377 2.513898884653244 0 0 0
343 1 2 -1.1794 0.7701477484512477 18.65341987555832 2.1208659120121056 0 0 0
249 1 1 0.5897 5.197626856677338 21.219622967358156 5.023834878237349 0 0 0
226 1 2 -1.1794 5.453324977428196 18.690666341704024 2.1580373581164247 0 0 0
187 1 2 -1.1794 3.0175027719565635 22.43672414762497 2.1197563834731517 0 0 0
818 1 1 0.5897 8.120505983615548 22.107133707345398 2.460465034553576 0 0 0
189 1 1 0.5897 3.099702251644925 22.436909260169138 1.1660811162753995 0 0 0
344 1 1 0.5897 1.617680542031032 18.283997094033538 2.368804501392857 0 0 0
817 1 2 -1.1794 7.349422364195957 22.536021510125522 2.089340925555134 0 0 0
345 1 1 0.5897 0.8168710688930183 18.743621017138523 1.169058788116905 0 0 0
413 1 1 0.5897 0.8144179515170303 21.33540021931953 4.782541402321273 0 0 0
695 1 1 0.5897 0.664510921778539 20.4302965877755 2.702366567875648 0 0 0
227 1 1 0.5897 4.67696702066456 18.190929347070302 2.4105707955705227 0 0 0
694 1 2 -1.1794 0.6080883075584462 21.346265493099637 2.9743010968232904 0 0 0
450 1 1 0.5897 6.920579049867383 18.0348536210713 2.8664574503899347 0 0 0
498 1 1 0.5897 7.378647280449514 22.567693076858696 0.338005885442208 0 0 0
602 1 1 0.5897 5.360118279146963 18.662640453180643 0.38163067045863985 0 0 0
321 1 1 0.5897 9.08806705991477 18.402477750092118 2.5342719455615748 0 0 0
188 1 1 0.5897 3.0440088567056964 23.36204155712739 2.363099224377398 0 0 0
819 1 1 0.5897 7.341481955017146 23.4047898003059 2.4909898432392756 0 -1 0
387 1 1 0.5897 5.427841503521851 19.553444186722906 6.600906513742378 0 0 0
702 1 1 0.5897 2.2443631586332513 22.295947264030332 6.363067549609999 0 0 0
102 1 1 0.5897 5.249813821832028 18.725495053582165 8.671590271595962 0 0 0
38 1 1 0.5897 2.1516349123757843 22.182442333212308 9.569267949681707 0 0 0
342 1 1 0.5897 0.8696370812954474 18.617001566235473 7.5201553114628465 0 0 0
247 1 2 -1.1794 5.251102501407763 21.27113527349946 5.978161972778112 0 0 0
383 1 1 0.5897 3.7131249450796933 17.86192079534799 10.145578937902307 0 0 0
31 1 2 -1.1794 7.439063398223221 22.628721330527263 6.842316235066588 0 0 0
309 1 1 0.5897 8.241597691921887 17.865796826065576 6.202331212271299 0 0 0
87 1 1 0.5897 8.216828200760496 22.144966152556343 9.834183875166294 0 0 0
85 1 2 -1.1794 7.433760378162849 22.621091230103538 9.55786378457785 0 0 0
185 1 1 0.5897 8.278549973029175 17.828823390368797 10.128840734990003 0 0 0
86 1 1 0.5897 7.445066158074579 22.567559009955197 8.602217940561463 0 0 0
33 1 1 0.5897 6.687491166486056 22.168556432361477 6.46864233488969 0 0 0
553 1 2 -1.1794 5.088223669865369 21.42863093036093 10.411315814865143 0 0 0
248 1 1 0.5897 4.483624088087573 21.782624543497157 6.234267930446227 0 0 0
701 1 1 0.5897 3.014123640207279 22.742845369094987 7.58768635254542 0 0 0
403 1 2 -1.1794 0.7778978940668879 18.577984349371008 9.260998508275096 0 0 0
32 1 1 0.5897 8.20013574402716 22.142145814211624 6.525678945841568 0 0 0
555 1 1 0.5897 5.1908117540266066 20.518052589750106 10.134811565014918 0 0 0
340 1 2 -1.1794 0.8633402064221951 18.68876154838953 6.565659060655867 0 0 0
37 1 2 -1.1794 2.9203694597559484 22.703410004141034 9.337155959023526 0 0 0
404 1 1 0.5897 1.5783345167086225 18.21176166858956 9.637090739420266 0 0 0
39 1 1 0.5897 3.649346888458096 22.263802521090383 9.77485467655154 0 0 0
101 1 1 0.5897 5.983534287073151 18.319088917701507 9.931921752764566 0 0 0
700 1 2 -1.1794 3.0410367704093932 22.754000197594138 6.6309185172193805 0 0 0
240 1 1 0.5897 3.900894699797303 17.930208382404658 6.031755827734256 0 0 0
386 1 1 0.5897 5.9943641453942025 18.15469993174638 6.481469662330499 0 0 0
100 1 2 -1.1794 5.204087406402235 18.78288889620889 9.625984248930305 0 0 0
554 1 1 0.5897 5.908126457511419 21.851001343882523 10.155161576998696 0 0 0
341 1 1 0.5897 1.6451687661115784 18.213666548485747 6.284104188661511 0 0 0
385 1 2 -1.1794 5.266089571053135 18.646574112236344 6.860836133398814 0 0 0
414 1 1 0.5897 0.8140381456247543 20.351860904090387 5.933394057079814 0 0 0
405 1 1 0.5897 0.8178584619156862 19.510441299583213 9.4732570659192 0 0 0
412 1 2 -1.1794 0.9295803543185681 21.28024643330606 5.731198769564473 0 0 0
94 1 2 -1.1794 0.8373997544684207 21.16643344056787 10.095454259607985 0 0 0
96 1 1 0.5897 0.8205907921957937 21.18417778167145 11.052355689914371 0 0 0
88 1 2 -1.1794 5.154436085266779 21.447109873914023 13.124227984629844 0 0 0
381 1 1 0.5897 1.5334350915230142 21.774763774589758 13.257057842082832 0 0 0
90 1 1 0.5897 5.179844230432935 20.53810142565238 13.422876464643162 0 0 0
763 1 2 -1.1794 5.282958502847476 18.87449587475217 13.943537881885394 0 0 0
738 1 1 0.5897 3.6514520089812272 22.067027355921432 13.829098062404617 0 0 0
89 1 1 0.5897 5.11400413346129 21.385158654375296 12.169879613271632 0 0 0
736 1 2 -1.1794 2.86736513919304 22.51022386941142 14.15318375081203 0 0 0
789 1 1 0.5897 6.709562151164799 22.27079762977987 13.656710227591843 0 0 0
765 1 1 0.5897 6.082234594413604 18.37988256546629 13.762535176175234 0 0 0
787 1 2 -1.1794 7.473682215926748 22.761440829255022 13.959414305590307 0 0 0