LAMMPS (30 Jul 2021)
Processor partition = 1
  using 4 OpenMP thread(s) per MPI task
using multi-threaded neighbor list subroutines
variable        pid world 0 1
variable        phase world IceIh Liquid

shell cd ${phase}
shell cd Liquid
include Restart.lmp
echo both
log log.lammps
#include		in.partitions
include		in.temp
variable        temperature equal 276.69
variable	tempDamp equal 100.0
include		in.pressure
variable        pressure equal -1125.0
variable        pressureDamp equal 1000.0 # This is 1 ps
include		in.seed
variable        seed equal 745823

units		real
atom_style	full
read_restart	restart.lmp.${pid}
read_restart	restart.lmp.1
Reading restart file ...
  restart file = 30 Jul 2021, LAMMPS = 30 Jul 2021
  restoring atom style full from restart
  orthogonal box = (-0.24364542 0.80454915 -0.29724684) to (18.451218 22.824629 22.510443)
  2 by 2 by 4 MPI processor grid
  restoring pair style lj/cut/tip4p/long/omp from restart
  restoring bond style harmonic/omp from restart
  restoring angle style harmonic/omp from restart
  864 atoms
  576 bonds
  288 angles
Finding 1-2 1-3 1-4 neighbors ...
  special bond factors lj:    0        0        0       
  special bond factors coul:  0        0        0       
     2 = max # of 1-2 neighbors
     1 = max # of 1-3 neighbors
     1 = max # of 1-4 neighbors
     2 = max # of special neighbors
  special bonds CPU = 0.001 seconds
  read_restart CPU = 0.005 seconds
include 	in.setup
variable	out_freq equal 1000
variable	out_freq2 equal 10000
variable	out_freq3 equal 1000

timestep	2.0

neigh_modify    delay 7 every 1

include		in.tip4p
# This is TIP4P/Ice

# create groups ###
group ox type 2
288 atoms in group ox
group hy type 1
576 atoms in group hy

# set charges - beside manually ###
set group ox charge -1.1794
Setting atom values ...
  288 settings made for charge
set group hy charge 0.5897
Setting atom values ...
  576 settings made for charge

# ### TIP3P Potential Parameters ###
pair_style lj/cut/tip4p/long/omp 2 1 1 1 0.1577 8.5
pair_coeff 1 1*2 0.000 0.000
pair_coeff 2 2 0.21084 3.1668
bond_style  harmonic
bond_coeff  1 450 0.9572
angle_style harmonic
angle_coeff 1 55 104.52
kspace_style pppm/tip4p/omp 1.0e-5
pair_modify tail yes

thermo          ${out_freq}
thermo          1000
thermo_style    custom step temp pe etotal epair emol press lx ly lz vol pxx pyy pzz pxy pxz pyz enthalpy

restart 	${out_freq3} restart.lmp.${pid} restart2.lmp.${pid}
restart 	1000 restart.lmp.${pid} restart2.lmp.${pid}
restart 	1000 restart.lmp.1 restart2.lmp.${pid}
restart 	1000 restart.lmp.1 restart2.lmp.1


include         in.dump
dump            myDump all atom ${out_freq2} dump.water.${pid}
dump            myDump all atom 10000 dump.water.${pid}
dump            myDump all atom 10000 dump.water.1
dump            myDump2 all dcd ${out_freq2} dump.dcd
dump            myDump2 all dcd 10000 dump.dcd
dump_modify     myDump append yes
dump_modify     myDump2 append yes


variable natoms 	equal  "count(all)"                        # NUMBER ATOMS
variable H      	equal  "enthalpy/v_natoms"                 # ENTHALPY-per-atom
variable Vol      	equal  "vol/v_natoms"                 # volume-per-atom
fix AVG all 		ave/time ${out_freq} 1 ${out_freq} v_Vol v_H file vol_enthalpy.dat
fix AVG all 		ave/time 1000 1 ${out_freq} v_Vol v_H file vol_enthalpy.dat
fix AVG all 		ave/time 1000 1 1000 v_Vol v_H file vol_enthalpy.dat


timer           timeout 23:50:00 every 1000
New timer settings: style=normal  mode=nosync  timeout=23:50:00

fix 		1 all shake 1e-6 200 0 b 1 a 1
Finding SHAKE clusters ...
       0 = # of size 2 clusters
       0 = # of size 3 clusters
       0 = # of size 4 clusters
     288 = # of frozen angles
  find clusters CPU = 0.000 seconds
fix             2 all nph iso ${pressure} ${pressure} ${pressureDamp}
fix             2 all nph iso -1125 ${pressure} ${pressureDamp}
fix             2 all nph iso -1125 -1125 ${pressureDamp}
fix             2 all nph iso -1125 -1125 1000
fix             3 all temp/csvr ${temperature} ${temperature} ${tempDamp} ${seed}
fix             3 all temp/csvr 276.69 ${temperature} ${tempDamp} ${seed}
fix             3 all temp/csvr 276.69 276.69 ${tempDamp} ${seed}
fix             3 all temp/csvr 276.69 276.69 100 ${seed}
fix             3 all temp/csvr 276.69 276.69 100 745823

run             250000
PPPM initialization ...
  extracting TIP4P info from pair style
  using 12-bit tables for long-range coulomb (../kspace.cpp:340)
  G vector (1/distance) = 0.37172758
  grid = 24 25 27
  stencil order = 5
  estimated absolute RMS force accuracy = 0.0031350203
  estimated relative force accuracy = 9.4410205e-06
  using double precision FFTW3
  3d grid and FFT values/proc = 5700 1200
Last active /omp style is kspace_style pppm/tip4p/omp
Neighbor list info ...
  update every 1 steps, delay 7 steps, check yes
  max neighbors/atom: 2000, page size: 100000
  master list distance cutoff = 10.8154
  ghost atom cutoff = 10.8154
  binsize = 5.4077, bins = 4 5 5
  1 neighbor lists, perpetual/occasional/extra = 1 0 0
  (1) pair lj/cut/tip4p/long/omp, perpetual
      attributes: half, newton on, omp
      pair build: half/bin/newton/omp
      stencil: half/bin/3d
      bin: standard
Setting up Verlet run ...
  Unit style    : real
  Current step  : 4500000
  Time step     : 2
  Walltime left : 23:49:59.96
Per MPI rank memory allocation (min/avg/max) = 12.19 | 12.21 | 12.23 Mbytes
Step Temp PotEng TotEng E_pair E_mol Press Lx Ly Lz Volume Pxx Pyy Pzz Pxy Pxz Pyz Enthalpy 
 4500000    288.92474   -3872.2563   -3377.0492   -3872.2563            0   -479.56135    18.694863    22.020079    22.807689    9389.0676   -862.32842   -307.11765   -269.23798    565.63419   -498.29029    227.88663   -3442.7155 
 4501000     281.4056   -3882.4219   -3400.1024   -3882.4219            0   -1605.7783    18.801545    22.145737    22.937841    9550.7223   -1459.3736   -2127.7175   -1230.2438    155.81522   -257.90776    212.89653   -3623.7672 
 4502000    283.51055   -3903.3175   -3417.3902   -3903.3175            0   -1604.6593     18.85615    22.210054    23.004459    9634.1782   -1777.6607   -687.41197   -2348.9051    652.68735   -157.73718    442.08471   -3642.8522 
 4503000    275.76604   -3892.9728   -3420.3192   -3892.9728            0   -1355.5403     18.73449    22.066755    22.856034    9448.8997   -1837.7118   -700.89943   -1528.0097    -379.0043     49.83281   -80.890637   -3607.1161 
 4504000    248.80074   -3883.7638   -3457.3279   -3883.7638            0   -1651.5472     18.71652    22.045588     22.83411    9421.7346   -2064.3605   -1953.5728   -936.70835   -354.50369    1059.7103    628.31773   -3684.2609 
 4505000    281.22301   -3898.2144   -3416.2078   -3898.2144            0   -84.402174    18.645717    21.962192    22.747732    9315.2149    468.23567    -574.2718   -147.17038   -53.138984     480.9533    231.62965    -3427.674 
 4506000    286.72735    -3916.448   -3425.0071    -3916.448            0   -1140.6019    18.647912    21.964777    22.750409     9318.505   -1566.5902   -1226.5565   -628.65897    43.872869   -139.38842    848.44119   -3580.0159 
 4507000     278.5082   -3915.9387   -3438.5852   -3915.9387            0   -1124.2563    18.739274    22.072389     22.86187    9456.1389   -1163.4628   -1286.6113   -922.69468    766.60188    328.69766    516.79071   -3593.6292 
 4508000     269.8148   -3884.5447   -3422.0913   -3884.5447            0   -385.52668    18.781074    22.121624    22.912866    9519.5591   -663.06554   -1621.3947    1127.8802    -446.7804    368.61074   -154.76067   -3475.6152 
 4509000    292.98883   -3874.1695   -3371.9967   -3874.1695            0   -113.13964    18.750558    22.085681    22.875637    9473.2325   -355.94781   -232.82087    249.34976    925.58795    14.498812   -307.27349   -3387.6277 
 4510000    277.08812   -3897.9458   -3423.0262   -3897.9458            0   -396.62999     18.75218    22.087591    22.877616    9475.6912    681.85564   -2026.0165    154.27084   -509.09076     139.2821    677.41776   -3477.8378 
 4511000    288.43571   -3891.1466   -3396.7777   -3891.1466            0   -2002.7214     18.91576    22.280267    23.077183     9725.837   -2714.2512   -1762.6172   -1531.2958   -248.51012    -952.7317   -71.522594   -3680.8464 
 4512000     292.7037   -3836.6516   -3334.9675   -3836.6516            0   -1347.5794    18.839448    22.190382    22.984083    9608.6007   -837.74109   -2004.0834   -1200.9136    356.04792   -258.75952    15.255971   -3523.8059 
 4513000    272.05496    -3800.398   -3334.1051    -3800.398            0   -691.78974    18.737452    22.070243    22.859647    9453.3809   -1107.7076   -1007.1179     39.45631   -754.00726    242.76328   -335.12528   -3429.4806 
 4514000    265.77234   -3845.9875   -3390.4628   -3845.9875            0   -253.76186    18.633535    21.947844     22.73287     9296.969   -318.51899   -454.97736    12.210766   -336.01376    527.77269    435.87858   -3424.8695 
 4515000    282.45804   -3847.9108   -3363.7874   -3847.9108            0   -1698.8656    18.787841    22.129595    22.921122    9529.8533   -482.05909   -1273.0792   -3341.4586   -175.99065    108.98561   -458.93811   -3599.9011 
 4516000    287.90094   -3871.6726   -3378.2202   -3871.6726            0   -740.65882    18.765905    22.103757     22.89436    9496.5121   -450.61317   -2138.1658    366.80248   -450.89536   -1049.7691   -1746.9241   -3480.7991 
 4517000    272.90765   -3826.4203   -3358.6659   -3826.4203            0   -1585.8972    18.761132    22.098135    22.888537    9489.2679   -1139.6599   -1246.8257    -2371.206   -1017.6409    -439.2494    -806.2712   -3578.1402 
 4518000    259.01128   -3861.2923   -3417.3558   -3861.2923            0   -784.28358    18.726211    22.057003    22.845934    9436.3778   -478.17979   -1085.0044   -789.66651    149.64659    644.32033     -681.316   -3525.2888 
 4519000    287.09874   -3881.5544   -3389.4769   -3881.5544            0   -1265.8449    18.786069    22.127508    22.918961    9527.1577   -1102.0069    -1856.136   -839.39168   -55.710813    613.51492   -1162.4147   -3565.3583 
 4520000    261.80514   -3851.7225   -3402.9975   -3851.7225            0   -1355.9456    18.748083    22.082765    22.872617     9469.481   -1698.1889   -1402.5446   -967.10322   -38.388946    1595.3425    513.61995   -3590.2572 
 4521000    284.79306   -3905.3886    -3417.263   -3905.3886            0   -275.27187    18.744623     22.07869    22.868396    9464.2389   -1066.4788    -404.7715    645.43464   -633.96305    260.84454    467.89342   -3455.2578 
 4522000    290.11098   -3883.9799   -3386.7396   -3883.9799            0   -648.30214     18.67662    21.998592    22.785433    9361.6084    -1432.182   -191.95675   -320.76771    1288.5489    143.14655   -286.71915    -3475.252 
 4523000    265.46233   -3877.9283    -3422.935   -3877.9283            0   -1473.3584    18.680747    22.003452    22.790468    9367.8149   -1121.9543    -1049.634   -2248.4868   -557.70646    165.12411    409.66916   -3624.2252 
 4524000    288.37813   -3830.9066   -3336.6364   -3830.9066            0    -1746.104    18.733494    22.065581    22.854819    9447.3923   -2123.7144   -1746.0075   -1368.5902   -982.61342   -687.49068    58.625691   -3577.2155 
 4525000    275.69282   -3853.6927   -3381.1647   -3853.6927            0      158.222    18.583648    21.889083    22.672008     9222.497    -75.21327    425.73842    124.14085   -882.97137   -619.55765   -437.52436   -3359.8837 
 4526000    285.44967   -3820.8878   -3331.6369   -3820.8878            0   -806.25962    18.589608    21.896102    22.679278    9231.3721   -960.91395   -268.18777   -1189.6771   -121.42996   -797.61244   -39.871459   -3440.1837 
 4527000    286.95386   -3834.4246   -3342.5955   -3834.4246            0   -147.04448    18.624052    21.936674      22.7213    9282.7817    208.02615    871.63348   -1520.7931   -1289.9194   -854.56679    313.48327   -3362.5024 
 4528000    274.92153   -3878.5774   -3407.3713   -3878.5774            0   -1028.0153    18.632781    21.946955    22.731949    9295.8398   -731.05014   -1093.2902   -1259.7057   -421.74469   -740.12771   -580.46209   -3546.7397 
 4529000    259.63785   -3872.5084    -3427.498   -3872.5084            0   -2485.6319    18.793144    22.135841    22.927592    9537.9254    -3323.058    -1675.532   -2458.3057   -562.84435   -61.518894    96.772992   -3773.2515 
 4530000     291.4502   -3824.0156   -3324.4799   -3824.0156            0   -1643.5777    18.649862    21.967075    22.752789    9321.4289   -1914.2004   -947.61272     -2068.92    1154.9602   -736.74069    1332.0566   -3547.9136 
 4531000    273.14618   -3804.5473   -3336.3841   -3804.5473            0    209.21802    18.572653    21.876133    22.658594    9206.1375   -385.16126    454.96599    557.84933    156.27001     580.8998    785.91924    -3308.294 
 4532000    280.22023   -3844.5218   -3364.2339   -3844.5218            0   -1413.5358    18.708989    22.036718    22.824923    9410.3672   -892.36934   -1498.0694   -1850.1687    46.275779   -77.535947    310.12237   -3558.2283 
 4533000    269.74136   -3830.0324    -3367.705   -3830.0324            0   -2724.7425    18.671379    21.992419    22.779039    9353.7294   -3725.0369   -1902.7469   -2546.4436    52.653098   -318.19439    18.263867   -3739.3995 
 4534000    273.53679   -3871.1118   -3402.2791   -3871.1118            0   -433.55421    18.620105    21.932025    22.716485    9276.8811   -289.62504    262.95646   -1273.9941    -443.6789    806.15738   -776.07205   -3460.9363 
 4535000    280.90583   -3884.8675   -3403.4045   -3884.8675            0    468.59749    18.539328    21.836879    22.617937    9156.6694    1016.4974   -59.614175     448.9092    1198.3086   -358.38577    964.41279   -3340.8277 
 4536000    270.62942   -3857.5331   -3393.6835   -3857.5331            0   -569.04019    18.509109    21.801285    22.581069    9111.9662   -757.01805   -1013.2997    63.197162    130.50037    1496.4796   -486.95486   -3469.3025 
 4537000    290.42935   -3834.1004   -3336.3144   -3834.1004            0   -2295.9988    18.637496    21.952508    22.737701    9302.8977   -3059.8695   -2517.5513   -1310.5755   -445.05767   -160.84259    677.75573     -3647.82 
 4538000    280.49737   -3824.6866   -3343.9237   -3824.6866            0   -1320.3048    18.517997    21.811755    22.591913    9125.0999   -876.18692   -1003.0998   -2081.6275   -1546.3449    916.71982     494.7152   -3519.6302 
 4539000    281.90603   -3838.7547   -3355.5774   -3838.7547            0   -506.35139    18.459073     21.74235    22.520026    9038.2687   -1269.1723   -251.61898    1.7370726     520.3676   -441.24228   -395.34716   -3422.3215 
 4540000    277.76644   -3847.9911   -3371.9089   -3847.9911            0   -1304.5427    18.520201     21.81435    22.594602    9128.3577   -1300.9132   -1579.3009   -1033.4139    649.84973     1138.919   -991.93887   -3545.5797 
 4541000    265.60389   -3829.3191   -3374.0831   -3829.3191            0   -921.53721    18.494242    21.783775    22.562933    9090.0282   -2320.1819   -378.70019   -65.729546   -479.66471    808.52963    477.59244   -3496.2501 
 4542000     276.1378   -3851.9878    -3378.697   -3851.9878            0   -1108.0421     18.52876    21.824432    22.605044    9141.0207   -90.035327   -2367.7457   -866.34519   -1093.4666    1004.4255    151.20728   -3526.4128 
 4543000    273.97113   -3816.0576   -3346.4805   -3816.0576            0   -517.51366    18.546352    21.845153    22.626506    9167.0818   -1350.5986   -543.35458    341.41219   -902.11203   -547.41138   -157.42788   -3415.6681 
 4544000    274.90365   -3816.3738   -3345.1983   -3816.3738            0   -571.70761    18.656723    21.975156    22.761159      9331.72   -1071.1342   -145.02803   -498.96061   -279.84602    536.66142    1173.5395    -3423.004 
 4545000    262.90546   -3857.1879    -3406.577   -3857.1879            0   -1227.6367    18.572388    21.875819    22.658269    9205.7421   -1310.8203   -481.58765   -1890.5022   -90.451043   -336.26647    457.45611   -3571.3949 
 4546000    287.38328   -3799.5144   -3306.9493   -3799.5144            0     -1727.68    18.779092     22.11929    22.910449    9516.5467   -3092.9526   -429.23922   -1660.8481   -41.388183    166.75298    118.48987   -3546.7324 
 4547000    269.69787   -3800.1883   -3337.9354   -3800.1883            0   -789.31392    18.587462    21.893575     22.67666    9228.1762    920.18332   -1429.0989   -1859.0262   -1090.3451    836.24157     691.6222    -3444.164 
 4548000    285.06528   -3825.2576   -3336.6655   -3825.2576            0   -810.92728    18.524904     21.81989     22.60034    9135.3141   -1277.6122   -1071.4179   -83.751719    311.34785   -87.591706   -818.42881   -3444.7047 
 4549000    279.49851   -3781.9332   -3302.8823   -3781.9332            0      276.709    18.516113    21.809535    22.589614    9122.3142   -185.85504    569.14407    446.83795   -734.32532    1084.0283    648.70975   -3266.0691 
 4550000    278.75707   -3811.7014   -3333.9213   -3811.7014            0   -755.77605    18.453704    21.736026    22.513476    9030.3851   -1904.8886   -1270.6865    908.24693    696.46442    239.65684   -163.65206   -3433.4562 
 4551000    276.97322   -3772.6431   -3297.9204   -3772.6431            0   -911.54155      18.5512    21.850863    22.632421    9174.2721   -993.29027   -2905.2656    1163.9313   -464.45929   -417.34664    236.74907   -3419.8823 
 4552000    267.23035   -3814.2604   -3356.2367   -3814.2604            0   -1449.7845    18.496684    21.786651    22.565912    9093.6294    -750.5243   -2170.1037   -1428.7257   -326.77179    1152.9361   -64.644216    -3548.509 
 4553000    264.60878   -3789.7579   -3336.2275   -3789.7579            0   -1047.6739    18.632997    21.947209    22.732212    9296.1626   -1015.7452   -95.629068   -2031.6474   -405.63947   -140.15359    503.36846   -3478.2659 
 4554000    283.44388   -3812.5321    -3326.719   -3812.5321            0   -187.83076    18.645455    21.961883    22.747412    9314.8218   -178.15069   -323.09559   -62.245991    159.00149    -591.5044   -418.59359   -3352.2353 
 4555000    275.02282   -3793.1433   -3321.7636   -3793.1433            0   -1660.9828    18.759287    22.095962    22.886287     9486.469   -3599.5174   -1099.8099    -283.6211   -405.39714   -397.36028   -45.547585   -3551.5613 
 4556000    278.72693   -3804.0145   -3326.2861   -3804.0145            0   -705.12931    18.725146    22.055748    22.844634    9434.7674   -1110.8522   -770.34478   -234.19091   -1284.1243   -587.49783   -136.01401   -3423.3093 
 4557000    283.37587   -3851.5258   -3365.8293   -3851.5258            0   -429.57132    18.632788    21.946963    22.731958    9295.8502   -1339.6227   -20.677017    71.585736   -77.216176    903.78514   -180.01863   -3424.0665 
 4558000    276.54848   -3837.9639   -3363.9693   -3837.9639            0   -1806.7641    18.733547    22.065644    22.854884     9447.473    -1423.319   -1950.6115   -2046.3618    524.91385    -2137.619    302.57855   -3612.9083 
 4559000    281.29136   -3852.4811   -3370.3573   -3852.4811            0   -671.25075    18.664746    21.984606    22.770947     9343.764   -986.03776   -1056.1129    28.398402    672.39381    725.91901    206.33553   -3461.8282 
 4560000    261.43591   -3814.4987   -3366.4065   -3814.4987            0   -906.68709    18.675203    21.996922    22.783703    9359.4764   -1722.3408    39.943551    -1037.664   -1058.8052   -796.19194    795.91191   -3490.1678 
 4561000    258.32294   -3771.6623   -3328.9056   -3771.6623            0   -1978.8872      18.6998    22.025894    22.813712    9396.5073   -3160.1801    -880.0901   -1896.3914   -389.50268     352.5742   -1467.6236   -3600.0892 
 4562000    286.03746   -3808.3524   -3318.0939   -3808.3524            0   -1817.8149    18.571397    21.874652     22.65706    9204.2686   -2140.5894   -1711.2989   -1601.5562    171.96531    804.98785    -74.93666    -3562.108 
 4563000    311.55009   -3840.8083   -3306.8221   -3840.8083            0   -1081.7177     18.54686    21.845751    22.627125    9167.8341   -1202.2686   -1584.9078   -457.97688   -286.18683    784.04807   -74.605614   -3451.4515 
 4564000     277.1922   -3803.5276   -3328.4296   -3803.5276            0    852.58578    18.616692    21.928004     22.71232    9271.7796   -16.796823     2114.011    460.54313    793.21862    924.48533    202.55025   -3213.1435 
 4565000    269.14978   -3836.8996   -3375.5861   -3836.8996            0   -877.32636    18.711039    22.039132    22.827423    9413.4598    -243.2557   -1749.2394     -639.484    157.37687    210.38411   -728.23609   -3496.0304 
 4566000     300.5744   -3813.4638   -3298.2895   -3813.4638            0   -1175.9708    18.509367     21.80159    22.581385    9112.3482   -1451.3391   -1688.0396   -388.53363   -36.399805   -537.69253   -234.21689   -3454.5693 
 4567000    264.91524   -3833.9721   -3379.9164   -3833.9721            0   -1617.6364    18.472728    21.758434    22.536685    9058.3418   -893.56332   -2403.6848   -1555.6611    1489.0466   -402.82296   -566.35753   -3593.6169 
 4568000    269.41283   -3808.0753   -3346.3109   -3808.0753            0   -1939.3442    18.411088     21.68583    22.461485    8967.9665   -2284.7126   -2368.9366   -1164.3835    -283.1084    829.21125   -283.90362    -3599.955 
 4569000    271.70701    -3850.525   -3384.8284    -3850.525            0   -96.977533    18.457884    21.740949    22.518576    9036.5225   -125.39252    857.82565   -1023.3657    1147.3886   -344.28686    214.54123    -3397.609 
 4570000    277.94609   -3799.4174   -3323.0273   -3799.4174            0   -2066.2052    18.402861     21.67614    22.451448    8955.9498   -2162.7005   -2458.9552     -1576.96     112.6012   -861.19939    886.21762   -3592.9013 
 4571000    278.18178   -3809.2843   -3332.4902   -3809.2843            0   -1427.2203    18.394861    21.666717    22.441688    8944.2752   -1113.8313   -1458.4455    -1709.384    544.87694    510.62806    1193.8466   -3518.6612 
 4572000    299.39343   -3768.9017   -3255.7516   -3768.9017            0   -911.08464    18.527462    21.822903    22.603461    9139.0993   -2078.6205   -463.11319   -191.52029     101.9865   -214.87175   -498.02184    -3377.185 
 4573000    261.71826    -3787.122   -3338.5459    -3787.122            0   -971.95259    18.445061    21.725846    22.502932    9017.7023   -499.00146    64.737993   -2481.5943   -240.17157    1562.7687   -867.67405   -3466.3712 
 4574000     284.9051   -3830.4203   -3342.1027   -3830.4203            0   -1927.1731     18.56326    21.865068    22.647133    9192.1754   -2480.6193   -1222.7173   -2078.1826     66.53225   -1531.5468   -17.193812   -3600.4565 
 4575000    268.23728   -3806.3404   -3346.5909   -3806.3404            0   -588.96048    18.625144    21.937959    22.722632    9284.4137   -2127.8369   -147.12054    508.07595    892.96779    497.21603   -384.43047   -3426.3383 
 4576000    268.13141   -3813.8541   -3354.2861   -3813.8541            0   -515.35152    18.570147     21.87318    22.655536     9202.411    156.73973   -984.55063   -718.24366   -233.29112    488.16753   -1068.1234   -3423.4502 
 4577000    275.03759   -3834.4296   -3363.0246   -3834.4296            0    -1415.909    18.648251    21.965176    22.750823    9319.0127   -2311.2837    40.291175   -1976.7346    1978.9422    362.55509   -526.85209   -3555.4583 
 4578000    281.45924   -3774.8409   -3292.4294   -3774.8409            0   -457.47158     18.61632    21.927566    22.711867    9271.2249   -1712.2032   -504.68794    844.47644    1043.5288   -783.77566    1331.1178   -3354.2847 
 4579000    271.70939    -3844.121   -3378.4204    -3844.121            0   -2268.0326    18.603005    21.911882    22.695622    9251.3448   -2079.0742   -2014.3009   -2710.7228   -129.81807      1363.33    1006.6781   -3684.4265 
 4580000    291.42172   -3821.6582   -3322.1714   -3821.6582            0   -1194.6455    18.612326    21.922861    22.706994    9265.2578   -2075.7976    759.42449   -2267.5635   -32.517587    506.07613     -227.545    -3483.597 
 4581000    269.82064   -3846.5161   -3384.0528   -3846.5161            0   -948.06993    18.512584    21.805379    22.585309    9117.1001    111.48136   -174.59137   -2781.0998   -95.184817    1399.8119    575.19515   -3510.1115 
 4582000    280.42473   -3890.4731   -3409.8347   -3890.4731            0    -1789.993    18.566378    21.868741    22.650938    9196.8092   -1657.2613   -1806.5575   -1906.1603   -260.28762    1063.3236     66.51862   -3649.9194 
 4583000    255.10765   -3806.0116   -3368.7658   -3806.0116            0   -2125.2463     18.59356    21.900758      22.6841    9237.2622    -1735.081    -1757.974   -2882.6839   -649.60552    493.96102   -752.22963   -3655.0705 
 4584000    299.30605   -3823.0369   -3310.0366   -3823.0369            0   -501.25369     18.58805    21.894267    22.677377    9229.0517   -874.88234    579.02848   -1207.9072   -1114.5454   -121.30913   -756.62537   -3377.5035 
 4585000    282.61008    -3854.167    -3369.783    -3854.167            0   -1679.0834    18.512698    21.805513    22.585448    9117.2686    -1878.942    -621.1507   -2537.1574    216.20745   -596.75515    484.34127    -3593.044 
 4586000    281.69249   -3828.3303    -3345.519   -3828.3303            0   -1560.8575    18.535708    21.832615     22.61352    9151.3065   -669.41712   -993.09819   -3020.0572   -868.22625    230.36104    414.25109   -3553.8349 
 4587000     272.9167   -3836.9958   -3369.2259   -3836.9958            0   -1761.0378    18.557835    21.858678    22.640515    9184.1192   -2283.5113   -1205.1375   -1794.4645    -1504.882   -164.18694   -910.06519    -3605.101 
 4588000    276.63013   -3773.5441   -3299.4095   -3773.5441            0   -258.51413    18.456188    21.738951    22.516506    9034.0311    131.37505   -910.60738    3.6899445    1146.4217    398.79168     666.0819   -3333.4693 
 4589000    254.31236   -3820.2942   -3384.4115   -3820.2942            0   -175.28505    18.487415    21.775733    22.554603    9079.9647     1196.419   -1357.6204   -364.65367   -712.74378    1184.0101    840.61658   -3407.6231 
 4590000     277.5183   -3797.3752   -3321.7183   -3797.3752            0   -838.47044    18.525256    21.820304    22.600769    9135.8347   -835.33751    384.36783   -2064.4416    -1189.403   -857.27159     1006.102   -3433.4334 
 4591000    263.16489   -3841.6031   -3390.5474   -3841.6031            0   -1255.1819    18.384837    21.654909    22.429458    8929.6596   -1704.4723   -1576.9005   -484.17282    441.49347   -188.12063    580.86486   -3554.0097 
 4592000    300.68745   -3854.2417   -3338.8737   -3854.2417            0   -1406.2792    18.569748     21.87271    22.655049    9201.8174   -2105.2348   -769.60354   -1343.9992   -796.05783   -852.47358   -567.42756   -3527.5951 
 4593000    274.97926   -3850.5438   -3379.2388   -3850.5438            0   -491.00073    18.529615    21.825438    22.606087    9142.2849   -1132.5964     1527.246   -1867.6518    162.53089   -570.66133   -587.96914   -3444.7043 
 4594000    287.32045   -3836.8076   -3344.3502   -3836.8076            0   -2202.5925    18.562982    21.864741    22.646795     9191.763   -2793.1034   -1317.8947   -2496.7793   -404.92609   -1181.2216    262.60252   -3639.6131 
 4595000    274.86116   -3838.4345   -3367.3319   -3838.4345            0   -1933.5014    18.625946    21.938904     22.72361    9285.6129    -3444.462    -206.5426   -2149.4997    249.42341    283.46436    42.021764   -3629.1689 
 4596000    285.50708   -3815.2579   -3325.9085   -3815.2579            0   -1532.0483    18.656067    21.974383    22.760358    9330.7352   -1530.2414   -2450.3785   -615.52494   -422.21771     1341.385    398.83004   -3534.3884 
 4597000    284.17892   -3815.6126   -3328.5397   -3815.6126            0   -1114.1366     18.54029    21.838012     22.61911    9158.0947   -1509.8699   -759.40591   -1073.1339    713.90459   -973.80019   -360.72145   -3477.3454 
 4598000    274.56954   -3881.3205   -3410.7177   -3881.3205            0   -1003.9635    18.572431     21.87587    22.658322    9205.8061   -2264.5942   -152.35193   -594.94423   -985.78977   -300.02396   -477.70328    -3545.507 
 4599000    269.26813   -3813.2126   -3351.6963   -3813.2126            0   -1390.0756    18.672548    21.993795    22.780464    9355.4852   -39.356718   -1442.3445   -2688.5255   -249.94943    669.74044    -763.8328   -3541.3584 
 4600000    266.36182   -3801.3911    -3344.856   -3801.3911            0   -3337.3486    18.672446    21.993675    22.780341     9355.333   -2984.8552   -4443.6736   -2583.5169    315.10076   -68.045579    413.13183    -3800.197 
 4601000    273.13898   -3835.4936   -3367.3428   -3835.4936            0   -1535.3725    18.617676    21.929163    22.713521    9273.2502    -511.3723   -3030.7051   -1064.0401    1239.8533    665.08046    309.51658   -3574.9878 
 4602000    282.95901   -3816.8844   -3331.9024   -3816.8844            0    93.721623    18.524462    21.819369      22.5998    9134.6603    1743.1347   -1737.9275    275.95774    982.65294    -17.62832   -108.76961   -3319.4168 
 4603000    276.72531   -3819.0298    -3344.732   -3819.0298            0    394.20445    18.444787    21.725523    22.502597    9017.3005    362.43922    1290.3807    -470.2066    856.75952   -650.00602    407.80852    -3292.891 
 4604000    277.98206   -3800.0252   -3323.5735   -3800.0252            0    456.28248    18.521576     21.81597    22.596279    9130.3914   -296.08794    384.81253    1280.1229   -288.59871    520.81335   -203.50711   -3262.8161 
 4605000    282.68215   -3773.8549   -3289.3474   -3773.8549            0   -1626.7264    18.648135     21.96504    22.750682    9318.8394   -1239.0086   -2062.2953   -1578.8754    626.41127    656.02088     473.6561   -3510.4288 
 4606000    267.92734   -3829.4335   -3370.2152   -3829.4335            0    -2796.551    18.675972    21.997829    22.784643    9360.6338   -2514.2994    -3492.808   -2382.5456   -432.03997   -297.70716    288.59562    -3751.987 
 4607000    273.06482   -3828.3414   -3360.3177   -3828.3414            0   -1118.4949    18.653836    21.971755    22.757636     9327.388   -24.614926   -1774.4731   -1556.3966   -115.00172    558.12882    1242.3423   -3512.4669 
 4608000    280.75613   -3815.9059   -3334.6995   -3815.9059            0   -470.37148    18.748965    22.083805    22.873694    9470.8186    177.35928    384.09269   -1972.5664    1519.0424   -73.361483    297.19723   -3399.6682 
 4609000    276.66723   -3814.0475   -3339.8493   -3814.0475            0   -1895.9339    18.683321    22.006485    22.793608    9371.6883   -1587.3843   -3065.4064   -1035.0108   -514.30468     42.76721    499.72912   -3598.9788 
 4610000    273.72183   -3829.0695   -3359.9197   -3829.0695            0   -1146.6098    18.711675    22.039882      22.8282    9414.4209   -521.87172   -1485.4074   -1432.5503    1055.1274    136.93862    -668.1612   -3517.3488 
 4611000    282.76239   -3824.5086   -3339.8636   -3824.5086            0   -1319.0512    18.708123    22.035697    22.823866    9409.0596   -1070.0462   -1734.3519   -1152.7554   -135.99189    278.22177   -687.07071   -3520.8657 
 4612000    276.59411   -3833.8468   -3359.7739   -3833.8468            0   -2881.6516    18.701563     22.02797    22.815863    9399.1649   -2846.6469   -2390.1189   -3408.1889   -65.009812   -839.49226   -727.94773   -3754.7826 
 4613000    272.85034   -3838.7297   -3371.0735   -3838.7297            0   -654.72481    18.620949    21.933019    22.717515    9278.1425   -2119.2371   -600.27747    755.34019   -27.600972    -433.1738   -747.16457   -3459.6658 
 4614000    300.45363   -3830.4895   -3315.5222   -3830.4895            0   -1584.0016    18.624123    21.936757    22.721387    9282.8877   -139.69458    -2540.327   -2071.9832   -425.32702   -950.11079   -170.99321   -3529.9666 
 4615000    282.06593   -3799.9081   -3316.4568   -3799.9081            0    834.43365     18.57916    21.883796    22.666532    9215.8162    864.35436    1591.8726    47.074002    527.52903    695.36176   -322.27347   -3204.3062 
 4616000    273.00263   -3831.2888   -3363.3717   -3831.2888            0   -889.69332    18.704366    22.031273    22.819283     9403.393   -1147.8956   -257.27109   -1263.9132    464.82309   -806.05587   -1078.7882   -3485.3832 
 4617000    272.59329   -3867.9281   -3400.7125   -3867.9281            0    -986.4874    18.565471    21.867672    22.649831    9195.4604   -2175.7767    614.32273   -1398.0082    851.23614    303.33285    354.14737   -3533.0067 
 4618000     284.8657    -3876.656   -3388.4059    -3876.656            0   -1585.2795    18.522734    21.817334    22.597692    9132.1041   -1007.0147   -651.70304   -3097.1209   -292.40191   -387.78694   -783.50046   -3599.5372 
 4619000    280.38128   -3822.9677   -3342.4037   -3822.9677            0    -1389.793     18.63217    21.946235    22.731204    9294.9255   -981.79527   -1977.5667    -1210.017   -432.81316    1492.3099   -354.37835   -3530.7998 
 4620000    264.40837   -3822.3492   -3369.1623   -3822.3492            0   -518.35809     18.51018    21.802547    22.582377     9113.549   -392.57399    -449.0196   -713.48069    1318.7138    749.67256     725.1969   -3438.0582 
 4621000    283.83194   -3856.0399   -3369.5617   -3856.0399            0   -2378.0121    18.601452    21.910054    22.693729    9249.0294   -3123.6316   -1851.7774   -2158.6274   -781.68122   -538.08063   -285.53292    -3690.326 
 4622000     279.6064   -3772.5657   -3293.3299   -3772.5657            0   -3324.4401    18.602427    21.911202    22.694918    9250.4836    -3575.762   -3324.0057   -3073.5525    1301.5671   -912.20221   -552.85288   -3741.8262 
 4623000    270.97955   -3860.9333   -3396.4836   -3860.9333            0   -634.32886    18.453655    21.735969    22.513417    9030.3132   -1412.5838   -68.659429   -421.74338    706.84115    174.05034   -9.8591269   -3480.0233 
 4624000    278.99289   -3805.8351   -3327.6508   -3805.8351            0   -682.79256    18.511984    21.804672    22.584577    9116.2136   -85.627075   -551.45738   -1411.2932   -245.52244    25.786898    171.74316   -3418.4285 
 4625000    296.80443   -3797.5698   -3288.8572   -3797.5698            0   -1014.3721    18.485461    21.773431    22.552219    9077.0858     37.56668   -1297.6946   -1782.9884   -465.55708    603.71318     264.1819   -3423.1398 
 4626000    272.57146   -3818.3391   -3351.1609   -3818.3391            0   -1859.2362    18.547082    21.846013    22.627397    9168.1637   -1578.1981   -2327.5964    -1671.914    217.34276   -49.476726   -431.63175   -3599.7562 
 4627000    271.57945   -3810.4658   -3344.9879   -3810.4658            0   -858.43951    18.481438    21.768693    22.547312    9071.1615    -381.3238   -1416.2297   -777.76502    337.13358   -268.69104    364.97997   -3458.5539 
 4628000    277.59482   -3808.1604   -3332.3723   -3808.1604            0   -1512.2209    18.516836    21.810387    22.590497     9123.384    -2195.655   -3104.4418    763.43418   -122.52994    887.53575   -486.53458   -3533.5812 
 4629000    282.58521   -3816.2554    -3331.914   -3816.2554            0   -926.08321    18.328156    21.588146    22.360307    8847.3228     133.7681   -1830.8165   -1081.2013     341.6701   -125.68091    161.95255   -3451.4057 
 4630000    273.22488   -3869.3267   -3401.0286   -3869.3267            0   -1329.3996    18.503822    21.795058    22.574619    9104.1604   -900.51666   -912.18426   -2175.4978    201.58797   -414.79109    751.64718   -3577.5394 
 4631000    273.76023   -3857.5544   -3388.3387   -3857.5544            0   -1571.6259    18.610806    21.921071     22.70514    9262.9889   -1967.1211   -1536.1551   -1211.6015    248.30325   -62.290236   -910.71071   -3600.6516 
 4632000    268.25603   -3789.6641   -3329.8825   -3789.6641            0   -986.04653    18.582362    21.887568    22.670438    9220.5822   -837.99232   -797.34829    -1322.799    1907.4697    275.29176   -1163.7374   -3462.4788 
 4633000    275.47625   -3860.7908    -3388.634   -3860.7908            0   -1673.1404    18.587838    21.894018    22.677119    9228.7365    -697.0474   -1481.2972   -2841.0766     562.3243     710.0929    351.61801   -3613.8247 
 4634000    278.34066    -3887.939   -3410.8726    -3887.939            0   -1425.2312    18.601553    21.910172    22.693851    9249.1795    583.94704   -2419.0787   -2440.5619    710.85059   -645.35438    341.15255   -3603.1217 
 4635000    256.64827    -3847.058   -3407.1716    -3847.058            0   -2707.5316    18.600944    21.909455    22.693108    9248.2707   -3764.4402   -1587.9271   -2770.2274   -96.806264   -493.39476   -633.86985   -3772.3541 
 4636000    275.42968   -3841.4551   -3369.3781   -3841.4551            0   -1220.7074    18.428714    21.706591    22.482988    8993.7473   -2483.4546   -961.22049   -217.44717    -606.1784   -158.37988    1790.6897   -3529.4916 
 4637000    271.08615    -3860.244   -3395.6116    -3860.244            0   -2819.3813    18.482481    21.769921    22.548584    9072.6969   -3319.5392   -3285.8483   -1852.7565   -792.02409   -1096.1696   -273.17016   -3768.6608 
 4638000    274.17826   -3841.6457   -3371.7136   -3841.6457            0   -1712.7763    18.454924    21.737463    22.514964    9032.1754   -1387.7718   -1969.4749   -1781.0822   -379.41771   -667.36704   -403.86497    -3597.329 
 4639000    260.15028   -3892.2264   -3446.3377   -3892.2264            0     -1456.49    18.541724    21.839702     22.62086    9160.2206   -464.16082   -1749.5245   -2155.7847     613.6617   -1265.0597   -1695.3664   -3640.9137 
 4640000    278.20829   -3871.5909   -3394.7515   -3871.5909            0   -550.64628    18.406098    21.679952    22.455396    8960.6757    926.90592   -973.75416   -1605.0906    563.56542   -992.06594   -156.23661   -3466.7112 
 4641000      260.445   -3873.2197   -3426.8259   -3873.2197            0    -1618.648    18.437324    21.716732    22.493492    9006.3583    -1318.142   -865.02115   -2672.7808     1022.858    788.20734    893.03117   -3639.4329 
 4642000    270.14064   -3866.8437   -3403.8319   -3866.8437            0   -1319.4915    18.470233    21.755495    22.533641    9054.6718   -3439.1527   -169.65658   -349.66524   0.60786213   -750.22783   -1300.7444   -3578.0748 
 4643000    264.43543   -3830.5004   -3377.2672   -3830.5004            0   -1591.4093    18.509243    21.801443    22.581233     9112.164   -883.79939   -1576.1743   -2314.2541    317.32706   -813.61149   -785.25268    -3588.752 
 4644000    277.95701   -3867.0319   -3390.6231   -3867.0319            0   -586.91342    18.403049    21.676361    22.451677    8956.2236    -28.66968   -1831.7221    99.651565   -584.96089    612.26615   -1188.4526   -3467.2842 
 4645000     281.3349    -3811.262   -3329.0636    -3811.262            0   -212.67818     18.42327    21.700179    22.476346    8985.7793   -644.52102    523.09594   -516.60947     1296.487   -71.439555    148.41804   -3356.9347 
 4646000     260.2966   -3815.0684   -3368.9289   -3815.0684            0    -360.6651    18.496262    21.786153    22.565396    9093.0058   -435.93053    245.81091   -891.87568    105.97409    -1306.714   -367.55552   -3416.7575 
 4647000    272.55133   -3869.1351   -3401.9915   -3869.1351            0    234.01307    18.354131    21.618742    22.391997    8884.9923    -50.22611    313.71593     438.5494    321.01118    212.34372   -193.32072   -3371.6684 
 4648000    261.54109   -3868.7457   -3420.4733   -3868.7457            0   -585.71278    18.365492    21.632123    22.405857    8901.5013   -1299.8034   -756.82313    299.48821   -660.06341   -314.41216     -1556.94   -3496.5101 
 4649000    297.53481   -3815.6803   -3305.7158   -3815.6803            0   -2944.8107    18.479052    21.765883    22.544401    9067.6485   -3386.3859   -3638.3152   -1809.7308    1332.1069   -431.10074    1003.2521   -3695.1445 
 4650000    267.61961    -3818.245   -3359.5542    -3818.245            0   -720.90684    18.378053    21.646919    22.421182    8919.7787   -1710.3821   -550.56993    98.231508    -1011.632    425.32946   -374.22422   -3453.3339 
 4651000    275.88017   -3802.9681   -3330.1189   -3802.9681            0   -2066.2314     18.55997    21.861193     22.64312    9187.2892   -2598.8244   -1087.9116   -2511.9581    1009.6824   -551.32075   -645.04944   -3606.9675 
 4652000    269.56872   -3849.3846   -3387.3531   -3849.3846            0   -1751.8215      18.5477    21.846741    22.628151    9169.0803   -3026.2292    -2063.388   -165.84746    271.10623    435.37868   -297.94549   -3621.6095 
 4653000    285.41642   -3827.5834   -3338.3895   -3827.5834            0   -1495.9066    18.492226      21.7814    22.560473    9087.0559   -903.10603   -1102.7204   -2481.8934     756.2144   -237.69491   -251.39742   -3536.6351 
 4654000    261.26117   -3814.9633   -3367.1706   -3814.9633            0   -842.29659    18.565377    21.867562    22.649717    9195.3219   -1677.4439    -703.6043   -145.84153    702.95008   -176.83925   -31.059308   -3480.1262 
 4655000    277.17956   -3811.7229   -3336.6467   -3811.7229            0   -1346.7726    18.510074    21.802422    22.582247     9113.392   -1340.7493   -1729.9225   -969.64603    408.07527    1032.0823    47.555488   -3515.6455 
 4656000    258.23327   -3838.4861   -3395.8831   -3838.4861            0   -1629.9983    18.662799    21.982312    22.768571    9340.8393   -2324.7793   -1910.2201   -654.99542     83.47137    498.75969   -651.54836   -3617.9322 
 4657000     280.6896   -3855.5423   -3374.4499   -3855.5423            0   -2305.8898    18.550565    21.850116    22.631646    9173.3303   -2622.0419   -2426.2957   -1869.3318   -1174.8137    57.775439    179.92337   -3682.9402 
 4658000    276.10587   -3828.3933   -3355.1573   -3828.3933            0   -2792.7647    18.609043    21.918995    22.702989    9260.3569   -3272.9639   -1529.3863    -3575.944   -362.85159    1243.7443   -926.31444    -3732.328 
 4659000    284.49708   -3834.9206   -3347.3023   -3834.9206            0   -1392.6864    18.636991    21.951914    22.737086    9302.1428     -2029.26   -344.25402   -1804.5452   -534.93196    735.69583    698.41767   -3536.2372 
 4660000    293.82957   -3791.7583   -3288.1444   -3791.7583            0   -493.74852    18.665103    21.985026    22.771382    9344.2994   -819.67528   -31.893509   -629.67676    58.958095   -58.531958   -97.022969    -3355.431 
 4661000    277.87658   -3857.9283   -3381.6573   -3857.9283            0    -707.9866    18.532736    21.829115    22.609895    9146.9061   -329.62677   -1708.9819   -85.351082   -40.612699   -556.39047    481.55819   -3476.1015 
 4662000    274.34076    -3827.646   -3357.4353    -3827.646            0    -1780.924    18.755039    22.090959    22.881104     9480.026   -2947.7254   -1890.7949   -504.25171    444.48424    -516.3302    -575.6322   -3603.6596 
 4663000    269.45928   -3816.6989   -3354.8549   -3816.6989            0   -688.33049    18.585575    21.891352    22.674358    9225.3652    -265.7994    -809.6858   -989.50626    443.00633    -416.0976    71.991468   -3447.4646 
 4664000    270.86582   -3825.5471   -3361.2924   -3825.5471            0   -961.59068     18.63345    21.947743    22.732766    9296.8418    549.49656   -2011.4771   -1422.7915   -872.51024   -99.831074   -40.415503   -3491.6695 
 4665000    287.84624   -3839.8651   -3346.5065   -3839.8651            0    -1554.134    18.658295    21.977007    22.763076    9334.0784    882.07614    -2815.411   -2729.0671   -594.50241   -363.13712    370.17388   -3558.0676 
 4666000    278.99363   -3808.7659   -3330.5804   -3808.7659            0   -1486.3226     18.54626    21.845045    22.626394    9166.9456   -2029.8268   -576.10325   -1853.0377    389.15602    892.32773   -1283.6908   -3529.2876 
 4667000    270.92858   -3841.2005   -3376.8382   -3841.2005            0   -1396.8167    18.495485    21.785238    22.564449    9091.8605   -2137.3761   -1102.4677   -950.60617      22.0508   -512.48593   -526.81466   -3562.0498 
 4668000    296.37855   -3813.5782   -3305.5955   -3813.5782            0   -1038.7418    18.445737    21.726641    22.503756     9018.693   -2150.3736   -448.15958   -517.69218    124.02663    408.47117   -94.836843   -3442.2196 
 4669000    277.27592   -3789.2712   -3314.0297   -3789.2712            0   -667.62428    18.463269    21.747292    22.525145    9044.4338   -327.07562   -1306.0543   -369.74294   -770.29256   -853.38681   -5.0659799   -3402.0919 
 4670000     273.8975   -3776.0387   -3306.5877   -3776.0387            0   -916.47471     18.47033    21.755608    22.533759    9054.8137   -45.081464    -1066.637   -1637.7057    573.30067    -633.2283    32.162821   -3427.6129 
 4671000     282.6176   -3822.4348   -3338.0379   -3822.4348            0   -1126.9911     18.53234    21.828649    22.609412    9146.3202   -474.49176   -763.45259    -2143.029   -468.29997   -812.36692   -515.71495   -3488.3669 
 4672000    284.25761   -3813.7109   -3326.5031   -3813.7109            0   -718.94952     18.54365     21.84197     22.62321    9163.0754   -1122.0325   -1102.7829    67.966818    14.857308   -19.456608    616.66585   -3422.5792 
 4673000    265.96248   -3811.2935   -3355.4429   -3811.2935            0    214.43279    18.528036    21.823579    22.604161    9139.9487    1027.2529   -1956.7628    1572.8082   -92.195918   -707.18969   -865.00542   -3326.8597 
 4674000    254.74173   -3800.4026    -3363.784   -3800.4026            0   -3196.4385    18.746495    22.080895    22.870681     9467.076    -2555.776   -3393.8673   -3639.6721    319.02338   -736.20216   -18.026285   -3805.1085 
 4675000    279.76246   -3813.0915   -3333.5882   -3813.0915            0   -651.51819    18.538163    21.835508    22.616516    9154.9442   -1630.6335   -235.99892   -87.922178   -622.45485   -10.340618    376.61732    -3420.576 
 4676000    277.65876   -3833.0462   -3357.1486   -3833.0462            0   -304.02237    18.481285    21.768513    22.547125     9070.936   -294.50403   -967.09151    349.52842    -220.2553    799.61312    521.61518   -3397.3678 
 4677000    289.94515   -3809.4982   -3312.5422   -3809.4982            0   -1665.0669    18.576184    21.880291    22.662901    9211.3884   -1013.9167   -1803.5138     -2177.77   -1361.0556   -653.91318    1298.4732    -3536.225 
 4678000    284.80648   -3817.0576    -3328.909   -3817.0576            0   -396.96931    18.542807    21.840977    22.622181    9161.8258   -2263.5867    375.67712    697.00163   -416.93369    1004.4798   -74.493494   -3381.9504 
 4679000    271.51827   -3835.0067   -3369.6337   -3835.0067            0   -1509.2927    18.587372    21.893469    22.676551    9228.0421   -1842.2121    -1656.447   -1029.2192    590.54922    13.302468   -202.46209   -3572.7566 
 4680000     267.2854   -3839.5905   -3381.4725   -3839.5905            0    -1565.297    18.653501     21.97136    22.757228    9326.8855   -947.42767   -2007.7399   -1740.7236    305.25702    1088.4132    281.19563    -3594.389 
 4681000     290.8543    -3844.531   -3346.0166    -3844.531            0   -1870.3689    18.521639    21.816045    22.596357    9130.4851   -1534.6083   -771.88164   -3304.6169   -597.88929    475.46379   -487.98762   -3595.0726 
 4682000    282.13888   -3791.5506   -3307.9742   -3791.5506            0   -977.33766     18.49807    21.788283    22.567602    9095.6733   -1352.9072   -945.25483   -633.85099    969.67193   -521.23936   -416.00612   -3437.6191 
 4683000    279.99255   -3864.3918   -3384.4942   -3864.3918            0   -348.97607     18.40277    21.676032    22.451336    8955.8162    -2099.184   -750.80727     1803.063   -783.29993    288.64195    70.707583   -3430.0744 
 4684000    269.95124   -3855.8571   -3393.1699   -3855.8571            0   -1113.8002      18.5881    21.894327    22.677439    9229.1265   -2735.5665   -2083.2958    1477.4616   -285.65023    819.76656    214.08672   -3543.0845 
 4685000    281.15031   -3827.0589   -3345.1769   -3827.0589            0   -494.81151    18.534018    21.830625    22.611459    9148.8045   -765.79875   -433.70336   -284.93242    164.28558    564.31432    479.22121   -3411.1976 
 4686000    279.44687   -3787.6359   -3308.6735   -3787.6359            0   -1049.4579    18.618969    21.930686    22.715098    9275.1822   -523.26314   -1645.9379   -979.17279   -318.66718    363.26359   -284.26724   -3450.6327 
 4687000    271.33682     -3841.57    -3376.508     -3841.57            0   -1205.7181    18.588762    21.895106    22.678246    9230.1117    -489.1826   -2437.9864   -689.98542    105.18104    133.32771   -424.35593   -3538.8117 
 4688000      281.052   -3791.6932   -3309.9797   -3791.6932            0    -2329.669    18.574239       21.878    22.660528    9208.4949   -1961.8459   -2681.1189   -2346.0421    615.52534   -325.68304    144.70955    -3622.846 
 4689000    251.65488   -3794.6359   -3363.3081   -3794.6359            0   -867.42164    18.702418    22.028978    22.816906    9400.4544   -2243.4689    -126.5649   -232.23109    336.48858   -662.18293   -10.573757   -3482.2281 
 4690000    293.41477   -3815.6088   -3312.7059   -3815.6088            0   -1095.2484    18.559027    21.860083     22.64197    9185.8893   -893.76995   -1428.2234   -963.75173   -569.29001   -494.66012    145.25227   -3459.4328 
 4691000     292.2863   -3836.1505   -3335.1818   -3836.1505            0   -1024.6607     18.50271    21.793749    22.573264    9102.5201   -1917.5058   -357.07276   -799.40349   -352.00873   -970.36565   -304.11217   -3471.2064 
 4692000    276.97299   -3830.1348   -3355.4126   -3830.1348            0    660.06755    18.405101    21.678778     22.45418    8959.2203    705.43316    1477.2114   -202.44197    420.48928   -450.89639   -815.91431   -3269.1675 
 4693000    272.39214   -3818.1543   -3351.2835   -3818.1543            0   -2040.9558    18.601305     21.90988    22.693549    9248.8097   -1730.2543    -2068.197   -2324.4163    1060.6421   -341.62733   -441.35718   -3626.5766 
 4694000    268.54453   -3783.0789   -3322.8028   -3783.0789            0   -347.42676    18.508457    21.800518    22.580274     9111.004   -348.52349    -146.7457   -547.01109   -199.46413     109.2836   -1429.3181    -3368.967 
 4695000    280.77841   -3835.8818   -3354.6372   -3835.8818            0   -402.51059    18.381389    21.650848    22.425251    8924.6364   -1442.8104    302.79561   -67.516964   -736.05983    307.29222   -7.7639596   -3407.0266 
 4696000    271.66148   -3816.6594   -3351.0409   -3816.6594            0   -645.65476      18.4722    21.757811     22.53604    9057.5643   -1404.1488    380.48765   -913.30311   -714.87538   -752.80687   -592.91612   -3436.3288 
 4697000    274.00495   -3811.6675   -3342.0324   -3811.6675            0   -1365.2475    18.602854    21.911705    22.695439    9251.1204   -2107.6259    107.11602   -2095.2326    -566.2145    240.09226    -65.56192    -3526.229 
 4698000    270.92854   -3787.9492    -3323.587   -3787.9492            0   -152.45733    18.481293    21.768522    22.547134    9070.9471   -309.76193   -589.29588    441.68583   -300.59531   -966.13889   -516.21289   -3343.7556 
 4699000    280.55758   -3809.0436   -3328.1775   -3809.0436            0   -145.48383    18.427324    21.704953    22.481292    8991.7116    446.05098    254.82651    -1137.329   -908.22172   -288.66604    -193.6268   -3347.2555 
 4700000    283.61129   -3840.1341   -3354.0341   -3840.1341            0   -741.94318    18.513974    21.807016    22.587005    9119.1535   -1323.5084   -230.54597   -671.77517   -382.85172   -218.04384    415.78727   -3452.7077 
 4701000    271.29958   -3844.2408   -3379.2426   -3844.2408            0   -2229.8231     18.58466    21.890274    22.673242    9224.0031   -2287.5667   -2139.5858   -2262.3168   -808.26751   -532.47271   -1111.1141   -3679.2042 
 4702000    277.18012   -3827.4689   -3352.3916   -3827.4689            0   -1866.9156    18.519857    21.813945    22.594182    9127.8495   -1469.4281   -789.77467   -3341.5439    -700.4822    175.33728    18.931041    -3600.916 
 4703000    275.07602   -3852.8678   -3381.3969   -3852.8678            0   -891.70884     18.36551    21.632145    22.405879    8901.5283    496.23577   -2115.7542   -1055.6081    631.15637     -400.082    859.36105   -3497.1583 
 4704000    275.12764   -3815.7988   -3344.2394   -3815.7988            0   -1772.2016    18.440289    21.720225     22.49711    9010.7054   -241.37829   -3151.8223   -1923.4042   -1080.2142     126.7808   -220.67544   -3577.1278 
 4705000    268.83139   -3831.9306   -3371.1628   -3831.9306            0   -566.21952    18.373211    21.641215    22.415274    8912.7302   -453.83607   -1472.7869    227.96445   -1901.1379   -907.41164    1189.7166   -3444.7617 
 4706000    279.95382   -3832.3005   -3352.4692   -3832.3005            0   -1110.9963     18.44041    21.720367    22.497257    9010.8822   -745.68508   -1294.4314   -1292.8725   -238.14208   -281.56605    138.63772   -3498.4702 
 4707000     267.5322   -3782.2543   -3323.7133   -3782.2543            0   -436.89619    18.374512    21.642748    22.416862    8914.6241   -684.52483   -1043.8474     417.6837   -119.27001     1365.959   -496.10108   -3380.5144 
 4708000    279.28696   -3785.5663    -3306.878   -3785.5663            0     861.7565    18.415983    21.691596    22.467457    8975.1214    600.86405    1941.9952    42.410279    536.82305   -524.93862   -1252.2102   -3194.0801 
 4709000    284.48804   -3833.8919   -3346.2892   -3833.8919            0   -829.72067    18.427858    21.705583    22.481944    8992.4945    344.48735   -1401.0186   -1432.6308    477.14967    82.417255    -161.9501    -3455.104 
 4710000    282.39808   -3805.5701   -3321.5494   -3805.5701            0    -1594.076    18.496667     21.78663     22.56589    9093.6034   -1659.1531    -2119.039    -1004.036   -66.440426     61.09334   -6.5116406   -3532.9572 
 4711000     283.7238    -3825.597   -3339.3041    -3825.597            0   -705.14061    18.546103     21.84486    22.626203    9166.7128   -919.41966    437.66865   -1633.6708    562.74995      136.907   -467.51547   -3433.5723 
 4712000    278.22141   -3819.2062   -3342.3442   -3819.2062            0   -750.35372    18.527458    21.822898    22.603455    9139.0924     42.43633   -1983.4696   -310.02788    611.91509   -162.48109    53.656388   -3442.3546 
 4713000    279.82887   -3807.0388   -3327.4217   -3807.0388            0   -1526.9902     18.60299    21.911865    22.695604    9251.3229   -2545.2638    123.48745   -2159.1942   -414.36447    260.35615   -85.247013   -3533.4448 
 4714000    263.22535   -3796.3004   -3345.1411   -3796.3004            0   -2136.9829    18.591097    21.897856    22.681094    9233.5905   -2399.9932   -1454.3856     -2556.57   -480.10156   -509.95374   -84.399963   -3632.9125 
 4715000     264.5413     -3860.75   -3407.3353     -3860.75            0   -752.84601    18.674614    21.996229    22.782986    9358.5921   -1897.4793   -30.706366   -330.35241   -305.37324    1291.5754     162.5729   -3510.0878 
 4716000    266.42623   -3824.2268   -3367.5814   -3824.2268            0   -1539.2544    18.726487    22.057328     22.84627    9436.7947   -1675.4801   -1499.4003   -1442.8828   -78.710103      522.594    827.82645   -3579.4228 
 4717000    265.13252   -3823.4593   -3369.0313   -3823.4593            0   -1590.5658    18.621665    21.933862    22.718388    9279.2126   -2111.7478     -1043.19   -1616.7594   -40.936587   -41.300842   -323.52284    -3584.279 
 4718000     285.8262   -3839.0746   -3349.1783   -3839.0746            0   -847.27987    18.670106    21.990918    22.777485    9351.8154   -1435.9304    273.46613   -1379.3753    919.98452   -174.07522    897.39194   -3464.7359 
 4719000    275.65745   -3788.0479   -3315.5805   -3788.0479            0    -836.6756    18.783736     22.12476    22.916114    9523.6077    89.104177   -746.67709   -1852.4539    74.279968   -921.38734   -361.37662   -3431.7881 
 4720000    264.35039   -3842.5068   -3389.4193   -3842.5068            0    459.08833    18.729026    22.060319    22.849368    9440.6348    2607.4545   -777.14289   -453.04663    2071.0744   -79.636933    786.87947   -3326.2111 
 4721000    275.11301   -3820.0618   -3348.5275   -3820.0618            0   -145.95245    18.595815    21.903413     22.68685    9240.6221   -730.67042   -969.11997    1261.9331   -95.924386   -596.05558   -522.35549   -3368.1968 
 4722000    261.24707   -3831.2683   -3383.4997   -3831.2683            0   -329.22725    18.733225    22.065264     22.85449    9446.9846   -354.79862    26.316152   -659.19928   -836.06437   -1403.6174    379.26002   -3428.8589 
 4723000    259.24952   -3827.6716   -3383.3268   -3827.6716            0   -1039.7956    18.590966    21.897703    22.680936    9233.3966   -557.35378   -2166.7469   -395.28626     631.4173   -215.97654   -379.72638   -3523.3453 
 4724000    280.70783   -3862.2745   -3381.1508   -3862.2745            0   -1350.4898    18.616957    21.928316    22.712644    9272.1761   -408.62878   -3178.9201    -463.9205    318.77443   -498.71485    466.42119   -3563.7711 
 4725000    264.90366   -3851.9583   -3397.9225   -3851.9583            0   -496.22391    18.577016    21.881271    22.663916    9212.6257   -132.75196   -335.29042   -1020.6293    359.29738   -203.48314   -105.58941   -3464.5935 
 4726000    278.53759   -3823.1177   -3345.7139   -3823.1177            0   -966.74528    18.656703    21.975131    22.761134    9331.6892    942.21403   -3006.8925    -835.5574    259.01134   -533.33368   -1995.8386   -3477.2812 
 4727000    274.39002   -3741.1122   -3270.8171   -3741.1122            0    -1778.092    18.811508    22.157472    22.949996    9565.9135   -2134.2436   -1483.1691   -1716.8633    423.33504    245.23476    907.12633    -3518.877 
 4728000    288.71199   -3838.6044   -3343.7619   -3838.6044            0    271.76324    18.607724    21.917441     22.70138    9258.3878    343.07056    831.12705    -358.9079    137.85779   -171.56441   -372.28346   -3307.0673 
 4729000    288.34756    -3875.418   -3381.2002    -3875.418            0    207.49888    18.519543    21.813576    22.593799    9127.3856   -453.63541    1040.3709    35.761155   -450.32767    902.30895   -860.81192   -3353.5793 
 4730000    276.25804   -3774.8775   -3301.3807   -3774.8775            0   -2156.6442    18.613763    21.924555    22.708748    9267.4052   -233.81986   -2599.8437    -3636.269    906.53192    155.54213    183.87857   -3592.8632 
 4731000    278.32529   -3819.5109   -3342.4708   -3819.5109            0   -377.19453    18.618172    21.929747    22.714126    9273.9911    299.66788   -333.90225   -1097.3492    1048.2034     689.1997    149.51979    -3393.487 
 4732000     271.4244   -3812.9218   -3347.7097   -3812.9218            0   -1027.8562    18.468474    21.753423    22.531495    9052.0847    -656.8657    -847.5223   -1579.1807    179.90798   -513.76178    178.84612   -3483.4025 
 4733000    265.89623   -3802.7253   -3346.9882   -3802.7253            0   -1990.8173    18.584069    21.889578     22.67252     9223.123   -2963.1539   -1759.0977   -1250.2003   -1401.2492    541.37192   -1109.5146   -3614.7726 
 4734000    274.41544   -3774.1779   -3303.8393   -3774.1779            0   -1116.0225    18.542494    21.840609    22.621799    9161.3615   -2067.0726   -787.85157   -493.14326   -791.96905   -564.75638      -767.19     -3452.95 
 4735000    275.38153   -3861.4445     -3389.45   -3861.4445            0   -319.87696    18.603275      21.9122    22.695952    9251.7478    -168.8317   -891.78991    100.99075   -334.94575   -440.80926   -358.03443   -3432.6101 
 4736000    274.34861   -3828.8245   -3358.6004   -3828.8245            0    -823.4449     18.58399    21.889485    22.672424    9223.0057   -839.33715    572.07986   -2203.0774   -429.27345    243.67981   -126.70597   -3469.3604 
 4737000    277.12884   -3814.4225   -3339.4332   -3814.4225            0   -423.61449    18.576474    21.880633    22.663255    9211.8201    774.06197   -1286.2095   -758.69592    310.27014    276.88285    381.80038   -3396.3436 
 4738000    272.65443   -3812.3954    -3345.075   -3812.3954            0   -381.88443    18.517936    21.811682    22.591838    9125.0091    274.77978   -540.27781   -880.15526   -1281.5189   -140.84324    637.90841   -3395.8958 
 4739000    274.99332   -3811.4874   -3340.1582   -3811.4874            0   -659.60391    18.605223    21.914495    22.698329    9254.6552    -16.83801   -1589.7614   -372.21227    532.34093    290.46517     659.7772   -3429.1848 
 4740000    271.82493   -3816.1607   -3350.2621   -3816.1607            0   -2364.4807    18.704355     22.03126     22.81927    9403.3765   -2419.2558   -1797.2112   -2876.9751    28.435123    623.92559   -438.72701   -3674.5237 
 4741000    270.34157   -3851.1695   -3387.8133   -3851.1695            0   -1986.7068    18.696482    22.021986    22.809664     9391.506   -3338.1201   -1511.8335   -1110.1669    216.58968   -384.73645   -173.28287   -3659.9235 
 4742000    277.32744    -3832.821   -3357.4913    -3832.821            0    -858.6763    18.693168    22.018083    22.805622    9386.5142   -2046.1332   -79.203882   -450.69182    462.73108    814.03127   -1005.4901   -3475.0378 
 4743000    282.51998   -3786.0251   -3301.7956   -3786.0251            0   -490.29891    18.570019    21.873029    22.655379    9202.2197   -669.33898    872.40253   -1673.9603    -231.5927   -601.93123    505.66719   -3367.5961 
 4744000    274.43882    -3813.754   -3343.3752    -3813.754            0   -17.806658    18.580439    21.885303    22.668093    9217.7203    1009.2579   -335.44662   -727.23124    155.91262    396.73254    207.45227    -3345.769 
 4745000    285.62163   -3783.5236   -3293.9779   -3783.5236            0   -1650.6918    18.708375    22.035995    22.824174    9409.4408   -1879.0057   -829.37019   -2243.6996    935.66723    1709.7009   -997.22346   -3520.4975 
 4746000    272.09752   -3794.1128   -3327.7469   -3794.1128            0   -2057.4118    18.673504    21.994921    22.781631    9356.9225     -1822.58   -2039.5505   -2310.1048    532.59866    22.898408     319.6134   -3608.5036 
 4747000    275.27425   -3795.6694   -3323.8588   -3795.6694            0   -1397.5265    18.587175    21.893237     22.67631    9227.7487   -1244.9061   -1174.0182   -1773.6553    373.42574   -743.99658    124.58807    -3511.934 
 4748000    276.46557   -3776.0148   -3302.1623   -3776.0148            0   -495.18517    18.581007    21.885972    22.668786    9218.5657   -846.49866   -259.05456   -380.00229   -263.10094    38.372741    588.98646   -3368.7366 
 4749000      268.979   -3815.5635   -3354.5427   -3815.5635            0   -465.09245    18.652944    21.970704    22.756548    9326.0499    266.49252   -1189.2627   -472.50717   -933.58686    38.703149    134.47024   -3417.8003 
 4750000     290.2259   -3791.8995   -3294.4622   -3791.8995            0     -1109.36    18.536782    21.833881    22.614831    9152.8979    -1890.338   -987.50495   -450.23706   -7.3278689    391.69168    -722.3622   -3442.5459 
Loop time of 389.478 on 64 procs for 250000 steps with 864 atoms

Performance: 110.918 ns/day, 0.216 hours/ns, 641.885 timesteps/s
376.3% CPU use with 16 MPI tasks x 4 OpenMP threads

MPI task timing breakdown:
Section |  min time  |  avg time  |  max time  |%varavg| %total
---------------------------------------------------------------
Pair    | 26.323     | 28.383     | 33.942     |  36.7 |  7.29
Bond    | 1.6215     | 2.0172     | 2.8791     |  24.2 |  0.52
Kspace  | 198.33     | 205.55     | 210.51     |  21.6 | 52.78
Neigh   | 3.65       | 3.9177     | 4.2463     |   8.8 |  1.01
Comm    | 60.608     | 64.729     | 67.628     |  26.5 | 16.62
Output  | 0.8632     | 0.86351    | 0.86504    |   0.0 |  0.22
Modify  | 60.068     | 66.888     | 73.54      |  38.0 | 17.17
Other   |            | 17.13      |            |       |  4.40

Nlocal:        54.0000 ave          60 max          45 min
Histogram: 1 0 0 0 7 0 2 3 0 3
Nghost:        2532.50 ave        2613 max        2473 min
Histogram: 3 0 3 1 2 3 1 2 0 1
Neighs:        13475.4 ave       15234 max       11901 min
Histogram: 2 2 1 2 2 2 2 0 0 3

Total # of neighbors = 215606
Ave neighs/atom = 249.54398
Ave special neighs/atom = 2.0000000
Neighbor list builds = 14750
Dangerous builds = 3

unfix		3
unfix		2
unfix		1

write_data	data.final.${pid}
write_data	data.final.1
System init for write_data ...
PPPM initialization ...
  extracting TIP4P info from pair style
  using 12-bit tables for long-range coulomb (../kspace.cpp:340)
  G vector (1/distance) = 0.37243018
  grid = 24 25 27
  stencil order = 5
  estimated absolute RMS force accuracy = 0.0030569942
  estimated relative force accuracy = 9.2060472e-06
  using double precision FFTW3
  3d grid and FFT values/proc = 5700 1200
Last active /omp style is kspace_style pppm/tip4p/omp
WARNING: Not all mixed pair coeffs generated from mixing. Use write_data with 'pair ij' option to store all pair coeffs. (../write_data.cpp:312)

write_restart   restart.lmp.${pid}
write_restart   restart.lmp.1
System init for write_restart ...
PPPM initialization ...
  extracting TIP4P info from pair style
  using 12-bit tables for long-range coulomb (../kspace.cpp:340)
  G vector (1/distance) = 0.37243018
  grid = 24 25 27
  stencil order = 5
  estimated absolute RMS force accuracy = 0.0030569942
  estimated relative force accuracy = 9.2060472e-06
  using double precision FFTW3
  3d grid and FFT values/proc = 5700 1200
Last active /omp style is kspace_style pppm/tip4p/omp
Total wall time: 0:06:29
