LAMMPS (30 Jul 2021)
Processor partition = 0
  using 2 OpenMP thread(s) per MPI task
using multi-threaded neighbor list subroutines
variable        pid world 0 1
variable        phase world IceIII Liquid

shell cd ${phase}
shell cd IceIII
include Restart.lmp
echo both
log log.lammps
#include		in.partitions
include		in.temp
variable        temperature equal 262.46
variable	tempDamp equal 100.0
include		in.pressure
variable        pressure equal 3625.0
variable        pressureDamp equal 1000.0 # This is 1 ps
include		in.seed
variable        seed equal 745823

units		real
atom_style	full

read_restart	restart.lmp.${pid}
read_restart	restart.lmp.0
Reading restart file ...
  restart file = 30 Jul 2021, LAMMPS = 30 Jul 2021
  restoring atom style full from restart
  orthogonal box = (-0.069751003 -0.060448763 0.014106776) to (20.069752 20.060450 20.685891)
  4 by 2 by 4 MPI processor grid
  restoring pair style lj/cut/tip4p/long/omp from restart
  restoring bond style harmonic/omp from restart
  restoring angle style harmonic/omp from restart
  972 atoms
  648 bonds
  324 angles
Finding 1-2 1-3 1-4 neighbors ...
  special bond factors lj:    0        0        0       
  special bond factors coul:  0        0        0       
     2 = max # of 1-2 neighbors
     1 = max # of 1-3 neighbors
     1 = max # of 1-4 neighbors
     2 = max # of special neighbors
  special bonds CPU = 0.003 seconds
  read_restart CPU = 0.008 seconds
include 	in.setup
variable	out_freq equal 1000
variable	out_freq2 equal 10000
variable	out_freq3 equal 1000

timestep	2.0

neigh_modify    delay 7 every 1

include		in.tip4p
# This is TIP4P/Ice

# create groups ###
group ox type 2
324 atoms in group ox
group hy type 1
648 atoms in group hy

# set charges - beside manually ###
set group ox charge -1.1794
Setting atom values ...
  324 settings made for charge
set group hy charge 0.5897
Setting atom values ...
  648 settings made for charge

# ### TIP3P Potential Parameters ###
pair_style lj/cut/tip4p/long/omp 2 1 1 1 0.1577 8.5
pair_coeff 1 1*2 0.000 0.000
pair_coeff 2 2 0.21084 3.1668
bond_style  harmonic
bond_coeff  1 450 0.9572
angle_style harmonic
angle_coeff 1 55 104.52
kspace_style pppm/tip4p/omp 1.0e-5
pair_modify tail yes

thermo          ${out_freq}
thermo          1000
thermo_style    custom step temp pe etotal epair emol press lx ly lz vol pxx pyy pzz pxy pxz pyz enthalpy

restart 	${out_freq3} restart.lmp.${pid} restart2.lmp.${pid}
restart 	1000 restart.lmp.${pid} restart2.lmp.${pid}
restart 	1000 restart.lmp.0 restart2.lmp.${pid}
restart 	1000 restart.lmp.0 restart2.lmp.0


include         in.dump
dump            myDump all atom ${out_freq2} dump.water.${pid}
dump            myDump all atom 10000 dump.water.${pid}
dump            myDump all atom 10000 dump.water.0
dump            myDump2 all dcd ${out_freq2} dump.dcd
dump            myDump2 all dcd 10000 dump.dcd
dump_modify     myDump append yes
dump_modify     myDump2 append yes


variable natoms 	equal  "count(all)"                        # NUMBER ATOMS
variable H      	equal  "enthalpy/v_natoms"                 # ENTHALPY-per-atom
variable Vol      	equal  "vol/v_natoms"                 # volume-per-atom
fix AVG all 		ave/time ${out_freq} 1 ${out_freq} v_Vol v_H file vol_enthalpy.dat
fix AVG all 		ave/time 1000 1 ${out_freq} v_Vol v_H file vol_enthalpy.dat
fix AVG all 		ave/time 1000 1 1000 v_Vol v_H file vol_enthalpy.dat


timer           timeout 02:55:00 every 1000
New timer settings: style=normal  mode=nosync  timeout=02:55:00

fix 		1 all shake 1e-6 200 0 b 1 a 1
Finding SHAKE clusters ...
       0 = # of size 2 clusters
       0 = # of size 3 clusters
       0 = # of size 4 clusters
     324 = # of frozen angles
  find clusters CPU = 0.001 seconds
fix             2 all nph aniso ${pressure} ${pressure} ${pressureDamp}
fix             2 all nph aniso 3625 ${pressure} ${pressureDamp}
fix             2 all nph aniso 3625 3625 ${pressureDamp}
fix             2 all nph aniso 3625 3625 1000
fix             3 all temp/csvr ${temperature} ${temperature} ${tempDamp} ${seed}
fix             3 all temp/csvr 262.46 ${temperature} ${tempDamp} ${seed}
fix             3 all temp/csvr 262.46 262.46 ${tempDamp} ${seed}
fix             3 all temp/csvr 262.46 262.46 100 ${seed}
fix             3 all temp/csvr 262.46 262.46 100 745823


run             250000
PPPM initialization ...
  extracting TIP4P info from pair style
  using 12-bit tables for long-range coulomb (../kspace.cpp:340)
  G vector (1/distance) = 0.37104602
  grid = 24 24 24
  stencil order = 5
  estimated absolute RMS force accuracy = 0.0036534412
  estimated relative force accuracy = 1.100223e-05
  using double precision FFTW3
  3d grid and FFT values/proc = 3211 432
Last active /omp style is kspace_style pppm/tip4p/omp
Neighbor list info ...
  update every 1 steps, delay 7 steps, check yes
  max neighbors/atom: 2000, page size: 100000
  master list distance cutoff = 10.8154
  ghost atom cutoff = 10.8154
  binsize = 5.4077, bins = 4 4 4
  1 neighbor lists, perpetual/occasional/extra = 1 0 0
  (1) pair lj/cut/tip4p/long/omp, perpetual
      attributes: half, newton on, omp
      pair build: half/bin/newton/omp
      stencil: half/bin/3d
      bin: standard
Setting up Verlet run ...
  Unit style    : real
  Current step  : 6750000
  Time step     : 2
  Walltime left : 2:54:59.93
Per MPI rank memory allocation (min/avg/max) = 10.18 | 10.18 | 10.18 Mbytes
Step Temp PotEng TotEng E_pair E_mol Press Lx Ly Lz Volume Pxx Pyy Pzz Pxy Pxz Pyz Enthalpy 
 6750000    266.71252   -4646.4093   -4132.0318   -4646.4093            0    4857.3442    20.139503    20.120899    20.671784    8376.7217    5256.3565    3877.4642    5438.2119    398.28955     84.83392   -750.42489     -3538.63 
 6751000    263.86341   -4698.8388    -4189.956   -4698.8388            0    3653.4321    20.207961    20.096979    20.643825    8383.8491     4858.976    2961.0405    3140.2798   -824.40037   -387.43174   -394.61986   -3743.2515 
 6752000    261.51358   -4679.3988   -4175.0479   -4679.3988            0    5271.2806    20.125146    19.919078    21.013003     8423.574    5092.5291    5640.2817     5081.031     233.1216    92.425898   -22.746487   -3527.4753 
 6753000    270.56747   -4711.6161   -4189.8039   -4711.6161            0    3644.4508    20.109665    20.084982    20.695305    8358.8806     1422.789    5003.8635    4506.6998   -215.83772   -861.99751    145.19459   -3745.5246 
 6754000    261.75904   -4726.3027   -4221.4783   -4726.3027            0    4284.0007     20.08514     20.19647    20.688375    8392.2171    3917.8816    4546.2935    4387.8271    410.81683   -1209.8034    425.81228   -3697.1514 
 6755000    245.68936   -4651.5313   -4177.6987   -4651.5313            0    3810.9051    20.064479    20.091974    20.879268    8417.1634    3893.9088    3862.4645     3676.342   -10.336842    388.99392   -291.40133   -3709.8884 
 6756000    274.76676   -4691.7549   -4161.8441   -4691.7549            0    3466.8625    20.156433    19.919554    20.882857    8384.6166    4758.1342    2848.5911    2793.8623   -482.59277    407.61065    311.09812   -3737.9126 
 6757000     253.0071   -4655.2244   -4167.2789   -4655.2244            0    5412.2132    20.265783    19.808732    20.690177    8305.8537    5000.4359    6491.2209    4744.9827    -90.73128   -796.97538    97.514163   -3511.6848 
 6758000    261.01652   -4674.9342   -4171.5418   -4674.9342            0    5353.4181     19.93082    20.154115    20.856034    8377.6194    6986.3079    3674.2099    5399.7366    181.17205   -25.959679   -657.84294   -3517.4667 
 6759000    273.70605   -4673.9436   -4146.0784   -4673.9436            0    5341.9586    20.072818    19.977283    20.830032    8352.8503    2857.3413    6898.2151    6270.3194   -415.12881   -404.97952    219.41191    -3495.333 
 6760000    255.63403   -4655.7633   -4162.7516   -4655.7633            0    3304.5011    20.317035    20.162186    20.733406    8493.1467    3517.4003    2932.4589    3463.6442     -117.866    73.884613   -241.11851   -3753.4434 
 6761000    260.10612   -4689.3999   -4187.7633   -4689.3999            0    3105.8306    20.204917    20.145448    20.706423    8428.2823    1601.0353    3526.6681    4189.7884    -32.84337    225.43819   -427.77022   -3806.0013 
 6762000    271.55713   -4652.4232   -4128.7025   -4652.4232            0    3227.2611    20.049355    19.976921    21.010012    8415.0218    3579.1037     3171.273    2931.4064    238.94692    454.16637    1153.0922   -3732.6386 
 6763000    265.64376   -4636.3638   -4124.0475   -4636.3638            0    3755.5116    20.097316    19.775995    21.154766    8407.8438     5038.574    3208.8966    3019.0641    450.77178    848.71826    118.47212   -3663.5475 
 6764000     257.3868   -4686.8439   -4190.4518   -4686.8439            0    2463.5171    20.161067    20.205401    20.653924    8413.6332    1827.1416    3213.9189    2349.4907   -383.68974    88.092851   -1945.8692   -3888.1679 
 6765000    262.80735   -4692.8269   -4185.9808   -4692.8269            0    3526.9721    20.114449    20.174853    20.666013    8386.3932    3758.0344    1975.9321    4846.9498   -888.83731   -1203.2757    462.37656   -3754.6077 
 6766000    266.82984   -4688.8621   -4174.2583   -4688.8621            0    3652.3726    19.956823    20.009009    20.973734    8375.1529    4412.8526    2039.1069    4505.1584    658.66197   -439.23876   -233.48505   -3728.1465 
 6767000    260.10063    -4673.699   -4172.0731    -4673.699            0     1176.268    20.156918     20.22094     20.91727    8525.7084    1540.2764    1066.3547    922.17286   -493.70733    233.79957     -1756.14   -4025.8174 
 6768000    266.71042   -4723.4685    -4209.095   -4723.4685            0    3863.8675    20.132623    20.185996    20.635757     8386.311    4211.7737    3383.2204    3996.6085    42.343956   -282.08355    784.18653   -3736.5218 
 6769000    251.37888   -4666.8765   -4182.0712   -4666.8765            0    4188.7532    20.099499    20.123326    20.798895    8412.5035    4673.0858    3365.8463    4527.3275   -443.19091    651.52503    184.63058   -3668.1626 
 6770000    253.20719   -4679.9407   -4191.6093   -4679.9407            0    3440.3201    20.041154    20.240975    20.648074    8375.9429    3952.9429    2300.9842    4067.0332    181.69426    1351.8108    436.39323   -3771.3586 
 6771000    262.68973   -4718.4836   -4211.8643   -4718.4836            0    1782.9859    20.078699    20.133622    20.968132    8476.5129    2020.9282    664.51892    2663.5107   -143.70786    68.887569     1045.325   -3991.4494 
 6772000    266.39828   -4684.9842   -4171.2127   -4684.9842            0    5071.4192     20.02731    19.976945    20.802567    8322.7839    4373.6367    4869.1585    5971.4623    210.57676   -408.71433    316.96139   -3555.6476 
 6773000    256.97628    -4712.232   -4216.6316    -4712.232            0    2156.5567    20.003856    20.247246    20.853288    8446.0611    1248.1943    2704.8352    2516.6406   -227.74443    1034.6801    710.43361   -3950.9932 
 6774000     274.5142   -4657.9276   -4128.5039   -4657.9276            0    3499.5972    20.425931    20.066606    20.543057    8420.1697    2399.8431    4141.3982    3957.5503    760.61366    521.74201   -832.17821    -3698.755 
 6775000    263.83945   -4652.4342   -4143.5976   -4652.4342            0    3783.0947    20.172983    19.882482    20.974216    8412.5271    3538.3768    4054.6794    3756.2278    342.89527   -769.39051   -361.87542    -3679.457 
 6776000    268.81677   -4666.0877   -4147.6519   -4666.0877            0    3150.6191    19.932813    20.313276    20.986194    8497.3251     5418.717     979.1888    3053.9515    95.098326    311.25285   -185.05724   -3757.2122 
 6777000    278.89927   -4676.8846   -4139.0039   -4676.8846            0    4275.8405    20.046817    20.036252    20.953991    8416.4445    6168.1481    2849.8364     3809.537    600.99935    56.497741   -281.43836    -3614.165 
 6778000    264.15402   -4700.5166   -4191.0733   -4700.5166            0    4260.8365     20.13269    20.041022    20.698556    8351.4466    1477.4439    6928.7323    4376.3334    1241.2162    844.61916     1031.756    -3672.115 
 6779000    267.96642   -4675.5757   -4158.7799   -4675.5757            0    4584.6625    20.141263    19.878446    20.796593    8326.4779    4002.0209    4989.3534    4762.6132   -220.08907    204.39979    721.94474     -3602.05 
 6780000    278.86854   -4693.7461   -4155.9247   -4693.7461            0    3750.7789    20.188567    20.010676    20.827985    8414.2327    4060.6956      1806.75    5384.8911    103.15737   -370.71385    319.31853   -3695.6555 
 6781000    267.64238   -4663.5829   -4147.4121   -4663.5829            0     2640.143    20.188038    20.113556    20.759271    8429.3694    3125.4483    2278.0411    2516.9395   -239.49974    639.80835    11.117689   -3822.8495 
 6782000    264.08977   -4667.5244   -4158.2051   -4667.5244            0    4061.7651    20.372968     20.01939    20.583498    8395.0701    2561.4916    5512.3275    4111.4762    92.953748   -565.75549   -307.76567   -3660.9091 
 6783000    260.05174   -4660.9216     -4159.39   -4660.9216            0    4568.3426    20.074943    20.037377    20.820762    8375.1351    5771.1241    3893.8788    4040.0249    62.750559   -120.71838      -755.71      -3601.4 
 6784000    263.86962   -4705.6896   -4196.7949   -4705.6896            0    3439.9251    19.947145    20.263448    20.724762     8376.906    1970.5936    3206.8035    5142.3784   -334.62893   -1327.8802    1097.6717   -3776.5441 
 6785000    248.76729    -4705.095   -4225.3264    -4705.095            0    2882.6066     20.17116    20.283383    20.646136     8447.147    2537.1919    3002.4077    3108.2201     245.3539    856.95915   -140.69772   -3870.2095 
 6786000    255.00655   -4697.9218   -4206.1202   -4697.9218            0    3838.3302    20.217712    20.170003    20.556635    8382.8173    2877.7514    5070.2643    3566.9749    267.52046    274.41493   -184.43624   -3736.8659 
 6787000    260.76609   -4678.0666   -4175.1573   -4678.0666            0    4552.9684    20.074029     20.01905     20.82448    8368.5877    5208.2797    3391.9146     5058.711   -146.05845    906.49231    -953.7594   -3619.4799 
 6788000    254.81989   -4649.3757   -4157.9341   -4649.3757            0    4594.7232    20.247019    19.874014    20.982421    8443.1065    3843.1202    4801.0486    5140.0009   -45.440511    1241.3999   -1418.6352   -3592.1672 
 6789000    247.46624   -4681.8441   -4204.5846   -4681.8441            0    2239.3158    20.130667    20.204286    20.728622    8430.8644    5033.6466   -499.13202    2183.4328    12.548412    602.71386   -195.79329   -3929.2484 
 6790000    258.56533   -4683.1904   -4184.5254   -4683.1904            0    3377.5102    20.259795    20.174579    20.564742    8405.4853    2404.9164    3310.1322    4417.4819   -259.32016     -361.575   -291.17173   -3770.4921 
 6791000    267.68684   -4691.6086    -4175.352   -4691.6086            0    2638.9307    19.958914    20.437998    20.747261    8463.2278    4233.8977   -227.37233    3910.2667    591.18174   -516.61172   -221.06583   -3849.6354 
 6792000      268.919   -4706.1042   -4187.4713   -4706.1042            0    4809.8669    20.081354     20.06663    20.919512    8429.8336    4895.5351    4002.4556      5531.61   -287.77322    174.83585   -987.52858    -3596.144 
 6793000    274.09165   -4686.6523   -4158.0435   -4686.6523            0    2458.1366    20.377715    19.900503    20.746211    8413.1436    1484.7112    2001.3155    3888.3831    189.49621   -85.976839    546.88025   -3856.4373 
 6794000     252.3366   -4694.7269   -4208.0745   -4694.7269            0    4658.6027    19.837674    20.123852    20.926856     8354.219    5993.0804     3963.969    4018.7588   -255.55276   -1.1863088    311.20416    -3640.481 
 6795000    254.75703   -4704.5962   -4213.2758   -4704.5962            0    5092.1762    20.012019    20.042032    20.751735    8323.1379    7196.9018    3190.7185    4888.9082   -536.10783    970.68219   -1287.1122   -3595.1649 
 6796000    256.05869   -4690.1397   -4196.3089   -4690.1397            0    3669.1378     20.36219    19.781968    20.723016    8347.3175    2703.5835     5268.814    3035.0158   -523.61222    8.2446061    444.10599   -3749.6389 
 6797000    264.21095   -4685.3253   -4175.7722   -4685.3253            0    4994.6162    20.102714    19.899182    20.769948    8308.5517    4140.4473    6104.9756    4738.4256    166.91174    -741.8293   -920.36935   -3570.5661 
 6798000    253.79704   -4701.6356   -4212.1667   -4701.6356            0    4068.9735    19.970756    20.281139    20.709488    8387.9574    3344.7114    5407.1955    3455.0136    381.25184    -498.8585     735.4572   -3714.4102 
 6799000     264.6276   -4681.1611   -4170.8045   -4681.1611            0    3796.5743    20.178443      20.2079    20.710462    8444.9803    1511.5284    5430.5449    4447.6495    -1039.277   -159.28635   -1392.5881   -3703.2132 
 6800000    254.98118   -4693.6506    -4201.898   -4693.6506            0      3474.95    20.168291    20.231242     20.67981    8437.9744      2147.44    4261.0495    4016.3605    -222.9319    344.21514   -761.50683   -3774.2734 
 6801000    278.65894   -4646.7435   -4109.3263   -4646.7435            0    3357.2984    20.071595    20.279011    20.890524    8503.1135    4044.4813    1942.4522    4084.9617   -274.87295   -652.61105    377.22821   -3692.9904 
 6802000     259.1321   -4709.4329   -4209.6748   -4709.4329            0     2180.802    20.112379    20.038257    20.880805    8415.3198    3250.3337    2094.3781    1197.6943    108.80484    340.44252   -939.02629   -3942.0276 
 6803000    256.13941   -4706.6156   -4212.6292   -4706.6156            0    3409.9395    20.468285    19.773961    20.664336    8363.6641    210.49522    5664.8381    4354.4853    119.46517   -367.78657    -2082.599   -3796.7003 
 6804000    274.43531   -4680.7539   -4151.4823   -4680.7539            0    2576.5505    20.165622    20.125257    20.821372    8450.1107    632.36502     5208.617    1888.6695     42.56838    1305.0793    964.41831   -3833.9581 
 6805000    256.36992   -4664.9594   -4170.5284   -4664.9594            0     5580.227    20.273956    19.753325     20.77223    8318.8216    4142.4829    5895.2163    6702.9819    38.487966   -1071.4258   -994.48532    -3493.527 
 6806000    277.04505   -4660.3898   -4126.0851   -4660.3898            0    4940.2803    20.021855    20.074023    20.883525    8393.4896    6479.8303    4383.4401    3957.5705    970.07209    388.10271   -652.34317   -3521.3432 
 6807000    248.38493   -4685.6697   -4206.6385   -4685.6697            0    3696.4993    20.159068    20.055977    20.711095    8373.6989    4566.6305    1238.5386    5284.3289    249.93014    -127.1874    724.62439   -3755.2153 
 6808000    260.47484   -4671.0951   -4168.7475   -4671.0951            0    4568.2808    20.014635     20.06684    20.835472    8368.1606    2875.6291    6363.6617    4465.5517    351.39604    -1074.412   -709.48083   -3611.2298 
 6809000    258.60947   -4678.2321    -4179.482   -4678.2321            0    4660.3989     19.96023    19.756198    21.162581    8345.2156    5939.4409    4403.7737    3637.9822    643.04423    1336.9458   -1502.3969   -3612.2816 
 6810000    272.79625   -4702.5355    -4176.425   -4702.5355            0    3789.2565    20.107593    19.962771    20.881638    8381.9578    4528.8786    3043.0355    3795.8554   -908.39323     137.2543   -47.437734   -3713.2177 
 6811000    267.41662   -4690.2314   -4174.4959   -4690.2314            0    5260.7807    20.240183    20.081206    20.638708    8388.5473    3154.3474    6773.5323    5854.4625   -14.688783    281.62509    745.68508   -3530.9007 
 6812000    278.89308   -4663.9325   -4126.0637   -4663.9325            0    2965.1266    20.258588     19.98424    20.793069    8418.1256     2264.329    2506.3241    4124.7267    44.633191    1136.7295   -291.74244   -3762.0359 
 6813000    271.53986   -4670.4844   -4146.7969   -4670.4844            0    3826.4296    20.101439    20.010688    21.023589    8456.6043    4401.2101    4220.2483    2857.8303   -127.51829    324.74432   -827.00293   -3674.8799 
 6814000     258.2664   -4676.5413   -4178.4529   -4676.5413            0    2944.4701    20.229073    19.784201    21.049848    8424.4867    1975.1371    5289.8031      1568.47    1463.7044    99.239628   -505.46083   -3816.6879 
 6815000    257.83891   -4681.6136   -4184.3495   -4681.6136            0    3872.5609    19.920593    20.355731    20.753877    8415.6602     7086.068    974.27176    3557.3429   -306.62693   -179.50614   -58.801253   -3709.0555 
 6816000    276.34872   -4666.4943   -4133.5326   -4666.4943            0    1848.1985    20.472315     20.11141    20.704025    8524.4088   -87.168865    1833.1484     3798.616   -251.76167   -1109.4911    -1562.753    -3903.765 
 6817000    262.21462   -4705.4022   -4199.6993   -4705.4022            0    3237.2036    20.117041    19.994158     21.05989    8470.7783    3263.2665    3769.5781    2678.7662    439.07591    1079.9894    531.24495   -3799.7829 
 6818000     259.6674   -4678.8798   -4178.0894   -4678.8798            0    4226.0617    20.035235    19.877583    20.932943    8336.5877    5368.7932     2100.772    5208.6198   -297.39856   -313.15783    -1074.164   -3664.2824 
 6819000    253.46462   -4705.9621   -4217.1343   -4705.9621            0    4485.5798      20.1977    20.024239    20.709092    8375.6592     2444.018    6078.6157    4934.1056    503.45721    172.22403   -69.505577   -3669.2189 
 6820000    266.38042   -4670.1804   -4156.4434   -4670.1804            0    2952.3298    20.182667    20.172483    20.687341    8422.5302    1947.3092    4059.1311     2850.549   -156.40481   -1110.1138    653.51229    -3793.797 
 6821000     257.4848   -4659.7638   -4163.1827   -4659.7638            0    4688.3808    19.970447    20.111226    20.858171     8377.271    5236.7334    5372.2227    3456.1863   -299.51472    528.10427   -1181.6658   -3590.3849 
 6822000    286.99878   -4672.9915   -4119.4902   -4672.9915            0    3717.5794    20.376819    19.981299    20.672522    8416.9275    2326.1148     4999.734    3826.8893   -325.13546    1603.9918    656.66726    -3663.149 
 6823000    246.63141   -4684.2179   -4208.5685   -4684.2179            0    2606.7315    19.878298    20.279107    20.826298    8395.3754    4434.2794    1318.4136    2067.5014     427.5545    1387.0905   -132.76586   -3889.4057 
 6824000    243.97797   -4671.0743   -4200.5423   -4671.0743            0    5157.6235    19.979588    19.932535    21.037522    8378.0636    5154.3406    6033.8185    4284.7114    294.92839    121.10536   -526.24402   -3570.3557 
 6825000    251.49612   -4669.8215   -4184.7901   -4669.8215            0    4081.8581    20.192281    20.016877    20.761285    8391.4288    3390.3211    3967.8062    4887.4471    133.05534   -595.34291   -1017.7704   -3685.2507 
 6826000    266.55225   -4698.8681   -4184.7997   -4698.8681            0    3733.1629    20.273796    20.013688     20.70188    8399.8586    4812.5074    2886.1941    3500.7871    200.38497   -2053.4397    20.518329   -3727.4748 
 6827000    254.40593   -4718.2169   -4227.5737   -4718.2169            0    3732.3154    20.113283    20.096007    20.616579    8333.1528    5001.1279    3137.3552    3058.4631   -764.58707    24.068788     1458.028   -3773.9836 
 6828000    266.64208   -4655.8456   -4141.6039   -4655.8456            0    3161.8978    20.064068    20.059718    20.953042    8433.1712    2996.1788    4652.6694    1836.8451   -78.292613    1136.8246    1162.1274   -3752.7248 
 6829000    264.43824   -4705.4461   -4195.4547   -4705.4461            0    2560.8186    20.286936    20.012499     20.81478    8450.6403    931.33315    2160.9357    4590.1871    363.50555   -433.18413   -972.85513   -3879.8494 
 6830000    263.69999   -4667.7231   -4159.1555   -4667.7231            0    3784.2445    20.130965    20.143516     20.67405    8383.5014    3273.1997     4663.629    3415.9049   -71.693298   -56.755341    990.08364   -3696.4757 
 6831000    271.03812   -4696.8043   -4174.0845   -4696.8043            0    2326.9895    20.155379    20.267054    20.791088    8492.9544    1630.3895    2099.3251     3251.254   -215.23908   -881.43432   -1030.7904   -3885.8612 
 6832000    257.98417   -4703.7802    -4206.236   -4703.7802            0    3152.7891    20.221424    20.024324    20.840586    8438.7771    3449.7612    2663.4608    3345.1454    314.46378   -956.23765   -312.79886   -3818.2194 
 6833000     265.8886   -4675.8324   -4163.0438   -4675.8324            0    4089.9658     19.93331    19.880596    21.085413    8355.8558    3527.3483    4041.9964    4700.5527   -512.00261    599.31213   -428.85903   -3664.6341 
 6834000    278.28642   -4681.2467   -4144.5479   -4681.2467            0    2793.1299    20.062775    20.109264    20.919924     8440.094    3724.5598    1746.2811     2908.549   -182.91473   -712.68691   -891.78972   -3800.7412 
 6835000    260.13087   -4709.7808   -4208.0966   -4709.7808            0    2183.6657    20.242303    20.081167    20.628659    8385.3242    1702.9774    1318.4672    3529.5525    357.08804    680.63863    301.54376   -3941.0531 
 6836000    260.77243   -4700.8678   -4197.9463   -4700.8678            0    1621.3374    20.059363    20.130133    21.121814    8528.9389    2448.5176    1673.3823    742.11239   -318.32729     207.7017    168.69757   -3996.2749 
 6837000    258.35914   -4689.5142   -4191.2469   -4689.5142            0    4200.1919     19.90483    20.091795    20.937298    8373.3227    5798.7054    3963.1511    2838.7192   -116.87879   -851.95638    533.17864   -3678.3349 
 6838000      261.923   -4689.6598   -4184.5193   -4689.6598            0    1780.3667    20.323472    20.027334    20.823321    8475.6118    934.74427    3075.3375    1331.0183    175.68472     1218.438    535.34921   -3964.4516 
 6839000    256.62196   -4724.1945   -4229.2775   -4724.1945            0    3726.1024    20.006031    20.091706    20.706098    8322.9254    3471.8675    3499.6163    4206.8232    83.260789   -253.72213   -383.95319   -3776.9982 
 6840000    261.23061   -4700.4164   -4196.6112   -4700.4164            0    4197.4885    20.187851    20.093499    20.739401    8412.8256    4003.8237    4267.5482    4321.0937    334.13683    235.28035   -466.82091   -3681.6111 
 6841000    262.08946    -4701.779   -4196.3174    -4701.779            0    4297.1618    20.160577    20.215415     20.66392    8421.6721    5083.0208    2328.2608    5480.2036    496.36479    165.52505    167.33238   -3668.5338 
 6842000    259.87101   -4687.9124   -4186.7293   -4687.9124            0    3697.3956     19.99739    20.116325    20.957122    8430.5055    3652.2947    3557.7573    3882.1349   -151.94504   -413.97523   -541.96815   -3732.1335 
 6843000    277.79541   -4691.9996   -4156.2477   -4691.9996            0    3150.1786    20.162436    20.035982    20.927685    8454.2449     3683.899    3287.5839    2479.0529    568.31142     8.699574    272.95362   -3767.8418 
 6844000    257.02625   -4680.5824   -4184.8857   -4680.5824            0    2911.9911    20.195515    20.105557    20.813864    8451.3045    3615.3415    3300.2645    1820.3673   -62.195068    1807.7167   -43.318907   -3825.9723 
 6845000     254.9881   -4710.1483   -4218.3823   -4710.1483            0    3307.8443    20.131968    20.188333    20.762747    8438.6214    3361.7778    2192.0563    4369.6988    337.74661     599.1249    553.44201   -3811.2904 
 6846000     265.9875   -4680.1789   -4167.1997   -4680.1789            0     3752.631    20.124306    19.968183    20.762384    8343.2775    5619.0784    1315.7654    4323.0492   -839.35344    134.98696   -407.95246   -3710.5865 
 6847000    251.18543   -4654.7753   -4170.3431   -4654.7753            0    4223.3659     19.93971    20.055964      20.9689    8385.6744    5793.5808    3040.0558     3836.461   -371.52685    1612.4983    1161.3539   -3653.8404 
 6848000    271.32707   -4705.2826   -4182.0055   -4705.2826            0    3075.4243    20.113766    19.743665    21.170116    8407.0651    4572.7641    3582.8983    1070.6106    331.19155   -1339.6632   -384.87966   -3804.9326 
 6849000     255.1279   -4685.0911   -4193.0555   -4685.0911            0     4265.107    20.041799    19.975444    21.073467     8436.633    5875.3364    3103.9186    3816.0661   -185.06976   -1129.3289   -319.02769   -3668.2782 
 6850000     244.1772   -4646.7758   -4175.8595   -4646.7758            0    3529.6181    20.086875    20.318978    20.676185    8438.8767    1695.4806    3335.0805    5558.2933   -960.40521    370.73785    845.97623   -3741.4611 
 6851000    251.24122    -4707.935   -4223.3951    -4707.935            0    3609.7732    20.103987    20.018647     20.73912    8346.5545    2528.7212    5302.5297    2998.0686    45.961089   -1394.0362   -51.891181   -3783.9921 
 6852000    265.46074   -4682.4074   -4170.4441   -4682.4074            0    3135.1058     19.95212    20.004484    21.189636    8457.4588    5910.7529    1384.1881    2110.3763    389.10069     1049.748    1025.1257   -3783.7496 
 6853000    271.99453   -4686.2125   -4161.6481   -4686.2125            0    4429.2954    19.981822    20.043684    20.833746    8344.1098    4248.6967    4657.5224    4381.6672    278.20801     518.1645    -706.1526   -3622.6459 
 6854000    259.27088   -4657.7387    -4157.713   -4657.7387            0    4293.1794    20.212981     20.20323       20.627    8423.3964     5483.678    2946.9285    4448.9316    856.67126   -138.09928      947.657   -3630.3105 
 6855000    268.46775   -4649.0488   -4131.2862   -4649.0488            0    3470.3867    20.072606    20.380798    20.693837    8465.7604    4243.0437     1874.072    4294.0445   -424.29823   -979.38189   -138.19209   -3702.8168 
 6856000    257.31578   -4704.1325   -4207.8774   -4704.1325            0    3459.3007    20.127849    20.060269    20.739587    8374.0243    4799.3549    3103.0072    2475.5399   -302.12948   -1020.4094    799.92784    -3785.405 
 6857000    271.69354    -4696.505   -4172.5211    -4696.505            0    4271.9585    19.941565    20.111574    20.880788    8374.3707    3829.8498    4512.7095    4473.3162   -183.07916   -936.22313    681.42821     -3650.78 
 6858000    261.83821   -4665.2089   -4160.2319   -4665.2089            0    5297.9188     20.21783    19.891418    20.809763    8368.8815     5300.986    4950.4215    5642.3489    193.50701   -713.66732    1242.1951   -3513.6127 
 6859000    252.56059   -4672.0118   -4184.9274   -4672.0118            0    3686.1119    20.081188    20.095224    20.849065    8413.3474    4315.8283    2677.2749    4065.2324    319.98901    638.72385   -312.98029   -3732.6414 
 6860000     275.5618   -4680.5515   -4149.1074   -4680.5515            0    4501.5052    20.044419    20.175894    20.693342    8368.6786     5810.637    4122.3953    3571.4831    355.48813    1112.3798   -835.53863    -3599.705 
 6861000    281.52486   -4697.3495   -4154.4051   -4697.3495            0    2171.0853    20.233078     20.23518    20.709789    8479.0014      1283.64    1340.5952    3889.0206   -558.45492    536.60215   -1478.5424   -3885.9341 
 6862000    262.56211   -4674.7369   -4168.3638   -4674.7369            0    2803.9826    19.905971    20.134317    20.979645    8408.4977    3375.2787    2831.0627    2205.6062    481.18375   -1065.3723   -1266.3262   -3824.5133 
 6863000    243.68993   -4682.0755    -4212.099   -4682.0755            0    2288.2316    20.195863    19.962081    21.115429    8512.7155     2475.355    3748.0028      641.337   -155.81219    289.97032   -941.91935   -3928.0168 
 6864000    256.29453   -4665.3833   -4171.0978   -4665.3833            0    4238.5178    20.125738    20.064377    20.774798    8389.0794    4129.9141    3999.3914    4586.2478     129.7533    776.25644    654.96586   -3652.5316 
 6865000    257.97722   -4676.0272   -4178.4965   -4676.0272            0    3555.5792    20.344516    19.962981    20.629507    8378.4099    2472.0612    3533.6068    4661.0697    649.42444    789.81296     1218.781   -3744.0384 
 6866000    253.80535   -4702.8353   -4213.3503   -4702.8353            0    3146.8841    20.110468    20.052404    20.983054    8461.6942    2428.1729    3235.2153     3777.264   -508.31135   -340.15357    3.4722997   -3825.0087 
 6867000    254.34301   -4706.4634   -4215.9415   -4706.4634            0    2940.6215    20.111334    20.045174    20.943555    8443.0844    1746.8211    4379.3165    2695.7271    25.424747   -772.02189     956.2312   -3853.8518 
 6868000    259.27649   -4701.6868   -4201.6503   -4701.6868            0    4188.6505    20.156886    20.011426     20.77443    8379.7407    2309.2961    6892.2947    3364.3606   -71.050455   -676.07128    1904.8218   -3689.7556 
 6869000    255.13075   -4703.6433   -4211.6022   -4703.6433            0    2395.0163    20.077423     20.26878    20.767788    8451.3449    2819.7233    1789.9215    2575.4041    180.47013    1029.7038   -899.47745   -3916.4064 
 6870000    254.99294   -4656.7771   -4165.0018   -4656.7771            0    3724.0484    20.147141      19.8261    21.111996    8432.9593    3326.0682    5025.4477    2820.6293   -252.64432    641.12098     710.8726   -3706.9957 
 6871000    245.47375   -4688.3672   -4214.9504   -4688.3672            0    3000.9043    20.009937    20.143839    20.931456    8436.9873    1750.8818    3532.8534    3718.9778    29.183831    1925.4213   -75.474331   -3845.7047 
 6872000    260.05732   -4640.0827   -4138.5403   -4640.0827            0    4150.6962    20.253094     20.13067    20.586431    8393.2594    4631.9794    3343.8137    4476.2956    242.60236    762.43342    69.853162   -3630.4657 
 6873000    270.55039   -4695.9029   -4174.1237   -4695.9029            0    4270.8367    20.105618    20.204446    20.576119    8358.4899    4454.3174    3689.4489    4668.7439    729.43567   -2127.8034   -399.62642   -3653.5087 
 6874000    269.90436    -4694.606   -4174.0727    -4694.606            0     4270.291    19.917337    19.988369    20.986593     8355.079    5520.9617    3371.6395    3918.2718    95.091645   -842.46079   -931.79927   -3653.7367 
 6875000    265.27015   -4657.1967   -4145.6009   -4657.1967            0    4380.7279    20.063365    20.054005    20.734483    8342.5362    4685.2891    4637.2213    3819.6732    938.21472     780.7964   -120.37748   -3612.6094 
 6876000     252.5437    -4705.268   -4218.2163    -4705.268            0    2575.4846    20.011493    20.112094    20.983782    8445.4062    4247.4157    1759.5518    1719.4862    35.798797   -292.93535    377.62043        -3901 
 6877000    266.88072   -4697.2159    -4182.514   -4697.2159            0    3974.2651    20.045871    20.066983    21.013567    8452.9207    5945.0427    3545.9062    2431.8462    412.70134   -1347.2959   -65.053085   -3692.5778 
 6878000     260.8196   -4695.8505    -4192.838   -4695.8505            0    2120.1713    20.301522    20.288872    20.446728    8421.9046     1736.304    1418.9686    3205.2411   -337.18847   -483.71873    184.99597   -3932.4283 
 6879000    271.29284   -4657.8559   -4134.6448   -4657.8559            0    5166.8331    20.213027    19.883993    20.827479    8370.8905     4333.847    5867.2732    5299.3792   -613.44639    1630.1443   -1721.2454   -3503.8734 
 6880000    253.95792   -4716.6333   -4226.8541   -4716.6333            0    4835.5997    19.991016     19.95347    20.954324    8358.4731    4142.3515      5870.58    4493.8676   -66.586133   -398.85332   -54.382127   -3637.3956 
 6881000    256.97771   -4714.1764   -4218.5733   -4714.1764            0    3627.7011    20.210364    20.119695    20.647241    8395.7122    2868.8248    3673.3997    4340.8788   -149.17577   -522.58936    1197.3256   -3774.3872 
 6882000    271.70434   -4670.2604   -4146.2557   -4670.2604            0    3510.4864    20.153994    20.004229    20.867309    8412.9708    3433.7356    4573.9407     2523.783   -25.684229    220.27964   -18.189397   -3715.5382 
 6883000    271.43937   -4666.6725   -4143.1789   -4666.6725            0     5255.273    20.071102    19.878555    20.872544    8327.8215    5134.4578    7421.2559    3210.1052   -48.175338    618.33024   -1056.5706   -3504.9116 
 6884000    251.28172   -4687.1198   -4202.5018   -4687.1198            0    3086.2493    20.224009    20.153086    20.726077    8447.4553    3122.9643    2220.4439    3915.3397     612.7788    887.58239   -515.49066   -3822.2837 
 6885000    260.11265   -4698.4493   -4196.8001   -4698.4493            0    3920.4814    20.093871     20.12461    20.725406     8380.967    3872.0858    3952.4186    3936.9399   -588.20894   -901.17046   -835.83365   -3717.6083 
 6886000    278.73437   -4700.6647   -4163.1021   -4700.6647            0    4924.7471    20.023759    19.990385    20.882165    8358.7687    4718.6669    5321.6291    4733.9454   -232.22608    495.43758   -937.22775   -3562.7554 
 6887000    253.91483   -4689.8129   -4200.1168   -4689.8129            0    2721.4276    20.197618    19.868317    21.111285    8471.8042    3032.6585    2546.6164    2585.0079    122.24511    75.242073   -2010.4144   -3863.8774 
 6888000    257.02197   -4687.5774   -4191.8889   -4687.5774            0    1789.0358    20.182482    19.913013    21.021625    8448.4653    2909.7907    574.58609    1882.7305    441.78094    1001.4643   -506.31484   -3971.4579 
 6889000    249.97423   -4707.3428   -4225.2464   -4707.3428            0    4021.0849    20.051387    20.071877    20.774191    8360.9675    4940.0877     4150.402    2972.7652   -331.17974   -687.18144   -441.97508   -3734.9309 
 6890000    265.41944   -4676.6256   -4164.7419   -4676.6256            0    2992.8383    20.219348    20.041901    20.844101    8446.7419    3807.1109    2794.4909    2376.9131    1026.0415   -522.54585    171.14932   -3796.0629 
 6891000    261.68906   -4687.5198   -4182.8304   -4687.5198            0     2982.284     19.93021    19.975555    21.177259    8431.0268    4053.7088    3292.1446    1600.9986   -385.05834    756.24434    49.165661   -3816.1351 
 6892000    269.30257    -4704.845   -4185.4723    -4704.845            0    3574.9044    20.258278    19.964497    20.911944    8457.7589    1865.4545    5955.4099     2903.849   -20.288442   -122.72349   -1827.5506    -3744.516 
 6893000    259.48427   -4686.2688   -4185.8315   -4686.2688            0    5467.2954    19.897784    20.274337    20.634871    8324.4035    6374.6786    4777.3657    5249.8421    28.391966   -3.6509408   -527.74377   -3522.0861 
 6894000    257.40891   -4684.7746   -4188.3399   -4684.7746            0    2490.2765    20.235343    20.200654    20.660425    8445.3032    1483.3508    1496.8891    4490.5896    282.55469    700.18572   -984.44247   -3881.6223 
 6895000    254.15424   -4673.1013   -4182.9434   -4673.1013            0    4707.1869    20.068607    20.105923    20.805731    8395.0683    1809.7775    7923.8792     4387.904   -293.31224    1167.4842    -127.3707   -3606.6263 
 6896000    253.95648   -4692.7569   -4202.9804   -4692.7569            0    2278.4144    20.137712    19.972382    21.066374    8472.8551    2315.0105     2237.674    2282.5586   -272.97333    501.21747    504.99926   -3921.4416 
 6897000    261.12989   -4716.6265   -4213.0155   -4716.6265            0    2176.3534     20.19884    19.984879    20.839536     8412.324     1692.749    2976.1447    1860.1666    606.51874    1106.3303   -67.718719   -3946.0093 
 6898000    263.61193   -4710.9832   -4202.5854   -4710.9832            0    2701.1231    20.262953    20.277997    20.540389    8439.8836    3519.7323    564.15144    4019.4856   -238.81948    284.66559   -1869.1849   -3870.1121 
 6899000    269.77705    -4679.728   -4159.4402    -4679.728            0    2983.2842    20.180687    20.110147    20.737626    8416.0872    3714.3709    2139.8692    3095.6124    470.79042    1504.3654   -929.05797   -3793.2719 
 6900000    260.93344   -4693.5547   -4190.3226   -4693.5547            0    3204.4069    19.839711    20.090338    21.209614     8453.866    3845.8765    3768.9235    1998.4207     254.8428    297.42954   -459.56079   -3795.2482 
 6901000    273.99221   -4667.3513   -4138.9343   -4667.3513            0    4133.5687    20.156832    20.100308    20.793965    8424.8521    4117.9934    4195.9492    4086.7636   -271.59589   -261.21418    116.05924   -3631.0517 
 6902000    267.86077   -4672.3066   -4155.7145   -4672.3066            0    3639.8307    20.027375    20.327278    20.632805    8399.6564    6173.7284    1796.9878    2948.7759   -179.02413   -1540.4599    1771.7894   -3709.8339 
 6903000    253.47429   -4674.8062   -4185.9598   -4674.8062            0     3031.078     20.14437    20.308093    20.633355    8440.9761    3059.7346    1831.3536    4202.1458    74.653449    153.56531   -953.68247    -3812.825 
 6904000    254.55785   -4666.4923   -4175.5561   -4666.4923            0    4539.3826    20.323743    19.990679    20.628815    8381.1867    5014.6749    4060.5789    4542.8941   -1165.4854    893.19233   -225.12231   -3620.7028 
 6905000    266.73093   -4702.5543   -4188.1413   -4702.5543            0    3477.4686    20.017698    20.158995    20.939284    8449.7689    4578.9937    2972.3989    2881.0131    175.09117   -195.95694    159.83499   -3759.6086 
 6906000    245.31497   -4672.7117   -4199.6012   -4672.7117            0    4868.6942    20.111311    19.921678    20.797259    8332.4443     4457.186    5066.7406    5082.1561   -57.557895   -235.57474    704.21002   -3607.9567 
 6907000    254.88737   -4665.6141   -4174.0424   -4665.6141            0    2916.4417    20.289791    20.296923     20.46314    8427.1369    1857.5508    3590.0408    3301.7336   -221.08985     751.3247   -1075.0513   -3815.6083 
 6908000    260.81315   -4716.8717   -4213.8716   -4716.8717            0    3061.5409    20.131603    19.925302    20.842027    8360.3262    3939.3198    1896.9619    3348.3409   -105.52625   -5.1223497    -970.5306   -3840.5878 
 6909000    256.48089   -4709.1261   -4214.4811   -4709.1261            0    3238.1061    20.018149    20.010843    21.062255    8437.1192    3934.3895    4844.0236    935.90518   -60.564984    1101.4727    779.39107   -3816.0428 
 6910000    258.27124   -4673.9766   -4175.8788   -4673.9766            0    3862.3862    20.245041    19.898721    20.840553    8395.6258    3553.0312    3466.8267    4567.3007     330.3219     921.1656    -924.6026    -3702.962 
 6911000    253.52359   -4693.5958   -4204.6543   -4693.5958            0    3347.2072    19.910841    20.144763    20.967773    8410.1565      4068.43    4579.4873    1393.7041   -552.01835    1717.7067   -34.225423   -3794.1076 
 6912000    262.16852   -4679.6829   -4174.0689   -4679.6829            0     3024.255    20.275493    20.188345    20.681442    8465.5067    2222.6676    2103.4168    4746.6807   -508.90009    694.42226    1175.1944   -3800.6922 
 6913000     277.7558   -4716.1992   -4180.5238   -4716.1992            0    3305.1118    20.266491    20.018753    20.676102    8388.4987    3653.2734    3006.5283    3255.5337   -202.83407   -658.83323    1608.7386   -3776.1842 
 6914000    249.71057   -4684.2165   -4202.6287   -4684.2165            0    4228.8652    19.910168    20.202081    20.920001    8414.5855    3463.9528     5512.547     3710.096   -385.69031    821.99936   -429.18735   -3683.6704 
 6915000    265.77786    -4697.221   -4184.6461    -4697.221            0    4132.2336    20.312658    19.889839    20.770774    8391.7144    3978.9006    4246.6339    4171.1663   -443.76293    -689.9649   -165.19534   -3678.9245 
 6916000    258.44925   -4662.6387   -4164.1975   -4662.6387            0    3176.9658    20.116635    20.189684    20.671242    8395.5941     3245.899    2815.5055     3469.493   -568.00062   -138.33649   -1033.7926   -3775.2063 
 6917000    264.15468   -4693.0603   -4183.6158   -4693.0603            0    3795.1046    19.927652    20.287453    20.676352    8359.0626    5749.6073    1741.3658    3894.3405   -305.08292    162.40099   -1257.3843   -3720.9609 
 6918000    267.84737    -4666.438   -4149.8718    -4666.438            0    3310.2119    20.070906    20.179088    20.814924    8430.3058      2558.26    3885.9356    3486.4402     153.0388    1587.2279   -1383.4657     -3742.89 
 6919000    271.65137    -4676.117   -4152.2144    -4676.117            0    3893.7988    20.022054    20.219524    20.974643     8491.299    4554.9996    2351.1186    4775.2782   -805.76782    622.06921   -377.84515   -3670.0185 
 6920000    258.27817   -4664.2695   -4166.1584   -4664.2695            0     4227.254    20.224441    20.084621    20.720754    8416.7753    3538.6184    4614.4262    4528.7174    376.24815   -432.01333   -934.72377   -3647.2628 
 6921000    258.38398   -4666.5296   -4168.2144   -4666.5296            0    1961.9052    20.082314     20.29077    20.833082    8489.1815    3072.5654    835.47837    1977.6717    127.36171    221.31032   -263.78893   -3925.3187 
 6922000    257.89405   -4698.5752   -4201.2048   -4698.5752            0    3660.1361    20.170494    20.030832    20.868788    8431.6537    6902.1154    1615.9747    2462.3183     277.1773    255.22914   -1476.0788   -3751.1288 
 6923000    250.29664   -4689.2365   -4206.5184   -4689.2365            0    3543.8707    20.036139    20.183098    20.793682    8408.7851    5876.4751    1004.2058    3750.9311    -457.2902    -852.3241    658.36622   -3771.9211 
 6924000    262.17199   -4692.7125   -4187.0918   -4692.7125            0    3773.8004    20.253536    20.240727    20.562653    8429.5835    3202.5713    4603.9296    3514.9003   -314.43446    550.88303    1121.1704   -3723.1528 
 6925000    248.69928   -4671.9229   -4192.2854   -4671.9229            0    2816.7666    20.238631    20.060223    20.716209    8410.6036    2025.0875    2923.3733     3501.839   -277.16463    771.00149    738.92216   -3846.7808 
 6926000    260.71721     -4717.62   -4214.8049     -4717.62            0    2234.6264    19.978794    20.202525    21.007795    8479.2102    3902.6644    1074.5453    1726.6696    192.13184   -869.47863   -713.77206   -3938.4697 
 6927000    258.13637   -4671.9012   -4174.0635   -4671.9012            0    4088.3618    20.096343    19.925801    20.872715    8358.1808    4352.4995    3684.7587    4227.8274    -360.2876   -208.87889    85.825565   -3675.7107 
 6928000    261.55196   -4680.2673   -4175.8424   -4680.2673            0    3766.5479    20.134815    20.302387    20.561157    8405.0885    4568.5977    1271.3437    5459.7024    928.07174    1664.3239    513.01182   -3714.1405 
 6929000     261.7038   -4663.9109   -4159.1931   -4663.9109            0    3683.1913    20.111719    20.148013    20.791787    8425.0643    3683.8113     3151.165    4214.5976    116.06667    -835.4445   -1444.3717    -3706.636 
 6930000    273.20675   -4694.3012    -4167.399   -4694.3012            0    1871.9453    20.181899    20.017031    21.119767    8531.9993    2695.8631    2698.3907    221.58222    926.33819    1109.2326    123.22603    -3934.472 
 6931000    268.62173   -4711.4853   -4193.4257   -4711.4853            0    4117.4866    19.954866    19.953666    20.987495    8356.6482    4677.8237    3681.0831    3993.5531   -737.34173    1114.5738    519.14534   -3691.6146 
 6932000    268.04164   -4694.5261   -4177.5853   -4694.5261            0    3871.0827    20.006208     20.00708    20.844227    8343.2313    4275.5607    4126.7299    3210.9574   -1012.4652    665.84988    482.05232   -3706.5617 
 6933000    257.00988   -4706.5747   -4210.9095   -4706.5747            0     3882.442    20.235948    19.940772     20.96596     8460.193    3921.8462    3820.8247     3904.655   -335.61034    38.799361    45.919853   -3731.8813 
 6934000    259.06871   -4713.2246   -4213.5888   -4713.2246            0    2546.1344    20.265407    19.971346    20.841323    8435.0556    3016.2997    896.37015    3725.7334    24.702996    440.87782    928.33883    -3900.372 
 6935000    263.89385   -4667.3377   -4158.3962   -4667.3377            0    4241.3203    20.053856    20.000101    20.927015    8393.3894    3688.1259    5436.7011    3599.1341    58.670774   -487.20441   -969.50069   -3639.2205 
 6936000    267.94994   -4665.2226   -4148.4586   -4665.2226            0    1897.7072    20.108423    20.137148    20.948513    8482.6039    2639.6331    2018.0202    1035.4683    -524.5007   -754.56666   0.66606508   -3913.6931 
 6937000    266.62069   -4707.5389   -4193.3385   -4707.5389            0    1490.9552    20.358834    20.072957    20.644784    8436.7385    2259.0936    647.78967    1565.9824    317.02197   -4.1366898   -326.14526   -4009.8896 
 6938000    266.35203   -4678.5154   -4164.8331   -4678.5154            0    3486.4647     20.03243    20.327966    20.626534    8399.5076     3606.529    2380.4392    4472.4261    -139.2436    1094.1162    358.84537   -3737.7474 
 6939000    254.70183   -4710.4849    -4219.271   -4710.4849            0    3182.4627    20.039064    19.962078     20.91598    8366.8385    3760.6557    2158.1263    3628.6061   -47.491802    933.71785    134.78467   -3830.9413 
 6940000    275.31455   -4666.4429   -4135.4756   -4666.4429            0    4348.6132    20.195512    20.132404    20.563059    8360.6151    5442.1716    3586.0623    4017.6056   -29.886348   -431.12407      212.941   -3605.2449 
 6941000     266.0792   -4693.1769   -4180.0208   -4693.1769            0    3556.3392    20.068646    20.176085    20.770899    8410.2764    4914.4777    2238.9598    3515.5802   -312.41506    -1197.959    304.78741   -3743.8171 
 6942000    260.64485   -4675.4884   -4172.8129   -4675.4884            0    4391.9552    20.149712    19.974725    20.853511    8393.2242    3505.0885    4958.6392     4712.138    653.22983    -841.5028    132.43421   -3635.2087 
 6943000    256.53998   -4670.3757   -4175.6168   -4670.3757            0     3419.348     20.07523    19.925778    20.985155    8394.3678    4966.6926    3489.7939    1801.5577    67.748453    213.62493    -544.9443   -3757.0091 
 6944000     264.5231   -4668.7234   -4158.5684   -4668.7234            0    5497.4777     20.14306    19.949438    20.835882    8372.7478    5035.2937    5568.3516    5888.7879    151.17203   -3.3311321    49.229485   -3487.2827 
 6945000    267.85978   -4691.6768   -4175.0867   -4691.6768            0     1456.175    20.423298    20.215198    20.713014    8551.5961    1032.2996    179.04273    3157.1827    594.26953    352.20867   -975.60535    -3993.478 
 6946000    258.57883   -4678.3561    -4179.665   -4678.3561            0    4004.2471    20.036156    20.116392    20.745692    8361.6583    3189.3105      5347.01    3476.4208   -137.66127    540.32447   -468.03541   -3691.3623 
 6947000    260.11441   -4684.8187   -4183.1662   -4684.8187            0     3447.632    20.196364    19.949171    20.826866    8391.1595    5321.8939    2886.6461     2134.356   -451.73168     354.1165    1070.8431   -3761.2572 
 6948000    264.41146   -4685.4393   -4175.4996   -4685.4393            0    3716.4128     20.07223    20.186907    20.853839     8449.897    4516.1971    2065.3333    4567.7079   -398.03821    178.07054   -114.59881   -3717.5146 
 6949000     265.3882   -4666.8766   -4155.0531   -4666.8766            0     4322.332    20.207693    20.266034    20.583838    8429.6947    4250.8425    3629.1552    5086.9982   -1656.5911    -1348.377    978.21601   -3623.6723 
 6950000     261.7298   -4694.6849   -4189.9169   -4694.6849            0    3576.5516    20.040333    20.142671    20.675437    8345.9673    4806.5307    1962.9514    3960.1727   -81.702368    778.77414    80.706471   -3754.5885 
 6951000    255.98231   -4684.5988   -4190.9154   -4684.5988            0    2059.2017    20.147219     20.08762    21.277986    8611.4073     2055.012    2448.7549    1673.8382   -44.052599    -145.3386    494.78859   -3932.3033 
 6952000    270.70224   -4693.5611    -4171.489   -4693.5611            0    2932.1144    20.136927    19.928277    21.030265    8439.3251    2730.2277    4823.0492    1243.0664    123.54104    92.212618    605.65609   -3810.6076 
 6953000    251.78822     -4693.79   -4208.1953     -4693.79            0    3887.8196    20.062647     20.15623    20.803806    8412.7954    5668.9169    1955.7469    4038.7952    726.83412   -66.548421   -193.92035   -3731.1909 
 6954000    250.14468   -4692.9496   -4210.5245   -4692.9496            0    3265.2319    20.086786    20.318078    20.512718    8371.7506    4340.4331    815.83711    4639.4255   -340.66062    2912.5546    -350.2182   -3811.8613 
 6955000     255.1916   -4715.9272   -4223.7687   -4715.9272            0    2255.4829     20.16071    20.038326    20.979469    8475.4302    2064.4742    2072.7462    2629.2284   -118.62065   -455.74736    340.62142   -3944.9787 
 6956000    256.56862   -4713.7334   -4218.9192   -4713.7334            0     3298.562    20.065401    20.029872    20.967405    8426.9556    3805.5707    2841.1537    3248.9616    28.329476   -1048.7627    -514.7694   -3813.5309 
 6957000    248.72768   -4657.5443    -4177.852   -4657.5443            0    2981.8472    20.270968    20.032096    20.685306    8399.6817    2717.3796    1924.7576    4303.4044   -754.37476   -210.31724   -489.37604   -3812.5736 
 6958000    267.19526   -4679.2351   -4163.9265   -4679.2351            0    3476.1376    20.072982    20.210448     20.70549    8399.8852    3826.1921     3921.058    2681.1627     397.0449   -493.38356   -1230.0406   -3738.0868 
 6959000    264.17572   -4692.1534   -4182.6683   -4692.1534            0    4575.4273    20.131111    19.897001     20.82615    8341.8882    5779.1205    3876.3562    4070.8051    644.31049    1640.4905    297.00446   -3626.0315 
 6960000    276.42451   -4674.4301   -4141.3222   -4674.4301            0    4241.1398    19.847916    20.122284    20.935219    8361.2209    4205.2106    4159.8482    4358.3606   -83.685805    1377.3251   -592.27487   -3624.1583 
 6961000     254.9079   -4672.2681   -4180.6568   -4672.2681            0    4431.3847    20.052884    19.968142    20.793689    8326.1845    4946.1103    4358.2438    3989.8001   -623.02619    435.88904    377.84696   -3642.5588 
 6962000    261.65243   -4687.0582   -4182.4394   -4687.0582            0    4155.6041    20.151739    20.164025     20.61955    8378.5515    4428.5545    4561.0514    3477.2065   -72.918666   -1430.4655   -17.453532   -3674.6555 
 6963000    281.98431   -4696.7208   -4152.8904   -4696.7208            0    4954.4015    20.114395    20.044599    20.716098    8352.4196    2626.7772    7249.9383     4986.489    188.73632    423.41259   -632.54799   -3549.3874 
 6964000    263.59849    -4684.434   -4176.0621    -4684.434            0    3622.1113    19.916188    20.072806    21.125671    8445.4891     3867.455    4587.9511    2410.9278   -416.55022    1876.3397    492.78894   -3729.9311 
 6965000    260.35566     -4734.27   -4232.1522     -4734.27            0    3500.7238      20.0795    20.095725    20.897531    8432.4064    2841.9651    3665.9377    3994.2685   -575.43227    1517.3833     -207.667   -3801.6402 
 6966000    255.62926   -4687.1728   -4194.1703   -4687.1728            0    4024.7465    20.126827    20.300373    20.602911    8417.9804    3071.2294    4819.3403    4183.6698   -86.161908    751.12433    343.66906   -3700.0618 
 6967000     255.4162   -4711.2049   -4218.6132   -4711.2049            0    4862.8934    20.061587    20.046974    20.805947    8367.6136    3710.1159     5746.805    5131.7592   -10.398807   -1489.6062   -24.410613   -3625.1795 
 6968000    272.15244   -4688.5801   -4163.7113   -4688.5801            0    4437.3825    19.789437    20.227394    20.917182    8372.9126    6539.1018    3091.0824    3681.9633   -1093.0367    761.58675    2021.3837    -3621.861 
 6969000    271.55277   -4691.7533    -4168.041   -4691.7533            0    2680.9069    20.242305    19.934004    20.867032    8420.0602    4602.4147    1510.6766    1929.6293   -59.705287    156.02312   -1383.3313   -3838.8311 
 6970000     249.3938   -4689.5561   -4208.5792   -4689.5561            0    7029.8716    20.018788     20.17103    20.546196    8296.5452    10112.825    4528.8016    6447.9879    71.484132    1104.2418    1289.9971   -3357.9886 
 6971000    253.04497   -4680.0089   -4191.9904   -4680.0089            0    3203.6074    20.137152     20.06411    20.887236    8439.1538    750.98762    5501.9766    3357.8579   -25.593841    766.55125   -486.24946   -3797.7019 
 6972000    247.14431   -4685.6636    -4209.025   -4685.6636            0    3688.2453    20.026248    19.925403    21.088224    8414.8566    4599.4144    3449.1669    3016.1548   -27.137956    108.20245   -659.08292    -3756.396 
 6973000    261.55628   -4701.2925   -4196.8592   -4701.2925            0    3087.5109    20.235174     20.03555    20.689663    8388.0619    4471.4907    2015.4769     2775.565   -292.29044      549.998   -1277.9211   -3819.1601 
 6974000    256.04349   -4674.3761   -4180.5747   -4674.3761            0    2848.0213    20.033825    20.439307     20.54196    8411.4703    3264.1443    1580.1814     3699.738    933.83484    628.14409   -1258.3442   -3831.2003 
 6975000    252.98314   -4696.5505   -4208.6512   -4696.5505            0    3850.1939     20.19847    19.940029    20.828611    8388.8914    3701.9307    3975.2057    3873.4454    371.41964    1721.4097    -92.60915   -3737.6055 
 6976000    254.36291   -4671.3819   -4180.8216   -4671.3819            0    4006.6672    20.085187    20.084876    20.867762    8418.2324    5133.6926    3167.7223    3718.5867    114.53757   -1514.2683   -285.05788   -3688.9179 
 6977000     281.3053   -4661.3655   -4118.8446   -4661.3655            0    2545.7373    20.166966    20.026009    20.917802    8447.9437    3023.8258    2840.6581     1772.728    521.57892    -446.5776    41.076979    -3805.198 
 6978000     272.5684   -4679.3817   -4153.7106   -4679.3817            0    3359.5804     20.06489    20.070934    20.881351    8409.3603    2362.9675    3403.1697    4312.6041   -93.981675     225.6646   -1412.7772   -3741.6853 
 6979000    263.93191   -4682.5442   -4173.5293   -4682.5442            0    2054.6237    20.209811    20.031028    21.069097    8529.2614    2672.6799    1713.0913    1778.0999    718.15397    363.87201    -630.2769   -3917.9536 
 6980000    269.67588   -4662.1306    -4142.038   -4662.1306            0    4616.2838    20.017824    20.153444    20.825565     8401.618    4620.6206    4113.2719    5114.9588    35.284844   -26.577797   -80.697862   -3576.4095 
 6981000    266.56574   -4671.8272   -4157.7328   -4671.8272            0    4725.3451       20.068    19.840935    21.054269    8383.1338    6181.4802    5479.8023    2514.7529    32.180328    730.35753    1011.4565   -3580.0149 
 6982000    260.49523   -4676.0066   -4173.6196   -4676.0066            0    3915.6084     20.02302     20.12057    20.790752    8376.0653     3743.557    3784.7725    4218.4956   -24.622108    -35.70495     1233.388   -3695.3033 
 6983000    249.01894   -4679.9532   -4199.6993   -4679.9532            0    2240.1778    20.293937    20.140149    20.792947     8498.554    1472.6479    1992.2245     3255.661    115.52267   -348.08958    85.989345   -3922.0456 
 6984000    276.41702   -4702.8152   -4169.7217   -4702.8152            0    4528.3618    20.057166    20.004128    20.960521    8409.9084    5247.3534    3594.3911    4743.3408    108.43981   -273.03481    1.8166323   -3614.3186 
 6985000    246.21097    -4676.944   -4202.1054    -4676.944            0    3329.1117    20.084656    19.924128    21.088263    8438.8748    3637.6554    3978.3188    2371.3611    42.720545    1524.8967    64.595209   -3792.3839 
 6986000    245.31151   -4672.5186   -4199.4148   -4672.5186            0    529.16257    20.028609    20.153949    21.058132    8500.2322    808.78022    1594.4816   -815.77406   -197.41189    1820.5239   -1303.3601    -4133.816 
 6987000    265.67426   -4690.9509   -4178.5757   -4690.9509            0    3771.7692    20.204117    20.201969    20.620549    8416.5438     1994.175     3988.845    5332.2877   -370.38353     1572.903   -38.937319   -3715.6037 
 6988000    268.84872   -4685.8816   -4167.3842   -4685.8816            0    3485.6027    20.066745    20.013987    20.875573    8383.9549    835.99933    5002.8109     4617.998    180.76037   -1321.8496    25.490299   -3741.1948 
 6989000      248.343   -4670.5605   -4191.6102   -4670.5605            0    3727.5001    19.959693    20.029045    21.163198    8460.4874    4369.0088    4686.3797    2127.1118   -574.18593    1166.5772   -1234.8582   -3731.6831 
 6990000     274.3613   -4698.9704   -4169.8416   -4698.9704            0    2460.3852    20.266576    20.008244    20.895784    8473.2114    1406.9734    3836.4594    2137.7228     -104.665    558.87232     1395.612   -3865.8041 
 6991000    259.29669   -4708.7095    -4208.634   -4708.7095            0      5401.57    20.371483    19.963356    20.578645    8368.9886    5335.1357    4609.8775    6259.6969    141.35764    451.98758    471.54929   -3549.3556 
 6992000    261.95227   -4681.8397   -4176.6427   -4681.8397            0    3415.6311    20.012252    20.228669    20.757213    8402.9599    6910.1879   -93.027323    3429.7328    74.595945     151.4266    382.34035   -3758.0621 
 6993000     271.4181   -4692.8645   -4169.4119   -4692.8645            0    3350.0893    20.183037    19.951969    21.033548    8470.0275    2137.6009     3288.047    4624.6199     26.69134    591.39978    590.78691   -3755.5865 
 6994000    266.63521   -4684.6422   -4170.4138   -4684.6422            0    3335.0863    19.865484    20.219944    21.002248    8436.1614    5138.4257    784.83139    4082.0017    821.28226    2365.1023    -516.9582   -3760.0889 
 6995000     275.0688   -4662.4264   -4131.9331   -4662.4264            0    3159.6005    20.260792    20.029762    20.882501    8474.5127    1399.6183    4102.8786    3976.3044   -352.79709   -940.28097   -2505.2797   -3741.4315 
 6996000    256.04466    -4653.633   -4159.8293    -4653.633            0    2485.1797    20.102036    20.297012     20.58588    8399.2711    1468.3233    1589.2878    4397.9279   -725.52506    1691.9206   -661.84912   -3855.4078 
 6997000    257.59089   -4686.4226   -4189.6369   -4686.4226            0    3544.2503    20.242515     20.04411    20.683738    8392.2858    3658.2137    3197.8584    3776.6789    131.09957    314.60128   -882.07749   -3755.8459 
 6998000     261.1366    -4661.705   -4158.0811    -4661.705            0    3760.6377    20.039757    20.076668    20.889286    8404.4183    2169.4719    5654.8835    3457.5576    609.36297   -1185.5339   -291.19223   -3697.1404 
 6999000    253.56506   -4698.5262   -4209.5046   -4698.5262            0    2226.6089    20.141546    20.201749    20.897848    8503.2185    1771.4359    1965.6721    2942.7189    191.41182    631.50658    -128.8235   -3933.3813 
 7000000    265.26021    -4653.705   -4142.1284    -4653.705            0    3225.2293      20.3715    20.004208    20.943853    8534.9492    6.3968265    5531.3105    4137.9806    125.55601    393.64966   -168.57098   -3740.6729 
Loop time of 421.161 on 64 procs for 250000 steps with 972 atoms

Performance: 102.574 ns/day, 0.234 hours/ns, 593.598 timesteps/s
190.1% CPU use with 32 MPI tasks x 2 OpenMP threads

MPI task timing breakdown:
Section |  min time  |  avg time  |  max time  |%varavg| %total
---------------------------------------------------------------
Pair    | 24.406     | 35.38      | 44.221     |  73.7 |  8.40
Bond    | 0.83767    | 1.2138     | 1.7707     |  20.3 |  0.29
Kspace  | 184.56     | 193.19     | 204.25     |  30.2 | 45.87
Neigh   | 2.7965     | 2.9512     | 3.154      |   6.1 |  0.70
Comm    | 78.885     | 83.78      | 88.008     |  20.4 | 19.89
Output  | 0.51642    | 0.51667    | 0.51828    |   0.0 |  0.12
Modify  | 77.669     | 80.549     | 85.345     |  21.4 | 19.13
Other   |            | 23.58      |            |       |  5.60

Nlocal:        30.3750 ave          36 max          24 min
Histogram: 2 3 2 2 3 7 4 4 2 3
Nghost:        2531.97 ave        2550 max        2508 min
Histogram: 3 1 3 3 2 3 4 5 3 5
Neighs:        9239.34 ave       11458 max        6919 min
Histogram: 3 3 1 5 2 7 3 2 3 3

Total # of neighbors = 295659
Ave neighs/atom = 304.17593
Ave special neighs/atom = 2.0000000
Neighbor list builds = 8542
Dangerous builds = 1

unfix		3
unfix		2
unfix		1

write_data	data.final.${pid}
write_data	data.final.0
System init for write_data ...
PPPM initialization ...
  extracting TIP4P info from pair style
  using 12-bit tables for long-range coulomb (../kspace.cpp:340)
  G vector (1/distance) = 0.3716677
  grid = 24 24 25
  stencil order = 5
  estimated absolute RMS force accuracy = 0.0035004007
  estimated relative force accuracy = 1.0541353e-05
  using double precision FFTW3
  3d grid and FFT values/proc = 3458 576
Last active /omp style is kspace_style pppm/tip4p/omp
WARNING: Not all mixed pair coeffs generated from mixing. Use write_data with 'pair ij' option to store all pair coeffs. (../write_data.cpp:312)

write_restart   restart.lmp.${pid}
write_restart   restart.lmp.0
System init for write_restart ...
PPPM initialization ...
  extracting TIP4P info from pair style
  using 12-bit tables for long-range coulomb (../kspace.cpp:340)
  G vector (1/distance) = 0.3716677
  grid = 24 24 25
  stencil order = 5
  estimated absolute RMS force accuracy = 0.0035004007
  estimated relative force accuracy = 1.0541353e-05
  using double precision FFTW3
  3d grid and FFT values/proc = 3458 576
Last active /omp style is kspace_style pppm/tip4p/omp
Total wall time: 0:07:01
