LAMMPS data file via write_data, version 30 Jul 2021, timestep = 8500000

864 atoms
2 atom types
576 bonds
1 bond types
288 angles
1 angle types

-0.02396649209874191 18.231538892100314 xlo xhi
0.038516425318571024 23.590661374685634 ylo yhi
0.2045961047094007 22.0085996952956 zlo zhi

Masses

1 1.00794
2 15.9994

Atoms # full

707 1 1 0.5897 2.8467753982422406 1.8072994403059546 4.281996812616735 0 0 0
706 1 2 -1.1794 2.843523024750829 1.5300481371948362 3.3658515132378923 0 0 0
30 1 1 0.5897 5.007026079708611 3.6981696442407843 2.57744656543327 0 0 0
708 1 1 0.5897 2.0421755512821904 1.9079822835627012 3.003588230980954 0 0 0
29 1 1 0.5897 4.25290086258177 2.3867193518674306 2.6333200153160554 0 0 0
28 1 2 -1.1794 5.047506295027032 2.7885882267515343 2.2821822641125284 0 0 0
136 1 2 -1.1794 5.102957534350098 5.285495076719846 2.874607593108715 0 0 0
20 1 1 0.5897 0.4804694304825793 2.9073655465166763 0.4566126485433929 0 0 0
846 1 1 0.5897 7.360071591889749 2.1130949423148633 4.925415331554639 0 0 0
494 1 1 0.5897 6.611944163025195 2.320828818176843 2.8398159385294646 0 0 0
493 1 2 -1.1794 7.405093021323895 2.025005939661444 3.2865913111027116 0 0 0
495 1 1 0.5897 8.117630383474772 2.4781101117945874 2.8358291683797594 0 0 0
3 1 1 0.5897 0.5508973290834455 3.6703202540689555 2.562105404026323 0 0 0
1 1 2 -1.1794 0.44780111798943606 2.7641518932112548 2.2716026804641336 0 0 0
668 1 1 0.5897 4.77472803925668 2.621792541688138 0.4585689233777898 0 0 0
819 1 1 0.5897 7.509688219996567 0.4285126044872062 2.4494682781021653 0 0 0
597 1 1 0.5897 0.5821491947926959 5.5543936262312865 3.928100325204811 0 0 0
595 1 2 -1.1794 0.5833495807959861 5.525590306342737 2.9713452373318425 0 0 0
137 1 1 0.5897 5.278943020741355 5.306917721256744 3.8152496431892384 0 0 0
138 1 1 0.5897 4.3150786196824455 5.818013134037267 2.7656655722933103 0 0 0
685 1 2 -1.1794 5.23797507461686 5.7882088679183585 5.565329834009873 0 0 0
355 1 2 -1.1794 7.2088698534502065 1.7408582872144973 9.880142017183971 0 0 0
419 1 1 0.5897 9.022460072505964 2.5351852923361022 6.279489507904606 0 0 0
82 1 2 -1.1794 5.170716491313811 3.3389225480680507 6.805887193113102 0 0 0
845 1 1 0.5897 7.472836049488318 1.147823354727053 6.0861511472980165 0 0 0
674 1 1 0.5897 3.225815337502803 2.036311837797996 9.926283548226644 0 0 0
35 1 1 0.5897 0.21826996178513783 3.9865589656307727 9.888918210396547 0 0 0
356 1 1 0.5897 7.213270977217474 0.8148067781616601 9.638141274401654 0 0 0
176 1 1 0.5897 8.79186423976435 2.721471825994815 9.537604844855808 0 0 0
785 1 1 0.5897 0.1941304875568051 3.000751895624563 7.757780326651374 0 0 0
83 1 1 0.5897 4.302427655474685 2.9845731101984394 6.61417695350366 0 0 0
84 1 1 0.5897 5.7774337326864815 2.6590128725760835 6.51297395766806 0 0 0
274 1 2 -1.1794 4.713847591853503 2.6766081176814174 9.362089266830225 0 0 0
678 1 1 0.5897 5.02872541799002 4.571373160304246 9.910892606700962 0 0 0
112 1 2 -1.1794 0.5516334634498555 5.73729112013483 10.308137908734604 0 0 0
36 1 1 0.5897 1.0012244755641249 2.698054138079846 9.752982449996 0 0 0
488 1 1 0.5897 1.9789265321958167 2.3545140321428204 6.470170865077563 0 0 0
34 1 2 -1.1794 0.171660475799274 3.108953404854867 9.509706065816946 0 0 0
784 1 2 -1.1794 0.3241105081521037 2.8460706536917613 6.822162244870408 0 0 0
276 1 1 0.5897 5.555244425167129 2.278604548257396 9.585401236166048 0 0 0
675 1 1 0.5897 2.516350698928428 0.7021706819652199 10.01825385713306 0 0 0
275 1 1 0.5897 4.822188038063017 2.9763649912252235 8.459531181680264 0 0 0
489 1 1 0.5897 2.7598194066381 1.057724197018872 6.486552429808445 0 0 0
673 1 2 -1.1794 2.431041166506927 1.6233285105119541 10.263932005788293 0 0 0
686 1 1 0.5897 5.370486338298444 4.956921172503262 6.020921756932048 0 0 0
844 1 2 -1.1794 7.372899566036368 2.077570912892716 5.881854925374306 0 0 0
676 1 2 -1.1794 5.21144616293141 5.326683395722544 10.469814036649819 0 0 0
183 1 1 0.5897 0.6066594620983267 4.502208067042065 6.07375891143028 0 0 0
487 1 2 -1.1794 2.7869778807377186 1.9534287900748262 6.150193827520688 0 0 0
181 1 2 -1.1794 0.5419784442709612 5.3624712937016055 5.659095470186726 0 0 0
357 1 1 0.5897 7.347740369535109 1.7420777579994027 10.827201556003068 0 0 0
677 1 1 0.5897 5.954799170625978 5.760736546328136 10.051196776502035 0 0 0
166 1 2 -1.1794 2.6817203427480973 1.377442842352927 13.033897104420376 0 0 0
167 1 1 0.5897 2.4974270842551443 1.3742694487971818 12.094623762612786 0 0 0
457 1 2 -1.1794 5.171211623923699 2.9176990461105263 13.990176223105863 0 0 0
458 1 1 0.5897 5.968265395635801 2.594059722626005 13.570434658711898 0 0 0
459 1 1 0.5897 4.482985651979247 2.325397707349873 13.687316965474325 0 0 0
762 1 1 0.5897 5.253607995161707 4.833157983807451 13.504826705895853 0 0 0
365 1 1 0.5897 0.7610326966120972 4.621933851199696 13.268529725329401 0 0 0
168 1 1 0.5897 1.9816247080931477 1.9080697538564326 13.414020476778823 0 0 0
760 1 2 -1.1794 5.361068564901181 5.7653571663119125 13.31604130160466 0 0 0
71 1 1 0.5897 5.250165902151349 3.2079921504682205 15.881731553279902 0 0 0
593 1 1 0.5897 7.376416213048818 0.9902688414364945 13.11941730666417 0 0 0
592 1 2 -1.1794 7.34642441874286 1.883005485738455 12.775490596820518 0 0 0
364 1 2 -1.1794 0.6664484996349013 5.55010388652018 13.054716089720493 0 0 0
594 1 1 0.5897 8.142783277723705 2.2957727810362316 13.109611102630204 0 0 0
761 1 1 0.5897 5.4463964766826205 5.809060815551806 12.363652733109888 0 0 0
468 1 1 0.5897 0.4754932002434728 2.870606214864412 14.909537137543378 0 0 0
113 1 1 0.5897 0.42683462105721837 5.611869032008707 11.248827766381858 0 0 0
466 1 2 -1.1794 0.6200995185858531 2.7315703159518367 13.973586906555486 0 0 0
754 1 2 -1.1794 7.178555790113868 2.140658171813533 17.727805916271677 0 0 0
290 1 1 0.5897 2.9254734225078014 0.875024503393835 16.93536166842953 0 0 0
42 1 1 0.5897 7.569634197150343 1.3911254869853287 20.682196831541262 0 0 0
755 1 1 0.5897 7.186309174243904 2.1008402305751512 18.684132508751468 0 0 0
278 1 1 0.5897 5.303273673674642 5.0984465310230656 17.595864308776157 0 0 0
646 1 2 -1.1794 0.8437577163979741 5.536600631350756 20.768380306535605 0 0 0
289 1 2 -1.1794 2.9365544915215733 1.7390545177622296 17.347060150462944 0 0 0
41 1 1 0.5897 6.7465436749238 2.6324016674498223 20.9533126479868 0 0 0
143 1 1 0.5897 5.281386783398974 4.6607714722257665 20.969022886818294 0 0 0
569 1 1 0.5897 2.060013239442781 2.014237835039065 20.36089999723771 0 0 0
599 1 1 0.5897 8.695455096273024 2.708019682548752 17.17696681456139 0 0 0
570 1 1 0.5897 2.80387598965473 1.4015618725786496 19.193373890211504 0 0 0
40 1 2 -1.1794 7.433024244455696 2.289404487079834 20.381193890984633 0 0 0
323 1 1 0.5897 7.2830556111461675 0.40096808843005066 17.036194088101077 0 1 0
667 1 2 -1.1794 4.911583091977674 2.880967984944446 21.351360622246936 0 0 0
291 1 1 0.5897 2.0178724879350103 2.0070589412826276 17.367258083760532 0 0 0
568 1 2 -1.1794 2.785958655161366 1.4270973656498782 20.150053981039022 0 0 0
21 1 1 0.5897 0.6148701718268246 3.8965632940605084 21.122550667993444 0 0 0
669 1 1 0.5897 4.268000396724819 2.3724813394971496 20.85796608429972 0 0 0
72 1 1 0.5897 4.278307695629527 3.010434539952043 17.025532432953057 0 0 0
756 1 1 0.5897 6.379344926299992 2.6221267329879447 17.51412481372362 0 0 0
19 1 2 -1.1794 0.6442832594115158 2.960225308641711 21.31901062485474 0 0 0
134 1 1 0.5897 0.4582689150138473 3.756663718490532 17.356044216347826 0 0 0
142 1 2 -1.1794 5.460646257250188 5.561762282756853 20.700243540986754 0 0 0
70 1 2 -1.1794 5.01045943548774 3.5569850820187536 16.7401853761856 0 0 0
360 1 1 0.5897 9.022144897306308 2.8126593305135557 21.118802374297275 0 0 0
144 1 1 0.5897 5.285273994444282 5.57090760797607 19.759303825567827 0 0 0
571 1 2 -1.1794 0.8259579811415535 5.405499595086494 18.152621152304405 0 0 0
648 1 1 0.5897 0.8791647123781766 5.438907680038359 19.816846879464798 0 0 0
133 1 2 -1.1794 0.3462791690623698 2.8837367239500566 16.97972576274708 0 0 0
647 1 1 0.5897 1.699803061610933 5.893567592431928 21.004994363495342 0 0 0
573 1 1 0.5897 0.00877654525714304 5.846972884848438 17.921230052563715 0 0 0
572 1 1 0.5897 1.4961956583701603 5.85680392134511 17.639477827106347 0 0 0
253 1 2 -1.1794 2.920824023901787 6.757366804345227 2.210895054142359 0 0 0
123 1 1 0.5897 3.0338888866862512 8.388549299968284 2.8738480148117422 0 0 0
121 1 2 -1.1794 3.2561013715020453 9.293954394655682 3.0907050292922422 0 0 0
122 1 1 0.5897 3.170722843619216 9.340536634098678 4.0429410059903885 0 0 0
44 1 1 0.5897 1.7775477567431943 10.13516453444662 2.375307198966576 0 0 0
218 1 1 0.5897 6.198728283285967 10.469109338609412 2.4115670188019065 0 0 0
43 1 2 -1.1794 0.9591607280850518 10.623957701869786 2.2886200605897007 0 0 0
219 1 1 0.5897 4.6927170478161635 10.375900761148836 2.288775922478739 0 0 0
217 1 2 -1.1794 5.431686264099247 10.95896590430578 2.1151263600899712 0 0 0
415 1 2 -1.1794 7.226488566080773 7.253390903353201 2.409439358312827 0 0 0
45 1 1 0.5897 1.194582707873653 11.526303342930843 2.504386697074013 0 0 0
254 1 1 0.5897 2.935586819381092 6.768134144085682 1.253885061952797 0 0 0
255 1 1 0.5897 2.1226620690332516 6.278093078556707 2.433215986308632 0 0 0
66 1 1 0.5897 7.569120435680593 9.72052508434084 4.293836307156577 0 0 0
65 1 1 0.5897 7.6124277152419655 9.044506787023794 2.939976499160644 0 0 0
64 1 2 -1.1794 7.670898781488912 9.902758928482289 3.3596829431475332 0 0 0
773 1 1 0.5897 8.942163294150774 10.874679245814361 2.6802463680849513 0 0 0
416 1 1 0.5897 6.57878992602627 6.594255210544371 2.658930463768597 0 0 0
162 1 1 0.5897 7.299067621104684 7.317080381831005 0.6092526719075304 0 0 1
417 1 1 0.5897 8.061125206930182 6.89683875287604 2.713494675684463 0 0 0
396 1 1 0.5897 0.9316269650178757 10.78472997602937 0.4591796267336678 0 0 0
363 1 1 0.5897 5.414942974053487 11.21770098613068 0.3682509308178581 0 0 1
795 1 1 0.5897 3.6568743492321296 9.923932629641667 6.060815267835102 0 0 0
712 1 2 -1.1794 7.45713122274811 9.968077449271053 6.097300032183486 0 0 0
10 1 2 -1.1794 2.8626272033650744 6.499874428209179 6.71055782115265 0 0 0
687 1 1 0.5897 4.3760802644014545 6.086378047759126 5.855901455311237 0 0 0
526 1 2 -1.1794 7.180153345460428 6.694982460797325 9.319972560821725 0 0 0
146 1 1 0.5897 6.5893866700664 6.968368161284593 6.213883713768049 0 0 0
145 1 2 -1.1794 7.345440166819674 7.350055536830651 6.6598659321713045 0 0 0
713 1 1 0.5897 8.19927939496397 10.505500642860028 6.374052599178903 0 0 0
12 1 1 0.5897 2.7253858247245177 7.4190531518556595 6.481577893823462 0 0 0
256 1 2 -1.1794 2.86762277904678 9.51382779847672 10.419474446267648 0 0 0
650 1 1 0.5897 2.992119172350457 6.701823622466046 8.746815900592642 0 0 0
822 1 1 0.5897 8.397285385564047 10.12676759839082 10.304443949002067 0 0 0
527 1 1 0.5897 7.120216728550959 7.578693774413125 9.682785315110172 0 0 0
15 1 1 0.5897 1.2436248914132175 10.309907916178101 9.564299774945422 0 0 0
582 1 1 0.5897 5.11733071086426 10.89430104802501 8.716368998886036 0 0 0
551 1 1 0.5897 0.45217752250949883 11.317713378798405 7.572263770896618 0 0 0
581 1 1 0.5897 5.82600633965175 10.267870367536904 9.898408888001303 0 0 0
147 1 1 0.5897 7.249712857757352 7.075818323515733 7.571917678910625 0 0 0
649 1 2 -1.1794 3.026425775814617 6.783988486168113 9.69985053332241 0 0 0
14 1 1 0.5897 0.6350094638994499 11.69058215617999 9.686949076202225 0 0 0
165 1 1 0.5897 8.689795799322791 6.222400296928486 6.207030827359585 0 0 0
258 1 1 0.5897 3.634935389396425 10.058430457604452 10.243814808698643 0 0 0
577 1 2 -1.1794 5.171809099444072 10.923385980671103 7.066051727128291 0 0 0
257 1 1 0.5897 3.1307455336445025 8.634162326291193 10.149077937189762 0 0 0
580 1 2 -1.1794 5.075552336217947 10.816181415274249 9.669451742670521 0 0 0
820 1 2 -1.1794 7.570247570483778 9.657288847694085 10.413018987565328 0 0 0
550 1 2 -1.1794 0.6463355443161118 11.157771086651461 6.64872272932743 0 0 0
528 1 1 0.5897 8.082524447354206 6.425754157597676 9.49169104225573 0 0 0
578 1 1 0.5897 5.98541238559574 10.54638421362679 6.731215223061041 0 0 0
11 1 1 0.5897 2.04521340729636 6.066721978290501 6.464773630789354 0 0 0
651 1 1 0.5897 3.7759901099877484 6.248606449668408 9.960057358054424 0 0 0
13 1 2 -1.1794 0.46831882984912604 10.81907391393148 9.327995448618163 0 0 0
794 1 1 0.5897 2.156442603595379 10.123394094551388 6.0334370340464165 0 0 0
714 1 1 0.5897 7.686597193628472 9.081109047645182 6.3744204006681295 0 0 0
793 1 2 -1.1794 2.836710592284083 9.47210455581157 5.8623815764353076 0 0 0
114 1 1 0.5897 1.4457978400923903 6.069034602309609 10.226806244937691 0 0 0
826 1 2 -1.1794 7.668326738322907 6.900415232176151 14.283223257868212 0 0 0
225 1 1 0.5897 2.753345521910562 6.946113288044499 16.036461252861216 0 0 0
332 1 1 0.5897 2.8617949966158256 7.58040943527966 13.843001088931032 0 0 0
797 1 1 0.5897 2.8355272935292115 9.248470503283038 12.210727887778026 0 0 0
796 1 2 -1.1794 2.9338111541497307 9.243597639202198 13.162845190778347 0 0 0
798 1 1 0.5897 2.4725822818589758 10.02950357388641 13.455743245040798 0 0 0
722 1 1 0.5897 4.4442888120567945 10.184618137854708 13.466259824850322 0 0 0
259 1 2 -1.1794 1.084798523044491 11.228727860291011 13.87046816339302 0 0 0
723 1 1 0.5897 5.135129539275522 10.890732376172501 14.613409773868256 0 0 0
828 1 1 0.5897 7.731780718062008 6.861762962539233 15.237519370081516 0 0 0
333 1 1 0.5897 3.6281163849364364 6.306820706258889 14.130228898234458 0 0 0
331 1 2 -1.1794 2.843333631185947 6.791875239641365 14.385271196743284 0 0 0
261 1 1 0.5897 0.9445095198154588 11.426951605663954 14.796336830946826 0 0 0
721 1 2 -1.1794 5.178245636563252 10.765919353448675 13.66536639737819 0 0 0
475 1 2 -1.1794 7.634539119483805 9.656489788355616 13.202050381068407 0 0 0
476 1 1 0.5897 6.804529298339599 10.015126746744315 13.516151047801953 0 0 0
477 1 1 0.5897 7.746231197821964 8.843306636893148 13.694424568842626 0 0 0
827 1 1 0.5897 6.7518886413948245 6.697914331615512 14.095247914015204 0 0 0
851 1 1 0.5897 9.004025985316984 6.052773535995527 13.37769181539545 0 0 0
260 1 1 0.5897 0.4291817437831079 10.562059853992533 13.665761880992882 0 0 0
104 1 1 0.5897 9.021779682393026 10.631221530798241 13.648042827619545 0 0 0
679 1 2 -1.1794 5.550148015149617 10.724342080832487 16.523589248870167 0 0 0
821 1 1 0.5897 7.567286237091351 9.385485084139228 11.330798070575991 0 0 0
366 1 1 0.5897 1.3885035265044292 5.977297620837339 13.515522797609062 0 0 0
522 1 1 0.5897 7.91581656497864 7.78565418104331 17.375997415681077 0 0 0
141 1 1 0.5897 7.866394642153629 9.088437360028415 20.918025904419267 0 0 0
161 1 1 0.5897 6.760941607050015 6.802315128724141 21.09519585108353 0 0 0
361 1 2 -1.1794 5.376405704579641 11.149513537706277 21.218276935607257 0 0 0
520 1 2 -1.1794 7.850313638484023 6.8980951859751825 17.023692691869655 0 0 0
627 1 1 0.5897 2.4653411626140245 10.36078044094267 17.191641601272956 0 0 0
680 1 1 0.5897 4.697698398496177 10.344823717540415 16.736945005377727 0 0 0
224 1 1 0.5897 2.834315147378416 7.954656653639408 17.16254244698517 0 0 0
140 1 1 0.5897 7.017168181436525 10.336980239215274 20.809748004969414 0 0 0
160 1 2 -1.1794 7.428840267153293 7.378463461972416 21.46689387402469 0 0 0
690 1 1 0.5897 2.3994526399633114 9.674924233348648 20.50370157207974 0 0 0
625 1 2 -1.1794 3.1433480428645124 9.71259696030271 17.382283730184476 0 0 0
688 1 2 -1.1794 3.243858393088198 9.30004244674771 20.253403248046638 0 0 0
4 1 2 -1.1794 3.107724433338771 6.858108418664892 21.328665584241378 0 0 0
5 1 1 0.5897 3.846796625861091 6.313270962649125 21.05826622910073 0 0 0
689 1 1 0.5897 3.891893738961038 9.87906345736767 20.6546213799936 0 0 0
445 1 2 -1.1794 1.0729527875022775 11.514525704909277 16.74925839638521 0 0 0
626 1 1 0.5897 3.2242370031444403 9.723316148600928 18.33599413226345 0 0 0
139 1 2 -1.1794 7.816917308739038 9.933857632648207 20.471929003086608 0 0 0
6 1 1 0.5897 3.2922249410417477 7.717728797077108 20.95027531651221 0 0 0
9 1 1 0.5897 7.036921687970578 9.847731540685956 17.130857346871522 0 0 0
8 1 1 0.5897 7.767849621858191 9.835008020778503 18.456535286297324 0 0 0
7 1 2 -1.1794 7.899057012326083 9.697097196578751 17.518463471541573 0 0 0
394 1 2 -1.1794 0.9985620362098513 10.806655804599863 21.308585650186373 0 0 0
521 1 1 0.5897 6.994802429439948 6.585602005163146 17.31805028650681 0 0 0
462 1 1 0.5897 8.748935385914294 6.337686975665992 20.940624773064293 0 0 0
279 1 1 0.5897 4.5151299213653155 6.39023170493977 17.638939188814327 0 0 0
447 1 1 0.5897 0.3257175311506396 11.04097358079595 17.11477929596367 1 0 0
277 1 2 -1.1794 5.251996566723755 5.9390193457388545 18.05080958091191 0 0 0
223 1 2 -1.1794 2.8821440582835036 7.01581832487857 16.982376583453387 0 0 0
395 1 1 0.5897 0.23073141392395746 10.323684329249415 21.003023952711786 0 0 0
681 1 1 0.5897 5.508955815613666 11.616147229140703 16.868766006452766 0 0 0
373 1 2 -1.1794 1.2759684801825557 13.467139310487262 2.7750527714984323 0 0 0
173 1 1 0.5897 4.748893721376062 14.077971866782335 2.538343328880043 0 0 0
172 1 2 -1.1794 5.552453849115944 13.609564862271235 2.764358041051416 0 0 0
374 1 1 0.5897 1.205132787539856 13.518379902923435 3.7282418971953883 0 0 0
558 1 1 0.5897 3.3502344879927977 14.97593812309662 1.1152146487723336 0 0 0
556 1 2 -1.1794 3.3895676823613123 15.101914451493672 2.0632583725792144 0 0 0
557 1 1 0.5897 2.667403172359337 14.575110641993152 2.4055228161373527 0 0 0
478 1 2 -1.1794 7.597112714471623 14.9665953255103 1.8657990560841105 0 0 0
174 1 1 0.5897 5.3625649880389625 12.694232333168546 2.5587549334649564 0 0 0
293 1 1 0.5897 3.11647688901961 16.86204159654971 2.6849233725812804 0 0 0
479 1 1 0.5897 8.368150163138587 14.66678103038455 2.347305194415213 0 0 0
449 1 1 0.5897 7.518654683970502 16.784516017160108 2.7000488287042597 0 0 0
480 1 1 0.5897 6.8792698539241774 14.43228815148946 2.2055971939157635 0 0 0
200 1 1 0.5897 5.461269705066782 13.56948189802679 4.653767062672123 0 0 0
375 1 1 0.5897 0.43973362261815363 13.804355376066358 2.4537886517213225 0 0 0
308 1 1 0.5897 6.946990341419146 17.283495409340347 4.949879707901455 0 0 0
655 1 2 -1.1794 0.9564783863574178 13.523633576491267 5.550253850648441 0 0 0
448 1 2 -1.1794 7.362664840201491 17.59071198466242 3.191869400529238 0 0 0
199 1 2 -1.1794 5.277215648416784 13.515840196383758 5.591557748813272 0 0 0
384 1 1 0.5897 2.8522645973550893 16.426147069853094 10.02117623970131 0 0 0
184 1 2 -1.1794 7.156073826681684 17.64931485809712 10.271244165799756 0 0 0
201 1 1 0.5897 6.015655010243885 13.961239803863812 6.006914356977175 0 0 0
307 1 2 -1.1794 6.925268494120162 17.380564962902852 5.901881490629817 0 0 0
811 1 2 -1.1794 3.2044995888345666 14.829894433874511 9.364348916668519 0 0 0
18 1 1 0.5897 3.737703708792154 14.625173170539629 6.3647990631142894 0 0 0
813 1 1 0.5897 2.5972831549870556 14.19099851785186 9.737565303900265 0 0 0
17 1 1 0.5897 3.047420928595996 15.10561037272354 7.623570024311242 0 0 0
579 1 1 0.5897 5.186879074638139 11.83203562682908 6.765574295288095 0 0 0
766 1 2 -1.1794 0.6546598279727907 13.438060813168628 10.10563466609118 0 0 0
377 1 1 0.5897 7.143736157317062 14.42420964597629 9.661464253908012 0 0 0
518 1 1 0.5897 7.494023006854179 15.792858828196431 6.39363362116453 0 0 0
454 1 2 -1.1794 5.589976413429336 13.543433168027446 10.17145956592433 0 0 0
812 1 1 0.5897 4.0635456612190275 14.565083935707305 9.69317428809885 0 0 0
456 1 1 0.5897 5.474268306487158 12.604795188568058 10.024047457564095 0 0 0
376 1 2 -1.1794 7.7786861421990245 15.081457364203464 9.376714165052086 0 0 0
16 1 2 -1.1794 2.932349639639168 15.038647784639414 6.675689326932422 0 0 0
517 1 2 -1.1794 7.498127224772189 14.910206012017774 6.763878866558998 0 0 0
186 1 1 0.5897 7.421304780346994 16.789083083228178 9.945927485769088 0 0 0
378 1 1 0.5897 7.710752025016942 15.082956368406585 8.421931326977596 0 0 0
519 1 1 0.5897 8.329405708528732 14.533039711232048 6.4758961780889805 0 0 0
656 1 1 0.5897 1.6291735087458317 14.00431393041552 6.032575341906657 0 0 0
552 1 1 0.5897 0.7293122215195257 12.031234190920522 6.266158147793711 0 0 0
657 1 1 0.5897 0.14349245552724152 13.99105662756349 5.742001848007883 1 0 0
239 1 1 0.5897 2.711934499235138 16.63350927591121 6.055059838947151 0 0 0
767 1 1 0.5897 0.6552573974168003 13.70909161117928 11.023643602611097 0 0 0
382 1 2 -1.1794 2.7296185578251984 17.26484180809362 10.465870527588045 0 0 0
455 1 1 0.5897 5.3939614525738016 13.66645763549028 11.100250328248038 0 0 0
238 1 2 -1.1794 2.7140883718317634 17.535492587154728 5.734780616176426 0 0 0
296 1 1 0.5897 7.360188286481867 14.635629670741016 14.755566422297836 0 0 0
232 1 2 -1.1794 2.7952766019185065 14.860172465352951 13.974942428425363 0 0 0
234 1 1 0.5897 3.0966785990484174 14.940929832589163 14.879847119125206 0 0 0
606 1 1 0.5897 2.9123371012786485 16.670679990038856 13.641232966481288 0 0 0
427 1 2 -1.1794 5.014631856796728 13.645451610849179 13.017792381835251 0 0 0
233 1 1 0.5897 3.501380786903796 14.39386155100471 13.527536534121158 0 0 0
639 1 1 0.5897 1.2877832141027328 14.20673381799641 13.184197554541962 0 0 0
429 1 1 0.5897 5.855790915595284 14.03558860610593 13.255407224102251 0 0 0
428 1 1 0.5897 5.119803918358991 12.71349859321032 13.209021567073213 0 0 0
638 1 1 0.5897 0.8153821219365196 12.768578252679664 13.200534758092099 0 0 0
605 1 1 0.5897 2.8500391907425926 17.43320751404589 12.334918871828291 0 0 0
295 1 2 -1.1794 7.2975237503389465 14.784532179079488 13.812114224719775 0 0 0
270 1 1 0.5897 7.4294388325989 16.707191908749046 13.373241386260654 0 0 0
297 1 1 0.5897 8.083507198065096 14.374062435597521 13.45164556870473 0 0 0
637 1 2 -1.1794 0.591288086329132 13.635081499967573 12.861239816594853 0 0 0
268 1 2 -1.1794 7.445077075972493 17.619536563626454 13.084205687640582 0 0 0
269 1 1 0.5897 7.408649417906148 17.56933105770336 12.129025078521257 0 0 0
604 1 2 -1.1794 2.9404372076841603 17.556536928646892 13.279810610333753 0 0 0
49 1 2 -1.1794 7.645558171503492 14.854561734501157 16.517142431576005 0 0 0
126 1 1 0.5897 6.3068673524638905 13.804487842051818 17.18494030003952 0 0 0
50 1 1 0.5897 7.714679618942144 15.757122326208469 16.8282106989234 0 0 0
317 1 1 0.5897 7.773359354081654 14.662574638476688 21.87042026420805 0 0 -1
451 1 2 -1.1794 0.8981276570396673 13.295635188661144 20.43527018840735 0 0 0
362 1 1 0.5897 5.255302757870577 12.050249558393258 20.917991214928918 0 0 0
52 1 2 -1.1794 0.7841437014109879 14.076619956591362 17.732587967886737 0 0 0
125 1 1 0.5897 5.31261437551736 13.321150444494629 18.219182586192183 0 0 0
51 1 1 0.5897 8.433049649064385 14.424770018814202 16.850822780470665 0 0 0
684 1 1 0.5897 4.488171560884701 14.156007818941044 20.43066939217313 0 0 0
53 1 1 0.5897 0.7230662687883089 13.983173107214126 18.683244875019454 0 0 0
666 1 1 0.5897 2.9481027098591017 15.797174620920709 21.133123657368024 0 0 0
824 1 1 0.5897 3.9612802007509926 14.511661931418626 16.908014685986018 0 0 0
664 1 2 -1.1794 3.082640944093906 14.855680138729502 21.24120137130612 0 0 0
318 1 1 0.5897 7.419563860079886 15.815623281409279 20.95547622024546 0 0 0
665 1 1 0.5897 2.2548291565533374 14.461792895597005 20.965857381862527 0 0 0
452 1 1 0.5897 0.7458278498408589 12.373604515331627 20.642361187669174 0 0 0
683 1 1 0.5897 5.996465692615667 14.047472144284221 20.502363794613892 0 0 0
823 1 2 -1.1794 3.190454990799476 15.053965378725156 16.74089774479456 0 0 0
682 1 2 -1.1794 5.2289139992546225 13.66077501132892 20.081019754837286 0 0 0
124 1 2 -1.1794 5.491936189732456 13.31130439438852 17.278996822326917 0 0 0
716 1 1 0.5897 2.8227831752323063 17.55345117036545 19.553899828388687 0 0 0
584 1 1 0.5897 2.8819597727847857 16.885117216763582 17.144519766634467 0 0 0
316 1 2 -1.1794 7.584840771542186 14.872839086203536 20.955825354821357 0 0 0
453 1 1 0.5897 0.132409102161553 13.75012764596245 20.786450286158818 0 0 0
825 1 1 0.5897 2.454854673968778 14.529432185713674 17.057052857281775 0 0 0
610 1 2 -1.1794 7.538655445460439 17.402268808730504 17.70526616357381 0 0 0
446 1 1 0.5897 0.9880186090964602 12.402160939714866 17.097310458409893 0 0 0
159 1 1 0.5897 7.61018362418492 17.634768455534733 19.7940250905911 0 0 0
157 1 2 -1.1794 7.4084702544096865 17.53867646946216 20.724772252528517 0 0 0
715 1 2 -1.1794 2.798499001214687 17.463623895160232 20.50656458798209 0 0 0
267 1 1 0.5897 6.052157896242561 22.30404434013259 2.932860482914118 0 0 0
696 1 1 0.5897 1.3463651388348672 21.58070600005552 2.9845374612917723 0 0 0
266 1 1 0.5897 4.574525806264092 22.00223981185868 3.0647901604987955 0 0 0
265 1 2 -1.1794 5.437771063870189 21.692671583831213 3.3390232125871844 0 0 0
818 1 1 0.5897 8.26782078045514 22.675027217966694 2.3385590677639745 0 0 0
228 1 1 0.5897 5.297751546633127 19.895717544031136 2.479067002149814 0 0 0
413 1 1 0.5897 0.8666631306863938 21.229197818999808 4.919825601802102 0 0 0
343 1 2 -1.1794 0.4149561873430441 18.779733596602057 2.1056291215687786 0 0 0
345 1 1 0.5897 0.5818110413521664 18.842536400028088 1.1651822627144859 0 0 0
226 1 2 -1.1794 5.240997379053687 19.009578712706436 2.12167700280681 0 0 0
187 1 2 -1.1794 2.7995351518049896 22.487163120178657 2.372743772592329 0 0 0
817 1 2 -1.1794 7.467629183928987 23.1127033629621 2.0481611033964935 0 0 0
344 1 1 0.5897 1.196883504124146 18.356715156925823 2.4603680828198278 0 0 0
321 1 1 0.5897 8.82369969275276 18.400243553667472 2.7031576954526306 0 0 0
249 1 1 0.5897 5.352393167796245 21.52879269348857 5.153619656252311 0 0 0
189 1 1 0.5897 3.0290214351112654 22.56817160600317 1.4470116944376135 0 0 0
227 1 1 0.5897 4.43244161129677 18.653600993597948 2.490087287935395 0 0 0
694 1 2 -1.1794 0.5071102267244141 21.232590558717234 3.2856402040060417 0 0 0
695 1 1 0.5897 0.44645369030753107 20.367889971054417 2.8797062349610876 0 0 0
450 1 1 0.5897 6.602570775816723 17.987902496747495 2.766760765381035 0 0 0
188 1 1 0.5897 2.9089735460267216 23.370278982422597 2.7252961762600583 0 0 0
602 1 1 0.5897 5.110282647085593 19.084654304849188 0.2819975803423308 0 0 0
292 1 2 -1.1794 2.9738462556443532 17.768961048803654 2.955682036872886 0 0 0
294 1 1 0.5897 2.9553970875356628 17.733821886790373 3.9120517121753102 0 0 0
498 1 1 0.5897 7.634566349621048 23.110578970738466 0.26583587417083976 0 0 0
555 1 1 0.5897 4.804105174524309 20.45713059383943 10.181461834347335 0 0 0
86 1 1 0.5897 7.3375303905864255 22.762997390672147 8.496792056267438 0 0 0
87 1 1 0.5897 7.990277911672299 22.259712102420387 9.766664498518628 0 0 0
37 1 2 -1.1794 2.612319820204959 22.56249238695407 9.629296484935102 0 0 0
700 1 2 -1.1794 2.9725535448940392 22.836300199729862 6.837146727611169 0 0 0
33 1 1 0.5897 6.680992700901945 22.451860453585624 6.650128795891682 0 0 0
32 1 1 0.5897 8.169353909036932 22.44671569462733 6.373360495387259 0 0 0
404 1 1 0.5897 1.2635925166105453 18.080695201565796 9.5859598070831 0 0 0
39 1 1 0.5897 3.4368817932999085 22.164569747550672 9.908562664303844 0 0 0
342 1 1 0.5897 0.17479143555430768 18.609154546116294 7.419449877851886 0 0 0
414 1 1 0.5897 0.9137577362972871 20.373497915110853 6.16778394141304 0 0 0
85 1 2 -1.1794 7.169336931091801 22.61662307885038 9.427678224878356 0 0 0
405 1 1 0.5897 0.4391222460695607 19.35033035901722 9.592827114758881 0 0 0
102 1 1 0.5897 4.847242277023701 18.93273895925052 8.705179104079814 0 0 0
248 1 1 0.5897 4.562634807200916 22.040018665046013 6.339682823846347 0 0 0
385 1 2 -1.1794 4.733898273260761 18.890135541916514 6.93837194802348 0 0 0
387 1 1 0.5897 4.836479399285033 19.80858084417752 6.689189242066168 0 0 0
38 1 1 0.5897 1.935074819822729 22.01931754258139 10.032396170717053 0 0 0
185 1 1 0.5897 7.7570161776228685 18.261927668891722 9.847260921941855 0 0 0
553 1 2 -1.1794 4.895763744731089 21.387070640253043 10.388782322393697 0 0 0
341 1 1 0.5897 0.9410455186124177 18.046623707730056 6.241192706229969 0 0 0
101 1 1 0.5897 5.545337947524902 18.39577018348742 9.936514206438531 0 0 0
386 1 1 0.5897 5.568786638845249 18.483747974189612 6.705968339965903 0 0 0
554 1 1 0.5897 5.785828409291738 21.60754788483547 10.114238604662285 0 0 0
94 1 2 -1.1794 0.31216411231910146 20.92054518350603 10.153981773161089 0 0 0
702 1 1 0.5897 2.2283261546138298 22.34038711445131 6.49599001018163 0 0 0
31 1 2 -1.1794 7.465719910969735 22.995552158656956 6.719589916940913 0 0 0
100 1 2 -1.1794 4.7968702806913415 18.925016854970195 9.66101037085739 0 0 0
240 1 1 0.5897 3.348570663876905 17.98641582575395 6.2918285207034295 0 0 0
701 1 1 0.5897 2.8442874173564445 22.83944763267605 7.7856996140852255 0 0 0
340 1 2 -1.1794 0.2599243481535584 18.679522300276773 6.468645851848732 0 0 0
383 1 1 0.5897 3.4323471578702938 17.820320579983033 10.128525576812958 0 0 0
403 1 2 -1.1794 0.5413237794977761 18.51665006938031 9.133777833016847 0 0 0
412 1 2 -1.1794 0.9981811181550173 21.278140377892562 5.866675304801444 0 0 0
309 1 1 0.5897 7.686529216145692 17.924038273868852 6.105122472030742 0 0 0
247 1 2 -1.1794 5.313572490157615 21.4930014440501 6.109349315918246 0 0 0
96 1 1 0.5897 0.1474378241869791 20.96121145521505 11.096008133149692 0 0 0
788 1 1 0.5897 7.215173796489546 23.01985043500777 14.836372269484029 0 0 0
88 1 2 -1.1794 4.972820008662633 21.610480515280678 13.253756757733058 0 0 0
381 1 1 0.5897 1.1121006845863588 21.46650073883776 13.312909438240908 0 0 0
90 1 1 0.5897 4.9639169450580605 20.739002595158468 13.64950326597968 0 0 0
763 1 2 -1.1794 5.267856519704527 18.864577642557876 14.155612636501566 0 0 0
738 1 1 0.5897 3.2981226586810255 21.932519457754346 13.992095801623284 0 0 0
89 1 1 0.5897 5.071553244329178 21.447138562863074 12.315788927096147 0 0 0
787 1 2 -1.1794 7.190545394352562 22.922060747539142 13.88450135298383 0 0 0
764 1 1 0.5897 4.514115376170241 18.521810596439643 13.675416751057535 0 0 0
502 1 2 -1.1794 0.4023226708142223 18.386822393151405 13.85709677510467 0 0 0
379 1 2 -1.1794 0.24409257272636814 21.25572725214864 12.968890493069946 0 0 0