LAMMPS data file via write_data, version 30 Jul 2021, timestep = 10250000

864 atoms
2 atom types
576 bonds
1 bond types
288 angles
1 angle types

0.06916742152744781 18.13840497846646 xlo xhi
0.20133981176269344 23.42783798824988 ylo yhi
0.1643966570894584 22.048799142909562 zlo zhi

Masses

1 1.00794
2 15.9994

Atoms # full

707 1 1 0.5897 3.183617777026503 2.10980178950077 3.694903982615738 0 0 0
706 1 2 -1.1794 3.3406594526267273 2.0437573875207287 2.7529825673572708 0 0 0
597 1 1 0.5897 0.7513352792131615 5.719235705858435 3.7868407625496534 0 0 0
495 1 1 0.5897 8.450952258791563 2.436266258839027 2.1949417450673496 0 0 0
1 1 2 -1.1794 0.7991083796979747 3.0184425371719414 2.00647931013935 0 0 0
708 1 1 0.5897 2.5642439804693478 2.4345920019432508 2.352230208167997 0 0 0
29 1 1 0.5897 4.653495486953034 2.9018614911884093 2.030171804025659 0 0 0
28 1 2 -1.1794 5.404254787005738 3.37858007143802 1.6762571641842665 0 0 0
3 1 1 0.5897 0.774152745389216 3.9349769911244787 2.281079959288749 0 0 0
494 1 1 0.5897 6.947549485639927 2.566361631202639 2.3157198350752966 0 0 0
30 1 1 0.5897 5.41366295357541 4.204488282111431 2.1598755830222442 0 0 0
493 1 2 -1.1794 7.6926086140038255 2.063399315097609 2.6444486403034495 0 0 0
846 1 1 0.5897 7.618675821705328 1.8570651240784115 4.63485406087031 0 0 0
595 1 2 -1.1794 0.6742244326738803 5.589349753115179 2.8416243332542135 0 0 0
136 1 2 -1.1794 5.066112835187979 5.763295117283182 3.015318333003791 0 0 0
844 1 2 -1.1794 7.387820434024471 2.0315376125114044 5.547283024117251 0 0 0
137 1 1 0.5897 5.049070477107053 5.95507422106932 3.95296375128416 0 0 0
487 1 2 -1.1794 2.9425288342202243 1.8850707074974669 5.499357249540074 0 0 0
188 1 1 0.5897 3.1547204985328148 0.2763600887776896 2.6099391605925404 0 1 0
784 1 2 -1.1794 0.47663357229159653 2.997938835670247 6.63606222236462 0 0 0
419 1 1 0.5897 8.746693135468325 2.81387109269104 6.302248046521947 0 0 0
36 1 1 0.5897 1.299090270847419 2.9429529479147054 9.689666494663241 0 0 0
183 1 1 0.5897 0.3126758997270125 4.887325493561722 6.362486151008566 0 0 0
176 1 1 0.5897 8.819023075440992 2.701216234207921 9.709185975495009 0 0 0
678 1 1 0.5897 5.005564581168656 5.188754673630041 9.756396021794016 0 0 0
674 1 1 0.5897 3.215670885119719 2.3652066883758325 9.38023168933297 0 0 0
675 1 1 0.5897 2.755018787544883 0.9599926693540687 9.703739110950343 0 0 0
84 1 1 0.5897 5.918889035957708 2.7384449708631964 5.911077833203605 0 0 0
356 1 1 0.5897 7.069340390475034 1.3369539136653825 10.184388882906498 0 0 0
274 1 2 -1.1794 4.764272338572187 3.7399845088383987 8.822150559798414 0 0 0
673 1 2 -1.1794 2.6341949818531853 1.8740481141045182 9.96059035415765 0 0 0
686 1 1 0.5897 4.988034497438994 5.191027930392032 5.974405485739947 0 0 0
82 1 2 -1.1794 5.160215045545996 3.2742817583168145 6.1422295277245755 0 0 0
83 1 1 0.5897 4.40670191364562 2.76435475970063 5.845020715709777 0 0 0
489 1 1 0.5897 2.9322092756702274 0.9728689574868724 5.78894715224254 0 0 0
276 1 1 0.5897 5.491332451350776 3.2289769202149277 9.177678231510438 0 0 0
355 1 2 -1.1794 7.05757653022052 2.289321353876223 10.278846611418036 0 0 0
275 1 1 0.5897 4.943219939210272 3.7908633357868786 7.88319944553933 0 0 0
181 1 2 -1.1794 0.4921082430399963 5.708333854884668 5.9043988043116356 0 0 0
34 1 2 -1.1794 0.5182971174986366 3.389711495826983 9.362648860169886 0 0 0
35 1 1 0.5897 0.6339264018470141 4.30148405739919 9.629908508311159 0 0 0
845 1 1 0.5897 7.433158223833653 1.1760668839511408 5.974173886707712 0 0 0
785 1 1 0.5897 0.5713112081676816 3.0812427243029195 7.5849544652691305 0 0 0
488 1 1 0.5897 2.123966827547805 2.252061276953328 5.833173307738461 0 0 0
112 1 2 -1.1794 0.7665759050525592 5.87123735682959 10.059608432082877 0 0 0
676 1 2 -1.1794 5.222315428944994 5.99317314734804 10.227603324154689 0 0 0
113 1 1 0.5897 0.7242229178636971 5.9785460427482455 11.009834956010083 0 0 0
166 1 2 -1.1794 3.030570329906815 2.2420001103908214 12.7365494767529 0 0 0
167 1 1 0.5897 2.7526897832090347 2.083527416533035 11.834385853543942 0 0 0
762 1 1 0.5897 5.423800470143699 5.350885128330929 13.255535853599012 0 0 0
459 1 1 0.5897 4.579499809327525 3.3011466653733854 13.468098403720255 0 0 0
168 1 1 0.5897 2.2566173274105505 2.60700019040079 13.165444974936149 0 0 0
365 1 1 0.5897 0.5368885817985014 4.976035117017251 13.177508059732212 0 0 0
593 1 1 0.5897 7.608486590422934 1.3054594784282836 13.159359468435232 0 0 0
592 1 2 -1.1794 7.629579649854915 2.256746636475664 13.056060722126448 0 0 0
458 1 1 0.5897 6.085145785842127 3.1851327273521104 13.574603208253146 0 0 0
594 1 1 0.5897 8.425235871561922 2.530128093005326 13.512605068432762 0 0 0
457 1 2 -1.1794 5.336403090116393 3.6672210304124584 13.925541099450335 0 0 0
466 1 2 -1.1794 0.7795163639238313 3.3424219932337906 13.808678932254567 0 0 0
71 1 1 0.5897 4.994879972156571 3.120623808295231 15.76039177657586 0 0 0
468 1 1 0.5897 0.8334708118202033 3.220350736672348 14.756529867805154 0 0 0
737 1 1 0.5897 3.1068163463679594 0.7926610173422919 13.72378510101073 0 1 0
133 1 2 -1.1794 0.7785913152453645 3.0002009765507407 16.541988859051852 0 0 0
357 1 1 0.5897 7.403781201926425 2.4476740169379845 11.15708229855114 0 0 0
364 1 2 -1.1794 0.7171985533932779 5.828246667864714 12.78088127137834 0 0 0
278 1 1 0.5897 5.120523099359819 4.905742017922078 17.10361358248788 0 0 0
668 1 1 0.5897 5.21418328012576 3.1891533224650224 21.758919429256395 0 0 -1
756 1 1 0.5897 6.799670367837952 2.3385886409807175 17.057617904218592 0 0 0
599 1 1 0.5897 8.973156122633485 2.772411896856375 17.01886315506635 0 0 0
41 1 1 0.5897 6.7905532530033765 2.289218623868893 20.701123318681617 0 0 0
569 1 1 0.5897 1.7903977826404263 2.5463771721938127 20.70309826447717 0 0 0
570 1 1 0.5897 2.5525165615710828 2.1629479932760822 19.4524945071702 0 0 0
568 1 2 -1.1794 2.575451183536815 2.086181718903112 20.4063425465018 0 0 0
667 1 2 -1.1794 5.12681585698081 3.1579504080520646 20.806221844936307 0 0 0
143 1 1 0.5897 5.091335179940816 4.885309357512717 20.357637686002537 0 0 0
290 1 1 0.5897 2.7714498435630843 0.9598319122996671 17.563293830684326 0 0 0
669 1 1 0.5897 4.211469879913822 2.9213389849438913 20.65679433034997 0 0 0
289 1 2 -1.1794 2.9505635607053984 1.8827232579673614 17.742879373479973 0 0 0
134 1 1 0.5897 0.5267028020802527 3.8921817811812414 16.78072440929057 0 0 0
72 1 1 0.5897 4.314109493033225 2.7338857515520183 17.056085577868057 0 0 0
70 1 2 -1.1794 5.09661030937399 3.163879097428842 16.711187440060648 0 0 0
291 1 1 0.5897 2.1696680838688005 2.342939639017906 17.43538974274103 0 0 0
42 1 1 0.5897 7.794078202725746 1.1566945574899379 20.657423064688615 0 0 0
754 1 2 -1.1794 7.524694823238264 1.8221580527085661 17.40952177993377 0 0 0
40 1 2 -1.1794 7.648131998501696 2.050939142237472 20.349035679879687 0 0 0
755 1 1 0.5897 7.499273423693391 1.9842829040441647 18.352564342818095 0 0 0
142 1 2 -1.1794 4.837527602996161 5.777535626517735 20.121880816260372 0 0 0
81 1 1 0.5897 2.8143287916182573 0.32362932691496815 21.091502511256518 0 1 0
20 1 1 0.5897 0.23644988959819485 3.0915382934830107 22.01091190612997 0 0 -1
277 1 2 -1.1794 5.067161282716147 5.825181321386503 17.364110739950753 0 0 0
144 1 1 0.5897 4.896059500649768 5.79926043745485 19.166711229503836 0 0 0
135 1 1 0.5897 0.09087565086495886 2.4487407316308265 16.914922213997848 0 0 0
253 1 2 -1.1794 2.9325451142128913 6.812078170533701 1.7569352475811133 0 0 0
123 1 1 0.5897 3.382959728048181 8.404364053964935 2.686836875219968 0 0 0
121 1 2 -1.1794 3.5792160682653873 9.315047272246545 2.9064223865305747 0 0 0
122 1 1 0.5897 3.3405451743171617 9.396050052042307 3.829842602030573 0 0 0
43 1 2 -1.1794 1.0786609543832608 10.94645074568635 2.297764890925142 0 0 0
416 1 1 0.5897 6.699201812205676 6.588948017970453 2.1926788616318134 0 0 0
415 1 2 -1.1794 7.497423563012681 6.983040224825719 1.8409554550121938 0 0 0
44 1 1 0.5897 1.9051991307283522 10.558597967859155 2.5850946114629614 0 0 0
219 1 1 0.5897 4.935109623550542 10.413037379790502 2.46282290535312 0 0 0
417 1 1 0.5897 8.188693771378702 6.356400437900109 2.0544721258242924 0 0 0
218 1 1 0.5897 6.431270755672366 10.601915797563313 2.3302968694260504 0 0 0
217 1 2 -1.1794 5.594581792691549 11.01959503997861 2.1262041109877137 0 0 0
66 1 1 0.5897 7.332589760195142 9.532965193273911 4.003403311076491 0 0 0
65 1 1 0.5897 7.638737640031154 8.65843984192675 2.8062225919844055 0 0 0
64 1 2 -1.1794 7.730216963279524 9.553404273601123 3.132937674349955 0 0 0
138 1 1 0.5897 4.212731110677456 6.05541231122105 2.6950402845056525 0 0 0
254 1 1 0.5897 2.7330552767505334 6.8975711730203555 0.8246670311046381 0 0 0
396 1 1 0.5897 0.5715178192204549 11.057474688138932 0.446926138084082 0 0 0
255 1 1 0.5897 2.1456329859277674 6.420443520952207 2.1358182921563786 0 0 0
793 1 2 -1.1794 2.869716956371412 9.471141326937584 5.5805443368073995 0 0 0
363 1 1 0.5897 5.345558073792168 11.047261553908008 0.28655907326675495 0 0 1
794 1 1 0.5897 2.056205408290656 9.807897808421522 5.956034575527693 0 0 0
579 1 1 0.5897 4.664736829280692 11.470157181734924 6.4837163824231805 0 0 0
552 1 1 0.5897 0.681363068648456 11.66219747254463 6.3889575826189215 0 0 0
15 1 1 0.5897 1.5074472691171827 10.729420151714677 9.605920591999013 0 0 0
550 1 2 -1.1794 0.6429122549248459 10.736547585509566 6.629284352616992 0 0 0
713 1 1 0.5897 8.175835414909482 10.080627942014274 6.267619966055552 0 0 0
651 1 1 0.5897 3.6317791997246553 7.152326825034115 9.857410046093397 0 0 0
820 1 2 -1.1794 7.609009550656783 9.52863658674085 10.160725990107338 0 0 0
257 1 1 0.5897 3.1435697267089986 9.49426725914379 9.684029195526032 0 0 0
145 1 2 -1.1794 7.72319837676968 6.824015856657038 6.465015326901561 0 0 0
526 1 2 -1.1794 7.750926556928292 7.039559847145597 9.22363215972302 0 0 0
650 1 1 0.5897 2.85713535909802 7.395003349671742 8.579527290585695 0 0 0
578 1 1 0.5897 5.752588241119208 10.434432060185165 6.295406676515678 0 0 0
580 1 2 -1.1794 5.641032840963886 11.253552951461193 9.527798947766943 0 0 0
581 1 1 0.5897 6.4144571437918625 10.720246473559902 9.710943885070607 0 0 0
528 1 1 0.5897 8.520949390301615 6.633230896807678 9.621278154618327 0 0 0
147 1 1 0.5897 7.689026426124972 6.859500833353083 7.420965641818697 0 0 0
649 1 2 -1.1794 2.8816971533070523 7.632350932993047 9.50652533979786 0 0 0
12 1 1 0.5897 2.5727537479126084 7.823404704444018 6.266025825756043 0 0 0
714 1 1 0.5897 7.503286124723163 8.753427757913162 6.546428075465934 0 0 0
577 1 2 -1.1794 4.942789662739553 10.602611828108166 6.777204545783669 0 0 0
258 1 1 0.5897 4.030429906950857 10.69298357387916 9.945035190709397 0 0 0
822 1 1 0.5897 8.46809451484364 9.896804222199869 9.954345718108272 0 0 0
582 1 1 0.5897 5.513220659139293 11.17430411006752 8.582486614138347 0 0 0
10 1 2 -1.1794 2.6147918563099206 6.992122133721314 6.738592123698631 0 0 0
11 1 1 0.5897 1.7329074919278242 6.627893923234497 6.662232922069787 0 0 0
527 1 1 0.5897 7.6405716829916805 7.86214426108113 9.700371177390329 0 0 0
146 1 1 0.5897 6.849203140593137 6.533665207386518 6.204228419302139 0 0 0
551 1 1 0.5897 0.4855142672883812 10.740052196766833 7.573447317455264 0 0 0
256 1 2 -1.1794 3.1468883279828033 10.357691268973152 10.097039515409136 0 0 0
13 1 2 -1.1794 0.5926040272355202 10.981044182415555 9.479797956315135 0 0 0
687 1 1 0.5897 4.178082063022889 6.465160015063655 6.084374775985703 0 0 0
677 1 1 0.5897 6.095521305814465 6.2274969475555375 9.913319734491552 0 0 0
114 1 1 0.5897 1.5308829442781173 6.382640093547912 9.79417166384909 0 0 0
821 1 1 0.5897 7.64347164503252 9.351218078001395 11.100760896595395 0 0 0
795 1 1 0.5897 3.5312931553343625 9.6389591863158 6.25166036162385 0 0 0
685 1 2 -1.1794 5.021468191038548 6.128071807461652 5.782316915396482 0 0 0
712 1 2 -1.1794 7.376953485984672 9.584620335055963 6.088963311194952 0 0 0
476 1 1 0.5897 6.664697675104084 9.814124381064627 12.94590135181043 0 0 0
332 1 1 0.5897 2.873017981881012 8.023774145314718 13.360753686155483 0 0 0
797 1 1 0.5897 2.796309319630207 9.853162681570522 11.832408924372414 0 0 0
796 1 2 -1.1794 2.8332822366013857 9.662304800250565 12.769662362461483 0 0 0
798 1 1 0.5897 2.233871220405388 10.29395203984689 13.167071851153993 0 0 0
333 1 1 0.5897 3.6589244512003902 6.788126347449157 13.744300560167572 0 0 0
723 1 1 0.5897 5.288020562937864 10.862290284461372 14.49156703748034 0 0 0
331 1 2 -1.1794 2.8180981917863197 7.223814815669731 13.883406044584053 0 0 0
477 1 1 0.5897 7.661853231426673 8.737322059593476 13.317153095322862 0 0 0
259 1 2 -1.1794 0.747499163397452 11.14632271466146 14.12835471542142 0 0 0
826 1 2 -1.1794 7.777960926298881 7.08555746182651 13.968643818890115 0 0 0
225 1 1 0.5897 2.681354520416954 7.026217675279764 15.750174495343884 0 0 0
722 1 1 0.5897 4.463730766326597 10.59223641207859 13.250808210864164 0 0 0
828 1 1 0.5897 7.871508557852813 7.059286543012251 14.920907919292096 0 0 0
827 1 1 0.5897 6.89299717922711 6.759446958204304 13.805353731042176 0 0 0
721 1 2 -1.1794 5.2953799496349125 10.967473031294137 13.540189920942023 0 0 0
475 1 2 -1.1794 7.560576757146382 9.521807866166547 12.77820496213634 0 0 0
261 1 1 0.5897 0.6691044622632469 11.135680270950134 15.082285779593702 0 0 0
679 1 2 -1.1794 5.144432246212084 10.794722108857966 16.288272313951047 0 0 0
366 1 1 0.5897 1.5026443394372107 6.140559635886488 13.230007075015859 0 0 0
761 1 1 0.5897 5.370271544874854 6.191221704594779 11.997461649357584 0 0 0
760 1 2 -1.1794 5.418323254341242 6.258278888991476 12.951113410341812 0 0 0
681 1 1 0.5897 5.121195639264912 11.741764243132893 16.424781067319785 0 0 0
689 1 1 0.5897 3.6486785176167853 9.945754725714801 20.824731121278905 0 0 0
279 1 1 0.5897 4.2385432514627785 6.131293260821018 16.995529621158283 0 0 0
626 1 1 0.5897 2.745326606020479 9.556802916517606 18.584130476895716 0 0 0
6 1 1 0.5897 2.592158709874047 7.855920497726058 20.89895441210276 0 0 0
521 1 1 0.5897 6.561528401710878 6.639584253276036 16.874158600715663 0 0 0
224 1 1 0.5897 2.6942052009900466 7.772684754686234 17.067163421854744 0 0 0
462 1 1 0.5897 8.872047877661558 6.581046389279374 20.539323845171936 0 0 0
690 1 1 0.5897 2.1395837990148614 10.06355923418318 20.847478888886116 0 0 0
160 1 2 -1.1794 7.152845316955291 7.154660836015051 20.878267132552327 0 0 0
688 1 2 -1.1794 2.851901898434816 9.529402134944606 20.496159780251613 0 0 0
7 1 2 -1.1794 7.285376491396115 9.575604548260188 17.633545871401765 0 0 0
8 1 1 0.5897 7.158410021428001 9.786461232916283 18.558555211914037 0 0 0
394 1 2 -1.1794 0.47142962584806736 11.035174760150536 21.379633865637018 0 0 0
140 1 1 0.5897 6.341808930571978 10.22342646780308 20.59113708894363 0 0 0
223 1 2 -1.1794 2.601671848288314 6.895708078521027 16.69509503174196 0 0 0
361 1 2 -1.1794 5.049974302323984 10.945200919197552 21.266278956932087 0 0 0
4 1 2 -1.1794 2.4897336174410323 6.907509334154303 20.97696674346827 0 0 0
161 1 1 0.5897 6.345081207587094 6.748727290583985 20.563758090714646 0 0 0
627 1 1 0.5897 2.047836359153603 10.056608920728479 17.336915458960735 0 0 0
625 1 2 -1.1794 2.8150192358935806 9.564699798819998 17.629490292096698 0 0 0
139 1 2 -1.1794 7.200364866358409 9.8550566266568 20.38293801151985 0 0 0
9 1 1 0.5897 6.541036103681526 9.982567927031871 17.190243090957956 0 0 0
141 1 1 0.5897 7.109055563290314 8.918866528379302 20.559770719696584 0 0 0
287 1 1 0.5897 8.544919352953972 10.718447768297928 21.161174479133745 0 0 0
5 1 1 0.5897 3.3755526452927667 6.560914575353633 20.870304831188765 0 0 0
711 1 1 0.5897 8.906545270388698 6.275055478701649 17.187814539002506 0 0 0
445 1 2 -1.1794 0.818334871433411 11.115511526166086 17.000090788045693 0 0 0
680 1 1 0.5897 4.326776325981795 10.476961685044634 16.67120841104574 0 0 0
522 1 1 0.5897 7.259041709229149 7.954780642082774 17.148498698632388 0 0 0
572 1 1 0.5897 0.7949465236993248 6.097720300644277 16.978018400947313 0 0 0
246 1 1 0.5897 8.719269165611701 10.143542053514851 16.90009724901591 0 0 0
520 1 2 -1.1794 7.395270409381951 7.0938670855081964 16.753077670493912 0 0 0
162 1 1 0.5897 7.189449828732965 6.92779643778358 21.807471041641907 0 0 0
647 1 1 0.5897 0.7671863510569803 6.215628782878352 19.94920224606503 0 0 0
557 1 1 0.5897 2.702134964163496 14.38177366336955 2.3947440831215325 0 0 0
373 1 2 -1.1794 1.2174383156998043 13.614871357937764 3.119687966274546 0 0 0
293 1 1 0.5897 3.232857485870031 16.442479877921492 2.6225780297802426 0 0 0
558 1 1 0.5897 3.303491358764462 14.781779823968629 1.064251772759171 0 0 0
556 1 2 -1.1794 3.449755136688385 14.837926146824996 2.0085434464810192 0 0 0
174 1 1 0.5897 5.544874720205002 12.715087275598306 2.705199567609789 0 0 0
173 1 1 0.5897 4.805711750875813 14.036120423664766 2.701070166694439 0 0 0
479 1 1 0.5897 8.560690337402786 14.479607498065137 2.402030177685322 0 0 0
374 1 1 0.5897 0.8616207627233269 13.494792574316206 4.000140559008085 0 0 0
480 1 1 0.5897 7.056785305555348 14.310273005442161 2.3654602448371835 0 0 0
172 1 2 -1.1794 5.574216478411506 13.59992667662426 3.0689324685400003 0 0 0
478 1 2 -1.1794 7.756253835139576 14.917183010886017 2.1235301658507906 0 0 0
449 1 1 0.5897 7.725639687313025 16.49624606497308 3.062931966063788 0 0 0
200 1 1 0.5897 5.167164926347276 13.26062110001068 4.848484025196128 0 0 0
292 1 2 -1.1794 3.17693011995068 17.354108305561006 2.908742386616001 0 0 0
45 1 1 0.5897 1.1871023610096008 11.884640549553938 2.4529870455415383 0 0 0
448 1 2 -1.1794 7.696144410831874 17.41221290774078 3.3389787092279426 0 0 0
308 1 1 0.5897 7.620317312303759 17.14808651517171 5.049346768131081 0 0 0
317 1 1 0.5897 7.5459758717514624 14.969723876939161 0.25023451562490456 0 0 0
375 1 1 0.5897 0.4763874400889515 13.929984988855695 2.6022669702780004 0 0 0
294 1 1 0.5897 3.21540273659145 17.308571699476122 3.864096664692134 0 0 0
456 1 1 0.5897 5.570402791435292 12.98624469604894 9.781213846696438 0 0 0
811 1 2 -1.1794 2.986104586947396 15.094240605434921 9.133108055288542 0 0 0
812 1 1 0.5897 3.6914307077691646 14.530960856349946 9.451489438912324 0 0 0
813 1 1 0.5897 2.182959179530013 14.648915196821891 9.402972270261982 0 0 0
17 1 1 0.5897 2.937934507172362 14.501938087614045 7.45077043057934 0 0 0
14 1 1 0.5897 0.5856232885769574 11.930163327301933 9.603005494878936 0 0 0
186 1 1 0.5897 7.836617242947896 16.44352474587759 10.236402668654565 0 0 0
519 1 1 0.5897 8.25498061373853 13.914188142759569 6.182931415476153 0 0 0
16 1 2 -1.1794 2.8331848032126308 14.342738748619306 6.512726037677147 0 0 0
307 1 2 -1.1794 7.431135392160503 17.01141162410095 5.977656481264767 0 0 0
201 1 1 0.5897 5.829827766846671 13.510290137357533 6.18654509062892 0 0 0
518 1 1 0.5897 7.461777446739521 15.19464902299047 6.3338872388285665 0 0 0
384 1 1 0.5897 2.8982190457672985 16.892953456038686 9.484083227047439 0 0 0
454 1 2 -1.1794 5.317933035397006 13.832568398567933 10.150104452340056 0 0 0
655 1 2 -1.1794 0.47912377352299795 13.19341704965446 5.840938099804917 0 0 0
376 1 2 -1.1794 7.62855927065626 14.994366345981092 9.153309692566783 0 0 0
378 1 1 0.5897 7.598562666601263 14.721301195929271 8.236382365750897 0 0 0
377 1 1 0.5897 6.8539583556835995 14.594240075532845 9.548360449568115 0 0 0
517 1 2 -1.1794 7.40972999285943 14.2503215369346 6.4808373772259245 0 0 0
18 1 1 0.5897 3.67927829654167 13.993690179240444 6.23261034220836 0 0 0
766 1 2 -1.1794 0.7297205371235201 13.681990330040897 10.204896368804922 0 0 0
656 1 1 0.5897 1.3386250969899536 13.575417442847852 6.018410630634505 0 0 0
239 1 1 0.5897 3.2728672810583057 16.178925696646015 6.05926303638637 0 0 0
199 1 2 -1.1794 5.088763354910766 13.060105836820975 5.781155870016022 0 0 0
309 1 1 0.5897 8.191377412191063 17.372813821882527 6.433277255452014 0 0 0
59 1 1 0.5897 8.992028241277552 14.156874337705492 9.845213358121937 0 0 0
240 1 1 0.5897 3.856853525428971 17.575045409643973 6.023269413112687 0 0 0
238 1 2 -1.1794 3.0894417659539433 17.06850933125493 5.757482515573364 0 0 0
184 1 2 -1.1794 7.8157344333871 17.3242840054219 10.610440888040435 0 0 0
455 1 1 0.5897 5.3422104660263505 13.698309287639603 11.09753010906085 0 0 0
232 1 2 -1.1794 2.881567063127366 15.02912675838791 13.4090630443786 0 0 0
234 1 1 0.5897 2.929391359152514 14.949924841357621 14.361785512245977 0 0 0
606 1 1 0.5897 2.8786835984289496 16.869376127810092 13.058677408717987 0 0 0
296 1 1 0.5897 7.316298793680989 14.886021347760193 14.92127699993302 0 0 0
639 1 1 0.5897 1.3367453273496805 14.087489150659604 13.127465866507006 0 0 0
233 1 1 0.5897 3.6079322180802813 14.49538795891568 13.087107590187125 0 0 0
427 1 2 -1.1794 5.148319177373694 13.584281436484487 12.839128042018672 0 0 0
297 1 1 0.5897 8.097508015238107 14.48302263864355 13.68873478905714 0 0 0
429 1 1 0.5897 5.89021682631655 14.0458037480499 13.22994956933138 0 0 0
823 1 2 -1.1794 3.0552289945045157 14.879629314775993 16.31077734294073 0 0 0
295 1 2 -1.1794 7.345502837830917 15.003176898183124 13.971722129935243 0 0 0
270 1 1 0.5897 7.497150874296663 16.719074094771862 13.551568677114235 0 0 0
428 1 1 0.5897 5.2288322309565975 12.685985988007983 13.159536092235143 0 0 0
637 1 2 -1.1794 0.5845062206968172 13.534010812461 12.91777562922022 0 0 0
638 1 1 0.5897 0.7767578695848396 12.697408168385 13.341131598577196 0 0 0
269 1 1 0.5897 7.610647169367375 17.587833830283106 12.317010267300644 0 0 0
767 1 1 0.5897 0.7822362959242662 13.660117303710098 11.160411160795595 0 0 0
316 1 2 -1.1794 7.664766626719739 14.75867182676111 21.20857235453121 0 0 0
683 1 1 0.5897 6.0687518242968075 13.826057506183883 20.301007614137706 0 0 0
584 1 1 0.5897 3.2237838571849653 16.489509752777618 16.982881335361647 0 0 0
664 1 2 -1.1794 3.13103422401234 14.742764101186667 21.223209439399163 0 0 0
50 1 1 0.5897 7.571410688681973 15.792052997159619 17.004907877829613 0 0 0
126 1 1 0.5897 5.86603931423746 13.891223230558735 17.031477816712812 0 0 0
666 1 1 0.5897 3.071251973227072 15.655600866040672 20.941739107194145 0 0 0
825 1 1 0.5897 2.289611833844435 14.63449514484147 16.83032648071226 0 0 0
665 1 1 0.5897 2.3131773577766337 14.345432202918818 20.92422144613879 0 0 0
157 1 2 -1.1794 7.395078361357141 17.333653557128645 20.483611155770912 0 0 0
53 1 1 0.5897 0.7626433944953865 13.853674433251602 18.418586898807973 0 0 0
451 1 2 -1.1794 0.7258063226061587 13.501761544654073 20.308991437836262 0 0 0
52 1 2 -1.1794 0.7616975406301592 13.899728153402135 17.462485495765062 0 0 0
824 1 1 0.5897 3.774922242047982 14.376684466837034 16.691893294768494 0 0 0
318 1 1 0.5897 7.644254338900658 15.606385973724114 20.76466240244363 0 0 0
684 1 1 0.5897 4.561654213550511 13.905385254438738 20.419782977466497 0 0 0
610 1 2 -1.1794 7.594742624605784 17.41141013502444 17.63030675572524 0 0 0
124 1 2 -1.1794 5.0670332018482 13.437117587447165 17.298921741579417 0 0 0
125 1 1 0.5897 5.187543341852691 13.269736321918936 18.233635929065315 0 0 0
682 1 2 -1.1794 5.262597429234865 13.407839064174375 19.998739683859526 0 0 0
452 1 1 0.5897 0.7194323823242208 12.679185310413107 20.798313409794275 0 0 0
583 1 2 -1.1794 3.209581394213609 17.245141720525734 17.570198412761584 0 0 0
51 1 1 0.5897 8.064066122991386 14.362216311223204 17.070726949159123 0 0 0
49 1 2 -1.1794 7.421903278120878 14.922210884149354 16.634634812940263 0 0 0
716 1 1 0.5897 3.274915807843861 16.97180811412593 19.52961650441185 0 0 0
446 1 1 0.5897 0.7296823543363321 12.068420527659557 17.013010567323647 0 0 0
715 1 2 -1.1794 3.191158551305396 17.290645736577005 20.428259105820246 0 0 0
159 1 1 0.5897 7.544126630584134 17.54380413764187 19.561737393078136 0 0 0
362 1 1 0.5897 5.04643939038592 11.834787052124343 20.91314741954206 0 0 0
696 1 1 0.5897 1.7008293869985742 21.603323640778612 2.8644525093846056 0 0 0
187 1 2 -1.1794 3.0808336217375545 22.588893718235575 2.335536018325317 0 0 0
249 1 1 0.5897 5.471781919072687 21.02615256065778 4.8771584010860165 0 0 0
450 1 1 0.5897 6.930550919913279 17.773007096738855 2.8919217999526916 0 0 0
818 1 1 0.5897 8.33551932758286 22.171662709471725 2.880915941273988 0 0 0
266 1 1 0.5897 4.654350748787466 21.811701880355347 2.6079295012915975 0 0 0
226 1 2 -1.1794 5.465144715105433 18.642718090801626 1.9409187019704486 0 0 0
498 1 1 0.5897 7.785507511759791 22.580010047682173 0.5251400931189751 0 0 0
228 1 1 0.5897 5.403982123956276 19.52189996197893 2.3142590843227584 0 0 0
695 1 1 0.5897 0.8790731563855331 20.340081169718168 3.0075581292826543 0 0 0
694 1 2 -1.1794 0.921200946572891 21.252166127659404 3.2946095633235286 0 0 0
817 1 2 -1.1794 7.567024261807254 22.45939667411336 2.3881644293463844 0 0 0
189 1 1 0.5897 3.133198957781176 22.620099815525794 1.3802736992865599 0 0 0
265 1 2 -1.1794 5.2720443015410705 21.15075262236585 2.9205361440542252 0 0 0
267 1 1 0.5897 6.133170915135637 21.550749173397993 2.7995832776994796 0 0 0
343 1 2 -1.1794 0.7721091662104598 18.704372346122014 2.5551488956787303 0 0 0
344 1 1 0.5897 1.579777471641323 18.244768431084786 2.784527313808393 0 0 0
345 1 1 0.5897 0.7872180526574393 18.753730925618935 1.5993338411308913 0 0 0
227 1 1 0.5897 4.640167527162198 18.221631051309455 2.182279409795399 0 0 0
413 1 1 0.5897 1.0251979631184176 20.972309886914065 5.090430038172617 0 0 0
819 1 1 0.5897 7.568641815915343 23.412471224069094 2.476100184438504 0 -1 0
39 1 1 0.5897 3.7479801797505146 21.993853460584152 9.516466787708827 0 0 0
700 1 2 -1.1794 3.2037809021034427 22.447459891426913 6.506999170654352 0 0 0
554 1 1 0.5897 5.848618020163533 21.617320336482717 10.042983590940516 0 0 0
341 1 1 0.5897 1.6343222991514696 17.832366695101484 6.504990548814095 0 0 0
403 1 2 -1.1794 0.5448345155755872 18.8848060104176 9.31887915569744 0 0 0
342 1 1 0.5897 0.6497378771788861 18.307285547893738 7.552342139811323 0 0 0
385 1 2 -1.1794 5.15087049321938 18.411890586648152 6.886561467941387 0 0 0
94 1 2 -1.1794 0.7144287505072755 21.3651261250522 10.328411429638717 0 0 0
87 1 1 0.5897 8.088189707455735 22.410557447890177 9.668401966872265 0 0 0
38 1 1 0.5897 2.248889168901931 22.17138849812584 9.63024923996975 0 0 0
31 1 2 -1.1794 7.195239639965748 22.93512394728447 6.89023079477215 0 0 0
247 1 2 -1.1794 5.520048545189951 21.058730012445945 5.8325895710189 0 0 0
85 1 2 -1.1794 7.195092618633541 22.74756105913449 9.597785699895626 0 0 0
387 1 1 0.5897 5.218113865683482 19.34317283103521 6.6761957548813395 0 0 0
383 1 1 0.5897 3.7030380949821438 18.0648931555145 10.004154623935994 0 0 0
382 1 2 -1.1794 2.820444141940657 17.694486023977444 10.001409423059096 0 0 0
702 1 1 0.5897 2.54596922540817 21.787075302071116 6.289507486543558 0 0 0
555 1 1 0.5897 5.184551812821354 20.267816350222816 9.871657583958958 0 0 0
248 1 1 0.5897 4.7203675698497625 21.512893339737673 6.0979371922377865 0 0 0
553 1 2 -1.1794 5.093178504139702 21.103737315989747 10.328806547338566 0 0 0
701 1 1 0.5897 3.148562209978389 22.536959665094017 7.458406094460985 0 0 0
32 1 1 0.5897 8.003374160867985 22.427841534720834 6.8146111925817054 0 0 0
412 1 2 -1.1794 1.0166749622395876 20.88196303083903 6.043319032739144 0 0 0
102 1 1 0.5897 5.267535906394057 18.342780036583758 8.579768124670391 0 0 0
86 1 1 0.5897 7.041583371406993 22.825044709334644 8.656155851072333 0 0 0
100 1 2 -1.1794 5.38482585876729 18.3917837002753 9.528498865557482 0 0 0
414 1 1 0.5897 0.9789405654486137 19.93762245254471 6.194495920802748 0 0 0
404 1 1 0.5897 1.419192420954997 18.565390426688104 9.541658785852594 0 0 0
33 1 1 0.5897 6.515977540003861 22.357854926098685 6.541656450814387 0 0 0
37 1 2 -1.1794 3.0178729001729954 22.505961641654444 9.168842669922325 0 0 0
405 1 1 0.5897 0.5940676270055502 19.831362286182994 9.451950225411322 0 0 0
340 1 2 -1.1794 0.7741582574097394 18.240016600688538 6.6056282123949375 0 0 0
386 1 1 0.5897 5.921177834506529 18.017317858052124 6.47769808735925 0 0 0
101 1 1 0.5897 6.248107057992702 18.008605506770316 9.683708534887584 0 0 0
185 1 1 0.5897 8.461814855022185 17.815708931189274 10.10325730288082 0 0 0
502 1 2 -1.1794 0.9274042398142445 19.143027390853813 14.149420253955295 0 0 0
381 1 1 0.5897 1.770938952215924 22.34794699602716 13.363087878720162 0 0 0
765 1 1 0.5897 5.878905196868441 18.427066902998785 13.625478680547772 0 0 0
504 1 1 0.5897 0.9449603554260824 18.857845295004875 15.06298193476049 0 0 0
738 1 1 0.5897 3.901810302730495 22.74124606318957 13.886414823269684 0 0 0
350 1 1 0.5897 2.5963229419130127 22.692171585363297 15.90936217893062 0 0 0
379 1 2 -1.1794 1.0186450032692373 21.778501777046397 13.202047609000465 0 0 0
474 1 1 0.5897 5.466922962111044 18.841043689715725 15.919373640869859 0 0 0
88 1 2 -1.1794 5.090142438881221 21.54892516209033 13.105880035244049 0 0 0
787 1 2 -1.1794 7.494146240190794 22.800250235100858 13.939062378148126 0 0 0
763 1 2 -1.1794 5.134722097595104 18.934252525477056 13.949669881671598 0 0 0
89 1 1 0.5897 5.006664639274345 21.338065064216803 12.175919829447967 0 0 0
788 1 1 0.5897 7.5236118790562525 22.57484858576303 14.868896019388918 0 0 0
764 1 1 0.5897 4.368149388114604 18.505724521322044 13.569025162912546 0 0 0
789 1 1 0.5897 6.69676046154395 22.381044917000448 13.61562143456117 0 0 0
90 1 1 0.5897 5.145388286597658 20.698158032248724 13.540890294987841 0 0 0
380 1 1 0.5897 1.257836806391154 20.944790151036706 13.606807065823896 0 0 0
503 1 1 0.5897 1.6345223508188653 18.651995095201695 13.731061297018949 0 0 0
736 1 2 -1.1794 3.130480141146489 23.200306148474542 14.218776426408366 0 0 0
567 1 1 0.5897 8.912430145135007 21.93046237123634 13.170354418100292 0 0 0
604 1 2 -1.1794 2.8848348711065532 17.785398293550873 12.781294520240225 0 0 0
96 1 1 0.5897 0.6329539590233966 21.286936212306646 11.278927882412873 0 0 0
268 1 2 -1.1794 7.488209206212179 17.632345225856252 13.265321413670458 0 0 0
605 1 1 0.5897 2.74523365547304 17.75054903104219 11.834958695226693 0 0 0
27 1 1 0.5897 0.896312940511371 20.070566212711572 20.841841421169928 0 0 0
25 1 2 -1.1794 0.6978751482924553 20.970026146373165 20.581679945669137 0 0 0
79 1 2 -1.1794 2.845340987767524 22.641977440805633 21.392114774260268 0 0 0