LAMMPS data file via write_data, version 30 Jul 2021, timestep = 9500000

1920 atoms
2 atom types
1280 bonds
1 bond types
640 angles
1 angle types

-0.10427473934286624 24.83427573934393 xlo xhi
-0.10080104551899183 24.830802045517245 ylo yhi
-0.2054488677012074 23.015448867702624 zlo zhi

Masses

1 1.008
2 15.999

Pair Coeffs # lj/cut/tip4p/long/omp

1 0 0
2 0.21084 3.1668

Bond Coeffs # harmonic/omp

1 450 0.9572

Angle Coeffs # harmonic/omp

1 55 104.52

Atoms # full

1 1 2 -1.1794 4.4918438784655095 1.3238405919057612 4.220269008922349 0 0 0
2 1 1 0.5897 4.610480681615482 2.1253541721641707 4.729761758220752 0 0 0
3 1 1 0.5897 5.122752150605173 1.3989441557084166 3.504451391403344 0 0 0
4 2 2 -1.1794 2.7958753830457663 1.363490731411597 1.9375445205369846 0 0 0
20 7 1 0.5897 3.6676461296813714 2.9178403289176247 0.9952308789932611 0 0 0
6 2 1 0.5897 1.8791587931755047 1.4943599882670555 2.17968529631202 0 0 0
24 8 1 0.5897 1.1449128165003126 5.205509441843936 0.6662327115418395 0 0 0
11 4 1 0.5897 2.8414592144225828 5.326783885835102 3.8502005595216477 0 0 0
10 4 2 -1.1794 3.112029045905277 4.746414052226527 3.138842454887983 0 0 0
28 10 2 -1.1794 1.3892820158172954 0.1162472446710244 4.45191659173155 0 0 0
12 4 1 0.5897 2.3631314383613393 4.731909366639392 2.542996033499468 0 0 0
5 2 1 0.5897 3.271242837070767 1.4027900595294152 2.767330919833452 0 0 0
14 5 1 0.5897 2.1814250302094638 3.2110527899970136 3.989539187392684 0 0 0
15 5 1 0.5897 1.5320421020952038 2.0751636690620283 4.75085292532801 0 0 0
25 9 2 -1.1794 4.693105788895511 6.076005126592493 0.24597094822697585 0 0 0
387 129 1 0.5897 3.465041772782348 0.04597359703707096 1.0470794692452046 0 1 0
27 9 1 0.5897 4.542976457564127 5.13101013186144 0.26936264546968725 0 0 0
19 7 2 -1.1794 4.315741649709618 3.3733525187435562 0.4580412286487384 0 0 0
22 8 2 -1.1794 1.1825027209852543 4.407841274026566 1.1938714950701257 0 0 0
9 3 1 0.5897 4.962059776228466 4.4901830742775815 3.23871234416417 0 0 0
13 5 2 -1.1794 1.5763788805823573 3.030341012412971 4.708803940415022 0 0 0
23 8 1 0.5897 0.40001851289958035 4.446746146222773 1.743695361449019 0 0 0
47 16 1 0.5897 5.968497280985304 0.6310832430610122 1.4739022136443058 0 0 0
21 7 1 0.5897 5.141177379340742 2.927792731706746 0.648474496700393 0 0 0
16 6 2 -1.1794 -0.05875554222041988 1.2063726713292642 1.7717318424608808 0 0 0
7 3 2 -1.1794 5.898532846422662 4.621398483625548 3.0906488355639827 0 0 0
867 289 1 0.5897 4.477489228495902 0.011896595779140318 5.490617308519968 0 1 0
8 3 1 0.5897 6.094662104619107 5.454839864269992 3.5184295748247663 0 0 0
98 33 1 0.5897 -0.012208047477870118 5.450084614910136 3.775131603670907 1 0 0
99 33 1 0.5897 -0.05402872807599267 3.967559726902823 4.078326153892668 1 0 0
504 168 1 0.5897 1.6200932696800014 4.08774309560391 6.226873886685004 0 0 0
481 161 2 -1.1794 4.296309996925418 1.338974541953966 10.000114917267634 0 0 0
482 161 1 0.5897 4.988712126510222 1.532259993315076 9.368206523636104 0 0 0
483 161 1 0.5897 4.381093151907692 2.0218883580890092 10.665334947896834 0 0 0
484 162 2 -1.1794 2.670167340737402 1.6436532727681719 7.716945772050929 0 0 0
485 162 1 0.5897 2.986273243729744 1.543650014552867 8.614793689928407 0 0 0
486 162 1 0.5897 3.163471502985443 0.9948007645720853 7.215217354417829 0 0 0
487 163 2 -1.1794 5.699333447493501 4.7863957777950725 9.088135939338292 0 0 0
488 163 1 0.5897 4.745029878103025 4.846602036584042 9.04564387640281 0 0 0
490 164 2 -1.1794 3.0473573908765874 4.849945900334067 9.317210170589666 0 0 0
491 164 1 0.5897 2.631857936732018 4.775891215996199 8.45817947178403 0 0 0
492 164 1 0.5897 2.682968563340108 4.123930820607631 9.823386203618561 0 0 0
493 165 2 -1.1794 1.5252059326676988 2.999429781265055 10.640967486282426 0 0 0
501 167 1 0.5897 4.312812434217954 4.253315351738453 6.263744826384577 0 0 0
499 167 2 -1.1794 4.572861989356713 3.3347218927681204 6.332059450260417 0 0 0
498 166 1 0.5897 0.9181845669308424 1.5328956674698853 7.765100134753447 0 0 0
494 165 1 0.5897 1.7361525205464787 2.084715251896457 10.82777393239931 0 0 0
527 176 1 0.5897 5.465469255117947 0.8984681953278167 7.2014460042795765 0 0 0
629 210 1 0.5897 1.7598057344709028 5.919165760318414 10.192414709858351 0 0 0
502 168 2 -1.1794 1.7048595844720766 4.777352638816628 6.885149411195582 0 0 0
500 167 1 0.5897 3.8238254030079433 2.903201837529942 6.742963457830452 0 0 0
503 168 1 0.5897 0.8591864951781013 4.786522702557779 7.333327427966075 0 0 0
508 170 2 -1.1794 1.2745955982885553 0.2157738658431787 10.544100219331773 0 0 0
528 176 1 0.5897 5.974955113270262 2.3147086455923755 7.363468707223945 0 0 0
526 176 2 -1.1794 6.122012856812621 1.4182854776329523 7.6649508123397245 0 0 0
496 166 2 -1.1794 -0.029049635868542742 1.6675136832249073 7.737669900211509 0 0 0
489 163 1 0.5897 5.867257974688325 4.022264716866875 9.639483559859503 0 0 0
578 193 1 0.5897 0.061479681054183916 5.329287187582323 9.534488025481265 1 0 0
579 193 1 0.5897 0.24964429153583084 3.84409452089755 9.310070465419054 1 0 0
1110 370 1 0.5897 2.06840283006048 6.035807114046552 16.032384585112773 0 0 0
961 321 2 -1.1794 4.39019438088608 1.4129017212827852 15.781319826984499 0 0 0
962 321 1 0.5897 5.188461760194807 1.418126682975312 15.25326744836645 0 0 0
1008 336 1 0.5897 5.858319282819031 0.8367118312276225 12.974191501116229 0 0 0
964 322 2 -1.1794 2.7173992300493297 1.5239690842148483 13.36216833219181 0 0 0
965 322 1 0.5897 3.1247381960709233 1.2804795269567573 14.193341475152607 0 0 0
966 322 1 0.5897 1.786836946952127 1.6126914059823296 13.567844062329085 0 0 0
987 329 1 0.5897 4.325963477361288 4.972944876841155 12.14468749512429 0 0 0
970 324 2 -1.1794 2.9292510309142465 4.915720141973909 15.071171375582933 0 0 0
971 324 1 0.5897 3.8819554296222605 5.007490181254542 15.079186394379686 0 0 0
972 324 1 0.5897 2.7618886018873092 4.107953163412213 15.55655059153321 0 0 0
979 327 2 -1.1794 4.31682053493482 3.273548201908074 11.955666756304401 0 0 0
975 325 1 0.5897 0.5432006838421451 3.6043138430932644 16.05434795290784 0 0 0
981 327 1 0.5897 5.102973171988901 2.8839376717117653 12.338124172558736 0 0 0
967 323 2 -1.1794 5.748146639120656 4.743018572156949 15.019835202627387 0 0 0
980 327 1 0.5897 3.5919714469486004 2.864407811441612 12.428209776637221 0 0 0
963 321 1 0.5897 4.50663468962244 0.6793613081443995 16.385004072445525 0 0 0
982 328 2 -1.1794 1.186919537961078 4.669243059026662 12.837194106998082 0 0 0
983 328 1 0.5897 1.2119980683950997 5.359864194744834 12.175013073534664 0 0 0
984 328 1 0.5897 1.8835648497537245 4.900394918504211 13.451475037194678 0 0 0
973 325 2 -1.1794 1.17797983276024 3.0725648214264303 16.534340967045527 0 0 0
976 326 2 -1.1794 0.028824694262055556 1.4177964872003195 13.560312668861961 0 0 0
990 330 1 0.5897 1.6692894448180722 1.0383193351275577 16.47743328282416 0 0 0
988 330 2 -1.1794 1.4546892626460786 0.11759534547392222 16.32805260005001 0 0 0
986 329 1 0.5897 4.954923127835618 6.018399279749213 13.040765867658674 0 0 0
1346 449 1 0.5897 3.722983874601795 0.12451989910424668 12.589032418872627 0 1 0
1058 353 1 0.5897 0.025253847105704746 4.523834149384587 14.222665701173705 1 0 0
495 165 1 0.5897 1.371638400755374 3.3907263801959053 11.500825171881557 0 0 0
985 329 2 -1.1794 4.249105650340044 5.890168028371676 12.40715207251758 0 0 0
1454 485 1 0.5897 1.7561381260183397 3.5042090955656557 21.630261735614866 0 0 0
1590 530 1 0.5897 2.1963778139388412 5.864957649818591 21.954163611284713 0 0 0
1441 481 2 -1.1794 4.280673018581752 1.4791460763782864 21.671873363695397 0 0 0
1442 481 1 0.5897 3.5571383302016883 1.3201930459890152 21.065802474032388 0 0 0
1464 488 1 0.5897 0.7965981038028025 4.909864368527364 19.422160290599727 0 0 0
1444 482 2 -1.1794 2.6420751164023266 1.4512807888218695 19.357836904017667 0 0 0
1469 490 1 0.5897 1.1463881266382876 1.079214742418297 22.042795697088422 0 0 0
1446 482 1 0.5897 3.041359544078431 2.2622874163931677 19.04328990007667 0 0 0
1463 488 1 0.5897 1.3209654403007896 5.327485450097704 18.064924995815755 0 0 0
1450 484 2 -1.1794 3.172627223262354 4.7246879506539825 20.83956113017563 0 0 0
1451 484 1 0.5897 4.072517786436826 4.399434157421817 20.816600742923768 0 0 0
1452 484 1 0.5897 2.937842347374072 4.846218950458095 19.919695680844544 0 0 0
1453 485 2 -1.1794 1.1949796609760763 2.8263758361127946 22.00675599196255 0 0 0
1443 481 1 0.5897 3.9583377075590986 2.1658452378301023 22.255505714446763 0 0 0
1459 487 2 -1.1794 4.57457140582943 3.172100806454221 18.13888923242497 0 0 0
1488 496 1 0.5897 5.468825909782109 0.9076760083708535 18.902741691368103 0 0 0
1461 487 1 0.5897 5.134327403264328 2.59060771958345 18.65331248930454 0 0 0
1462 488 2 -1.1794 1.4114293774012476 4.650922080576487 18.735856220377272 0 0 0
1466 489 1 0.5897 4.618411617768564 5.149444115619965 18.0408660425183 0 0 0
1487 496 1 0.5897 5.552739577114082 1.3720898160257788 20.34104724263922 0 0 0
1445 482 1 0.5897 1.6999252921559722 1.6043481719736237 19.28677811838972 0 0 0
1465 489 2 -1.1794 4.495694520320493 6.098666119178799 18.046519627441146 0 0 0
1456 486 2 -1.1794 -0.054319566039495 1.3462728499473917 19.245277266853545 0 0 0
1826 609 1 0.5897 3.8529181632162484 0.10688120394119294 18.430109926072937 0 1 0
1468 490 2 -1.1794 1.0719289991824679 0.12518581138427007 22.062344150926936 0 0 0
1539 513 1 0.5897 0.055120198926412595 5.496314311263558 21.348899694398142 1 0 0
1486 496 2 -1.1794 6.050930292428117 1.3446437557312432 19.52426934812922 0 0 0
1538 513 1 0.5897 -0.004288270680052428 3.9997431663787397 21.129123379891368 1 0 0
1455 485 1 0.5897 0.9435961679021243 3.1714658650082863 22.863363075947817 0 0 0
1447 483 2 -1.1794 6.012037092189553 4.600123098211594 20.863928702028534 0 0 0
386 129 1 0.5897 4.0644829041799015 0.09322599134029283 22.878770566181785 0 1 -1
974 325 1 0.5897 1.2300560304424004 3.4822320161975817 17.397770761782116 0 0 0
1460 487 1 0.5897 4.478373753750016 2.7288450780618563 17.29608256974975 0 0 0
143 48 1 0.5897 1.7207718070710472 11.70176327982644 0.5558955504835806 0 0 0
121 41 2 -1.1794 4.3990398504763295 7.740766159915097 4.2074117100046315 0 0 0
122 41 1 0.5897 3.614967384132245 7.614796429703755 3.673125194741885 0 0 0
123 41 1 0.5897 5.123267748946337 7.706760087159958 3.582569540701559 0 0 0
124 42 2 -1.1794 2.816012673743151 7.770575434986633 1.8898627546066882 0 0 0
136 46 2 -1.1794 0.1455194275312159 7.580062505802569 2.12079365459635 0 0 0
126 42 1 0.5897 3.146649475348235 8.599448947088849 1.5438239210510065 0 0 0
125 42 1 0.5897 3.300595872307127 7.099527761900329 1.4092722360933543 0 0 0
129 43 1 0.5897 5.205151062613563 10.625813734729528 3.623791407280987 0 0 0
130 44 2 -1.1794 3.277990986809032 10.778836072461756 3.5383765500922464 0 0 0
1574 525 1 0.5897 1.7076290160721677 9.723861914442779 -0.06477087544374244 0 0 1
132 44 1 0.5897 2.774573716761327 10.121807360446839 4.018976486233081 0 0 0
133 45 2 -1.1794 1.3365919076485624 9.120484336296029 4.655431065550524 0 0 0
135 45 1 0.5897 0.7147803647413227 9.682453777825383 4.193223668559244 0 0 0
148 50 2 -1.1794 1.6879713549611692 6.380018159549799 4.6956918491725945 0 0 0
137 46 1 0.5897 1.058156854970032 7.766640008417388 1.9007754298594914 0 0 0
139 47 2 -1.1794 4.922787775101707 9.648539879904808 0.5911001292309394 0 0 0
150 50 1 0.5897 1.5947309263469247 7.331958414174069 4.660782728949331 0 0 0
142 48 2 -1.1794 1.7224931995035075 10.978325426407087 1.1825664333307284 0 0 0
131 44 1 0.5897 2.8516877487288967 10.82926708016234 2.6829335716862652 0 0 0
144 48 1 0.5897 1.01937100674103 11.190770052885638 1.7962227211836965 0 0 0
168 56 1 0.5897 5.795372576210234 8.2281641716675 1.4169408173751474 0 0 0
140 47 1 0.5897 4.802077331348794 10.597783858873425 0.5695104302825652 0 0 0
26 9 1 0.5897 5.25732310087627 6.24807675642034 0.9997148102220215 0 0 0
149 50 1 0.5897 1.3969498736924586 6.142518956374442 5.576008304188149 0 0 0
218 73 1 0.5897 0.016913338451167645 11.702546683127476 3.7666857290564106 1 0 0
134 45 1 0.5897 1.449076050954386 9.538401041346738 5.509097984771078 0 0 0
270 90 1 0.5897 2.2731462210318365 12.235491054266243 4.4857858793333305 0 0 0
612 204 1 0.5897 2.760856990280652 11.41148040580819 9.552131514275198 0 0 0
620 207 1 0.5897 5.4998132424479715 9.10589816731715 7.093894325203033 0 0 0
601 201 2 -1.1794 4.519502197393996 7.522458512242477 10.2240585965645 0 0 0
602 201 1 0.5897 4.429083519491528 6.805075853576501 10.851166278376382 0 0 0
603 201 1 0.5897 3.841296014448526 7.355922498204341 9.569542133248797 0 0 0
604 202 2 -1.1794 2.7493079256705375 7.808499911605253 7.956202295431712 0 0 0
605 202 1 0.5897 2.9212840856164024 8.748440837604054 8.011294174177344 0 0 0
606 202 1 0.5897 1.797134914880274 7.742553251162285 7.884495110140646 0 0 0
615 205 1 0.5897 0.5294651058729776 9.304653298662899 10.00474041394937 0 0 0
610 204 2 -1.1794 3.2208382133912536 10.67023114484948 9.158352263263545 0 0 0
611 204 1 0.5897 4.143514067062537 10.924256702285101 9.174664555340199 0 0 0
630 210 1 0.5897 1.247049988694671 7.259070943254332 10.675430441699985 0 0 0
647 216 1 0.5897 5.789780512593389 6.767094003119203 7.791844318265719 0 0 0
507 169 1 0.5897 4.625512903982396 6.64744011481868 5.713140632360778 0 0 0
614 205 1 0.5897 2.032161628983859 9.486480157251075 10.026888218650068 0 0 0
624 208 1 0.5897 1.5530538025066476 11.420144197888455 6.438062589715919 0 0 0
626 209 1 0.5897 4.6591570131811055 11.35674460572137 6.307746907705807 0 0 0
613 205 2 -1.1794 1.3028760829877915 9.148577382949082 10.546570135258072 0 0 0
622 208 2 -1.1794 1.59751640518978 10.659467949190326 7.017265989250063 0 0 0
623 208 1 0.5897 2.3735171850100327 10.813175135448901 7.556092969109867 0 0 0
625 209 2 -1.1794 4.482887960360216 12.297403819754894 6.32184115787994 0 0 0
699 233 1 0.5897 0.3133433562542589 10.638677136649992 8.263029093657684 1 0 0
607 203 2 -1.1794 5.974482934244418 10.862525245207179 9.15836925595997 0 0 0
619 207 2 -1.1794 4.859279855716056 9.58426710347952 6.567595007920813 0 0 0
616 206 2 -1.1794 0.15746663079166684 7.6920145374766316 7.531875160785325 0 0 0
648 216 1 0.5897 6.059488012834989 7.607778048662449 9.02146871308103 0 0 0
628 210 2 -1.1794 1.0279000823338689 6.327598566377514 10.654602816630208 0 0 0
505 169 2 -1.1794 4.402402248908239 6.282487069237187 6.569344838378447 0 0 0
506 169 1 0.5897 3.607069685899048 6.74761836375238 6.828606090386799 0 0 0
750 250 1 0.5897 1.76214663211512 12.10440197749726 11.265091032104058 0 0 0
621 207 1 0.5897 4.627859467584068 8.979276445208244 5.86296756956853 0 0 0
698 233 1 0.5897 0.4313249288354386 11.205626867706751 9.661632985822001 1 0 0
1101 367 1 0.5897 4.422797604369523 8.948033812178327 11.315883055304546 0 0 0
1085 362 1 0.5897 3.1189196117111244 6.93378449875312 13.34487459200389 0 0 0
1083 361 1 0.5897 4.736464379699549 6.974956048398256 16.666702533901837 0 0 0
1081 361 2 -1.1794 4.590570303716497 7.657643218666261 16.011931688740724 0 0 0
1082 361 1 0.5897 4.450921047366874 8.454629884197285 16.52320115032725 0 0 0
1095 365 1 0.5897 0.8738934521035806 9.757413887835057 15.99780005034463 0 0 0
1084 362 2 -1.1794 2.7858747208942822 7.654382314397978 13.8795746210502 0 0 0
1126 376 2 -1.1794 6.0719947877071645 7.845471477056277 13.655307204911045 0 0 0
1086 362 1 0.5897 3.3504187901677795 7.660512530712484 14.652440345236531 0 0 0
1097 366 1 0.5897 0.9945102744942231 7.75949941629708 13.762505808823377 0 0 0
1089 363 1 0.5897 5.161992071723564 10.934227090138545 15.428600397454622 0 0 0
1090 364 2 -1.1794 3.307981734444885 11.15029137767176 15.320695039862132 0 0 0
1091 364 1 0.5897 2.780111111463515 11.904875812039274 15.58157463224312 0 0 0
1092 364 1 0.5897 2.847566715070561 10.3964225773856 15.689210440641236 0 0 0
1179 393 1 0.5897 0.40628786013850016 11.110608640991867 14.053596552284182 1 0 0
1094 365 1 0.5897 1.4415960506684642 8.454490098477908 16.51900385462569 0 0 0
1100 367 1 0.5897 3.7263611559880747 8.878528893345578 12.658131767306909 0 0 0
1107 369 1 0.5897 4.898066078154108 11.21912187427343 12.041898939823863 0 0 0
1093 365 2 -1.1794 1.5439021001361992 9.403992989217466 16.582838750297427 0 0 0
1099 367 2 -1.1794 4.367547890323137 9.38887025427466 12.163628004427165 0 0 0
1103 368 1 0.5897 1.4241595141023338 10.097708258645724 12.116367205310777 0 0 0
1102 368 2 -1.1794 1.5843778898046108 10.86589588584047 12.6643612104214 0 0 0
1087 363 2 -1.1794 6.089988026248227 10.893117530099731 15.197825284903933 0 0 0
1104 368 1 0.5897 2.527857773548605 10.853459811536808 12.825077564137898 0 0 0
1096 366 2 -1.1794 0.09632062259930774 7.788207598603551 13.433044691991206 0 0 0
1105 369 2 -1.1794 4.897939451527216 12.168810896186901 12.161017827929712 0 0 0
1128 376 1 0.5897 5.609622879863625 8.563039875540879 13.222404865720092 0 0 0
1109 370 1 0.5897 0.5767130463075778 6.246573630920998 16.18091849196844 0 0 0
1108 370 2 -1.1794 1.4214694257251412 6.564252178244139 16.49963455295499 0 0 0
1178 393 1 0.5897 0.3318073848474926 11.672728946814331 15.457134189133257 1 0 0
1127 376 1 0.5897 5.644606230832477 7.764365350510917 14.507846672223348 0 0 0
1177 393 2 -1.1794 -0.06895447573948843 11.023029914599316 14.879754665746272 1 0 0
1587 529 1 0.5897 4.5805579229429805 11.375627256226048 17.959100249322628 0 0 0
1710 570 1 0.5897 2.184809177867548 12.082017893085387 21.749827300854175 0 0 0
1580 527 1 0.5897 3.7709563651547366 9.502540065300632 18.48641756882768 0 0 0
1561 521 2 -1.1794 4.735283639216185 8.010477361430228 21.510538053775374 0 0 0
1562 521 1 0.5897 4.589674850636565 7.249317657631641 22.072243375238983 0 0 0
1563 521 1 0.5897 4.020073028338757 7.980167905600089 20.875208624535148 0 0 0
1564 522 2 -1.1794 2.9900467358550533 7.682683136782466 19.455396396648975 0 0 0
1565 522 1 0.5897 2.044477649197642 7.538798853783866 19.491738959691947 0 0 0
1566 522 1 0.5897 3.3217754075338073 6.963328260139863 18.91820527073153 0 0 0
1584 528 1 0.5897 1.450099414039777 10.379619975404266 18.029543520964182 0 0 0
1570 524 2 -1.1794 3.335511803597206 10.784702674767983 20.94749479977505 0 0 0
1571 524 1 0.5897 3.075452238986604 10.918580447075001 20.036178450605014 0 0 0
1572 524 1 0.5897 4.291243628148028 10.740402255719063 20.920298931476292 0 0 0
1589 530 1 0.5897 1.6996009931850782 7.219431896227922 22.41263738719397 0 0 0
1575 525 1 0.5897 2.287240220377373 9.463782847450556 21.782133301992243 0 0 0
1579 527 2 -1.1794 4.562149799893009 9.56641178036185 17.951585565637924 0 0 0
141 47 1 0.5897 4.9367486213072205 9.387409114501802 22.891311398221234 0 0 -1
1573 525 2 -1.1794 1.5708340973043944 9.206711619035005 22.362456574956617 0 0 0
1576 526 2 -1.1794 0.26395111442181085 7.478439863794303 19.54516757457412 0 0 0
1582 528 2 -1.1794 1.6422672262033768 11.06035848782822 18.6743243326114 0 0 0
1583 528 1 0.5897 0.972600334078739 10.947864438208454 19.348846194658105 0 0 0
1608 536 1 0.5897 5.803860761253836 7.779816262688312 20.160741263361615 0 0 0
1581 527 1 0.5897 5.200094785165188 9.010984257162802 18.399500582756136 0 0 0
1658 553 1 0.5897 0.1897486176654275 10.024966202000218 21.3934942113458 1 0 0
1577 526 1 0.5897 -0.046687885602103095 8.20990840142158 19.011745449531947 0 0 0
1709 570 1 0.5897 0.693967666899466 12.230189068736658 21.966803153503243 0 0 0
1467 489 1 0.5897 5.204240410573265 6.428956493041496 18.598761422527822 0 0 0
1588 530 2 -1.1794 1.4567486268530803 6.294058572221333 22.38421530085585 0 0 0
1585 529 2 -1.1794 4.400772553766518 12.306411760240717 18.09106926179493 0 0 0
269 90 1 0.5897 1.7225772316672894 13.58353978321388 4.899541991001635 0 0 0
264 88 1 0.5897 1.3359836858345968 17.841380869495616 0.840738782317459 0 0 0
241 81 2 -1.1794 4.763650216508155 13.866600963252301 4.142273115213353 0 0 0
242 81 1 0.5897 4.5475956902510015 13.255083421116794 4.846143864379392 0 0 0
243 81 1 0.5897 4.023041986919958 13.80909540906166 3.538714105197195 0 0 0
244 82 2 -1.1794 3.0719301435851514 14.032941494956306 2.034523949498305 0 0 0
245 82 1 0.5897 2.132562944944359 14.178468959671257 1.922562664049114 0 0 0
246 82 1 0.5897 3.483467547528762 14.78881377371901 1.6157333711521775 0 0 0
268 90 2 -1.1794 1.5131832492900608 12.6496060402728 4.8945309126323275 0 0 0
250 84 2 -1.1794 3.453103420617461 17.31012434831058 3.5689800648309773 0 0 0
251 84 1 0.5897 3.029567630223286 17.080443752586973 2.741981562917528 0 0 0
252 84 1 0.5897 4.38972608374523 17.22745598304776 3.390015185753638 0 0 0
253 85 2 -1.1794 1.6286469845789708 15.375562971587218 4.481662472573162 0 0 0
147 49 1 0.5897 3.9438960703837482 12.913169929258387 0.9900752493543794 0 0 0
254 85 1 0.5897 0.867510448336754 15.85228362922867 4.150731034543869 0 0 0
288 96 1 0.5897 6.10020946374572 14.630791738020283 1.651694901518885 0 0 0
259 87 2 -1.1794 4.795053369777918 15.842229340659218 0.652954543308201 0 0 0
339 113 1 0.5897 0.33720721660599423 17.930356549867334 3.7825357957406274 1 0 0
262 88 2 -1.1794 1.6853767495122027 17.029855058404454 1.2087645645221805 0 0 0
263 88 1 0.5897 1.763385082709036 16.440299868553172 0.45883050205587406 0 0 0
255 85 1 0.5897 2.3805374635474528 15.833284596570554 4.105818308850575 0 0 0
260 87 1 0.5897 4.825413561044021 16.79886789956054 0.6573750498644008 0 0 0
146 49 1 0.5897 5.415581632345455 12.745505560238838 0.6775290496260342 0 0 0
256 86 2 -1.1794 0.2783258065362737 14.065450837942732 1.8590014684795646 0 0 0
338 113 1 0.5897 0.3980101292316005 17.117443920355274 2.5070231956810853 1 0 0
145 49 2 -1.1794 4.548188211588314 12.42391453213523 0.43190131737347304 0 0 0
740 247 1 0.5897 5.060511255670753 15.452715946202987 5.389651238863858 0 0 0
736 246 2 -1.1794 0.3623658394839582 13.970884468561458 7.454143700867358 0 0 0
721 241 2 -1.1794 4.763405038367299 13.82139384798393 10.013063220660388 0 0 0
722 241 1 0.5897 4.068128592759821 14.13261038761008 9.433555266393745 0 0 0
1106 369 1 0.5897 4.885502567056268 12.522218555539919 11.271638052340336 0 0 0
724 242 2 -1.1794 3.1619835712821978 14.21923346972639 7.6753951049875235 0 0 0
725 242 1 0.5897 3.708843507618603 14.974414886370539 7.459157865241501 0 0 0
726 242 1 0.5897 3.5979617614188304 13.478706605322259 7.253925401044207 0 0 0
749 250 1 0.5897 1.6225939517671473 13.465206779632654 10.616799459103532 0 0 0
728 243 1 0.5897 5.450911291645938 17.196715666898406 9.080479543403602 0 0 0
730 244 2 -1.1794 3.2366526732188414 17.086332770484375 9.143119793511044 0 0 0
818 273 1 0.5897 0.11642269187699195 16.832974306158818 8.062698688844366 1 0 0
732 244 1 0.5897 2.7969967427684597 16.443187254911283 9.699133392291973 0 0 0
733 245 2 -1.1794 1.6143307216539762 15.304331131965172 10.501079563863238 0 0 0
738 246 1 0.5897 0.18370149367003713 13.63945382371782 8.3340795936402 0 0 0
723 241 1 0.5897 5.502874680911941 13.649790649015484 9.430114343906745 0 0 0
737 246 1 0.5897 1.2957271013710168 14.182790708923813 7.462443148627183 0 0 0
741 247 1 0.5897 4.776305674998767 16.633259009431427 6.293580124543151 0 0 0
731 244 1 0.5897 2.755246357085093 17.057759552085127 8.31638261298166 0 0 0
742 248 2 -1.1794 1.598103222650825 17.172785867644087 6.761025751664078 0 0 0
739 247 2 -1.1794 4.978584370643405 15.697907903019745 6.311186824976343 0 0 0
744 248 1 0.5897 1.6863272347357443 16.4476233824988 6.142616585740629 0 0 0
743 248 1 0.5897 1.5596868632290106 17.954590584546985 6.210223232862447 0 0 0
735 245 1 0.5897 0.9916105625889009 15.67021489120766 9.873032874700636 0 0 0
869 290 1 0.5897 0.5139204969252268 18.1978316009793 10.11205093898647 0 0 0
870 290 1 0.5897 2.026118360247913 18.263165793339322 10.136815658195268 0 0 0
748 250 2 -1.1794 1.6433842830702732 12.52962861141079 10.415894096420272 0 0 0
627 209 1 0.5897 5.164699236332697 12.66087495927201 6.886742611994872 0 0 0
745 249 2 -1.1794 4.590215773641289 18.338030086820222 6.310949748206366 0 0 0
1221 407 1 0.5897 4.630411616535035 15.284862469723185 11.279032599557693 0 0 0
768 256 1 0.5897 6.0415550169424215 14.414325031724644 7.400808234718289 0 0 0
734 245 1 0.5897 1.3876568584914875 15.719304812980061 11.333229865772926 0 0 0
1213 405 2 -1.1794 1.651968062032197 15.247322855223835 16.510920584870366 0 0 0
1201 401 2 -1.1794 4.576693512980489 14.087075857812204 15.670430613345923 0 0 0
1219 407 2 -1.1794 4.528790780971492 15.80417373162237 12.076568874219435 0 0 0
1220 407 1 0.5897 3.8402584024122737 15.356616839715798 12.568223272235285 0 0 0
1204 402 2 -1.1794 2.905447416285336 13.995952587041847 13.27672738239105 0 0 0
1205 402 1 0.5897 3.3047883045847826 14.333235189052996 14.078496524958473 0 0 0
1206 402 1 0.5897 3.568910837050119 13.415374696143477 12.904082320959787 0 0 0
1215 405 1 0.5897 2.3773841453434748 15.768014883547353 16.166305363625668 0 0 0
1210 404 2 -1.1794 3.1862019702470428 17.09138846250363 14.866380891530296 0 0 0
1211 404 1 0.5897 2.8608974027318297 17.76497719574833 15.46348920569031 0 0 0
1212 404 1 0.5897 4.13720085912604 17.11623310563201 14.97177475204235 0 0 0
1207 403 2 -1.1794 5.95417595174022 17.11601787043496 15.028622437513643 0 0 0
1214 405 1 0.5897 0.8675476533320913 15.659705526036023 16.149352074905543 0 0 0
1228 410 2 -1.1794 1.2116427731152257 12.69179755995732 16.447367087062066 0 0 0
1202 401 1 0.5897 5.394431014978674 14.012980783748553 15.178570308763772 0 0 0
1218 406 1 0.5897 1.049378346642061 13.897918595501034 13.478607089968772 0 0 0
1203 401 1 0.5897 4.514553759127138 13.265675155829326 16.157799965762827 0 0 0
1298 433 1 0.5897 0.10160700283765844 16.872214516239627 14.244088597042555 1 0 0
1222 408 2 -1.1794 1.5272152497220073 17.174537993919273 12.792398207497257 0 0 0
1223 408 1 0.5897 1.6982158814382993 17.97151922979167 12.290739044362637 0 0 0
1224 408 1 0.5897 2.154302422365749 17.206526496802493 13.51476870299594 0 0 0
1229 410 1 0.5897 1.4009929867791027 13.630011556882737 16.446515216676488 0 0 0
1227 409 1 0.5897 4.396394170677282 17.643083312656795 12.053117932949604 0 0 0
1216 406 2 -1.1794 0.12648429351843202 14.139766023024274 13.555463245798846 0 0 0
1217 406 1 0.5897 0.021735957587935673 14.879772334815216 12.957544478384692 0 0 0
1248 416 1 0.5897 6.06327004264295 13.494752118943323 12.797707671556802 0 0 0
1350 450 1 0.5897 0.9785219054580636 18.426229185705843 15.793384287528477 0 0 0
1247 416 1 0.5897 5.601781679643032 14.916757582473835 13.035386913951564 0 0 0
1700 567 1 0.5897 4.979229837938205 15.278133683022553 17.049210514326194 0 0 0
1697 566 1 0.5897 1.1393582145722723 13.950163386721073 19.32764105141614 0 0 0
1707 569 1 0.5897 4.646942960430025 17.31093608679866 17.804657698816513 0 0 0
1681 561 2 -1.1794 4.437145501677376 13.999469320063108 21.53845986956918 0 0 0
1779 593 1 0.5897 0.1397679412480349 17.811897540358533 21.41006712730857 1 0 0
1683 561 1 0.5897 4.408420934392254 13.297657943332764 22.188620079010548 0 0 0
1684 562 2 -1.1794 2.950496311167714 14.39648687788181 19.220166281247256 0 0 0
261 87 1 0.5897 4.781536701922693 15.606851086561592 22.946242780959867 0 0 -1
1686 562 1 0.5897 3.1534040634369718 14.369877787271472 20.155136043673608 0 0 0
1695 565 1 0.5897 1.7059615382807767 14.332639493002755 22.07284616800147 0 0 0
1689 563 1 0.5897 5.190679795828408 17.269505851629873 20.644849038886438 0 0 0
1690 564 2 -1.1794 2.9384416265006306 17.21138672152822 20.791090041577043 0 0 0
1691 564 1 0.5897 2.620853394877126 16.487445792343422 21.330653956177922 0 0 0
1692 564 1 0.5897 2.340939284376983 17.233700693467632 20.04371612344339 0 0 0
1699 567 2 -1.1794 5.047592008981648 15.49697107502222 17.978447652724327 0 0 0
1685 562 1 0.5897 3.252390480101608 13.552325214216566 18.88498911837171 0 0 0
1682 561 1 0.5897 5.2457223437462845 13.842105504715244 21.05107244599941 0 0 0
1693 565 2 -1.1794 1.631086153259239 15.274774169411526 22.224126853080936 0 0 0
1694 565 1 0.5897 0.7823151751555559 15.511161083228345 21.850200414513854 0 0 0
1708 570 2 -1.1794 1.5292250438677502 12.670196481563279 22.124475195014067 0 0 0
1701 567 1 0.5897 4.2851201001664405 15.080268609273523 18.379823272332427 0 0 0
1702 568 2 -1.1794 1.294250092166789 17.17796624384004 18.582536360583383 0 0 0
1703 568 1 0.5897 1.5108245268864993 16.332160403365926 18.190362080175305 0 0 0
1704 568 1 0.5897 1.385361064993906 17.805343161608352 17.86548226491988 0 0 0
1586 529 1 0.5897 5.226780551168978 12.667039588165627 18.41320316109716 0 0 0
1230 410 1 0.5897 1.3497423749837185 12.419944622936267 17.35459994222392 0 0 0
1696 566 2 -1.1794 0.1884923145008598 13.873650620074722 19.405885809685653 0 0 0
1705 569 2 -1.1794 4.624328732097938 18.24781531920225 17.99918838522183 0 0 0
1778 593 1 0.5897 0.17429712464602465 17.15846664720585 20.0450403993361 1 0 0
1830 610 1 0.5897 1.9541045265999495 18.56132034833543 22.075200805369377 0 0 0
459 153 1 0.5897 0.18825971233613314 23.47463746450149 2.300956073918652 1 0 0
363 121 1 0.5897 5.078669151194765 21.106023481193052 4.802964241614708 0 0 0
361 121 2 -1.1794 4.969837822727826 20.304842761535486 4.290759920671577 0 0 0
362 121 1 0.5897 4.105524288725192 20.392427273260346 3.8890077706099175 0 0 0
384 128 1 0.5897 1.3662446940123094 22.503318264574624 0.46572831127678493 0 0 0
364 122 2 -1.1794 2.9340264553969932 19.93331736191558 2.001370543237986 0 0 0
365 122 1 0.5897 3.1973420401251578 20.73259180962746 1.545393583747798 0 0 0
376 126 2 -1.1794 0.029560052244658908 20.113529481849483 1.5722310995770419 0 0 0
366 122 1 0.5897 2.04648620081377 19.75956205231733 1.6880087941414048 0 0 0
370 124 2 -1.1794 3.4159694303183454 23.224834828594823 3.1646382949632446 0 0 0
371 124 1 0.5897 4.365778343464165 23.118269179825464 3.1133403815658243 0 0 0
372 124 1 0.5897 3.1413103931430713 22.606364201565643 3.8414921213233777 0 0 0
267 89 1 0.5897 4.188225558899045 19.034154323467355 0.9475675598815267 0 0 0
380 127 1 0.5897 4.574223646665217 22.815030750439096 0.6729158275033861 0 0 0
379 127 2 -1.1794 4.519707720814001 21.861631111661385 0.7373745032596398 0 0 0
390 130 1 0.5897 1.2708836453109724 19.99472427692574 4.650994229414595 0 0 0