LAMMPS data file via write_data, version 30 Jul 2021, timestep = 20500000

972 atoms
2 atom types
648 bonds
1 bond types
324 angles
1 angle types

-0.011008069435680667 20.01100906943648 xlo xhi
0.08496053649378865 19.915040463514188 ylo yhi
0.054081765238306545 20.64591623475669 zlo zhi

Masses

1 1.008
2 15.999

Pair Coeffs # lj/cut/tip4p/long/omp

1 0 0
2 0.21084 3.1668

Bond Coeffs # harmonic/omp

1 450 0.9572

Angle Coeffs # harmonic/omp

1 55 104.52

Atoms # full

33 11 1 0.5897 1.5609387339141139 2.3239087679758623 1.1594822369618585 0 0 0
11 4 1 0.5897 1.210635501176854 3.6334545088484482 3.116929278731526 0 0 0
10 4 2 -1.1794 1.417442066787169 4.312172045505283 3.759479655083929 0 0 0
14 5 1 0.5897 3.521314914901865 5.1947524082422065 0.7673057640218272 0 0 0
114 38 1 0.5897 4.578952836396965 7.873617033887802 3.8579540456640142 0 0 0
31 11 2 -1.1794 0.9087495089408101 2.5275847788943313 1.8299295331598353 0 0 0
16 6 2 -1.1794 4.034831688001876 3.926611087504254 3.721174109851501 0 0 0
18 6 1 0.5897 4.131420592246654 2.984071385937892 3.5852432358825395 0 0 0
32 11 1 0.5897 0.0961692114274051 2.660371812546597 1.3416908824831946 0 0 0
19 7 2 -1.1794 0.868912548151545 6.216734520069415 1.8868952696529833 0 0 0
12 4 1 0.5897 2.3342594239521284 4.156550997650977 3.986378748134255 0 0 0
15 5 1 0.5897 4.101144321838934 6.382288358487242 1.5058725725115365 0 0 0
139 47 2 -1.1794 0.706869539757418 8.955309289812119 2.3645058270901966 0 0 0
20 7 1 0.5897 0.9915294378123038 5.556442065478885 2.5690138401403235 0 0 0
140 47 1 0.5897 1.0245614469462687 9.478321012156732 3.1006230148053513 0 0 0
674 225 1 0.5897 1.497490613578041 5.62644060397759 0.3556699476428829 0 0 1
130 44 2 -1.1794 1.6052285020177857 7.482130351973332 4.809563891091695 0 0 0
24 8 1 0.5897 2.3404066202002065 0.9644758494254344 3.8451729652491378 0 0 0
6 2 1 0.5897 4.670731129069689 0.8110182510736512 4.030106890701449 0 0 0
22 8 2 -1.1794 1.8104375799572283 1.081665386588734 4.633688110950162 0 0 0
113 38 1 0.5897 3.066014367468656 7.819069924537514 3.851370499005196 0 0 0
126 42 1 0.5897 3.9221997747628254 9.895311829228671 3.527613199332085 0 0 0
112 38 2 -1.1794 3.8150850864973025 8.114542575154234 3.333777906824091 0 0 0
141 47 1 0.5897 0.9810007864674153 8.06139212138725 2.5693365898601823 0 0 0
111 37 1 0.5897 2.015244873355104 9.151485483682377 0.6908016088009638 0 0 0
4 2 2 -1.1794 4.265907031403214 0.9690309137842333 3.177193989613489 0 0 0
17 6 1 0.5897 4.145909949481666 4.307314475451833 2.8499028090412644 0 0 0
5 2 1 0.5897 4.536587056014873 0.22362126561100615 2.641142840451639 0 0 0
102 34 1 0.5897 0.1399132925142803 0.8987829753091511 5.05459042083785 1 0 0
132 44 1 0.5897 0.680685045932138 7.423661877734403 5.050561756417593 0 0 0
236 79 1 0.5897 0.8701446611958318 0.6950985709110946 1.9944896688477924 0 1 0
81 27 1 0.5897 0.28857630325822037 4.14122724537894 5.144386280819761 1 0 0
13 5 2 -1.1794 4.140779852159734 5.427090963484085 1.4591408107250603 0 0 0
142 48 2 -1.1794 4.911016867488066 8.167847728562394 0.18861019374145951 0 0 0
325 109 2 -1.1794 2.6640309311740777 3.1966372365769558 6.770697507080704 0 0 0
326 109 1 0.5897 2.440838875611166 2.5366769781235456 6.114236888203982 0 0 0
327 109 1 0.5897 3.491825884485125 2.8936747807720526 7.143868521105211 0 0 0
356 119 1 0.5897 1.334690345553547 2.950853353581508 8.587252149513919 0 0 0
355 119 2 -1.1794 0.7859592838696282 2.361509028746446 9.104790454588104 0 0 0
339 113 1 0.5897 4.31850890365706 5.7690900549298005 7.760511108610793 0 0 0
437 146 1 0.5897 3.89238322436231 7.583427012816958 9.296229720456212 0 0 0
26 9 1 0.5897 2.0716062892450147 6.1043419750302785 7.5067979391174 0 0 0
560 187 1 0.5897 1.1520830403755231 0.37695085105530135 8.84860818084734 0 1 0
27 9 1 0.5897 2.6127370605004323 4.950872109454505 6.689084915435929 0 0 0
344 115 1 0.5897 0.6000600960755357 5.930537953016452 9.721840104615897 0 0 0
25 9 2 -1.1794 2.6852762024617363 5.898650832050912 6.801501535127741 0 0 0
337 113 2 -1.1794 4.728684319951422 5.973831899779084 8.600851463959213 0 0 0
335 112 1 0.5897 0.8847060096300596 3.662059951145562 10.338805283896768 0 0 0
463 155 2 -1.1794 0.2491184857166331 8.946713814094565 9.132089958353038 0 0 0
131 44 1 0.5897 2.040026660724701 6.837676995197152 5.368057016412676 0 0 0
435 145 1 0.5897 1.7546942545171975 8.83490678722989 6.336419833757826 0 0 0
433 145 2 -1.1794 2.135618064815113 9.239479316725289 7.1158928551983855 0 0 0
436 146 2 -1.1794 3.495484242830788 8.012940982455385 10.054083294651706 0 0 0
464 155 1 0.5897 0.7618926588654467 9.212046643679201 8.3685381514985 0 0 0
345 115 1 0.5897 0.5327512109818661 7.320948551044637 9.126783023042158 0 0 0
468 156 1 0.5897 3.982343279830633 9.017860586849377 7.515665956606131 0 0 0
343 115 2 -1.1794 0.55057645076156 6.394691827913938 8.886092176226986 0 0 0
342 114 1 0.5897 4.195547770479729 4.567030428387118 9.938756982099292 0 0 0
466 156 2 -1.1794 4.934984092578926 8.937524015423572 7.563624567337936 0 0 0
438 146 1 0.5897 3.654528971668073 8.94600089770969 9.911617183228014 0 0 0
328 110 2 -1.1794 3.861876617351566 1.3335105055602459 10.250440646751253 0 0 0
357 119 1 0.5897 -0.004918703735590668 2.245673241328702 8.578116163897995 0 0 0
341 114 1 0.5897 3.9160451690559923 3.1186717053387536 10.279264085888654 0 0 0
23 8 1 0.5897 2.164538314031172 0.44766472386385525 5.2573468776636 0 0 0
649 217 2 -1.1794 2.839129901850644 2.6686649383659002 13.980974553741305 0 0 0
650 217 1 0.5897 2.5607080870713035 2.231006391773495 13.176437174389958 0 0 0
757 253 2 -1.1794 2.061219486161382 9.639151395825262 14.037095753757319 0 0 0
651 217 1 0.5897 2.2384866512540413 2.3432318351464247 14.651524608477269 0 0 0
351 117 1 0.5897 2.23308137510928 4.3319622617275755 13.672524207000642 0 0 0
336 112 1 0.5897 2.1072673963974773 4.3899412040654076 10.85603442272998 0 0 0
334 112 2 -1.1794 1.1527177386139584 4.448179237817862 10.814652402063665 0 0 0
792 264 1 0.5897 3.7662009852282434 9.122736755343077 14.040840909360703 0 0 0
347 116 1 0.5897 1.0199771477867956 1.0854247886721191 12.049205169833284 0 0 0
349 117 2 -1.1794 2.2043410362692715 5.269968878760387 13.484163363786081 0 0 0
683 228 1 0.5897 4.682038707776581 2.540338110457801 14.259360063979639 0 0 0
668 223 1 0.5897 0.9680708766050439 5.583489150574492 14.894482410870816 0 0 0
661 221 2 -1.1794 4.327024871288935 5.696688172382771 15.317642353239497 0 0 0
758 253 1 0.5897 1.8363551717894115 9.206635729778325 13.213249748211702 0 0 0
454 152 2 -1.1794 1.6771227353799676 7.81271851573098 12.112145405584869 0 0 0
350 117 1 0.5897 3.0771255331907215 5.587979347403285 13.715213693816683 0 0 0
455 152 1 0.5897 2.317345082814454 7.874452600484941 11.403170159077565 0 0 0
456 152 1 0.5897 1.9873739232446204 7.08659806219565 12.65321311525578 0 0 0
346 116 2 -1.1794 1.9354148029785452 0.8583608731707867 11.885882894048166 0 0 0
330 110 1 0.5897 4.5373630597474195 1.3463779024416236 10.92859757787092 0 0 0
789 263 1 0.5897 1.1029104571729482 9.001009924825537 15.332113924063478 0 0 0
348 116 1 0.5897 2.124195478623574 0.1583013034377636 12.510772166041043 0 0 0
405 135 1 0.5897 0.07743906294245811 4.621399568296329 12.202964704312238 1 0 0
329 110 1 0.5897 3.060032676957142 1.093655422047068 10.715007213429098 0 0 0
340 114 2 -1.1794 4.017330349280365 3.983651786495311 10.676478192380042 0 0 0
790 264 2 -1.1794 4.704992808119923 9.030630452792774 13.878162508151085 0 0 0
671 224 1 0.5897 2.5579784001843624 1.3202884544771152 19.244827615669855 0 0 0
653 218 1 0.5897 3.6629609989979595 1.3100215709490137 17.379958137744232 0 0 0
658 220 2 -1.1794 1.2860863859416896 4.023511357810411 17.660171586331607 0 0 0
665 222 1 0.5897 3.1825353449005296 4.383709271881476 17.800278092466186 0 0 0
659 220 1 0.5897 0.597456201692596 4.07545530475277 18.32306990035223 0 0 0
652 218 2 -1.1794 4.4090208727920555 1.6007477936667769 16.855419441027593 0 0 0
664 222 2 -1.1794 4.074091139742105 4.178637263347056 17.51876559823748 0 0 0
787 263 2 -1.1794 0.6255390847940692 8.524978320345275 16.01169303649661 0 0 0
666 222 1 0.5897 4.001427474285094 3.322907860516226 17.096089171624314 0 0 0
788 263 1 0.5897 0.772723588251356 9.033314613237078 16.809368057207656 0 0 0
760 254 2 -1.1794 3.903374697868686 7.89290466316292 16.524644231600526 0 0 0
681 227 1 0.5897 0.9923475290922537 2.683833814600663 16.648923740312654 0 0 0
1 1 2 -1.1794 2.697587294004829 2.562783273857556 20.359721831189667 0 0 -1
673 225 2 -1.1794 2.0759118683823967 5.2282691041408675 20.29703900086806 0 0 0
885 295 1 0.5897 0.6527540299742006 0.14682290017228894 16.076235041704514 0 1 0
660 220 1 0.5897 1.00196758142959 4.624353642765385 16.97128115576509 0 0 0
654 218 1 0.5897 4.60782205485654 0.8563264923264408 16.28745238602869 0 0 0
761 254 1 0.5897 4.032052901924192 8.829701294787451 16.67312668284177 0 0 0
675 225 1 0.5897 2.1428486469257693 5.883302126941384 19.602238136629538 0 0 0
779 260 1 0.5897 2.7673574658049027 7.511938222211453 17.85325380999808 0 0 0
780 260 1 0.5897 2.2487225863235736 8.097012240607116 19.149770057067897 0 0 0
762 254 1 0.5897 4.639264711419556 7.475652429330833 16.972592701998188 0 0 0
778 260 2 -1.1794 2.119175153039731 7.368222741320207 18.542860392257516 0 0 0
858 286 1 0.5897 0.26081475625060585 7.285712127061807 18.556327875800356 1 0 0
679 227 2 -1.1794 0.7453164247272598 1.9152460589699796 16.134634205846353 0 0 0
109 37 2 -1.1794 2.4698029050757784 9.19881764406592 20.441487343230058 0 0 -1
2 1 1 0.5897 2.34679594675332 3.433859981577804 20.174347996957742 0 0 -1
3 1 1 0.5897 3.6247015184220936 2.71191172754092 20.54534771864399 0 0 -1
662 221 1 0.5897 4.1147946912561375 5.196354322452332 16.105642985751444 0 0 0
669 223 1 0.5897 0.697134264351883 6.757220754415619 15.811466277180328 0 0 0
672 224 1 0.5897 1.5405051803506964 0.6469344750958524 18.348488274034374 0 0 0
670 224 2 -1.1794 2.482874214895833 0.7325428862894973 18.492995032708407 0 0 0
663 221 1 0.5897 4.011636794335568 6.581165340766483 15.502772097901005 0 0 0
667 223 2 -1.1794 0.6133279895820709 5.805390969817326 15.75546274155813 0 0 0
110 37 1 0.5897 3.3099096364300826 8.76761296104659 20.598135261488984 0 0 -1
120 40 1 0.5897 1.1500247546928581 11.872911248316301 3.138614972664702 0 0 0
125 42 1 0.5897 4.497907227762168 10.983561308753444 4.408667255624607 0 0 0
240 80 1 0.5897 2.3627260224476903 13.946548781301 4.584761413648406 0 0 0
122 41 1 0.5897 4.062840776527034 12.33600344190773 1.0299354440152537 0 0 0
234 78 1 0.5897 4.479763084893638 17.370511613954747 3.348167306227742 0 0 0
129 43 1 0.5897 0.6304159848603423 13.787482138315736 1.7614534910703057 0 0 0
118 40 2 -1.1794 1.3134305480695536 11.265310044514498 3.860035353200539 0 0 0
235 79 2 -1.1794 0.8432382309087922 19.58090184919212 1.8401892109476048 0 0 0
124 42 2 -1.1794 3.9581499579306425 10.846301197367636 3.630102797361272 0 0 0
127 43 2 -1.1794 0.7655601564657464 12.863435636942036 1.5515475187095606 0 0 0
121 41 2 -1.1794 4.830523255928452 12.403758137689843 1.597717477869866 0 0 0
220 74 2 -1.1794 3.786663624214899 14.212310037406882 3.3678162232542164 0 0 0
230 77 1 0.5897 4.878552493839342 18.181975504244047 0.9417037183450282 0 0 0
228 76 1 0.5897 0.8016697204865997 17.839800722599318 4.618066536494273 0 0 0
222 74 1 0.5897 3.9707215818796078 13.881533102345546 2.4885580036022397 0 0 0
119 40 1 0.5897 2.247182295191511 11.064139703430383 3.797517978908609 0 0 0
890 297 1 0.5897 2.1061571248802706 19.00499825792865 0.48158093665279866 0 0 1
232 78 2 -1.1794 4.03316805666419 16.870850140988807 4.0316973928300435 0 0 0
249 83 1 0.5897 0.8459128455307423 16.39227166799325 2.6310151315688435 0 0 0
221 74 1 0.5897 3.931117055583149 15.156366888439983 3.30411671021703 0 0 0
248 83 1 0.5897 1.4349884292556323 15.80827609602362 1.3644905822390865 0 0 0
233 78 1 0.5897 3.1633566602209204 17.266361929102377 4.088633550849915 0 0 0
227 76 1 0.5897 1.1924562338422429 18.430293897051435 3.279860014614794 0 0 0
226 76 2 -1.1794 1.3390275773424454 17.67104290076291 3.844051566945877 0 0 0
247 83 2 -1.1794 0.7247300646984837 15.68746408495307 1.9947529753873174 0 0 0
123 41 1 0.5897 4.588382390682436 11.920237889223575 2.3875670642935 0 0 0
783 261 1 0.5897 1.985015652681035 12.368602403393044 0.3918130292597883 0 0 1
133 45 2 -1.1794 2.0672904818904776 12.035187916552829 7.278517216717327 0 0 0
134 45 1 0.5897 1.4689011209555578 12.601672737655893 7.765647915455264 0 0 0
135 45 1 0.5897 2.94028281335713 12.314768162955396 7.554183286136942 0 0 0
573 191 1 0.5897 0.5325735777107878 14.75617217302664 9.396959191490883 0 0 0
561 187 1 0.5897 1.3347401215215795 18.822474397139267 9.43296867678588 0 0 0
239 80 1 0.5897 1.9246439895275256 13.219893098794113 5.838650167555405 0 0 0
543 181 1 0.5897 2.4360714829911645 15.546508263102604 6.348101477676112 0 0 0
453 151 1 0.5897 0.744581586623787 12.414372386159089 9.905093311993861 0 0 0
445 149 2 -1.1794 4.576010669794564 12.802547773042209 8.546104544446004 0 0 0
238 80 2 -1.1794 1.715139223066309 13.975139618465139 5.289126365204715 0 0 0
446 149 1 0.5897 4.60436514652497 13.615197894407777 9.051076362266523 0 0 0
572 191 1 0.5897 1.193249530978871 15.78157836637992 8.500284169553812 0 0 0
554 185 1 0.5897 4.295478350258844 19.781071171768076 9.155360126462853 0 0 0
450 150 1 0.5897 4.078781882647609 11.538118530462372 9.717050212281825 0 0 0
571 191 2 -1.1794 0.635602117291013 15.699806937173932 9.27404459602092 0 0 0
242 81 1 0.5897 2.2658215666242087 19.12536908714836 7.273293260072853 0 0 0
241 81 2 -1.1794 2.6676473461014276 18.99006157759804 6.415043552055849 0 0 0
541 181 2 -1.1794 2.42354917811754 16.142428821790787 7.0971257874797935 0 0 0
542 181 1 0.5897 2.3962761530174905 17.01645467397786 6.707848152956265 0 0 0
243 81 1 0.5897 3.6082454144011784 18.967979131339582 6.591287104096082 0 0 0
558 186 1 0.5897 4.321066119585931 17.928747661564163 9.97857026037254 0 0 0
451 151 2 -1.1794 0.2903637729490221 12.937781622388696 9.244753656144567 0 0 0
559 187 2 -1.1794 1.073037986318689 19.27788364303031 8.632687041166166 0 0 0
576 192 1 0.5897 4.050703497176262 15.738145238722597 7.37077134601202 0 0 0
553 185 2 -1.1794 4.61098086167918 19.034190566854907 8.646561325824898 0 0 0
448 150 2 -1.1794 3.921529293336127 10.715087596300387 10.1797587299396 0 0 0
434 145 1 0.5897 2.114169662265945 10.178838796523479 6.933452479988244 0 0 0
457 153 2 -1.1794 2.372813125940547 12.331868139692002 13.617492114449192 0 0 0
458 153 1 0.5897 1.7619358013015052 12.22467656926358 14.346641880454197 0 0 0
459 153 1 0.5897 3.2334089964710926 12.391673721289257 14.032275435034446 0 0 0
563 188 1 0.5897 2.029227578514975 13.80221723537561 12.642731256311311 0 0 0
759 253 1 0.5897 2.282653450789583 10.535543864242529 13.78483641293305 0 0 0
562 188 2 -1.1794 2.002097857033971 14.548574783615804 12.044031657315465 0 0 0
557 186 1 0.5897 4.2383647580268375 16.580992119675027 10.663124061150338 0 0 0
769 257 2 -1.1794 4.609531153931237 12.627235952057758 15.262353501181643 0 0 0
449 150 1 0.5897 4.382675952779257 10.815934168179533 11.012554528550243 0 0 0
867 289 1 0.5897 2.6280441858508206 15.761955046357468 14.851470002357258 0 0 0
564 188 1 0.5897 2.3094219985166466 15.28805683252961 12.568423755796298 0 0 0
866 289 1 0.5897 4.0096214113868225 16.131760147653246 14.355073860516852 0 0 0
443 148 1 0.5897 0.917196542030819 10.03954198820379 10.426020854275647 0 0 0
621 207 1 0.5897 0.17448191386203155 17.56136256389668 12.314153827133003 1 0 0
442 148 2 -1.1794 1.3070873416788422 10.783144723550864 10.885689883543547 0 0 0
879 293 1 0.5897 4.407458471350999 19.104726336626914 14.754955003913441 0 0 0
565 189 2 -1.1794 2.5657330328646184 18.98002949170569 13.920059338778183 0 0 0
865 289 2 -1.1794 3.079284974611981 16.26706576149889 14.175050419899945 0 0 0
567 189 1 0.5897 1.983246643092221 19.137227498384753 14.663267105960639 0 0 0
566 189 1 0.5897 2.723403967478419 18.03604151339746 13.934204374756291 0 0 0
546 182 1 0.5897 4.8738311903242835 14.717327931113235 11.162826129160003 0 0 0
551 184 1 0.5897 2.4088723744155165 17.587287315895377 10.983979412418837 0 0 0
552 184 1 0.5897 1.1014956616255214 16.987076763449146 10.5122740587385 0 0 0
444 148 1 0.5897 2.24169449799345 10.724690799654423 10.687255806247983 0 0 0
550 184 2 -1.1794 1.460709326708912 17.712872771289664 11.02260591368981 0 0 0
545 182 1 0.5897 3.3903830522279486 14.856474977427915 10.894499509946094 0 0 0
556 186 2 -1.1794 4.244706606628612 17.521388205936955 10.841476518990653 0 0 0
544 182 2 -1.1794 4.2433156770929195 14.877033549078583 10.4604973735791 0 0 0
888 296 1 0.5897 2.1800409650061483 13.175312276442627 19.22659591397675 0 0 0
887 296 1 0.5897 2.178631588232646 14.688389174397427 19.17797600139047 0 0 0
774 258 1 0.5897 4.0168708579152845 11.154523287354325 16.529811183618882 0 0 0
768 256 1 0.5897 1.0390963340003654 11.187525750413132 17.033480516397844 0 0 0
773 258 1 0.5897 2.99223273937174 10.740593722615765 17.564648869277185 0 0 0
886 296 2 -1.1794 1.991700958212474 13.913845655686046 18.647524443246418 0 0 0
772 258 2 -1.1794 3.8959138254786754 10.585280702812003 17.289837357676056 0 0 0
218 73 1 0.5897 2.4674470083528486 16.864491811447788 20.333031099766607 0 0 -1
869 290 1 0.5897 3.4601780861406812 14.2410732185677 17.764689729590074 0 0 0
766 256 2 -1.1794 1.2532568658578505 10.568165871794703 17.731205372268676 0 0 0
881 294 1 0.5897 2.9599222863875614 17.46202661780316 17.41284296656022 0 0 0
895 299 2 -1.1794 1.115185555958495 15.04140433015175 16.07682544108347 0 0 0
868 290 2 -1.1794 4.231843427723993 14.471879662502696 17.247409903105336 0 0 0
875 292 1 0.5897 0.614620076247503 17.297510044870158 18.60323015481623 0 0 0
965 322 1 0.5897 0.1428436373196442 13.983288985775799 18.973313094753635 1 0 0
777 259 1 0.5897 0.8981365324649433 13.345915966966382 15.983067761956805 0 0 0
897 299 1 0.5897 1.2160959134681433 15.655027978304638 16.80456080312954 0 0 0
882 294 1 0.5897 3.983536618459971 16.370951234197825 17.18120350083931 0 0 0
876 292 1 0.5897 1.0859946893492796 17.82792275395165 17.265840784277856 0 0 0
880 294 2 -1.1794 3.8900475265476593 17.32201296396521 17.235237867663443 0 0 0
874 292 2 -1.1794 1.2585244540542322 17.143084928731557 17.91199147782634 0 0 0
891 297 1 0.5897 2.6773522377715135 19.182944331635653 19.682593177967263 0 0 0
767 256 1 0.5897 0.5384163222523006 10.659720257088102 18.361226914912216 0 0 0
781 261 2 -1.1794 2.768810638774832 12.078737421989358 20.51679881907227 0 0 0
771 257 1 0.5897 4.406590577447694 13.359015690990336 15.84508921665784 0 0 0
878 293 1 0.5897 4.318222385999088 18.538063751785387 16.15610210074351 0 0 0
782 261 1 0.5897 2.533633829355606 11.22129527079739 20.162248700708723 0 0 0
217 73 2 -1.1794 2.560845604587334 15.924670054204135 20.488432950887542 0 0 -1
775 259 2 -1.1794 0.7749847311192631 12.410904029677415 15.819532526552443 0 0 0
883 295 2 -1.1794 0.7435486470063978 19.044690776264392 15.878940737502605 0 0 0
896 299 1 0.5897 0.36760990258231313 15.376783546656656 15.581903973809887 0 0 0
870 290 1 0.5897 4.973372074036452 14.200127058962122 17.788328651049525 0 0 0
219 73 1 0.5897 3.5064741426098713 15.77735218869143 20.50735587055999 0 0 -1
889 297 2 -1.1794 2.6664484716817918 18.578613444454717 20.4248860873411 0 0 0
877 293 2 -1.1794 4.875677566206102 19.071174527080135 15.589234215715402 0 0 0
711 237 1 0.5897 8.578941364123278 5.639865411392091 0.3646309066681097 0 0 1
37 13 2 -1.1794 9.26040531379952 2.655355948133555 0.16899056752920477 0 0 0
143 48 1 0.5897 5.58427382998943 8.39215222317655 0.8310634346250267 0 0 0
46 16 2 -1.1794 7.782834895797977 4.468029266766471 3.5723381025747925 0 0 0
69 23 1 0.5897 6.283769607101627 2.162789548228245 1.4630852675899468 0 0 0
67 23 2 -1.1794 6.942862984081761 2.1565880918330165 2.157286960991617 0 0 0
47 16 1 0.5897 7.332515134995284 3.7009431719583428 3.218754225939118 0 0 0
68 23 1 0.5897 7.758130453192539 2.3954521418449817 1.7162398337261933 0 0 0
273 91 1 0.5897 7.558239704842558 0.3113439554705577 2.2680881691977017 0 1 0
53 18 1 0.5897 9.64232206229483 4.233714859821454 3.380552735998428 0 0 0
176 59 1 0.5897 7.602178572862734 7.688170427833631 1.6243549266616588 0 0 0
48 16 1 0.5897 7.369911542142853 4.617943781512797 4.4228596264151605 0 0 0
56 19 1 0.5897 6.384368393397813 5.593975155987625 1.0229336367789787 0 0 0
55 19 2 -1.1794 7.195784613197007 5.989507200766072 1.3414264755556726 0 0 0
155 52 1 0.5897 7.421391918718367 9.945937042729973 3.2061471796571337 0 0 0
177 59 1 0.5897 7.9670236230769405 9.039836091306668 1.048380782399701 0 0 0
175 59 2 -1.1794 7.34041607991096 8.608836672327053 1.6296811484038838 0 0 0
57 19 1 0.5897 7.40335166133205 5.502462297042754 2.138958417520413 0 0 0
166 56 2 -1.1794 8.28702124114604 7.58423185679163 4.534752532339696 0 0 0
34 12 2 -1.1794 5.366780687461398 2.52544648502275 0.12734063797800488 0 0 0
138 46 1 0.5897 6.484234057258375 7.647555037719362 4.783945896739181 0 0 0
9 3 1 0.5897 5.3060487194906365 4.5017000446297875 4.958349179026277 0 0 0
149 50 1 0.5897 9.9678417666708 7.920785171853243 3.66021614746308 0 0 0
58 20 2 -1.1794 8.520655768134022 0.7520269370463676 4.722600171429246 0 0 0
168 56 1 0.5897 8.331316616955807 8.372272128751252 5.0762524202788075 0 0 0
59 20 1 0.5897 8.837018637545437 1.575712043188817 5.093607800861973 0 0 0
167 56 1 0.5897 8.533175858487787 6.872757556767024 5.125909419425834 0 0 0
145 49 2 -1.1794 9.269572811711779 9.389169893631093 0.058997261447981765 0 0 0
392 131 1 0.5897 7.772405576992204 1.6177280108056118 9.177110719470747 0 0 0
362 121 1 0.5897 9.06803638065418 3.7300501408355093 6.284702158886858 0 0 0
359 120 1 0.5897 6.433287007915717 2.673002763082544 8.139568761489324 0 0 0
8 3 1 0.5897 5.902804075499117 3.9645834792921515 6.241924117364597 0 0 0
469 157 2 -1.1794 9.21469080676151 9.532828904566696 6.436705274884837 0 0 0
358 120 2 -1.1794 5.738677914561539 2.7038881915497077 7.481608214444247 0 0 0
391 131 2 -1.1794 8.164592130807804 2.4825948653588044 9.05724658672788 0 0 0
499 167 2 -1.1794 7.6240397784318885 8.960499442866183 8.412578267733975 0 0 0
393 131 1 0.5897 8.496234466032732 2.473428121759757 8.1593183480712 0 0 0
361 121 2 -1.1794 9.254578441870942 2.7934906527668457 6.219754521996526 0 0 0
29 10 1 0.5897 6.564781606132669 0.8851796767762278 5.223074294399181 0 0 0
60 20 1 0.5897 8.613578633674726 0.11745945220280896 5.433243030142546 0 0 0
381 127 1 0.5897 7.932288326408695 6.076005699317346 9.442826285765978 0 0 0
61 21 2 -1.1794 9.145729466265593 5.770017978859285 6.612269302493868 0 0 0
62 21 1 0.5897 8.582819134858806 5.979928201258814 7.35753684088094 0 0 0
7 3 2 -1.1794 6.012348261160564 4.6534480493761325 5.586375990166618 0 0 0
137 46 1 0.5897 5.749437884291738 6.5035681155035645 5.44974942382714 0 0 0
379 127 2 -1.1794 7.4710221450420224 6.315242777448169 8.638855421799269 0 0 0
28 10 2 -1.1794 5.70556787030066 0.6780481611187187 5.590689922521152 0 0 0
360 120 1 0.5897 5.747320785566655 1.833977125738188 7.082430566516769 0 0 0
470 157 1 0.5897 8.61034305257472 9.432350917884527 7.172251662912738 0 0 0
338 113 1 0.5897 5.666693961391625 5.994963006275178 8.411183284314463 0 0 0
380 127 1 0.5897 7.398478044131803 7.268814006369524 8.678493847730849 0 0 0
501 167 1 0.5897 6.699294803830155 9.167348859031206 8.27724636752024 0 0 0
500 167 1 0.5897 7.863339604560599 9.43889008555043 9.206446256761268 0 0 0
371 124 1 0.5897 8.271274792194896 3.8114819398935613 10.315350113666605 0 0 0
136 46 2 -1.1794 5.7009113458633385 7.447121164239877 5.296333125402841 0 0 0
467 156 1 0.5897 5.158114511697065 8.31229313303491 6.873980521376866 0 0 0
704 235 1 0.5897 6.111751538937533 5.772273610041411 15.4821724857339 0 0 0
492 164 1 0.5897 8.014906443545868 7.352121203231791 12.159200141763906 0 0 0
491 164 1 0.5897 9.360774812937775 7.452013065724696 11.473128889071251 0 0 0
372 124 1 0.5897 7.732592896180816 4.809288230829056 11.318481773565223 0 0 0
352 118 2 -1.1794 6.172862815071091 1.1164304067955955 11.992494942825115 0 0 0
686 229 1 0.5897 8.529225543697205 2.249065489591622 14.436216177418212 0 0 0
333 111 1 0.5897 6.11480838584027 5.759972590329495 12.260846765745432 0 0 0
824 275 1 0.5897 7.708433584922646 9.220787527174 15.294305505702896 0 0 0
793 265 2 -1.1794 9.127467935892975 9.412930295132982 14.26598793728573 0 0 0
684 228 1 0.5897 5.668891959686125 3.636289150598929 13.917424779743202 0 0 0
383 128 1 0.5897 9.202579081993214 1.6410826968103132 12.275434730042083 0 0 0
353 118 1 0.5897 7.084932072282023 1.3044691584295214 11.771047817147421 0 0 0
794 265 1 0.5897 9.029512317431278 8.953602308423573 13.431847843352628 0 0 0
354 118 1 0.5897 5.982346245970156 1.6914613033709376 12.733693503972292 0 0 0
331 111 2 -1.1794 6.166883260758779 4.80774204202063 12.34276875668956 0 0 0
332 111 1 0.5897 5.523476508242058 4.477406114357001 11.715709186873287 0 0 0
461 154 1 0.5897 5.814215119522914 8.127878599927453 12.296023324759291 0 0 0
387 129 1 0.5897 9.010161862859626 5.976218678339583 13.569178173970998 0 0 0
385 129 2 -1.1794 9.071666530779964 5.341753899306383 14.28331716795736 0 0 0
791 264 1 0.5897 5.101205214026007 9.035986190284435 14.749593122941052 0 0 0
687 229 1 0.5897 9.9340848945566 2.7235915982789924 14.130955511650303 0 0 0
490 164 2 -1.1794 8.93735663866479 7.5453282439652405 12.32658519191042 0 0 0
705 235 1 0.5897 7.574745761714014 5.813902239914609 15.094958166886501 0 0 0
382 128 2 -1.1794 8.921917825352397 1.0124736713991145 11.610332617128687 0 0 0
685 229 2 -1.1794 9.054446516943882 2.6722762977091024 13.756990021190303 0 0 0
460 154 2 -1.1794 6.21545293145775 7.458036655969213 11.742305728868812 0 0 0
386 129 1 0.5897 9.056867421974792 4.4891040617938955 13.848596223544014 0 0 0
384 128 1 0.5897 9.49505101913451 1.1821219613765626 10.862611917232186 0 0 0
682 228 2 -1.1794 5.608488794965541 2.772099301605574 14.324557755149197 0 0 0
370 124 2 -1.1794 8.4818960853772 4.639160915769971 10.747582651017295 0 0 0
462 154 1 0.5897 5.5587042285272155 7.277670059130828 11.069627314127052 0 0 0
717 239 1 0.5897 6.822718348747057 2.155555019372715 15.495954182615607 0 0 0
823 275 2 -1.1794 6.938615208817708 8.852666622756047 15.728076638503248 0 0 0
716 239 1 0.5897 7.700418048348857 1.1323076665672813 16.18466839441946 0 0 0
715 239 2 -1.1794 7.6131046188009925 2.072760082143159 16.029476737878078 0 0 0
677 226 1 0.5897 5.725553659409837 1.2946946345884336 18.312290729864692 0 0 0
706 236 2 -1.1794 9.068509054276076 1.004653270565457 18.717006463301338 0 0 0
695 232 1 0.5897 7.91589275160142 3.4770541982114462 16.95588599718019 0 0 0
786 262 1 0.5897 6.852373857613373 7.71045004050968 18.459305364507742 0 0 0
696 232 1 0.5897 7.740000818851828 4.978686492325076 17.032252867556167 0 0 0
655 219 2 -1.1794 6.1097487777609265 4.60559960214455 19.2841746139271 0 0 0
38 13 1 0.5897 9.167528984563445 1.9637692298021965 20.10560538211537 0 0 -1
694 232 2 -1.1794 8.078585948538066 4.2303092445718145 17.523684138493223 0 0 0
657 219 1 0.5897 6.859472517887691 4.402893819257494 18.724583982347873 0 0 0
814 272 2 -1.1794 8.876940617053371 7.619883971492939 18.672310318267186 0 0 0
825 275 1 0.5897 7.13172043341327 7.918548918425927 15.807570112603667 0 0 0
676 226 2 -1.1794 6.195772835152667 0.6996502487510236 18.89633858996836 0 0 0
764 255 1 0.5897 5.318148706749372 9.92611387092865 20.0440446775239 0 0 0
815 272 1 0.5897 9.020274214145578 6.7719993986770906 19.092756158948752 0 0 0
708 236 1 0.5897 8.142049863749254 0.9396882655199639 18.48520895224803 0 0 0
144 48 1 0.5897 5.386579663382388 7.7198780119848305 20.080803868389346 0 0 -1
784 262 2 -1.1794 6.00119023291071 7.287789186415478 18.573791541372792 0 0 0
816 272 1 0.5897 9.043794621198334 8.261378666701345 19.362912942312754 0 0 0
656 219 1 0.5897 5.346682882432065 4.35759039201644 18.762124390771007 0 0 0
785 262 1 0.5897 6.2115496240235055 6.380238918710177 18.793561503694995 0 0 0
703 235 2 -1.1794 6.969606076339713 6.059790069564166 15.794683590929393 0 0 0
36 12 1 0.5897 5.5285262029172655 3.335401928768158 20.23541896803524 0 0 -1
35 12 1 0.5897 5.672680962859899 1.8318180346238795 20.134764394456965 0 0 -1
709 237 2 -1.1794 9.306718763653908 5.490177004446791 20.35291716320654 0 0 0
710 237 1 0.5897 9.412174974799782 4.538990720248 20.335383704169843 0 0 0
804 268 1 0.5897 7.45051505707319 9.807896865435634 17.05020060598801 0 0 0
707 236 1 0.5897 9.230590828929927 0.2431580681681982 19.27387066054787 0 0 0
231 77 1 0.5897 6.017283571123094 18.705076650659233 1.791258615179568 0 0 0
264 88 1 0.5897 9.059078204535803 17.262551867959896 4.3121027338821305 0 0 0
156 52 1 0.5897 8.594465983068693 10.47472230087838 4.003860883111178 0 0 0
285 95 1 0.5897 7.581359470249315 14.546133885777765 2.301110179881241 0 0 0
262 88 2 -1.1794 8.127217891303467 17.26566672008079 4.093331581255309 0 0 0
164 55 1 0.5897 7.72052514811291 11.955387065889209 2.6932933386923543 0 0 0
165 55 1 0.5897 6.729057847104619 12.871828841592402 2.0083669438420593 0 0 0
163 55 2 -1.1794 7.667100817970297 12.736300594610084 2.142357247026014 0 0 0
229 77 2 -1.1794 5.11334215227356 18.394808592501096 1.8450191044131883 0 0 0
251 84 1 0.5897 5.889655716758633 15.405161993225185 0.8621986163597817 0 0 0
272 91 1 0.5897 7.8490885455401225 18.76975001435978 2.8388633216648858 0 0 0
284 95 1 0.5897 7.9532210577486 15.907971147813061 2.8477703771120026 0 0 0
275 92 1 0.5897 8.876647794735291 14.250755423543877 4.540249299138001 0 0 0
271 91 2 -1.1794 7.754463291635844 19.240596605897192 2.0107817291471575 0 0 0
283 95 2 -1.1794 7.482219375639792 15.482844346880047 2.131042624519216 0 0 0
819 273 1 0.5897 8.45100498655439 12.361835041432819 0.5245305791063202 0 0 1
254 85 1 0.5897 8.695966567424037 15.726797769670439 0.5023016470371462 0 0 0
927 309 1 0.5897 8.778828276074075 18.88528225621998 0.5774882832433791 0 0 1