LAMMPS data file via write_data, version 30 Jul 2021, timestep = 10500000

1920 atoms
2 atom types
1280 bonds
1 bond types
640 angles
1 angle types

0.07207597367062668 24.65792502632844 xlo xhi
0.06244243468899846 24.6675585653114 ylo yhi
0.05686154057501902 22.753138459428353 zlo zhi

Masses

1 1.008
2 15.999

Pair Coeffs # lj/cut/tip4p/long/omp

1 0 0
2 0.21084 3.1668

Bond Coeffs # harmonic/omp

1 450 0.9572

Angle Coeffs # harmonic/omp

1 55 104.52

Atoms # full

1 1 2 -1.1794 4.576726244807525 1.5146159558504846 4.301841165344086 0 0 0
2 1 1 0.5897 4.681605538419112 2.2132152639387583 4.947789766647868 0 0 0
3 1 1 0.5897 5.312870379288185 1.6307306872616265 3.7011996487283048 0 0 0
4 2 2 -1.1794 3.01860308785078 1.5781961937834954 1.972684415968194 0 0 0
5 2 1 0.5897 3.381591269375709 1.5772474290296614 2.8583345327378797 0 0 0
6 2 1 0.5897 2.07153877991714 1.5265317869944321 2.1014235911675994 0 0 0
9 3 1 0.5897 5.036409637060605 4.467687810630514 3.593291308155869 0 0 0
10 4 2 -1.1794 3.244143337802994 4.468898378744149 3.6399755861956202 0 0 0
11 4 1 0.5897 2.8474217435811764 5.241192207527428 4.04309319780889 0 0 0
12 4 1 0.5897 2.8258948605003833 4.404762190184855 2.781432630481728 0 0 0
13 5 2 -1.1794 1.470022568526551 2.9686031692799015 5.127421521046663 0 0 0
14 5 1 0.5897 2.2208157893498304 3.3372836261136603 4.662033340000489 0 0 0
15 5 1 0.5897 1.6132266939383273 2.022400074742227 5.102642988219103 0 0 0
19 7 2 -1.1794 4.738427971548884 3.268281566023937 0.6621517254714898 0 0 0
20 7 1 0.5897 3.9543629272247105 2.880292678533901 1.0506287213023005 0 0 0
21 7 1 0.5897 5.465257327011369 2.8749451319498696 1.1450702972719393 0 0 0
22 8 2 -1.1794 1.7194329831512678 4.521185378819834 1.3479630461921248 0 0 0
23 8 1 0.5897 0.9701128345004272 4.595201449429854 1.9388950178521558 0 0 0
24 8 1 0.5897 1.6469225457678869 5.282343942774147 0.7720270496530095 0 0 0
27 9 1 0.5897 4.769602332717832 5.112668379667793 0.6668022715889516 0 0 0
28 10 2 -1.1794 1.7014042561582758 0.239846039758167 4.990048802427966 0 0 0
387 129 1 0.5897 4.136708663530491 0.23194686146488241 1.1785175541023696 0 1 0
7 3 2 -1.1794 5.98559864430833 4.5692039858501285 3.5232115173159575 0 0 0
98 33 1 0.5897 0.4194509365434194 5.407677478081705 3.921649737572924 1 0 0
16 6 2 -1.1794 0.24951268920856792 1.396257700568444 1.9825769285613815 0 0 0
25 9 2 -1.1794 4.7725434793537485 6.069883954476487 0.6542171730252355 0 0 0
99 33 1 0.5897 0.21863633434899934 3.9095196697250105 4.008645157384225 1 0 0
47 16 1 0.5897 6.126748397871025 0.9376964444639247 1.7502058452649187 0 0 0
867 289 1 0.5897 4.660315150435912 0.23467847257500044 5.656771237946223 0 1 0
8 3 1 0.5897 6.189527561142862 5.314977331135893 4.087610664793368 0 0 0
150 50 1 0.5897 1.6148595326575983 6.092074583175378 5.849955508080962 0 0 0
498 166 1 0.5897 1.1131158784898307 1.7201781728933838 7.830570703860665 0 0 0
501 167 1 0.5897 4.545237768254691 4.265670088663035 6.378216961424976 0 0 0
500 167 1 0.5897 3.9796605558413694 2.962277304089519 6.901189493483185 0 0 0
503 168 1 0.5897 0.9039482293268606 4.639097498877537 7.781431567131507 0 0 0
484 162 2 -1.1794 2.951291308671837 1.6989078059163243 7.750653267165768 0 0 0
493 165 2 -1.1794 1.5805174591410591 2.925812133624002 10.569524216636845 0 0 0
629 210 1 0.5897 2.168925001608049 5.98845595934392 10.239419427018115 0 0 0
489 163 1 0.5897 5.049051255458623 4.761500068918366 9.25100655207974 0 0 0
508 170 2 -1.1794 1.427561932493581 0.1753476639460494 10.647522743290018 0 0 0
491 164 1 0.5897 2.814908167908774 4.7532357030826065 8.530312621870172 0 0 0
486 162 1 0.5897 3.32314732535503 0.973527602099168 7.2488015018599485 0 0 0
499 167 2 -1.1794 4.681298810475944 3.3183471850117807 6.356105592347411 0 0 0
1347 449 1 0.5897 4.660131511612507 0.2950358921173746 11.383944054228937 0 1 0
579 193 1 0.5897 0.2661250561029761 5.369860491975489 9.641244936436076 1 0 0
481 161 2 -1.1794 4.599074183706678 1.4517941240528838 9.9734519173822 0 0 0
494 165 1 0.5897 1.5719186750598955 1.97706771572344 10.696933418738825 0 0 0
528 176 1 0.5897 5.954999640080466 2.4346225536297323 7.36529920471466 0 0 0
487 163 2 -1.1794 6.001149605924709 4.8422300717681 9.19473043385493 0 0 0
504 168 1 0.5897 1.5115481672617657 4.019459789431321 6.541004956893583 0 0 0
578 193 1 0.5897 0.3001752199935358 3.857264816644109 9.583971241519457 1 0 0
502 168 2 -1.1794 1.6411105608650927 4.723279049632866 7.176729886474374 0 0 0
482 161 1 0.5897 5.3362630996777884 1.5440180061055735 9.369955707645955 0 0 0
496 166 2 -1.1794 0.16121523217165018 1.7502464897267986 7.926261487456813 0 0 0
492 164 1 0.5897 2.8631485550216675 4.0387164425543105 9.86408222290724 0 0 0
490 164 2 -1.1794 3.266958258227795 4.75499116425255 9.373988183182764 0 0 0
505 169 2 -1.1794 4.600325158703426 6.052886675219094 6.46099748791209 0 0 0
527 176 1 0.5897 5.8911142051457315 0.9220375889207945 7.385022378456325 0 0 0
485 162 1 0.5897 3.3804946002364313 1.6448433417095716 8.604469781536466 0 0 0
483 161 1 0.5897 4.669890038659524 2.208004090358469 10.556071477318609 0 0 0
961 321 2 -1.1794 4.5261418584074615 1.810127403547528 15.645474353974747 0 0 0
962 321 1 0.5897 5.269372016891365 1.761204777780023 15.044330637493296 0 0 0
963 321 1 0.5897 4.6320116412307515 1.051919902907581 16.22013179209985 0 0 0
964 322 2 -1.1794 2.883201885975288 1.6375253968810377 13.431704183216892 0 0 0
965 322 1 0.5897 3.227845531487788 1.7056212952979428 14.322053645160636 0 0 0
966 322 1 0.5897 1.932753552600637 1.6174865885239866 13.543148597002288 0 0 0
970 324 2 -1.1794 3.1994186068440458 4.753627153194188 14.85781298695769 0 0 0
971 324 1 0.5897 4.146200912232802 4.614786066843148 14.880308429882977 0 0 0
972 324 1 0.5897 2.8350876143023696 3.9981642171583616 15.319189561829173 0 0 0
973 325 2 -1.1794 1.5854285050883088 2.98356136057381 16.273184605365017 0 0 0
975 325 1 0.5897 0.8238283873429785 3.377244197885917 15.847523014056089 0 0 0
979 327 2 -1.1794 4.534701873890294 3.3752474365530056 11.99979318024538 0 0 0
980 327 1 0.5897 3.7846689256068444 2.959223359011486 12.424749699374713 0 0 0
981 327 1 0.5897 5.294473922102892 3.0524674108387075 12.484303748577284 0 0 0
982 328 2 -1.1794 1.370384718930842 4.48745386933718 12.850551530858615 0 0 0
983 328 1 0.5897 1.4084722299433678 5.225177392288544 12.241765746152259 0 0 0
984 328 1 0.5897 2.106104982395754 4.62962395681837 13.446091804699288 0 0 0
987 329 1 0.5897 4.570314776283894 5.200923739779819 12.064079827672257 0 0 0
990 330 1 0.5897 1.555286498719117 1.2191955943118493 16.380427418711662 0 0 0
967 323 2 -1.1794 5.948555480294142 4.694679857601251 14.868581081043976 0 0 0
1109 370 1 0.5897 0.6661853261687312 5.892225355844218 15.927777688439752 0 0 0
1346 449 1 0.5897 3.965280651513117 0.3353728235370557 12.728273627193143 0 1 0
1008 336 1 0.5897 5.937619057744674 1.0815571612804284 13.019131110763846 0 0 0
988 330 2 -1.1794 1.4511379749137938 0.2788548336330963 16.23437778727606 0 0 0
1110 370 1 0.5897 2.1766672948464887 5.928577012140507 15.8335824065 0 0 0
985 329 2 -1.1794 4.708812985420927 6.147459990823392 12.100294115672332 0 0 0
976 326 2 -1.1794 0.15054438423685823 1.552852690310038 13.601747133389257 0 0 0
1460 487 1 0.5897 4.680709420294969 2.9208404849123535 17.002601145587718 0 0 0
495 165 1 0.5897 1.4616950659525036 3.2870634500846516 11.447904393317847 0 0 0
1455 485 1 0.5897 1.7361992815775256 3.4007200528558093 22.718894682755057 0 0 0
1447 483 2 -1.1794 6.132149896203844 4.65954262886493 20.53728920290512 0 0 0
1464 488 1 0.5897 0.9708082948664297 4.692076220138701 19.079001966406004 0 0 0
1826 609 1 0.5897 4.019920428268476 0.19923406401050772 18.237505182007325 0 1 0
386 129 1 0.5897 4.957784416053716 0.3137925116266243 22.605615727416854 0 1 -1
974 325 1 0.5897 1.6616781283853335 3.448594066720951 17.10633034428494 0 0 0
1441 481 2 -1.1794 4.906159690335736 1.4967657215097463 21.27989572609355 0 0 0
1488 496 1 0.5897 6.04675036804157 0.9386341248419197 18.556705957042283 0 0 0
1487 496 1 0.5897 6.0795453532642405 1.5831717926560898 19.926111737133397 0 0 0
1443 481 1 0.5897 4.766162096345581 2.236642848915406 21.870908183680214 0 0 0
1445 482 1 0.5897 2.1052218765553996 1.591028991797914 19.27479351746969 0 0 0
1469 490 1 0.5897 1.6641310165143466 1.1506769210706345 21.96144156820821 0 0 0
1465 489 2 -1.1794 4.471427726104016 6.056640543450079 17.676128998987956 0 0 0
1450 484 2 -1.1794 3.3643355185224393 4.747017493357276 20.563601194154877 0 0 0
1538 513 1 0.5897 0.44601176725208175 3.9428954712906927 20.968258082230577 1 0 0
1466 489 1 0.5897 4.5052764176257565 5.102678071203776 17.74848571667036 0 0 0
1453 485 2 -1.1794 1.8163714916884797 2.9806197753316086 21.86257749431629 0 0 0
1462 488 2 -1.1794 1.6696149176888948 4.622765790118787 18.428601468588973 0 0 0
1454 485 1 0.5897 2.503659643241059 3.4751654812933617 21.41615330318141 0 0 0
1463 488 1 0.5897 1.5890627471668217 5.419431391303555 17.90403224352353 0 0 0
1539 513 1 0.5897 0.34768782422922045 5.452930101226202 21.01834700710628 1 0 0
1444 482 2 -1.1794 3.0523139322331905 1.4808928953633536 19.190746648730787 0 0 0
1442 481 1 0.5897 4.170972515605305 1.5358216378877048 20.668232746032857 0 0 0
1452 484 1 0.5897 3.002796721069273 4.752565741856186 19.67737523770171 0 0 0
1446 482 1 0.5897 3.3467470947700075 2.2719704631143314 18.739255867531654 0 0 0
1459 487 2 -1.1794 4.647814718694712 3.345901090856225 17.85959142413462 0 0 0
1456 486 2 -1.1794 0.238261036069851 1.5222748509799677 19.16225444906315 0 0 0
1461 487 1 0.5897 5.374262674769299 2.9582882563612944 18.347684050545055 0 0 0
1468 490 2 -1.1794 1.5510635438704845 0.20384841725707664 21.876866477932772 0 0 0
1590 530 1 0.5897 2.3270289227172567 6.045517869018928 21.549370049612257 0 0 0
1451 484 1 0.5897 4.3129360456231325 4.746983044786421 20.435812430994822 0 0 0
121 41 2 -1.1794 4.611766078389149 7.682559129188912 4.264947155204275 0 0 0
122 41 1 0.5897 3.8710918092835427 7.610086696327034 3.663026092632247 0 0 0
123 41 1 0.5897 5.382060001707003 7.697125233708151 3.696973430041501 0 0 0
124 42 2 -1.1794 2.9965881215054604 7.648398108936652 2.059756288867903 0 0 0
125 42 1 0.5897 3.4656557594214346 6.925487541419654 1.6430012363068691 0 0 0
126 42 1 0.5897 3.4320983876242845 8.436402554199272 1.7346058696242828 0 0 0
129 43 1 0.5897 5.123618210362274 10.818160180135655 3.668938657498907 0 0 0
130 44 2 -1.1794 3.2819216929040715 10.835427637420082 3.683828965678364 0 0 0
131 44 1 0.5897 2.9048196414883876 11.570760980138909 4.166933879042152 0 0 0
132 44 1 0.5897 2.8951162868335003 10.058777927145982 4.088219235069556 0 0 0
133 45 2 -1.1794 1.6559449027178719 9.074018868261184 4.999306496107462 0 0 0
135 45 1 0.5897 0.9496540432175865 9.502208093354978 4.5155454927869485 0 0 0
137 46 1 0.5897 1.2662813182904225 7.764710695396373 2.1514861952524944 0 0 0
139 47 2 -1.1794 4.766481789919995 9.492410665895287 0.878890459799318 0 0 0
140 47 1 0.5897 4.772217337192745 10.444698630788473 0.7812162104404489 0 0 0
142 48 2 -1.1794 1.636293480863519 10.675795064683529 1.483380813184012 0 0 0
143 48 1 0.5897 2.3278422722516594 10.775064893462764 2.1376453966087143 0 0 0
144 48 1 0.5897 1.7212816137066598 11.448824180809996 0.9252330677100614 0 0 0
149 50 1 0.5897 1.6120868771458572 7.3505304246663306 5.00826534869887 0 0 0
148 50 2 -1.1794 1.596069330868416 6.3956318573976 4.942396505391253 0 0 0
127 43 2 -1.1794 6.0761862219039084 10.741034951945968 3.6156292991144725 0 0 0
218 73 1 0.5897 0.33665447971238044 10.830636799204903 2.7885326189120505 1 0 0
621 207 1 0.5897 4.590617817317042 8.949746049666128 5.612791726457504 0 0 0
136 46 2 -1.1794 0.3139729884668435 7.829963734444811 2.2223802794784038 0 0 0
270 90 1 0.5897 0.9365376033063485 12.16527035970477 4.629255103401099 0 0 0
168 56 1 0.5897 6.061242144463097 8.43027818619809 1.757077335415519 0 0 0
507 169 1 0.5897 4.617886151185377 6.532975318301277 5.6331018179029755 0 0 0
26 9 1 0.5897 5.5025138057352105 6.31515064165498 1.222692245361077 0 0 0
145 49 2 -1.1794 4.788596731232653 12.24386033134296 0.8492002209059274 0 0 0
1574 525 1 0.5897 1.5925745345280562 9.553623997460882 0.12252302983044293 0 0 1
134 45 1 0.5897 1.6666684812149086 9.51509734234895 5.848735870047428 0 0 0
698 233 1 0.5897 0.2987490737854549 11.440862023379832 9.830793683086855 1 0 0
628 210 2 -1.1794 1.4472203686330873 6.310747786708404 10.779290190263414 0 0 0
1101 367 1 0.5897 4.699175747123885 9.058877036696549 11.262660726017957 0 0 0
606 202 1 0.5897 2.0350283143977594 7.8390642200924425 7.853036044196476 0 0 0
603 201 1 0.5897 3.973351181291204 7.772408943668891 9.358377494793917 0 0 0
607 203 2 -1.1794 6.056593379879698 10.857330276596755 9.250341095387453 0 0 0
613 205 2 -1.1794 1.6293405126522886 9.033775360287253 10.64875954037535 0 0 0
506 169 1 0.5897 3.902572145361391 6.470638805312676 6.965809008882042 0 0 0
626 209 1 0.5897 4.709484012253021 11.166404727824673 6.501059465059958 0 0 0
623 208 1 0.5897 2.245256007311596 10.726736703730136 7.841479856911732 0 0 0
619 207 2 -1.1794 4.597626148869419 9.399176925833064 6.457871727497723 0 0 0
699 233 1 0.5897 0.46812106229055495 10.71154880890164 8.515031974815946 1 0 0
615 205 1 0.5897 0.8539761625865071 9.462292720761905 10.286264244321163 0 0 0
625 209 2 -1.1794 4.616512883264544 12.117365275991265 6.442283127766238 0 0 0
612 204 1 0.5897 3.0133674773359163 11.527890772038258 9.78193137596706 0 0 0
602 201 1 0.5897 4.668378963163822 7.13520185645829 10.542733368957595 0 0 0
604 202 2 -1.1794 2.9795833579774125 7.68656514890376 7.880244318844804 0 0 0
622 208 2 -1.1794 1.5377285196269497 10.667600585947715 7.199556272499074 0 0 0
624 208 1 0.5897 1.6447532696568823 11.445550715797747 6.652138826023103 0 0 0
605 202 1 0.5897 3.352945265188085 8.400946430401149 7.363946488417373 0 0 0
611 204 1 0.5897 4.267264582877426 10.904632190747982 9.206486955674182 0 0 0
648 216 1 0.5897 5.858238925938973 7.041632133067526 7.290551657383013 0 0 0
601 201 2 -1.1794 4.723706348973858 7.879184296928593 9.942952137244108 0 0 0
620 207 1 0.5897 5.2993452273561825 8.973314912646138 6.950258805028539 0 0 0
614 205 1 0.5897 2.365661586642504 9.455256069678095 10.20559146350612 0 0 0
616 206 2 -1.1794 0.25091524411941174 7.849301429691715 7.817507379293777 0 0 0
610 204 2 -1.1794 3.3221230762636913 10.772925564175797 9.280912473030623 0 0 0
647 216 1 0.5897 5.8804308799649165 7.740123311402958 8.633464107285107 0 0 0
630 210 1 0.5897 1.5585218584170528 7.261531602361345 10.786110736260937 0 0 0
1081 361 2 -1.1794 4.820304148858739 7.843681186006975 15.668560205082148 0 0 0
1082 361 1 0.5897 4.831265291804386 8.618289797431977 16.2308647420881 0 0 0
1083 361 1 0.5897 4.687712677914684 7.1115796457668345 16.270850888087672 0 0 0
1084 362 2 -1.1794 3.007916944204726 7.853765276167567 13.51112596159046 0 0 0
1085 362 1 0.5897 3.4916184020330925 7.843247054651923 14.33699785620372 0 0 0
1086 362 1 0.5897 3.4700991370551257 8.494362538632085 12.970482955591116 0 0 0
1089 363 1 0.5897 5.04914836014828 10.834175312457168 15.052110952759485 0 0 0
1090 364 2 -1.1794 3.28353477811033 10.85651231151069 15.010006968243164 0 0 0
1091 364 1 0.5897 2.771407219660773 11.622859571458863 15.268409392095519 0 0 0
1092 364 1 0.5897 2.88949107132445 10.130267515590642 15.493336011263272 0 0 0
1093 365 2 -1.1794 1.6645258522959379 9.085804330550369 16.4667777409758 0 0 0
1094 365 1 0.5897 1.5876528575760631 8.13570678585464 16.378296796866657 0 0 0
1095 365 1 0.5897 0.9598434459291372 9.435467704741162 15.921478219353206 0 0 0
1097 366 1 0.5897 1.1652865497848621 7.769231746141347 13.447263713813868 0 0 0
1099 367 2 -1.1794 4.685144557356388 9.512561812321747 12.105377036673305 0 0 0
1100 367 1 0.5897 5.3737474813906685 9.088635911706158 12.617552947418144 0 0 0
1102 368 2 -1.1794 1.5486031241484055 10.78346156472784 12.811462583989767 0 0 0
1103 368 1 0.5897 1.653314990094227 10.027505321421588 12.233639194540986 0 0 0
1104 368 1 0.5897 2.3207874287757453 10.762242582037574 13.376653031153527 0 0 0
1107 369 1 0.5897 4.724968744863145 11.280450062697124 12.106927597905825 0 0 0
1087 363 2 -1.1794 6.0005492791858535 10.729967309049748 15.03969875949845 0 0 0
1179 393 1 0.5897 0.39950825685426083 10.631120706933544 14.125030099782913 1 0 0
1127 376 1 0.5897 5.943027155647396 7.892278574825603 14.283820841236777 0 0 0
1105 369 2 -1.1794 4.747811542532196 12.226808087561196 12.249426745987433 0 0 0
1128 376 1 0.5897 5.996008964126198 7.2007779440090065 12.938155490237108 0 0 0
1096 366 2 -1.1794 0.21607799372996633 7.780187938972804 13.324560101775306 0 0 0
1108 370 2 -1.1794 1.433940468145639 6.360867609216045 16.25512426526906 0 0 0
1178 393 1 0.5897 0.28963840676888025 11.382707003386638 15.43456024610031 1 0 0
986 329 1 0.5897 3.9834343565674306 6.476041931695835 12.63137754939238 0 0 0
750 250 1 0.5897 1.5867752296052031 12.160562280436851 11.534665879434073 0 0 0
1230 410 1 0.5897 1.6510956164824664 12.223388171027871 17.072805757555415 0 0 0
1567 523 2 -1.1794 6.116843868417505 10.827631965168147 20.648166186362964 0 0 0
1563 521 1 0.5897 4.158634151867161 7.852763442600859 20.727345978378388 0 0 0
1587 529 1 0.5897 4.692000086475703 11.397721139878637 17.795314677113936 0 0 0
1565 522 1 0.5897 2.0898555661426874 7.789010447357078 19.16238993355492 0 0 0
1562 521 1 0.5897 4.84580803231093 7.199457208765093 21.90750898519814 0 0 0
1467 489 1 0.5897 5.2570535026398 6.359899219858779 18.131119321488775 0 0 0
1573 525 2 -1.1794 1.652975453744341 9.094686864786965 21.980988166051148 0 0 0
1588 530 2 -1.1794 1.563716977996706 6.356809474538975 22.035829808210266 0 0 0
1658 553 1 0.5897 0.4390129754965826 10.088789017033228 21.048473919139916 1 0 0
1572 524 1 0.5897 4.353896813848167 10.790406215358876 20.611774685011056 0 0 0
1561 521 2 -1.1794 4.928507194656522 7.927199619443662 21.29118651809513 0 0 0
1575 525 1 0.5897 2.4138408705082153 9.482944644161572 21.54907464269248 0 0 0
1566 522 1 0.5897 3.3889353439210184 7.170359046937801 18.691745293489696 0 0 0
1571 524 1 0.5897 3.0757901916127603 10.938165130890555 19.81406758552911 0 0 0
1579 527 2 -1.1794 4.786328066222166 9.608545430207037 17.895986573411875 0 0 0
1581 527 1 0.5897 5.524636217815357 9.11965865868932 18.259478257812653 0 0 0
1584 528 1 0.5897 1.7472709776231419 10.32700902630241 17.915026208814616 0 0 0
1583 528 1 0.5897 1.1157154840304735 11.02298918689039 19.10185719623707 0 0 0
1709 570 1 0.5897 0.9960393451926527 12.071779647612923 21.621114504151997 0 0 0
1576 526 2 -1.1794 0.29231723195993137 7.609163824126075 19.07038731410247 0 0 0
1564 522 2 -1.1794 3.038102828261536 7.835239943258049 19.284306045276516 0 0 0
1608 536 1 0.5897 5.996670241766804 7.69911085997125 19.898784553011403 0 0 0
1570 524 2 -1.1794 3.40184683339761 10.819836509212054 20.706158343214504 0 0 0
1589 530 1 0.5897 1.618972988371941 7.311120364271123 21.98422179130189 0 0 0
1710 570 1 0.5897 2.5092076191944472 12.114442340700835 21.637016953761297 0 0 0
1585 529 2 -1.1794 4.65353355801913 12.350551600019015 17.711287428388594 0 0 0
1582 528 2 -1.1794 1.8314211825635376 11.101562516049004 18.47118402943778 0 0 0
1580 527 1 0.5897 4.011752967934505 9.173337955648504 18.252143372686348 0 0 0
141 47 1 0.5897 4.7995776167372535 9.158945405104495 22.67857842960538 0 0 -1
1657 553 2 -1.1794 0.07276556386151611 10.806828759305988 20.532155811548 1 0 0
241 81 2 -1.1794 4.684002402591337 13.948913641585907 4.3932431616274386 0 0 0
242 81 1 0.5897 4.569594437103179 13.216277039797964 4.998604556982863 0 0 0
243 81 1 0.5897 3.9732931970021665 13.849965060629728 3.759792597767407 0 0 0
244 82 2 -1.1794 2.9443950287040237 13.706766587086863 2.305438678151279 0 0 0
245 82 1 0.5897 1.9963805698579797 13.833648810205728 2.2687105908536216 0 0 0
246 82 1 0.5897 3.3022617741066598 14.415779724071081 1.771086737085785 0 0 0
250 84 2 -1.1794 3.27025635024023 17.114797777321066 3.800036811589604 0 0 0
251 84 1 0.5897 2.8892116659009393 17.05317864393929 2.9241674277694796 0 0 0
252 84 1 0.5897 4.214970189817701 17.06353157951323 3.6549086981849435 0 0 0
253 85 2 -1.1794 1.4818833697413267 15.281436682705191 4.927505552961192 0 0 0
254 85 1 0.5897 0.7969381619551873 15.78162677280832 4.483778898368127 0 0 0
255 85 1 0.5897 2.2970329135510075 15.715894315905121 4.676507207631431 0 0 0
259 87 2 -1.1794 4.5160505383232135 15.494058027119369 0.9322416455783975 0 0 0
260 87 1 0.5897 4.511402253395117 16.44764953743752 0.8481755077096204 0 0 0
262 88 2 -1.1794 1.672233087967322 16.930011666484283 1.5338123276608033 0 0 0
263 88 1 0.5897 1.7538482844762302 16.20890382629323 0.9095986576633832 0 0 0
264 88 1 0.5897 1.6855870755037372 17.719170394531638 0.9921640176382123 0 0 0
269 90 1 0.5897 1.5490111505956026 13.493436272245171 5.020511835257542 0 0 0
288 96 1 0.5897 5.921919349286603 14.67955560481723 1.7041482408129351 0 0 0
268 90 2 -1.1794 1.6370902202069868 12.54988160871086 5.1560389352934095 0 0 0
247 83 2 -1.1794 5.971214835433326 16.98534259544521 3.6523261272804333 0 0 0
146 49 1 0.5897 5.548824512638562 12.659793506137367 1.2557326246382936 0 0 0
338 113 1 0.5897 0.35716949816112037 17.033919702876105 2.8077737069044573 1 0 0
147 49 1 0.5897 4.040766204176343 12.568010552268225 1.351063873383256 0 0 0
265 89 2 -1.1794 4.596257836104306 18.24398096960924 0.8101548837881346 0 0 0
287 96 1 0.5897 6.001182804139733 13.976120545999587 3.0423210831354917 0 0 0
389 130 1 0.5897 2.2198212820361793 18.37595594733112 4.575473358419003 0 0 0
339 113 1 0.5897 0.21895776857676089 17.76877987988442 4.124091653742045 1 0 0
256 86 2 -1.1794 0.28357320547011866 13.987130816642022 2.184545737357319 0 0 0
740 247 1 0.5897 4.829025647277673 15.171203227547897 5.744486201895219 0 0 0
722 241 1 0.5897 4.035089686147105 13.94708916780324 9.377928972838271 0 0 0
727 243 2 -1.1794 6.084070400930122 16.89659151629234 9.335542805029716 0 0 0
723 241 1 0.5897 5.528447556527498 13.726594902122844 9.492079712889225 0 0 0
743 248 1 0.5897 1.5777443435469956 17.715118250831317 6.522234599032524 0 0 0
741 247 1 0.5897 4.776051787835147 16.568415860260423 6.325229115383887 0 0 0
736 246 2 -1.1794 0.37085090030680096 13.967496560715736 7.7744334417547725 0 0 0
870 290 1 0.5897 2.387968286875092 18.204773007158437 10.273858043185934 0 0 0
768 256 1 0.5897 6.12759684288494 14.571517175808712 7.424857250907439 0 0 0
744 248 1 0.5897 1.5104939917060096 16.202923935349418 6.488625740104202 0 0 0
725 242 1 0.5897 3.483719329471011 14.728498718472833 7.512943263921939 0 0 0
731 244 1 0.5897 2.9131922956390293 16.95781243437213 8.420980646727584 0 0 0
742 248 2 -1.1794 1.5873261835739614 16.944114534098567 7.089494925689034 0 0 0
869 290 1 0.5897 0.8768632405828557 18.12536822611701 10.318669228106337 0 0 0
1221 407 1 0.5897 4.62979250597447 15.222542962328466 11.28093347392827 0 0 0
733 245 2 -1.1794 1.6039841519665918 15.202075671083794 10.781150356848336 0 0 0
739 247 2 -1.1794 4.8431709514050505 15.646741088641209 6.5750679033943555 0 0 0
818 273 1 0.5897 0.3876739379867159 16.915156773170217 8.472118475642365 1 0 0
732 244 1 0.5897 2.797951809974919 16.235308151451164 9.746318274070852 0 0 0
749 250 1 0.5897 1.5960881091100156 13.457641269027933 10.753838689095947 0 0 0
728 243 1 0.5897 5.128358823767558 16.948676038204496 9.34431950152687 0 0 0
726 242 1 0.5897 3.450389243611005 13.22052720126812 7.381442490618077 0 0 0
745 249 2 -1.1794 4.661122855610139 18.357551191927357 6.302736284124869 0 0 0
737 246 1 0.5897 1.3216314985976882 13.98819793462138 7.882883336751843 0 0 0
730 244 2 -1.1794 3.2939661262548383 16.92056788529463 9.29834174791354 0 0 0
721 241 2 -1.1794 4.740203737126201 13.85769036754753 10.019006366455255 0 0 0
748 250 2 -1.1794 1.6124010943826308 12.506949314970488 10.642740757677627 0 0 0
735 245 1 0.5897 0.8485194442308299 15.633142944031954 10.381562127872687 0 0 0
724 242 2 -1.1794 3.0554505190957353 13.94732508120914 7.863212231836678 0 0 0
627 209 1 0.5897 5.399770167733253 12.46208893592463 6.871087847102155 0 0 0
1106 369 1 0.5897 4.820146851234991 12.600155322211178 11.37104439889592 0 0 0
1201 401 2 -1.1794 4.680801503491855 14.142624400230165 15.664488988175014 0 0 0
1202 401 1 0.5897 5.432620008435739 14.012332345462953 15.086599704337479 0 0 0
1203 401 1 0.5897 4.699947152439676 13.390545196172543 16.25636986930217 0 0 0
1204 402 2 -1.1794 2.9934091789054658 13.930048137658712 13.507037149184658 0 0 0
1205 402 1 0.5897 3.4303026072511713 14.04807463276751 14.350447680399016 0 0 0
1206 402 1 0.5897 3.5097502338994846 13.258562671109013 13.061180754815604 0 0 0
1210 404 2 -1.1794 3.450169867585349 16.869737911205547 14.916832499419614 0 0 0
1211 404 1 0.5897 3.129996265299279 17.594524866641265 15.453934190689974 0 0 0
1212 404 1 0.5897 4.4036565810635695 16.93946935402841 14.963474389340599 0 0 0
1213 405 2 -1.1794 1.706055386266519 15.254613979179721 16.442147015135554 0 0 0
1214 405 1 0.5897 0.976088131470285 15.713844010968092 16.026838362252057 0 0 0
1215 405 1 0.5897 2.4851336061501526 15.595672266552539 16.002927782216055 0 0 0
1218 406 1 0.5897 1.153680378797234 13.905203567158845 13.48383961204173 0 0 0
1219 407 2 -1.1794 4.600241479386033 15.685642314609458 12.118110483880928 0 0 0
1220 407 1 0.5897 3.911975698607154 15.24181365311649 12.613613132547853 0 0 0
1222 408 2 -1.1794 1.56752164145276 16.90276993948143 12.938359948153451 0 0 0
1223 408 1 0.5897 1.7002337539940764 17.621148591030746 12.319798556056485 0 0 0
1224 408 1 0.5897 2.3302989183174683 16.939029907210326 13.515434420610967 0 0 0
1227 409 1 0.5897 4.5884507103161924 17.451305458734673 12.211604379151524 0 0 0
1229 410 1 0.5897 1.538386149166133 13.516486284275695 16.293462573143458 0 0 0
1298 433 1 0.5897 0.3020491034999124 16.953218518308176 14.311243912787177 1 0 0
1228 410 2 -1.1794 1.494840236145407 12.565507359321366 16.192630633572378 0 0 0
1225 409 2 -1.1794 4.4646604254702735 18.400436293010387 12.195752007394146 0 0 0
1247 416 1 0.5897 5.855970623673093 14.742338102502618 13.082781313728836 0 0 0
1216 406 2 -1.1794 0.2047171874374556 13.825556672150435 13.580283019566227 0 0 0
734 245 1 0.5897 1.682819500991399 15.607812372515733 11.64448697379277 0 0 0
1350 450 1 0.5897 1.158134567122007 18.321472724731166 15.93903852292844 0 0 0
1248 416 1 0.5897 6.01126798316831 13.236515882895079 13.110366832959581 0 0 0
1207 403 2 -1.1794 6.192262911144687 16.991654188614056 15.046370628843588 0 0 0
1700 567 1 0.5897 4.869282816216281 15.300608541852801 17.08599836811551 0 0 0
261 87 1 0.5897 4.547181886707879 15.173767296957658 22.727069866388703 0 0 -1
1690 564 2 -1.1794 3.2820719934713667 17.021570243763897 20.63021146833482 0 0 0
1705 569 2 -1.1794 4.741829756177251 18.50572584032267 18.03579552386467 0 0 0
1586 529 1 0.5897 5.390263853278513 12.667528496493754 18.233726929725393 0 0 0
1692 564 1 0.5897 2.7613155301790178 17.04114623019204 19.827358198208415 0 0 0
1687 563 2 -1.1794 6.02885289669665 17.245078028870807 20.716526234506198 0 0 0
1778 593 1 0.5897 0.2959228119850898 16.852871037140446 19.900902271938563 1 0 0
1779 593 1 0.5897 0.25781123453203025 17.54647931790781 21.245988643410463 1 0 0
1686 562 1 0.5897 3.4733496861307063 14.019734478076831 19.98045357678076 0 0 0
1707 569 1 0.5897 4.748939695533183 17.55732685517286 17.905752858990965 0 0 0
1701 567 1 0.5897 4.031540114673492 15.389502072588991 18.343759790364636 0 0 0
1691 564 1 0.5897 2.914042557164456 16.297933606776134 21.137369907175184 0 0 0
1681 561 2 -1.1794 4.648509843072881 13.954519031631495 21.398739624163483 0 0 0
1703 568 1 0.5897 1.5841051156950923 16.210702700572035 17.920269763937455 0 0 0
1682 561 1 0.5897 5.450169969543248 13.913777010945829 20.877353348983284 0 0 0
1702 568 2 -1.1794 1.5535715040270275 16.951999440626025 18.52513084509502 0 0 0
1708 570 2 -1.1794 1.7367450016375103 12.49906637961687 22.051228476158876 0 0 0
1696 566 2 -1.1794 0.2952935115614099 13.70978395740694 19.232401752861072 0 0 0
1695 565 1 0.5897 1.7008793632931964 14.270270522759636 22.026623553117965 0 0 0
1704 568 1 0.5897 1.6719436028163164 17.721456133992383 17.968132162710482 0 0 0
1728 576 1 0.5897 6.054983768023885 14.6557633144395 18.896703503046318 0 0 0
1684 562 2 -1.1794 2.995068729620842 14.014824354506732 19.1513785305445 0 0 0
1699 567 2 -1.1794 4.813161076804568 15.75299928387125 17.92765692448696 0 0 0
1830 610 1 0.5897 2.3005500729911352 18.30002109150651 21.487467092551093 0 0 0
1689 563 1 0.5897 5.08718379239663 17.18001264894442 20.557782044725492 0 0 0
1683 561 1 0.5897 4.739255421712603 13.244472802548165 22.034267606322658 0 0 0
1693 565 2 -1.1794 1.8026390645444652 15.22012862027074 22.0885802562603 0 0 0
1697 566 1 0.5897 1.2498259881274651 13.778930737480216 19.216233507035987 0 0 0
1694 565 1 0.5897 1.0517498055947707 15.573602932060009 21.611694045596813 0 0 0
1685 562 1 0.5897 3.3950140462523835 13.305759930042065 18.647822166991965 0 0 0
361 121 2 -1.1794 4.672777277793946 20.222715456790844 4.272751323333693 0 0 0
362 121 1 0.5897 3.9719025676869433 20.097500142176727 3.6330207721425944 0 0 0
363 121 1 0.5897 4.623941841476711 19.450538745629125 4.83638407871384 0 0 0
364 122 2 -1.1794 2.938049276922922 19.877344225547333 2.1683398266170824 0 0 0
365 122 1 0.5897 3.187200632853931 20.662755279066495 1.6811168934411156 0 0 0
366 122 1 0.5897 1.9836554174587255 19.922911231126314 2.225174757420356 0 0 0
370 124 2 -1.1794 3.373524333810225 23.266436297185805 3.497682081676945 0 0 0
371 124 1 0.5897 4.327282711744658 23.188877483988108 3.520160857109361 0 0 0
372 124 1 0.5897 3.060272967725835 22.526550203319772 4.0180217578881745 0 0 0
373 125 2 -1.1794 1.763477287725592 21.47011833588767 4.876998525653067 0 0 0
375 125 1 0.5897 1.0408634955270584 21.871544729390337 4.394409072962705 0 0 0
379 127 2 -1.1794 4.4829983833551 21.82731121343876 0.748015951538069 0 0 0
380 127 1 0.5897 4.724015207749017 22.753591963827155 0.7299692437076378 0 0 0