LAMMPS data file via write_data, version 30 Jul 2021, timestep = 500000

3840 atoms
2 atom types
2560 bonds
1 bond types
1280 angles
1 angle types

-0.2816494501675564 49.74164845016705 xlo xhi
0.0022113866657758052 24.969016613334617 ylo yhi
0.03154874718948619 22.987466252811025 zlo zhi

Masses

1 1.008
2 15.999

Atoms # full

1 1 2 -1.1794 4.089362568969615 1.5417788366704706 4.191868115156712 0 0 0
2 1 1 0.5897 4.079256732010703 0.8140506644992329 4.813611119786977 0 0 0
3 1 1 0.5897 3.3768853734832445 1.3471201853536217 3.5829894941856053 0 0 0
4 2 2 -1.1794 2.6264583648207886 1.376739557583998 1.923547789364885 0 0 0
5 2 1 0.5897 3.0349567177420016 0.7815154629865465 1.2949859530904384 0 0 0
6 2 1 0.5897 1.6861343139329745 1.2427755815858654 1.8047745398273158 0 0 0
7 3 2 -1.1794 5.8511004803893165 4.270373300317135 3.5913828307814404 0 0 0
9 3 1 0.5897 6.2974454937816144 3.5423257532526446 4.023800715325136 0 0 0
10 4 2 -1.1794 3.1180204209671554 4.553898542937997 3.5766338304459095 0 0 0
11 4 1 0.5897 2.757589911380712 3.723307961446369 3.8872393076610003 0 0 0
12 4 1 0.5897 4.034372269664315 4.359275212569629 3.3799529431322233 0 0 0
13 5 2 -1.1794 1.5249790795887683 2.4715778640827284 4.6590711743667566 0 0 0
14 5 1 0.5897 0.843493929993153 2.9782099352387825 4.217300923794741 0 0 0
21 7 1 0.5897 3.5072167922452624 2.8346652039127465 0.7510141009951553 0 0 0
22 8 2 -1.1794 1.3358486354497752 4.330071054771943 1.3718918194400274 0 0 0
23 8 1 0.5897 2.114620786446656 4.461288668217931 1.9127691545981367 0 0 0
24 8 1 0.5897 1.2637946386170422 5.133203572562451 0.8560941149887007 0 0 0
25 9 2 -1.1794 4.389953888707432 5.815896788554717 1.0040793407447197 0 0 0
30 10 1 0.5897 1.3442796530134797 0.6105835552088275 4.693431258739736 0 0 0
46 16 2 -1.1794 6.034166486693971 1.2378749660716706 2.0515877170116963 0 0 0
48 16 1 0.5897 5.481794925739807 1.2092868066767826 2.832810434548546 0 0 0
245 82 1 0.5897 3.0991808871019764 7.091393447169121 1.8894225050641489 0 0 0
268 90 2 -1.1794 1.3358346706962014 6.301745075041491 4.61228116264017 0 0 0
269 90 1 0.5897 0.46554730118637877 5.950680627049051 4.423557504042185 0 0 0
270 90 1 0.5897 1.9397066593661303 5.661056957057823 4.236622007576065 0 0 0
47 16 1 0.5897 5.654082705402845 0.5839874822119503 1.46488297394547 0 0 0
287 96 1 0.5897 5.8785123263473285 7.119773979501824 1.5873245600816583 0 0 0
20 7 1 0.5897 4.924436938259399 2.351788928349877 0.9752706252086444 0 0 0
246 82 1 0.5897 1.6932037689790727 7.592402095695214 2.1427870472010677 0 0 0
19 7 2 -1.1794 4.420055816471942 3.053605913409133 0.5637919520595889 0 0 0
286 96 2 -1.1794 6.178606468546422 7.945923999140621 1.9663832190677049 0 0 0
241 81 2 -1.1794 4.472521811792843 7.600330310353364 4.144607917921384 0 0 0
986 329 1 0.5897 4.686639857474577 6.518711240827615 5.499783664628036 0 0 0
244 82 2 -1.1794 2.6132130877353883 7.8396543972489985 2.2361300497131573 0 0 0
8 3 1 0.5897 6.079176000499676 5.037579859994768 4.116392944823921 0 0 0
27 9 1 0.5897 4.357769269494565 4.86047740536925 0.9549712052703522 0 0 0
16 6 2 -1.1794 -0.06228249201864944 1.236787227099248 2.070019407362432 0 0 0
980 327 1 0.5897 4.448769448182288 2.930145646588334 5.464406890554085 0 0 0
243 81 1 0.5897 3.680182320251901 7.482137133693685 3.6206977482379474 0 0 0
242 81 1 0.5897 5.184022027844369 7.61218855863302 3.5043937030537697 0 0 0
15 5 1 0.5897 1.6270267361538027 2.8975729162619785 5.510160120567642 0 0 0
26 9 1 0.5897 4.391979606475502 6.103207875902479 0.09101789553185263 0 0 0
254 85 1 0.5897 1.1553219776787165 7.985376768479396 4.775570965291962 0 0 0
219 73 1 0.5897 0.04084934999707518 4.553315680619351 2.7857692962210767 1 0 0
256 86 2 -1.1794 -0.15549254556010825 7.108794477023458 1.9987734208534926 0 0 0
53 18 1 0.5897 6.754582744091857 4.526052109872599 1.9642082696233578 0 0 0
976 326 2 -1.1794 0.14474289511951693 1.5763646368699615 7.434090916059703 0 0 0
1940 647 1 0.5897 4.384340077764967 2.8184224687945507 11.268862096769587 0 0 0
988 330 2 -1.1794 1.6664545423121133 0.2163293670200989 10.905905492567681 0 0 0
1946 649 1 0.5897 4.403711987644682 5.98322461798346 11.345349281446953 0 0 0
974 325 1 0.5897 1.3626640541926507 3.336352532162173 11.229670913663911 0 0 0
1203 401 1 0.5897 4.50919758826678 8.113558600432855 10.389420776433711 0 0 0
1179 393 1 0.5897 0.2566572757207246 5.118842765350924 9.655387182375923 1 0 0
1013 338 1 0.5897 6.506092480941463 4.907662637141203 7.533288487363571 0 0 0
1246 416 2 -1.1794 6.143922900039056 7.617868838312648 7.883400396057879 0 0 0
1202 401 1 0.5897 3.893636504352834 7.391634138046106 9.209658995240453 0 0 0
963 321 1 0.5897 4.677423354717496 0.7078633207287484 10.632821173831566 0 0 0
966 322 1 0.5897 3.259272953998396 1.2048335660980927 8.652542483351175 0 0 0
1006 336 2 -1.1794 6.202789911653771 1.229424486361951 7.414111839454551 0 0 0
983 328 1 0.5897 1.5680292795186397 5.1390685552897 6.3435106036326525 0 0 0
972 324 1 0.5897 2.621269980156803 5.353895918309198 9.198303297609236 0 0 0
973 325 2 -1.1794 1.3987990463639968 2.8264809204899195 10.42037057528195 0 0 0
964 322 2 -1.1794 2.7956421403141056 1.4732100735863156 7.8592847988144685 0 0 0
1205 402 1 0.5897 1.866462711134711 7.974355283816551 7.831933224506784 0 0 0
981 327 1 0.5897 4.641346006713775 4.170680941720638 6.31054553828201 0 0 0
1248 416 1 0.5897 5.7449001330591045 6.941672203754856 7.335864807078614 0 0 0
962 321 1 0.5897 5.308059686057038 1.1668803913197683 9.335318146296476 0 0 0
978 326 1 0.5897 1.0938586919708844 1.6743701021466482 7.510494073065122 0 0 0
969 323 1 0.5897 4.676503496987131 4.346356832366754 9.051290563155248 0 0 0
967 323 2 -1.1794 5.555817516390629 4.594411394361341 9.336837003919454 0 0 0
1007 336 1 0.5897 5.871832951499165 1.9800618029106172 6.92088575037852 0 0 0
1201 401 2 -1.1794 4.508569516459118 7.271956319872389 9.933384447953822 0 0 0
971 324 1 0.5897 2.5665557606674794 3.8412601098200434 9.167644586819307 0 0 0
1230 410 1 0.5897 1.785339798282088 5.808896332346942 11.368363548555855 0 0 0
970 324 2 -1.1794 3.007912232173204 4.591005055838564 8.768456711024237 0 0 0
1228 410 2 -1.1794 1.492606615209866 6.073729715356641 10.496351130112428 0 0 0
987 329 1 0.5897 3.8512885586874086 6.317198206237741 6.746175688390794 0 0 0
982 328 2 -1.1794 1.5624848211991211 4.243140574772784 6.680483123396558 0 0 0
984 328 1 0.5897 2.2006402516523202 4.251113873634153 7.3938817311596 0 0 0
979 327 2 -1.1794 4.533468220911898 3.2215594641199394 6.37222673502138 0 0 0
975 325 1 0.5897 0.9170358202784257 3.3535905254586105 9.782946128723083 0 0 0
985 329 2 -1.1794 4.6149625968098045 5.973014523754872 6.282931418371938 0 0 0
990 330 1 0.5897 1.5180076410936807 1.1474911142504347 10.741060669789745 0 0 0
1247 416 1 0.5897 5.716143520703436 7.521079545443771 8.734207572338045 0 0 0
1229 410 1 0.5897 1.3140591734964568 7.010653927235852 10.577389687935865 0 0 0
965 322 1 0.5897 3.2750658953056067 2.2416017858573962 7.5494569720749904 0 0 0
961 321 2 -1.1794 4.515883189993818 1.2563262237150006 9.865137845146997 0 0 0
1204 402 2 -1.1794 2.7745822814597103 7.671789781436986 7.825812369199893 0 0 0
968 323 1 0.5897 5.934362984258671 3.7845887644568905 9.679119642556369 0 0 0
977 326 1 0.5897 -0.15900276001626423 2.425052005017912 7.112010035213947 0 0 0
1178 393 1 0.5897 -0.07365617907107236 5.112560435380662 8.17797565168581 1 0 0
1206 402 1 0.5897 3.233618969919487 8.301540883881243 7.269974749591715 0 0 0
1706 569 1 0.5897 3.53889280919859 0.06892920895045052 6.758751000844925 0 1 0
1707 569 1 0.5897 5.030811348255498 0.10516414954437892 6.504119271272942 0 1 0
1921 641 2 -1.1794 4.571391092396732 1.3202211301270967 15.829629791236549 0 0 0
1922 641 1 0.5897 5.21570079277131 1.4212725441261493 15.128988088760945 0 0 0
1923 641 1 0.5897 4.58707981374738 2.157816343371885 16.29271851508527 0 0 0
1924 642 2 -1.1794 2.834304886062578 1.3732038624298368 13.87577454105703 0 0 0
1925 642 1 0.5897 3.361525595745533 1.2941719602156916 14.670778624467138 0 0 0
1926 642 1 0.5897 3.354475515077693 1.9309393630637413 13.297322041817154 0 0 0
1927 643 2 -1.1794 5.667515772288637 4.5979840842116895 15.007932307386762 0 0 0
1930 644 2 -1.1794 2.8887861467256317 4.414508162454124 15.246294587563646 0 0 0
1931 644 1 0.5897 3.807786906253935 4.428795812526471 14.978910678109475 0 0 0
1932 644 1 0.5897 2.637714315212499 5.3370940209776805 15.29180788347176 0 0 0
1933 645 2 -1.1794 1.07976260465254 2.834146808444951 16.542234669703117 0 0 0
1934 645 1 0.5897 1.6879906465628214 3.2221111408190786 15.913114145246256 0 0 0
1935 645 1 0.5897 1.1320819083490226 1.8926778588331497 16.377397160846424 0 0 0
1937 646 1 0.5897 0.8566789430688866 1.2762196272484696 13.767705051221448 0 0 0
1939 647 2 -1.1794 4.3795817441944545 3.046263119596746 12.198537833340625 0 0 0
1942 648 2 -1.1794 1.4994847838325556 4.432639540737122 12.777662845843656 0 0 0
1943 648 1 0.5897 2.2147111128005266 4.137439894395878 13.3411882096714 0 0 0
1944 648 1 0.5897 0.7842461551659561 4.631491576631589 13.381932342575318 0 0 0
1947 649 1 0.5897 5.350378642038934 6.223710514995332 12.502031308174779 0 0 0
1966 656 2 -1.1794 6.3305768470107715 1.5572553993290568 13.65104318836819 0 0 0
1968 656 1 0.5897 6.036237753652668 2.216087375699304 13.022109103510829 0 0 0
2162 721 1 0.5897 4.230849635947259 7.123247578850326 16.30908134513198 0 0 0
2164 722 2 -1.1794 2.614206152922381 7.4587683546274555 13.430183936834984 0 0 0
2165 722 1 0.5897 3.1426560684529172 6.731493542218126 13.101432210450517 0 0 0
2188 730 2 -1.1794 1.2002471776521861 6.5342651781431496 16.163600226780783 0 0 0
2189 730 1 0.5897 0.6287078052938715 5.904338015209084 15.72451566087074 0 0 0
1929 643 1 0.5897 6.1040269411720764 5.264954100531726 15.537901013614386 0 0 0
2161 721 2 -1.1794 4.506079518649312 7.642868241572491 15.553775016311285 0 0 0
1941 647 1 0.5897 4.72336930846552 3.9391124291947492 12.22858455333705 0 0 0
1928 643 1 0.5897 6.20569761335714 4.5278660517804195 14.219462958115098 0 0 0
2163 721 1 0.5897 3.738640658239559 7.660235490350075 14.981947028780583 0 0 0
2206 736 2 -1.1794 6.20487262589063 7.4857452015410715 13.442816823430944 0 0 0
1945 649 2 -1.1794 4.559094571779527 5.743104714955758 12.258820899282483 0 0 0
2207 736 1 0.5897 5.711045479224843 7.535086177151558 14.261314395345842 0 0 0
2178 726 1 0.5897 0.8872455575035036 7.35407613499558 13.417059375040854 0 0 0
1965 655 1 0.5897 6.569258909757317 3.153192623147062 16.21383853236571 0 0 0
1938 646 1 0.5897 -0.2432298183822734 0.944216483485989 12.7818492376925 0 0 0
1948 650 2 -1.1794 1.273444752271369 0.01823561191538585 16.393786943500864 0 0 0
2190 730 1 0.5897 1.2417919087980904 6.229422821835944 17.07000989879512 0 0 0
2166 722 1 0.5897 2.7382845463330376 8.155945581480797 12.786133054481741 0 0 0
1936 646 2 -1.1794 -0.07483988190371138 1.416064690134983 13.597474252706988 0 0 0
2139 713 1 0.5897 -0.2534791446404304 3.6889929712874463 15.340591455649493 1 0 0
2176 726 2 -1.1794 -0.0408151014804794 7.483223251131111 13.221389940484716 0 0 0
2666 889 1 0.5897 5.569354468374401 0.1606204696996598 12.636505762957158 0 1 0
2175 725 1 0.5897 1.1567449207081413 8.276403580229621 16.315383391725028 0 0 0
2889 963 1 0.5897 6.238891931464555 5.281272772310913 21.319785694413333 0 0 0
3099 1033 1 0.5897 0.050023127111763876 4.835610778716515 21.042955897285786 1 0 0
3098 1033 1 0.5897 0.14053934318467542 4.450941127843829 19.581542082592023 1 0 0
2895 965 1 0.5897 1.2484337198255473 3.1676486178430276 22.668281325035338 0 0 0
2885 962 1 0.5897 3.032427578730698 0.7885821530269403 18.893861279499934 0 0 0
2904 968 1 0.5897 2.1892057832336436 4.9722334070540954 19.143370411461472 0 0 0
2927 976 1 0.5897 5.536432005680011 0.8241298308258526 19.039353889462895 0 0 0
2886 962 1 0.5897 1.689546468549058 1.4875324696711079 18.904731075894528 0 0 0
2883 961 1 0.5897 4.374034847903375 1.91416019661702 22.073958421207944 0 0 0
2909 970 1 0.5897 1.1223436817610988 0.7620915388381979 22.107872882948563 0 0 0
3136 1046 2 -1.1794 -0.17371044139023317 7.875172393523502 18.632173508619267 0 0 0
2925 975 1 0.5897 6.644096111391966 3.1054976775595673 21.77050957058421 0 0 0
2899 967 2 -1.1794 4.577096675325795 3.130306401067687 17.933709966156414 0 0 0
2881 961 2 -1.1794 4.281082468640302 1.1448761306127293 21.51197991701901 0 0 0
3125 1042 1 0.5897 1.5953416070824822 7.991694646243597 19.111601400686858 0 0 0
3121 1041 2 -1.1794 4.233429207256168 7.510301232578341 21.68303704631545 0 0 0
2887 963 2 -1.1794 5.943104787173466 4.581083968805842 20.73797695584552 0 0 0
2891 964 1 0.5897 2.997944418025166 3.7784599319554566 20.805290297886906 0 0 0
2905 969 2 -1.1794 4.193130888771182 6.242247950243269 17.76036097299121 0 0 0
3149 1050 1 0.5897 1.4061697610105874 7.095241032654092 22.22687433011057 0 0 0
2903 968 1 0.5897 1.5955702383659656 4.283050998877611 17.93318519243437 0 0 0
2926 976 2 -1.1794 6.076670948788718 1.4625026695736447 19.505059742636895 0 0 0
2892 964 1 0.5897 4.1417344441246655 4.71508663466052 20.479015441221044 0 0 0
2888 963 1 0.5897 6.541662922602368 4.62000640210684 19.992017616866747 0 0 0
2902 968 2 -1.1794 1.4767820731705636 5.039471428944 18.50761891985603 0 0 0
3166 1056 2 -1.1794 5.9377908269034645 7.688403743013359 19.56118070732875 0 0 0
2907 969 1 0.5897 3.5347055311876074 6.440338422645582 18.42630644058561 0 0 0
2906 969 1 0.5897 3.9495420876241116 5.376724138687519 17.432030032865878 0 0 0
2884 962 2 -1.1794 2.590364898910604 1.573825452223719 19.216723756893064 0 0 0
3123 1041 1 0.5897 3.503815134193218 7.793772364830988 21.132075040308095 0 0 0
2928 976 1 0.5897 5.540939044026776 1.7312598249326203 20.251386875719255 0 0 0
2901 967 1 0.5897 5.2343787411725335 2.7132777974135993 18.490774761775363 0 0 0
3148 1050 2 -1.1794 1.4051482627248288 6.138966096965845 22.184316112346583 0 0 0
3167 1056 1 0.5897 5.838447129030614 6.905789777061425 19.01905085747335 0 0 0
2882 961 1 0.5897 3.5009321948737044 1.3239983085365814 20.987066709093735 0 0 0
3124 1042 2 -1.1794 2.498990772409207 7.891647613064019 19.411049273567652 0 0 0
2893 965 2 -1.1794 1.3987054470991647 2.715407098807119 21.838139611561772 0 0 0
2900 967 1 0.5897 3.7389109456561744 2.8332128103122476 18.28788427377134 0 0 0
2894 965 1 0.5897 0.6716203432429031 2.9908040306503634 21.27978870574726 0 0 0
3168 1056 1 0.5897 5.491619801617618 7.471487240452227 20.379787546875995 0 0 0
2890 964 2 -1.1794 3.1872736706522344 4.679083290482318 20.542037250015653 0 0 0
3150 1050 1 0.5897 2.2416932601305604 5.916015820899631 21.77597422244082 0 0 0
3122 1041 1 0.5897 4.276178809329228 8.164887342838107 22.380130647483547 0 0 0
2896 966 2 -1.1794 -0.14040948992771277 1.403148588807938 18.771480400327263 0 0 0
247 83 2 -1.1794 5.622116767316399 10.900672411908126 3.7845416248926376 0 0 0
250 84 2 -1.1794 2.890438806272454 10.680244783724294 3.555605693088423 0 0 0
251 84 1 0.5897 2.6009538625342064 10.62575264878049 2.644858413518904 0 0 0
252 84 1 0.5897 3.8405289050541267 10.571988781433953 3.512331127837742 0 0 0
253 85 2 -1.1794 1.036131208023823 8.934827080616444 4.750842434159053 0 0 0
255 85 1 0.5897 1.873997498389603 9.27375792473757 4.4356178861709665 0 0 0
260 87 1 0.5897 5.098770846960444 9.131351354517419 1.1274139787759394 0 0 0
262 88 2 -1.1794 1.3393760287125993 10.894940498460924 1.2472700353204171 0 0 0
263 88 1 0.5897 1.3640351952338252 10.111795457519616 0.6974201817410888 0 0 0
264 88 1 0.5897 0.5602039427724425 10.781554161469153 1.7915924785140818 0 0 0
481 161 2 -1.1794 4.119054007631359 13.839608134178057 4.357629070998977 0 0 0
482 161 1 0.5897 4.239800184830816 14.492836281206854 5.046805331868076 0 0 0
483 161 1 0.5897 4.740024012759317 14.093521206537964 3.6748619460731415 0 0 0
484 162 2 -1.1794 2.3385656065976157 13.883428040701725 1.9921644320966112 0 0 0
485 162 1 0.5897 1.3879525709424998 13.952906936008741 1.904013104707405 0 0 0
486 162 1 0.5897 2.48795213520065 13.817666890032866 2.9353445759492387 0 0 0
493 165 2 -1.1794 1.515128173193446 15.146363326034137 5.006501668703456 0 0 0
494 165 1 0.5897 0.7136522247976397 15.582668199210861 4.71747445483176 0 0 0
495 165 1 0.5897 2.2223278865961382 15.663413133897157 4.6207696419774535 0 0 0
508 170 2 -1.1794 1.3886983948978127 12.357196079263929 5.0036555053643195 0 0 0
509 170 1 0.5897 2.1668724180443166 11.97359122058941 4.599240877823199 0 0 0
510 170 1 0.5897 1.5988726282630275 13.286628647398755 5.094510986904249 0 0 0
526 176 2 -1.1794 5.784293440067124 14.06629459707496 2.0471289363896017 0 0 0
527 176 1 0.5897 5.426637770569227 14.784042731571661 1.5244640153166165 0 0 0
528 176 1 0.5897 5.569624494096845 13.277088112195397 1.5498043698077741 0 0 0
249 83 1 0.5897 6.085330347488188 10.300018112986388 4.3684102218481335 0 0 0
501 167 1 0.5897 3.405507259365252 15.271571630215615 1.3252940607431054 0 0 0
267 89 1 0.5897 3.5144283980563054 12.7119425750456 1.0018139309966 0 0 0
261 87 1 0.5897 3.5931154689469755 8.973340876910864 1.1243681310091518 0 0 0
248 83 1 0.5897 6.16599213556924 10.937706766906164 2.9977335877548326 0 0 0
259 87 2 -1.1794 4.312036144384114 9.384722496996266 0.6446023899823394 0 0 0
266 89 1 0.5897 4.195912434316653 11.395484336554427 0.694395139372772 0 0 0
499 167 2 -1.1794 4.028313090460574 15.720208025193386 0.7533746181223884 0 0 0
265 89 2 -1.1794 4.316051818812173 12.343014103990928 0.6309352227617692 0 0 0
459 153 1 0.5897 -0.2335937073884704 10.026159942133775 3.909730640540256 1 0 0
1221 407 1 0.5897 4.333641137631522 8.994513270629431 5.3545864108753545 0 0 0
503 168 1 0.5897 1.5001024132212883 16.113016012369762 0.7651700022890517 0 0 0
458 153 1 0.5897 -0.08067693477666113 11.502797741226477 3.6128243063977905 1 0 0
525 175 1 0.5897 6.798803516309941 15.704510129317441 4.068402913013814 0 0 0
1449 483 1 0.5897 6.423404994415164 16.127167614379864 9.567887844412272 0 0 0
1227 409 1 0.5897 4.2936832371496525 12.640614945712107 5.801089721957059 0 0 0
1456 486 2 -1.1794 0.018034586504360295 13.600002285330683 7.761821129005878 0 0 0
1219 407 2 -1.1794 4.398207146767097 9.320569504857144 6.252223755284874 0 0 0
1245 415 1 0.5897 6.654194345481173 9.434135285102899 10.058849257472664 0 0 0
1211 404 1 0.5897 2.685796549441242 10.061584279562618 10.041920707230057 0 0 0
1207 403 2 -1.1794 5.664238033585611 10.972187508956289 9.309838969599896 0 0 0
1470 490 1 0.5897 1.6247848556516005 12.290154530922846 10.391497290845486 0 0 0
1443 481 1 0.5897 4.22894748649605 12.817805048182281 10.582739809855537 0 0 0
1455 485 1 0.5897 1.7309296626219601 15.366820143873616 10.531452271900946 0 0 0
1212 404 1 0.5897 2.195424575302337 10.702277994947362 8.760919643614828 0 0 0
1469 490 1 0.5897 0.8163925905875908 13.472227603288609 10.882605091731941 0 0 0
1225 409 2 -1.1794 4.506820717314421 12.153792773053292 6.597217047896864 0 0 0
1220 407 1 0.5897 5.167026533311748 8.879111056679346 6.613182623765842 0 0 0
1226 409 1 0.5897 4.473067976120624 11.234475154748349 6.332669331637678 0 0 0
1468 490 2 -1.1794 0.8028641864903048 12.516737876788984 10.826656210057179 0 0 0
1213 405 2 -1.1794 1.0379524028316778 9.034050395699705 10.724994503022398 0 0 0
2421 807 1 0.5897 4.396864173129448 15.052179575058053 11.474012157844934 0 0 0
1224 408 1 0.5897 1.077747820944118 9.788985196205742 6.236663364984645 0 0 0
1454 485 1 0.5897 0.3216970914825408 15.896675265448714 10.372413454335161 0 0 0
1222 408 2 -1.1794 1.219794907581106 10.43810688508907 6.925657229535292 0 0 0
1444 482 2 -1.1794 2.612820244048231 14.025732844632248 7.871293269172792 0 0 0
1453 485 2 -1.1794 0.8403643546002646 15.261537930353816 10.86621869770566 0 0 0
1488 496 1 0.5897 5.662266892078211 14.457430067698873 7.448224730665808 0 0 0
1215 405 1 0.5897 0.385219025791083 9.511179246849704 10.212604439467762 0 0 0
1441 481 2 -1.1794 4.221092707082441 13.645870279927205 10.102626041120248 0 0 0
1487 496 1 0.5897 5.857816410524752 12.994622047129253 7.7857836105336276 0 0 0
1459 487 2 -1.1794 4.522114657551633 15.39513342925259 6.60926544138524 0 0 0
1209 403 1 0.5897 4.728382523591522 11.040491035191462 9.120705797556413 0 0 0
1460 487 1 0.5897 3.8024434425934466 14.992819690496136 7.095549322955513 0 0 0
1446 482 1 0.5897 2.9845257720438223 14.019723525648413 8.75335504806663 0 0 0
1445 482 1 0.5897 2.9811650367719063 13.248946964901696 7.4503552490204905 0 0 0
1458 486 1 0.5897 0.9518923863353344 13.724825020447986 7.930911407899081 0 0 0
1223 408 1 0.5897 1.34963739038178 11.262054837094224 6.456068434355831 0 0 0
1210 404 2 -1.1794 2.7122568214769944 10.880306240134427 9.54668744293519 0 0 0
1208 403 1 0.5897 6.070769900270118 10.817730759753314 8.45713136468338 0 0 0
1486 496 2 -1.1794 6.2343935839346525 13.86229999528172 7.9327336624884115 0 0 0
1442 481 1 0.5897 5.06111308472843 13.66540073474618 9.644106884138484 0 0 0
1464 488 1 0.5897 1.4989437455532213 16.206658017962383 7.142286316725602 0 0 0
1461 487 1 0.5897 4.288944144507051 16.322144010996794 6.558709175827788 0 0 0
1419 473 1 0.5897 0.11335227599786496 10.869562824575562 8.40769189085978 1 0 0
1418 473 1 0.5897 -0.12542317245057472 11.404594265832086 9.803625208982536 1 0 0
2167 723 2 -1.1794 5.778359225801018 10.832041109362505 15.023694151212593 0 0 0
2170 724 2 -1.1794 3.022020701295645 10.576156788937004 15.364813470754244 0 0 0
2171 724 1 0.5897 2.8370238696478927 10.560694027168333 14.425788896121023 0 0 0
2172 724 1 0.5897 3.9771663017670793 10.604873175601924 15.420806561862372 0 0 0
2173 725 2 -1.1794 0.9460060478831585 9.209239821415123 16.356354903496875 0 0 0
2174 725 1 0.5897 1.695395441590951 9.642740235106062 15.948002293704567 0 0 0
2182 728 2 -1.1794 1.430205410178509 10.701014983020078 12.910530630794133 0 0 0
2183 728 1 0.5897 1.3133826374496906 11.415259363361377 12.284063297136715 0 0 0
2184 728 1 0.5897 0.7062613467016945 10.802935171272319 13.52840290761189 0 0 0
2185 729 2 -1.1794 4.255088371035029 12.00097467641573 12.449462672745195 0 0 0
2186 729 1 0.5897 4.957761806292875 12.527719833923571 12.830317258818932 0 0 0
2187 729 1 0.5897 3.452525781415724 12.365941081630407 12.82222581381734 0 0 0
2401 801 2 -1.1794 4.6396061931686345 14.048467425621709 16.109516742348227 0 0 0
2402 801 1 0.5897 4.541404706052315 14.720772873003716 16.783767127882218 0 0 0
2403 801 1 0.5897 4.390171560125192 13.233432624745904 16.545135661269367 0 0 0
2404 802 2 -1.1794 2.5284827090549036 13.943890899590142 13.75431129620717 0 0 0
2405 802 1 0.5897 3.0631507188631555 14.591987410702561 13.295659405209735 0 0 0
2406 802 1 0.5897 2.9960468871201194 13.78385761011262 14.574073875452287 0 0 0
2413 805 2 -1.1794 1.4882452077021104 15.531557093452646 16.288526985966058 0 0 0
2414 805 1 0.5897 2.3142438990524226 15.94415017662752 16.036026977335762 0 0 0
2415 805 1 0.5897 0.8388960906597516 15.913259799287413 15.697848704543503 0 0 0
2418 806 1 0.5897 0.7379433347102466 13.775659968785002 13.429517979571681 0 0 0
2428 810 2 -1.1794 1.0165287555734714 12.770882258813923 16.576473472745196 0 0 0
2429 810 1 0.5897 1.142396750111168 13.6893857684593 16.338189702441735 0 0 0
2430 810 1 0.5897 1.8572157296017076 12.355618982042209 16.383950024181228 0 0 0
2446 816 2 -1.1794 6.016123655601797 13.707930816828432 13.631698926227433 0 0 0
2447 816 1 0.5897 5.644337521008943 13.780994150297145 14.51071581611566 0 0 0
2448 816 1 0.5897 5.610390422544917 14.421604900405239 13.139449642616286 0 0 0
2419 807 2 -1.1794 4.437049266603906 15.518444409876027 12.309009748950064 0 0 0
2168 723 1 0.5897 6.2316160256254856 11.465954246877196 15.579544035857094 0 0 0
2169 723 1 0.5897 6.223949276031747 10.892049610716672 14.17865902860078 0 0 0
2180 727 1 0.5897 5.04792462481531 9.013745982825817 12.289018626859729 0 0 0
2179 727 2 -1.1794 4.26779205812905 9.275098338663904 11.799791623762657 0 0 0
3140 1047 1 0.5897 4.554325345043628 8.940673224873661 17.117143342509628 0 0 0
2181 727 1 0.5897 4.135424099193829 10.194175021894589 12.032273335291967 0 0 0
1214 405 1 0.5897 1.1239004797539438 9.538752997981089 11.53377738346242 0 0 0
2423 808 1 0.5897 1.0192594174695628 16.271750503051152 12.369939644634968 0 0 0
2416 806 2 -1.1794 -0.20757459264889977 13.767304161213824 13.578476151253493 0 0 0
2379 793 1 0.5897 -0.208545326956596 10.263293242663664 15.370753477679056 1 0 0
2444 815 1 0.5897 6.853825977203444 15.690299181288813 15.950160257540336 0 0 0
2420 807 1 0.5897 4.583488830635894 16.43278883199706 12.066522855928657 0 0 0
3339 1113 1 0.5897 -0.06149808199340118 10.616346294955436 19.823388128950878 1 0 0
3165 1055 1 0.5897 6.844796493367524 9.470216315622089 21.397033902342944 0 0 0
3383 1128 1 0.5897 0.8565716755697743 16.16727798921108 18.143366004568758 0 0 0
3390 1130 1 0.5897 1.1700774463064156 12.091508069475195 22.78980463567365 0 0 0
3363 1121 1 0.5897 5.083926057810761 13.913490183010081 20.978100210028977 0 0 0
3126 1042 1 0.5897 2.9987864628755747 8.508222943312774 18.875982719723282 0 0 0
3134 1045 1 0.5897 0.6682751338223966 9.350475477394472 21.626198819828133 0 0 0
3129 1043 1 0.5897 6.3781599424741415 11.57939278846483 21.304986620334354 0 0 0
500 167 1 0.5897 3.9884160377055258 15.236129678354459 22.884479079212067 0 0 -1
3374 1125 1 0.5897 0.6173518644190547 15.84387364933415 21.667692910575845 0 0 0
3366 1122 1 0.5897 2.9499760421436845 13.258373762827711 18.74769255142815 0 0 0
3373 1125 2 -1.1794 1.49486632531587 15.51040208988345 21.854851949582404 0 0 0
3361 1121 2 -1.1794 4.208369636635336 13.960988837146925 21.36203107173608 0 0 0
3364 1122 2 -1.1794 2.5078006056729363 13.96167049330268 19.223207695368025 0 0 0
3139 1047 2 -1.1794 4.420565671311742 9.33870878119626 17.977325384900638 0 0 0
3388 1130 2 -1.1794 0.9858991248004116 12.659894527020946 22.04196708772762 0 0 0
3133 1045 2 -1.1794 1.449624382675465 8.94394634181509 22.001015599057514 0 0 0
3130 1044 2 -1.1794 3.0759985449455542 11.10818778007592 20.80235490763391 0 0 0
3147 1049 1 0.5897 5.001795063325065 12.379033430134411 18.324839415652534 0 0 0
3127 1043 2 -1.1794 5.875371194394235 10.893821102123372 20.865149816747763 0 0 0
3146 1049 1 0.5897 4.413365144967966 11.034301362622507 17.954118355350957 0 0 0
3377 1126 1 0.5897 0.6263407351267559 13.983565657456909 19.12799125654898 0 0 0
3141 1047 1 0.5897 5.012962848666578 8.860685602076064 18.557681178690245 0 0 0
3142 1048 2 -1.1794 0.9723865370684839 10.98091533420587 18.474245966797834 0 0 0
3362 1121 1 0.5897 4.213850875418714 13.300250254052015 22.054595090431764 0 0 0
3408 1136 1 0.5897 5.774738105077208 14.474219827287648 18.67267556619025 0 0 0
3131 1044 1 0.5897 2.4921792225075157 11.82404805336493 21.053285370280154 0 0 0
3132 1044 1 0.5897 2.872638025551385 10.944232417288529 19.88148868775649 0 0 0
3380 1127 1 0.5897 3.742170500154062 15.486087875078331 18.707478651053506 0 0 0
3135 1045 1 0.5897 2.176731253944233 9.316443574325682 21.502200053872084 0 0 0
3389 1130 1 0.5897 0.4379610166544312 12.127594750722215 21.465187295417756 0 0 0
3144 1048 1 0.5897 0.8535494331880384 11.752208458743375 17.919951001530688 0 0 0
3128 1043 1 0.5897 4.971131233585129 11.045476704318963 21.140124966797185 0 0 0
3375 1125 1 0.5897 1.4083452213680916 14.559107898570893 21.792989252615026 0 0 0
3406 1136 2 -1.1794 6.211141215997891 13.702993715412115 19.03465253768872 0 0 0
3365 1122 1 0.5897 2.9017785806859453 13.946254692458501 20.095433808546197 0 0 0
3143 1048 1 0.5897 1.0613134577757486 10.253877459157083 17.857996525556544 0 0 0
3379 1127 2 -1.1794 4.510461204490819 15.747549936542757 18.199914509333926 0 0 0
3145 1049 2 -1.1794 4.246013066283063 11.975127627146177 17.898328461811026 0 0 0
3405 1135 1 0.5897 6.7624485593916335 16.050693053489724 21.34494962336653 0 0 0
3173 1058 1 0.5897 6.541958988173546 10.729848898377194 19.01090136112901 0 0 0
488 163 1 0.5897 5.915501093381074 18.330567846944945 3.112514521012654 0 0 0
491 164 1 0.5897 2.3402427053973573 17.531916843736788 4.023084087916905 0 0 0
504 168 1 0.5897 1.3258311570920578 17.61669892111891 0.7889841284170936 0 0 0
721 241 2 -1.1794 4.421736798204136 20.080216911360843 4.321776566921618 0 0 0
722 241 1 0.5897 4.556742610815172 20.75768407205026 4.984395550869349 0 0 0
723 241 1 0.5897 5.025985802644737 20.310902572037946 3.6161475485972483 0 0 0
724 242 2 -1.1794 2.5449230589346787 19.890236053667287 1.9809840028159118 0 0 0
725 242 1 0.5897 2.9644549558709823 20.698006685263238 1.6847286740627445 0 0 0
726 242 1 0.5897 2.8920436949534016 19.748582231221228 2.86170861010329 0 0 0
727 243 2 -1.1794 5.754372685391014 23.131672155759894 3.7950916776824957 0 0 0
730 244 2 -1.1794 3.0272275399769804 22.87760065032004 3.515900678652008 0 0 0
731 244 1 0.5897 2.5650803332609082 23.52439459175826 4.049131790935533 0 0 0
732 244 1 0.5897 3.954516684566241 23.052993556318597 3.676010358486047 0 0 0
733 245 2 -1.1794 1.3689450687197167 21.04277553411965 4.996554730668452 0 0 0
734 245 1 0.5897 0.5740324606046103 21.282369818370228 4.520147209244257 0 0 0
735 245 1 0.5897 2.0827605192699923 21.394840479405076 4.464791552607895 0 0 0
738 246 1 0.5897 0.829057576901244 20.077852004613455 1.9293473436253041 0 0 0
741 247 1 0.5897 5.019913278468357 21.53738883376146 0.9711033703162619 0 0 0
742 248 2 -1.1794 0.9723533353608762 22.974943839583524 1.3223622900083545 0 0 0
743 248 1 0.5897 1.7439293418508637 23.084469454073684 1.8781740224510601 0 0 0
744 248 1 0.5897 0.7508176570712699 23.862852100683014 1.0416306640040787 0 0 0
748 250 2 -1.1794 1.1417103834577447 18.29174030020021 5.1598909708510945 0 0 0
749 250 1 0.5897 1.2392852562896386 19.23543192979961 5.287163524354592 0 0 0
766 256 2 -1.1794 6.132594063424545 20.208996376984352 2.118511447951842 0 0 0
768 256 1 0.5897 5.96893170194414 19.440619639697424 1.5716377751041115 0 0 0
728 243 1 0.5897 6.138900748130432 22.755654742851895 3.0032648909145214 0 0 0
506 169 1 0.5897 3.5657701853462433 18.852320197364534 0.8436660783234595 0 0 0