LAMMPS data file via write_data, version 30 Jul 2021, timestep = 1250000

864 atoms
2 atom types
576 bonds
1 bond types
288 angles
1 angle types

0.6215069646827622 17.586065435317373 xlo xhi
1.8235843800561344 21.805593419943385 ylo yhi
0.7582370452384719 21.454958754763908 zlo zhi

Masses

1 1.00794
2 15.9994

Pair Coeffs # lj/cut/tip4p/long/omp

1 0 0
2 0.21084 3.1668

Bond Coeffs # harmonic/omp

1 450 0.9572

Angle Coeffs # harmonic/omp

1 55 104.52

Atoms # full

855 1 1 0.5897 2.3029061531332014 3.1769148817554687 3.1598800127974735 -5 2 1
618 1 1 0.5897 4.208596578006371 3.5738601013390126 4.662695640087739 -2 3 0
446 1 1 0.5897 3.861642312695367 2.6094424623506756 1.4407136871767037 2 0 -1
266 1 1 0.5897 0.8317219595391463 5.305798347892452 4.816900819479818 -2 0 0
265 1 2 -1.1794 1.69749599273497 5.647981178427992 4.594001960247448 -2 0 0
853 1 2 -1.1794 3.038007026788462 3.7530018993186998 3.369840533115812 -5 2 1
854 1 1 0.5897 2.6296903818759008 4.547039911377777 3.714996770584724 -5 2 1
267 1 1 0.5897 2.124953409141941 5.788273417977116 5.438952711251495 -2 0 0
19 1 2 -1.1794 0.9931498050930258 2.243468723780852 2.1827326342555025 -6 -2 2
20 1 1 0.5897 1.1564231761773591 2.1061639289468848 1.2495387448963817 -6 -2 1
830 1 1 0.5897 1.4923552639448436 6.436063075063399 2.496832128306729 4 4 5
350 1 1 0.5897 4.798461380320682 5.068571438451439 7.7936106830577945 -10 1 -3
351 1 1 0.5897 3.346315794687593 4.87086909577056 8.173527490540353 -10 1 -3
567 1 1 0.5897 1.414222879552049 3.3852891966364678 7.24867324726172 0 5 -6
349 1 2 -1.1794 4.165957083635439 5.252276989332289 8.488250286226009 -10 1 -3
566 1 1 0.5897 1.026370242366434 4.110897131684567 8.519578698527166 0 5 -6
650 1 1 0.5897 2.81311099495948 2.4065771643650953 8.659107797801187 1 -1 1
729 1 1 0.5897 1.8648130740979285 6.744950580484791 9.69332212839656 -2 2 -1
651 1 1 0.5897 4.210697834760267 2.141191048547422 8.140968515543808 1 -1 1
565 1 2 -1.1794 1.768715959753468 3.947213278577271 7.937806329306296 0 5 -6
467 1 1 0.5897 4.747529572121312 4.5393019473222775 10.147207113454488 5 -2 6
391 1 2 -1.1794 2.093683341461672 5.33258775724387 10.920002540450785 5 -2 0
159 1 1 0.5897 4.439681379483799 6.614530513266044 9.495120826804262 3 2 -3
392 1 1 0.5897 1.6359155575341904 4.505302219064278 11.06962378199775 5 -2 0
649 1 2 -1.1794 3.5790219238064283 1.8495215047685107 8.798421959352574 1 -1 1
580 1 2 -1.1794 2.636507093928373 6.2147227022164655 14.571129037037737 -2 -3 -1
786 1 1 0.5897 0.9049609542442882 3.240216021556825 12.5135817583042 6 6 2
279 1 1 0.5897 4.429011532521219 3.948390290435908 12.330370379864965 0 0 0
582 1 1 0.5897 3.090153443108394 5.529455408107671 14.080258878907308 -2 -3 -1
277 1 2 -1.1794 3.826622759189013 3.9897828085941582 13.073168109571412 0 0 0
278 1 1 0.5897 3.9956678327558524 3.1857191207395674 13.56435427398585 0 0 0
449 1 1 0.5897 1.343468539547535 4.876389703679219 14.52799312672108 6 -1 -5
448 1 2 -1.1794 0.7306841631248304 4.302399651162129 14.068254872820553 6 -1 -5
771 1 1 0.5897 2.7115796334190354 2.788721677306007 16.117842162057784 3 -3 1
146 1 1 0.5897 4.734660736799767 5.91703761277956 15.602266143909638 0 1 -4
784 1 2 -1.1794 0.9602851390294465 2.947181959443061 11.603962180970948 6 6 2
806 1 1 0.5897 0.8862801356723746 6.231069861497216 12.067596102813516 2 -1 -2
785 1 1 0.5897 1.6530320576469122 2.286508302840583 11.606387783202392 6 6 2
393 1 1 0.5897 2.832221524382836 5.31169386948681 11.528678785571655 5 -2 0
315 1 1 0.5897 1.8076025967966363 6.732137405816479 16.23129836789628 -1 -2 0
311 1 1 0.5897 1.1141911467250574 5.153344463043716 18.139546747632423 -1 3 1
800 1 1 0.5897 2.3525945395278764 2.5771400632866026 20.070159068732103 1 -1 2
329 1 1 0.5897 2.4581432902068623 4.698582855143663 20.214250168748933 3 5 -1
310 1 2 -1.1794 0.964851931341435 4.2108666655997755 18.215455664589307 -1 3 1
330 1 1 0.5897 3.8449583923339 4.3631956866466695 19.707882389051264 3 5 -1
769 1 2 -1.1794 3.1664983788541217 3.2812011308150284 16.80110215260126 3 -3 1
312 1 1 0.5897 1.7278345170673877 3.812469019494781 17.796569585570055 -1 3 1
328 1 2 -1.1794 3.197044260029526 4.109004735560883 20.365104014994436 3 5 -1
770 1 1 0.5897 3.6230833417148345 3.978712332668486 16.33060770700369 3 -3 1
838 1 2 -1.1794 1.3942805837169592 6.466393725685592 20.080522464596058 -3 -2 -4
797 1 1 0.5897 4.526960401791252 5.468472270286078 21.236336836698186 0 -5 -4
685 1 2 -1.1794 0.962128968389429 10.19214083537717 5.876122390671128 8 -6 -3
531 1 1 0.5897 3.3901971615333117 10.285444839082695 3.579537439312945 -2 -2 -6
529 1 2 -1.1794 3.5067170588354526 11.235582399176764 3.5812734838255613 -2 -2 -6
829 1 2 -1.1794 1.5203194071786337 7.232281799153988 1.9661760912603181 4 4 5
272 1 1 0.5897 4.064713320257002 8.22238173894359 4.092480136094908 -1 5 3
530 1 1 0.5897 3.9144411459156134 11.425825968226135 4.4262059336945185 -2 -2 -6
271 1 2 -1.1794 3.1443048302294434 8.459973367775282 3.9795625978049456 -1 5 3
712 1 2 -1.1794 4.670443247431686 9.416545546818371 0.8436513828280839 -5 -1 3
273 1 1 0.5897 2.8074461944869027 7.822670525460906 3.349703147835323 -1 5 3
762 1 1 0.5897 1.3695128407609847 11.262250300954287 2.7565942735286706 0 -3 0
52 1 2 -1.1794 1.8817697681797874 9.740863237050817 1.18366381992768 -3 -1 4
53 1 1 0.5897 1.6222338765191247 8.850517157740645 1.4209046619800687 -3 -1 4
714 1 1 0.5897 3.7548211512388026 9.350706602876128 1.11500555951112 -5 -1 3
687 1 1 0.5897 1.0996874199904694 10.335883144167793 4.93975413630558 8 -6 -3
404 1 1 0.5897 2.4999696274031296 7.6499021344416605 5.660388485898319 7 -3 0
831 1 1 0.5897 1.5070662346044226 6.918604830750595 1.0618679610143507 4 4 5
721 1 2 -1.1794 2.3530981904023527 9.960533780803893 10.015525435377551 1 -2 -1
722 1 1 0.5897 1.5573905173534448 10.459637408658073 9.830926750969693 1 -2 -1
614 1 1 0.5897 3.4007042668298273 10.308051641130968 8.241242191817719 -6 3 3
723 1 1 0.5897 2.1676806863355726 9.081932386577115 9.68381011838857 1 -2 -1
405 1 1 0.5897 3.6983379785237713 7.2806656321969205 6.508766338214225 7 -3 0
727 1 2 -1.1794 1.5283951587530429 7.359094086287922 9.04056551554196 -2 2 -1
157 1 2 -1.1794 4.653950064033512 7.445681897695705 9.91896422593234 3 2 -3
728 1 1 0.5897 2.1151443483179726 7.257942955976117 8.291000128831941 -2 2 -1
613 1 2 -1.1794 3.514855273379976 10.452504280694681 7.301856004278815 -6 3 4
611 1 1 0.5897 4.480142937834845 9.236559385032509 6.411987396735486 3 2 -1
615 1 1 0.5897 2.722185931975641 10.090825040192316 6.905341880534675 -6 3 4
403 1 2 -1.1794 2.744423323463342 7.355134943773973 6.537718231797658 7 -3 0
162 1 1 0.5897 2.2626435280296078 9.26766772149357 15.08390121689106 3 7 1
161 1 1 0.5897 3.2779073987400342 10.043729067695388 15.895776037370887 3 7 1
780 1 1 0.5897 4.334394331834451 11.003839701736833 12.272830208055412 -2 -1 -2
477 1 1 0.5897 1.6426412034684605 10.037035916357887 11.56994973062648 6 -4 -1
257 1 1 0.5897 3.242694537339893 7.329471363136324 11.515661998168712 -1 -2 0
258 1 1 0.5897 3.4889695789810746 8.692941613134508 12.125950323517097 -1 -2 0
160 1 2 -1.1794 3.173654669353285 9.561549888662276 15.075408838180689 3 7 1
256 1 2 -1.1794 3.0457435027931217 7.860034427488803 12.287706011566797 -1 -2 0
475 1 2 -1.1794 1.0679127503270056 10.150868017411684 12.326964629575688 6 -4 -1
588 1 1 0.5897 2.5609828768624703 11.271166472075276 14.48693914686964 0 2 5
581 1 1 0.5897 2.370074957886799 6.849826499464236 13.906306897735439 -2 -3 -1
741 1 1 0.5897 4.497875954515848 8.184343281034929 14.592889612844044 -1 0 2
476 1 1 0.5897 1.106740360754022 9.311796343178393 12.786096975371645 6 -4 -1
587 1 1 0.5897 2.198878675933205 11.790750944317045 13.111779450314637 0 2 5
358 1 2 -1.1794 1.0763562058164464 11.014303101550189 19.480316942155312 3 0 -6
526 1 2 -1.1794 3.688092214724944 11.360206953228197 17.02719844726009 -2 -4 0
765 1 1 0.5897 2.2502341184169072 8.24724624842704 17.989995598315502 -4 1 -4
527 1 1 0.5897 4.0329795016716865 11.05666428447009 17.866994675616496 -2 -4 0
764 1 1 0.5897 3.4763383839411524 8.620292057936602 18.79599843861844 -4 1 -4
360 1 1 0.5897 1.5754942768724431 10.242008393259711 19.21430732622909 3 0 -6
763 1 2 -1.1794 2.563669371542981 8.868067830705336 18.6477708843654 -4 1 -4
54 1 1 0.5897 1.2409519812784242 10.010361693170339 21.2223005312173 -3 -1 3
840 1 1 0.5897 1.6889975614886616 7.23572397950196 19.593056217728233 -3 -2 -4
576 1 1 0.5897 4.524579188256862 10.48850790209095 20.11115633256736 4 -1 -1
313 1 2 -1.1794 1.4512044699123765 6.828930305801692 17.114443558397866 -1 -2 0
574 1 2 -1.1794 4.840128695740955 11.128661023248483 19.47322016296851 4 -1 -1
77 1 1 0.5897 4.426905891650626 13.75070554377563 4.926621964049066 -6 -5 -3
681 1 1 0.5897 1.8582456434964219 15.723805096220872 1.5570532737992973 -6 -5 0
82 1 2 -1.1794 3.6286691629457866 13.166046288650303 1.4870289000483927 -2 -3 -7
84 1 1 0.5897 4.186966883141407 13.909102066712384 1.7161644120029713 -2 -3 -7
24 1 1 0.5897 0.7512005522966898 13.43392413611934 3.7940755204613756 -4 2 2
22 1 2 -1.1794 1.1748667948817126 14.20687939027371 4.167413345813368 -4 2 2
76 1 2 -1.1794 4.088731064329996 14.561971167528645 4.547361396538886 -6 -5 -3
679 1 2 -1.1794 0.9925361512682197 15.693298390605024 1.9644574403616235 -6 -5 0
83 1 1 0.5897 3.7930390889865873 12.521178140876923 2.1751117107149485 -2 -3 -7
78 1 1 0.5897 3.151135154835153 14.403090274317071 4.437780606015132 -6 -5 -3
680 1 1 0.5897 1.0771010129330745 15.04020154597614 2.659199717910478 -6 -5 0
434 1 1 0.5897 1.6053677893851268 13.308673916562833 5.744415410739661 1 2 -1
845 1 1 0.5897 4.738675786508008 15.376859131083688 3.0861801591942157 0 -1 4
39 1 1 0.5897 3.9413214627425717 16.34364390145263 1.1790531246737808 -1 1 -2
646 1 2 -1.1794 1.4237950492549467 15.991997079171497 9.920499560071915 -5 1 1
435 1 1 0.5897 1.8860303522234323 12.016770719526503 6.48221851791156 1 2 -1
583 1 2 -1.1794 0.9437685911524863 15.667537620642289 7.270660846994072 2 -5 3
585 1 1 0.5897 1.088896386384676 16.171359328540625 6.469767548158508 2 -5 3
453 1 1 0.5897 3.3004126552241586 12.89704858652857 8.09055734056445 0 0 5
451 1 2 -1.1794 3.73159922006625 13.300658555260332 8.84389862870177 0 0 5
584 1 1 0.5897 1.4399528366801189 14.859555168509354 7.139146989511273 2 -5 3
522 1 1 0.5897 4.211748876136113 14.817752975746162 7.82262095838156 -2 0 -3
647 1 1 0.5897 1.3692702763419435 16.114298338198346 8.972660092877573 -5 1 1
518 1 1 0.5897 3.3127384827550577 15.066975410664863 10.438928450979542 -2 -1 -4
433 1 2 -1.1794 1.9395671532480718 12.968081207069329 6.57425681976905 1 2 -1
452 1 1 0.5897 4.627073375999503 12.96340223460549 8.81699155240512 0 0 5
689 1 1 0.5897 3.497345149134842 12.624138425632335 10.54567875567699 3 -1 3
520 1 2 -1.1794 4.1576408334792765 15.730672142896601 7.539773104670746 -2 0 -3
521 1 1 0.5897 4.253383590749367 15.69314911292763 6.588056392692255 -2 0 -3
573 1 1 0.5897 1.7904523297851886 13.187048794083703 11.562923150084465 2 -4 -5
6 1 1 0.5897 4.6473396181084246 14.538231062973683 14.045227366840798 1 -1 -1
517 1 2 -1.1794 3.853675780577168 15.158745871312444 11.223345532854974 -2 -1 -4
386 1 1 0.5897 2.3544564841252145 15.102034354542488 13.448751617473741 -3 1 2
571 1 2 -1.1794 1.0487112534823866 13.791587155593641 11.589043059687626 2 -4 -5
385 1 2 -1.1794 2.6998160830758637 14.791324033678096 14.285721784826002 -3 1 2
378 1 1 0.5897 4.504146101205478 14.723057663183283 15.799998515024349 2 4 3
387 1 1 0.5897 2.273546906786919 13.94510859241186 14.421974111521724 -3 1 2
690 1 1 0.5897 3.6345329487012474 13.462596252895741 11.798828832691719 3 -1 3
519 1 1 0.5897 3.7448116008100087 16.07329860096197 11.484307155766974 -2 -1 -4
688 1 2 -1.1794 3.5029173485699157 12.562435658915424 11.50093124960291 3 -1 3
586 1 2 -1.1794 2.218996857060608 12.042656093517268 14.035071918994538 0 2 5
221 1 1 0.5897 2.2297141814946064 16.076250498144613 16.012684940921226 3 -5 3
87 1 1 0.5897 1.2178392088758925 16.80318063602745 13.586394442046007 -1 5 1
572 1 1 0.5897 1.3513035092723733 14.563547226792195 11.110664316841312 2 -4 -5
664 1 2 -1.1794 1.20518835063169 13.31066332180115 20.872807111927116 1 1 3
413 1 1 0.5897 2.499983481496688 13.757914295134977 18.42194918694441 1 -2 3
38 1 1 0.5897 3.537336345978223 15.981519149000485 20.46233607669957 -1 1 -3
665 1 1 0.5897 1.9707716183729358 13.269613665955484 21.4459789233942 1 1 3
332 1 1 0.5897 4.611334416815048 14.225741256528533 19.814507381704473 -1 -2 -5
412 1 2 -1.1794 1.8543373096579299 13.193735344374963 17.996304023792376 1 -2 3
37 1 2 -1.1794 3.344495989278562 16.59548232538676 21.170993581657584 -1 1 -3
666 1 1 0.5897 1.0732083516157724 12.407736382234198 20.583606973110015 1 1 3
331 1 2 -1.1794 3.8877272627413038 14.48544604861426 19.244178100168945 -1 -2 -5
537 1 1 0.5897 1.0723282449990421 14.8027303018049 19.515221636904684 5 6 3
333 1 1 0.5897 4.29626788118763 14.6363435093238 18.39173705650841 -1 -2 -5
414 1 1 0.5897 1.6332608200960421 12.53944054193575 18.65914451251293 1 -2 3
222 1 1 0.5897 1.3564009456417976 16.336476174351137 17.22171507481969 3 -5 3
376 1 2 -1.1794 4.7104172348472515 15.026426283414008 16.68416488302984 2 4 3
535 1 2 -1.1794 0.8894721341988957 15.708200697790863 19.264165015117783 5 6 3
528 1 1 0.5897 3.267163844183794 12.196040757497416 17.228589912978116 -2 -4 0
575 1 1 0.5897 4.595915524298578 11.976938677343151 19.843519558858688 4 -1 -1
220 1 2 -1.1794 1.875429428304877 16.782921294819545 16.552600663095994 3 -5 3
177 1 1 0.5897 0.7534981619814829 13.760103551879288 16.842766454144865 0 -3 7
536 1 1 0.5897 0.8915738572631184 16.19147808714127 20.09047614029626 5 6 3
847 1 2 -1.1794 1.6951003784389906 20.239247933648834 5.457173516543406 5 -3 6
129 1 1 0.5897 2.6792289070570265 20.10298586951673 3.4968371150614534 -1 0 -5
27 1 1 0.5897 4.256618233187773 18.48184378944775 1.4447746238651082 -2 5 6
445 1 2 -1.1794 4.319022919467532 21.75452188890649 1.358978761934917 2 -1 -1
484 1 2 -1.1794 2.0528058467141737 17.466950241226282 5.281209000948023 -1 1 -1
849 1 1 0.5897 2.5830793237562624 20.133492782264 5.798720153749742 5 -3 6
128 1 1 0.5897 3.314326378817524 20.424697136899965 2.1606866158992433 -1 0 -5
486 1 1 0.5897 1.4435922183163474 17.46823021872286 4.542785480607631 -1 1 -1
485 1 1 0.5897 2.9170288637744677 17.557018814252277 4.879529750482895 -1 1 -1
834 1 1 0.5897 1.450324590320581 18.53991105676252 2.4881856319739524 3 -3 1
127 1 2 -1.1794 2.8897222356444603 19.717436412157383 2.6463156537061785 -1 0 -5
848 1 1 0.5897 1.3095402626683272 19.365045318236632 5.51622293990775 5 -3 6
832 1 2 -1.1794 0.7432679980916368 18.094565204260505 2.955183768686821 3 -3 1
637 1 2 -1.1794 4.745870429031721 17.606675402156007 4.361332771235343 -5 2 3
326 1 1 0.5897 4.583211539491408 19.263660337239706 4.846232184821374 1 -3 -1
325 1 2 -1.1794 4.55256545196262 20.149558874848978 5.207584274887136 1 -3 -1
833 1 1 0.5897 0.7599123801015571 17.198774694772666 2.618088588744065 3 -3 1
186 1 1 0.5897 3.320702768102852 21.053107261002324 10.78935541592948 0 5 5
746 1 1 0.5897 2.6504241059533635 18.650957519929456 8.39849170544224 3 1 -7
747 1 1 0.5897 1.9212879099835258 17.778158910247754 7.399123307194078 3 1 -7
121 1 2 -1.1794 4.3002747612974 18.176694104854285 8.712604644810025 1 -2 0
745 1 2 -1.1794 1.772693788664983 18.4158166971786 8.09743778650153 3 1 -7
123 1 1 0.5897 4.27173474352801 17.292793321745645 8.346219344830732 1 -2 0
432 1 1 0.5897 4.320071128453863 18.02790273489471 10.484373794071715 -6 -3 -2
648 1 1 0.5897 1.2574790914179692 16.86151801280899 10.284645499778756 -5 1 1
321 1 1 0.5897 0.8346293893699119 19.862917422527907 8.514303155002706 2 -2 0
185 1 1 0.5897 3.488833081517037 20.769606621756672 12.267029596878013 0 5 5
85 1 2 -1.1794 1.963443327122721 17.246622127113913 13.181679907457871 -1 5 1
323 1 1 0.5897 0.9363622656116348 18.181597163265224 15.65274897207894 6 0 -3
3 1 1 0.5897 4.154558118280901 19.662127762790966 14.196369813920203 1 -8 3
249 1 1 0.5897 2.6026667596145856 20.952081681808117 14.601527804373173 -3 2 -3
1 1 2 -1.1794 3.4674638693313176 19.382181329443036 14.80125261683651 1 -8 3
2 1 1 0.5897 3.1593833250626115 18.54867058055393 14.44533179442111 1 -8 3
184 1 2 -1.1794 2.823369120159059 20.86712195252784 11.585846399629375 0 5 5
247 1 2 -1.1794 2.143909155132355 21.764300564637608 14.81642435600992 -3 2 -3
86 1 1 0.5897 1.569477328729507 17.87199619925235 12.573356248400128 -1 5 1
248 1 1 0.5897 1.3981919605855473 21.784695115167622 14.216520867008242 -3 2 -3
430 1 2 -1.1794 4.382465062656607 17.953130876746876 11.436660556585094 -6 -3 -2
743 1 1 0.5897 4.3531229687018005 17.191188221776542 13.699378437474856 -1 -1 0
591 1 1 0.5897 1.3401112770845536 19.371086097282053 11.255034068768502 2 5 3
589 1 2 -1.1794 0.8451809725187838 18.556927882407216 11.16270843231574 2 5 3
472 1 2 -1.1794 2.8352134452001416 19.158495076998918 20.133553486925955 0 -2 -3
473 1 1 0.5897 3.207504354398706 19.25963493473064 19.25747581288625 0 -2 -3
357 1 1 0.5897 1.0319044081422604 19.078948947419804 19.92320290367264 1 -2 5
348 1 1 0.5897 3.4664630937510976 17.542682464013783 17.737023919558638 -3 3 -3
711 1 1 0.5897 3.2015093356335877 20.279874662428725 16.8699754262406 -5 -5 -2
428 1 1 0.5897 4.510522796937731 21.288611198991774 18.92527732933786 1 -1 -2
474 1 1 0.5897 2.97647712468756 18.236653440247096 20.349391749396624 0 -2 -3
710 1 1 0.5897 3.2197232952886563 21.69960148908826 17.395507698469615 -5 -5 -2
709 1 2 -1.1794 3.208179183734388 20.786366323674557 17.682234503663587 -5 -5 -2
347 1 1 0.5897 4.77777388765738 18.236120006875687 17.433922286473198 -3 3 -3
801 1 1 0.5897 2.4396201857137516 21.06895582368447 20.322917593509864 1 -2 2
346 1 2 -1.1794 4.3484747440547995 17.67891974273304 18.083233659128368 -3 3 -3
261 1 1 0.5897 0.8369316080597731 20.097455569947023 17.87360179314264 0 -3 5
799 1 2 -1.1794 1.8191471004188924 21.797435150411495 20.29721459287022 1 -2 2
229 1 2 -1.1794 7.90006953571246 2.610025208654577 5.030288750374075 3 4 1
616 1 2 -1.1794 4.917866499778718 3.724912527115471 5.287570665195457 -2 3 0
94 1 2 -1.1794 8.449334473635645 4.9307638408094245 2.0532341424615383 -4 1 -1
230 1 1 0.5897 7.284833476537369 2.3668423740663522 4.3384249706110225 3 4 1
617 1 1 0.5897 5.465207279912824 4.391754376772346 4.872744578837649 -2 3 0
390 1 1 0.5897 7.608989196178477 5.264866464098743 3.660105025646378 4 6 5
388 1 2 -1.1794 7.314594695017173 5.127537046078514 4.560555127049222 4 6 5
231 1 1 0.5897 8.763012135063507 2.422031261464665 4.661055679891904 3 4 1
389 1 1 0.5897 7.634187143032741 4.2540302499180935 4.786978509217248 4 6 4
798 1 1 0.5897 5.890949948362629 4.906348975551261 0.8798171127023287 0 -5 -3
95 1 1 0.5897 7.859705669395565 4.4409801478675455 1.4798243659222847 -3 1 -1
363 1 1 0.5897 5.266371929718623 6.502713052393621 2.8213545041264374 5 -2 -1
96 1 1 0.5897 8.891901703148962 4.2592416279704635 2.572407266501741 -4 1 -1
796 1 2 -1.1794 5.28593251884374 5.6132534435737345 1.1047252370524436 0 -5 -3
284 1 1 0.5897 5.4414330215013464 2.8691146914118955 6.733634475245719 4 0 -2
283 1 2 -1.1794 5.865934954157078 2.5136669819946267 7.514598101001312 4 0 -2
337 1 2 -1.1794 6.7496806860341465 6.403060639396841 6.818833112066995 0 0 2
563 1 1 0.5897 7.912342747467638 6.429094482059065 9.610207758451242 3 1 2
9 1 1 0.5897 8.914721215136957 2.9927204973002146 8.395202764507879 0 0 0
285 1 1 0.5897 6.732326544253496 2.9206481957151533 7.5230963977372225 4 0 -2
564 1 1 0.5897 7.059682056743482 5.993390601045116 8.437449443496735 3 1 2
7 1 2 -1.1794 8.377733722095023 3.6150144334132124 7.904526273884835 0 0 0
562 1 2 -1.1794 7.3612296300199915 5.71017136409196 9.300730297809285 3 1 2
468 1 1 0.5897 6.193143016542479 4.220335347862215 10.464407621262025 5 -2 6
8 1 1 0.5897 8.022191737193253 4.202962116389033 8.571053908855273 0 0 0
117 1 1 0.5897 8.752854944821435 4.6551457737313 10.498752887112285 -4 -2 5
466 1 2 -1.1794 5.300302176858654 4.080952454813422 10.780229714629606 5 -2 6
339 1 1 0.5897 6.955547012433899 5.801290255950677 6.103409405337881 0 0 2
56 1 1 0.5897 5.8706633936343655 3.497222631301751 14.697998936060927 -3 0 1
480 1 1 0.5897 6.322217140648778 5.066878767295837 12.260449455659218 -4 4 -3
479 1 1 0.5897 7.294633696976795 3.9428690721654163 12.548831361107185 -4 4 -3
478 1 2 -1.1794 7.141443138656381 4.872873914815175 12.71604297883493 -4 4 -3
509 1 1 0.5897 8.391745092561743 4.078419762923748 15.557325881849748 5 -1 3
510 1 1 0.5897 7.72518781416031 4.794308561545307 14.401754284821076 5 -1 3
508 1 2 -1.1794 7.730442681529818 4.741054072895466 15.357512305770618 5 -1 3
514 1 2 -1.1794 7.665457988555619 1.9396370425895162 11.83422700840513 -3 -3 1
147 1 1 0.5897 5.9785960215952505 5.067079787372064 15.75183832470635 0 1 -4
55 1 2 -1.1794 5.979666096610095 2.5555907894534413 14.564513380297125 -3 0 1
57 1 1 0.5897 6.065925487202295 2.1964013093702337 15.447617760958124 -3 0 1
515 1 1 0.5897 8.463521008263019 2.117721054470861 11.336513015377081 -3 -3 1
145 1 2 -1.1794 5.046495323631122 5.089475956878836 15.968678558068254 0 1 -4
654 1 1 0.5897 8.965017983534532 6.250247888146971 15.905429264794812 1 1 -1
118 1 2 -1.1794 8.04986147427946 5.252187983832825 18.59558297076787 4 -3 -2
662 1 1 0.5897 6.534253345542312 3.507552480527022 20.10117137795941 -3 -4 1
120 1 1 0.5897 7.108552881771233 5.415759460335276 18.536306668764354 4 -3 -2
507 1 1 0.5897 5.966495594588835 2.000177266963808 17.67070354686711 4 2 -3
661 1 2 -1.1794 6.769567119931965 3.5145261760825894 21.029040235900958 -3 -4 1
119 1 1 0.5897 8.402191534789608 5.574598278477714 17.765954736693182 4 -3 -2
841 1 2 -1.1794 5.277350344104227 5.0890743238840255 18.63628688132234 -2 3 0
213 1 1 0.5897 8.901332017041236 3.643285252850607 18.81085906753667 2 2 3
843 1 1 0.5897 5.17091070384811 4.930933063346597 17.698205989762194 -2 3 0
842 1 1 0.5897 5.115787726550961 6.026718292433724 18.74145180878306 -2 3 0
663 1 1 0.5897 7.209977840345456 2.676574305347664 21.171242139935238 -3 -4 1
198 1 1 0.5897 6.038451357302388 10.61479024133436 3.2952944901967185 -1 -2 0
777 1 1 0.5897 7.480518284564485 8.949533874406022 3.2893560317323582 4 -4 2
776 1 1 0.5897 8.000040038792378 8.257355590927425 2.047123877508034 4 -4 2
196 1 2 -1.1794 6.096821251710635 9.980578547102887 4.009940136749298 -1 -2 0
775 1 2 -1.1794 8.126056925206568 8.307025525680451 2.9947463482756524 4 -4 2
421 1 2 -1.1794 6.464925139750829 11.573511319802185 1.7379258619290243 -5 0 4
197 1 1 0.5897 6.778913192717864 10.328466750246548 4.584444398216304 -1 -2 0
809 1 1 0.5897 6.795539280660573 7.112284706452503 0.8646817205456051 2 1 -1
713 1 1 0.5897 5.165813331095483 9.391236772865183 1.6623726362252702 -5 -1 3
167 1 1 0.5897 8.485393523589142 11.19903070508805 4.80243392524398 -2 -1 4
612 1 1 0.5897 5.57359118929017 9.171642546885424 5.36685700835047 3 2 -1
166 1 2 -1.1794 8.028748515488969 10.82891839961147 5.557974344640459 -2 -1 4
423 1 1 0.5897 7.148502409288796 11.550350620368253 1.0682126804820467 -5 0 4
361 1 2 -1.1794 5.435383191838414 7.039957360593055 3.5953929067875214 5 -2 -1
422 1 1 0.5897 5.646835483122872 11.483736004939063 1.249050183630101 -5 0 4
362 1 1 0.5897 6.378371327418989 7.203262734678144 3.5729682227053745 5 -2 -1
168 1 1 0.5897 8.470046248723188 9.995112912224673 5.720311848114462 -2 -1 4
75 1 1 0.5897 9.097172739379673 7.434460878997664 5.617281727065583 0 0 3
610 1 2 -1.1794 5.257571623113596 8.738258318603293 6.159724058421698 3 2 -1
59 1 1 0.5897 7.0196128947859755 9.672045784257252 10.267123515371402 2 -2 -2
354 1 1 0.5897 7.838429784978237 8.414624588045584 7.723908573662348 3 3 -2
813 1 1 0.5897 8.50913793210969 11.544513533527912 6.967698020793761 -7 6 -3
158 1 1 0.5897 5.267790844877496 7.209185120794596 10.614388550274553 3 2 -3
183 1 1 0.5897 6.777576619375679 11.679581108889943 8.377790275875753 -4 2 -2
352 1 2 -1.1794 7.317169392751484 8.684502971781484 8.48007222906897 3 3 -2
353 1 1 0.5897 6.40948303659581 8.559772077504793 8.202708476069915 3 3 -2
338 1 1 0.5897 6.424459210389888 7.1911238734179195 6.383492449120872 0 0 2
554 1 1 0.5897 4.94377504523238 11.58570717163188 6.392406410502261 -5 -6 3
811 1 2 -1.1794 8.827235692936915 11.715998309348663 7.854123749398954 -7 6 -3
58 1 2 -1.1794 7.320118183572606 10.026602528923911 11.103983664204288 2 -2 -2
577 1 2 -1.1794 8.209118511695443 9.749970992947206 14.81219740424554 2 3 -2
232 1 2 -1.1794 6.391142412690815 7.466447205722487 12.013098782756638 -2 1 0
60 1 1 0.5897 6.535356489942866 10.406170978555929 11.499492751372857 2 -2 -2
739 1 2 -1.1794 5.3600922746077915 7.769011827931273 14.572531382737106 -1 0 2
578 1 1 0.5897 7.370577917920021 10.196644796676138 14.929258035449672 2 3 -2
579 1 1 0.5897 7.983339411782681 8.923894548541146 14.384438436887189 2 3 -2
163 1 2 -1.1794 5.828461393125622 11.240782702106465 14.942707006543186 -2 3 -1
602 1 1 0.5897 8.658708017643612 11.355287218284776 13.443229305884369 3 4 -2
740 1 1 0.5897 5.597097994108994 7.75333118015024 13.645212756268139 -1 0 2
778 1 2 -1.1794 4.863381014674424 10.265871321853997 12.576193799791909 -2 -1 -2
234 1 1 0.5897 6.742348608143285 8.338733241449646 11.833924565335364 -2 1 0
691 1 2 -1.1794 8.924244590364601 7.54651715218409 13.24201398387388 1 0 1
779 1 1 0.5897 5.107795785431703 10.49799743700765 13.472160523103346 -2 -1 -2
164 1 1 0.5897 5.238794659938707 11.233799307758138 15.69675067723727 -2 3 -1
705 1 1 0.5897 6.210738351631984 8.17253114871715 16.02776719063822 3 -3 -1
233 1 1 0.5897 7.128222010885235 6.982959010118492 12.386315111504059 -2 1 0
402 1 1 0.5897 7.943669963975599 10.76677336944422 19.968207525549794 -1 -2 2
400 1 2 -1.1794 8.38258577488199 11.326438940771567 20.608882996487218 -1 -2 2
673 1 2 -1.1794 6.94481276138797 10.62719867177286 17.90130164626627 -1 -2 -2
703 1 2 -1.1794 6.798837355316796 8.078837211707695 16.777248957945332 3 -3 -1
653 1 1 0.5897 8.573679163558538 7.37301135788833 16.842658620269148 1 1 -1
675 1 1 0.5897 6.197886776407605 10.84563806948929 18.4587231750901 -1 -2 -2
704 1 1 0.5897 6.902945341623457 8.969101189879591 17.113338512881946 3 -3 -1
104 1 1 0.5897 5.438645253375708 8.070203546187424 19.851707917356613 1 0 5
105 1 1 0.5897 5.83452385422517 7.84942320634248 18.40717552694032 1 0 5
808 1 2 -1.1794 7.232183265481769 7.810740882648541 21.07370646734885 2 1 -2
810 1 1 0.5897 8.0268403539894 7.402675769405988 20.72967199436807 2 1 -2
401 1 1 0.5897 9.06905542004571 10.772656829424193 20.980962872379152 -1 -2 2
103 1 2 -1.1794 5.082190246968756 7.82275880547884 18.99845549781695 1 0 5
674 1 1 0.5897 7.293390968970854 11.47457169606128 17.624176537878924 -1 -2 -2
295 1 2 -1.1794 7.342634654115443 13.980083734194363 2.6471060696196242 -1 4 1
846 1 1 0.5897 5.854887119561972 15.026939584849604 2.12504215300293 0 -1 4
844 1 2 -1.1794 5.0398964345315225 15.524878525181451 2.189690700566077 0 -1 4
297 1 1 0.5897 6.866562784052663 13.162276481248798 2.5025181536624164 -1 4 1
411 1 1 0.5897 8.551000067773902 16.618478114383343 3.1004449314069156 5 2 -5
296 1 1 0.5897 7.931497977968505 14.051022498259075 1.8957374665696098 -1 4 1
372 1 1 0.5897 7.702755516004181 16.69302946304925 5.14040906518452 3 6 0
409 1 2 -1.1794 9.045051413250162 16.45473694852521 3.9038590022799657 5 2 -5
370 1 2 -1.1794 6.9216527788613185 16.787435724862085 5.68566253964241 3 6 0
553 1 2 -1.1794 5.146712490748756 12.222988945065614 5.707556482591796 -5 -6 3
269 1 1 0.5897 7.903713348770185 13.957579891292248 5.615974981615178 2 5 6
852 1 1 0.5897 5.380784072496314 15.195068310465793 10.477818098414874 -6 0 -3
850 1 2 -1.1794 6.306553965285417 15.36820363668868 10.306528668043466 -6 0 -3
270 1 1 0.5897 6.910759394478883 15.03228313074457 6.004831437420284 2 5 6
182 1 1 0.5897 6.516139402232987 12.101309650282698 9.808151245052288 -3 2 -2
677 1 1 0.5897 8.549206642839453 13.956089218039246 8.26369002049977 2 1 -2
676 1 2 -1.1794 9.015831829992186 14.631045111066932 8.756664965621844 2 1 -2
156 1 1 0.5897 6.885085295671628 13.739802348422861 10.968994243296574 5 3 -4
268 1 2 -1.1794 7.23596014372522 14.171202290847171 6.267745835509919 2 5 6
851 1 1 0.5897 6.323811342182518 15.723706427847935 9.417880635254814 -6 0 -3
181 1 2 -1.1794 6.082889518781691 11.981761509751175 8.962964587932461 -4 2 -2
672 1 1 0.5897 8.278251672135841 16.308006320100404 8.556380238252324 5 2 2
555 1 1 0.5897 5.896606799892743 12.710822891638925 6.048250094234075 -5 -6 3
165 1 1 0.5897 5.833429389230127 12.152295535690378 14.650353223797909 -2 3 -1
803 1 1 0.5897 8.065548563710124 14.938914555715327 14.299736971079085 4 1 -3
802 1 2 -1.1794 7.632877268199486 15.248404291143135 13.503907514680945 4 1 -3
804 1 1 0.5897 8.2629262977981 15.073673529936821 12.804738960032495 4 1 -3
603 1 1 0.5897 8.139470645809823 12.459220832844435 12.546635150677751 3 4 -1
4 1 2 -1.1794 5.352271084165518 13.894437900110722 14.115584901247626 1 -1 -1
490 1 2 -1.1794 8.948894119761166 14.963457177383551 16.166819528476818 2 3 3
5 1 1 0.5897 6.1436114186488116 14.37821316982691 13.878720337248936 1 -1 -1
491 1 1 0.5897 8.76997451432823 15.876772113462923 15.942811059740649 2 3 3
155 1 1 0.5897 6.232365863956144 13.081423652650486 12.165922884861809 5 3 -4
744 1 1 0.5897 5.658606808809767 16.43087620685779 13.60047054238166 -1 -1 0
601 1 2 -1.1794 8.842959081057252 12.2514533431581 13.161687536088522 3 4 -1
154 1 2 -1.1794 6.856194396037379 12.917713899727891 11.458555718488585 5 3 -4
605 1 1 0.5897 7.525132978715446 13.809165177920924 16.724218679359673 -5 0 -2
731 1 1 0.5897 6.751118333696968 13.63910371351673 19.154139992070505 1 0 -5
606 1 1 0.5897 6.013078169587554 13.849268339677636 16.789474277065793 -5 0 -2
593 1 1 0.5897 9.020217292501375 15.54113622586979 17.77424689096756 -1 -1 -3
604 1 2 -1.1794 6.768565153800532 13.324527345103176 17.054484624407237 -5 0 -2
732 1 1 0.5897 7.470122041651508 14.140742317038587 20.38846675123981 1 0 -5