LAMMPS (30 Jul 2021)
  using 1 OpenMP thread(s) per MPI task
package omp 0
using multi-threaded neighbor list subroutines
echo both

include		in.partitions
variable        pid world 0
include		in.temp
variable        temperature equal 282.79
variable	tempDamp equal 100.0
include		in.pressure
variable        pressure equal 11375.0
variable        pressureDamp equal 1000.0 # This is 1 ps
include		in.seed
variable        seed world 745823

units		real
atom_style	full
read_restart	restart.lmp.${pid}
read_restart	restart.lmp.0
Reading restart file ...
  restart file = 30 Jul 2021, LAMMPS = 30 Jul 2021
  restoring atom style full from restart
  orthogonal box = (0.68114870 1.8938345 0.83099982) to (17.526424 21.735343 21.382196)
  4 by 4 by 4 MPI processor grid
  restoring pair style lj/cut/tip4p/long/omp from restart
  restoring bond style harmonic/omp from restart
  restoring angle style harmonic/omp from restart
  864 atoms
  576 bonds
  288 angles
Finding 1-2 1-3 1-4 neighbors ...
  special bond factors lj:    0        0        0       
  special bond factors coul:  0        0        0       
     2 = max # of 1-2 neighbors
     1 = max # of 1-3 neighbors
     1 = max # of 1-4 neighbors
     2 = max # of special neighbors
  special bonds CPU = 1.829 seconds
  read_restart CPU = 2.288 seconds
include 	in.setup
variable	out_freq equal 1000
variable	out_freq2 equal 10000
variable	out_freq3 equal 1000

timestep	2.0

neigh_modify    delay 7 every 1

include		in.tip4p
# This is TIP4P/Ice

# create groups ###
group ox type 2
288 atoms in group ox
group hy type 1
576 atoms in group hy

# set charges - beside manually ###
set group ox charge -1.1794
Setting atom values ...
  288 settings made for charge
set group hy charge 0.5897
Setting atom values ...
  576 settings made for charge

# ### TIP3P Potential Parameters ###
pair_style lj/cut/tip4p/long/omp 2 1 1 1 0.1577 8.5
pair_coeff 1 1*2 0.000 0.000
pair_coeff 2 2 0.21084 3.1668
bond_style  harmonic
bond_coeff  1 450 0.9572
angle_style harmonic
angle_coeff 1 55 104.52
kspace_style pppm/tip4p/omp 1.0e-5
pair_modify tail yes

thermo          ${out_freq}
thermo          1000
thermo_style    custom step temp pe etotal epair emol press lx ly lz vol pxx pyy pzz pxy pxz pyz enthalpy

restart 	${out_freq3} restart.lmp.${pid} restart2.lmp.${pid}
restart 	1000 restart.lmp.${pid} restart2.lmp.${pid}
restart 	1000 restart.lmp.0 restart2.lmp.${pid}
restart 	1000 restart.lmp.0 restart2.lmp.0


include         in.dump
dump            myDump all atom ${out_freq2} dump.water.${pid}
dump            myDump all atom 10000 dump.water.${pid}
dump            myDump all atom 10000 dump.water.0
dump            myDump2 all dcd ${out_freq2} dump.dcd
dump            myDump2 all dcd 10000 dump.dcd
dump_modify     myDump append yes
dump_modify     myDump2 append yes


variable natoms 	equal  "count(all)"                        # NUMBER ATOMS
variable H      	equal  "enthalpy/v_natoms"                 # ENTHALPY-per-atom
variable Vol      	equal  "vol/v_natoms"                 # volume-per-atom
fix AVG all 		ave/time ${out_freq} 1 ${out_freq} v_Vol v_H file vol_enthalpy.dat
fix AVG all 		ave/time 1000 1 ${out_freq} v_Vol v_H file vol_enthalpy.dat
fix AVG all 		ave/time 1000 1 1000 v_Vol v_H file vol_enthalpy.dat


timer           timeout 23:50:00 every 1000
New timer settings: style=normal  mode=nosync  timeout=23:50:00

fix 		1 all shake 1e-6 200 0 b 1 a 1
       0 = # of size 2 clusters
       0 = # of size 3 clusters
       0 = # of size 4 clusters
     288 = # of frozen angles
  find clusters CPU = 1.682 seconds
fix             2 all nph iso ${pressure} ${pressure} ${pressureDamp}
fix             2 all nph iso 11375 ${pressure} ${pressureDamp}
fix             2 all nph iso 11375 11375 ${pressureDamp}
fix             2 all nph iso 11375 11375 1000
fix             3 all temp/csvr ${temperature} ${temperature} ${tempDamp} ${seed}
fix             3 all temp/csvr 282.79 ${temperature} ${tempDamp} ${seed}
fix             3 all temp/csvr 282.79 282.79 ${tempDamp} ${seed}
fix             3 all temp/csvr 282.79 282.79 100 ${seed}
fix             3 all temp/csvr 282.79 282.79 100 745823

run             250000
PPPM initialization ...
  extracting TIP4P info from pair style
  using 12-bit tables for long-range coulomb (../kspace.cpp:340)
  G vector (1/distance) = 0.37489324
  grid = 24 24 24
  stencil order = 5
  estimated absolute RMS force accuracy = 0.0030896785
  estimated relative force accuracy = 9.3044749e-06
  using double precision FFTW3
  3d grid and FFT values/proc = 2535 216
Last active /omp style is kspace_style pppm/tip4p/omp
Neighbor list info ...
  update every 1 steps, delay 7 steps, check yes
  max neighbors/atom: 2000, page size: 100000
  master list distance cutoff = 10.8154
  ghost atom cutoff = 10.8154
  binsize = 5.4077, bins = 4 4 4
  1 neighbor lists, perpetual/occasional/extra = 1 0 0
  (1) pair lj/cut/tip4p/long/omp, perpetual
      attributes: half, newton on, omp
      pair build: half/bin/newton/omp
      stencil: half/bin/3d
      bin: standard
Per MPI rank memory allocation (min/avg/max) = 9.239 | 9.241 | 9.243 Mbytes
Step Temp PotEng TotEng E_pair E_mol Press Lx Ly Lz Volume Pxx Pyy Pzz Pxy Pxz Pyz Enthalpy 
 5500000    298.18951   -3778.3755   -3267.2889   -3778.3755            0    10603.776    16.845275    19.841509    20.551196    6868.9429    9858.7343    12740.121    9212.4744   -479.64989    993.79803     976.6676   -2205.0398 
 5501000    285.55299   -3764.0793   -3274.6512   -3764.0793            0    11369.648    16.870841    19.871623    20.582387    6900.2656    11008.221    10876.003    12224.722   -451.37561    115.98061    1230.3869   -2130.4861 
 5502000    282.38249   -3769.5957   -3285.6018   -3769.5957            0    10998.104    16.865136    19.864902    20.575426    6893.2671    10731.151    10546.754    11716.407   -1278.7607   -2736.2846   -1093.3763   -2179.9488 
 5503000    275.71603   -3774.1633   -3301.5955   -3774.1633            0    12651.229    16.861334    19.860424    20.570788    6888.6062    13593.561    12015.539    12344.588    1470.9323   -1107.4681   -1056.1388   -2030.6118 
 5504000    273.73636   -3820.7869   -3351.6122   -3820.7869            0     9522.079    16.891462    19.895911    20.607544    6925.5986    10255.371     7977.556     10333.31    345.76589    2403.2019     -1075.48    -2389.856 
 5505000    279.89332   -3747.5246    -3267.797   -3747.5246            0    13016.455    16.803479    19.792279    20.500206     6817.941    13744.446    12978.273    12326.647   -72.563227     1162.981    202.38649    -1973.536 
 5506000    275.98076   -3744.2622   -3271.2406   -3744.2622            0    10116.137    16.838157    19.833125    20.542512    6860.2394     9125.008    11212.277    10011.127    1846.7483    2389.6018    929.54795   -2259.1256 
 5507000    286.68929   -3804.7709   -3313.3953   -3804.7709            0    10336.206    16.877122    19.879021     20.59005    6907.9756    9585.8341    11906.692    9516.0929   -479.54912    1216.0546    1218.7147   -2272.0665 
 5508000    290.34227   -3791.5096   -3293.8728   -3791.5096            0    11838.386    16.868749    19.869158    20.579835     6897.699    11892.413    12851.943    10770.801    74.071688    898.43326   -1034.4209   -2102.9802 
 5509000    289.02626   -3732.1751    -3236.794   -3732.1751            0    12899.659    16.853552    19.851258    20.561294    6879.0734     13793.43    14099.829    10805.717    1001.3025   -92.790818    2200.2658   -1942.6457 
 5510000    292.77891   -3776.0636   -3274.2506   -3776.0636            0    12454.661    16.815453    19.806383    20.514814    6832.5264    13428.278    12097.469    11838.236   -1359.4335   -490.36621   -22.297707    -2033.201 
 5511000    279.08675   -3758.6723   -3280.3271   -3758.6723            0    10549.991     16.88179    19.884519    20.595744    6913.7085    10964.274    11322.068    9363.6327    1748.9063   -650.79279   -1633.1888   -2216.5784 
 5512000    306.64963   -3757.4682   -3231.8812   -3757.4682            0    10578.134    16.890517    19.894798    20.606391    6924.4359    12905.452    9961.4317    8867.5186    707.18505   -255.72329   -231.90683   -2163.6399 
 5513000     290.4842   -3735.9667   -3238.0867   -3735.9667            0     15166.12    16.745521    19.724012    20.429497    6747.6356    16317.499    14657.484    14523.377     305.8002    47.296748    759.56481   -1745.6291 
 5514000     280.4809   -3815.1585   -3334.4238   -3815.1585            0    9594.9104    16.793144    19.780106    20.487597    6805.3687    7673.4329    11805.705    9305.5931    558.90638    1597.2623   -472.32212   -2382.1355 
 5515000    270.98276   -3770.8135   -3306.3583   -3770.8135            0    11834.437    16.858223    19.856759    20.566992    6884.7939    12736.041    10720.092    12047.179   -1457.6924   -187.49645    921.84904   -2118.0902 
 5516000    295.74387   -3789.6223   -3282.7275   -3789.6223            0    11335.593    16.843002    19.838832    20.548423    6866.1626    12632.039    11043.536    10331.204    254.70998   -491.86697   -191.35527   -2147.6272 
 5517000    276.33085   -3759.0983   -3285.4766   -3759.0983            0    10859.004    16.836724    19.831437    20.540764    6858.4876    11105.858    10674.842    10796.313   -295.96585    1391.4153    339.85438   -2199.3155 
 5518000    271.35508   -3781.8163    -3316.723   -3781.8163            0    9420.3096    16.864414    19.864052    20.574545    6892.3817    11160.509    7595.1172    9505.3031    68.547694    227.87414   -538.59162   -2369.8093 
 5519000    281.69959   -3754.9918   -3272.1683   -3754.9918            0    12999.982    16.793651    19.780703    20.488215     6805.985    12310.603    14454.786    12234.557    253.52328   -220.55836    -43.65976   -1981.8121 
 5520000    278.41603    -3820.444   -3343.2485    -3820.444            0    11081.413    16.868053    19.868338    20.578985    6896.8447    11189.346    9757.5063    12297.387    1146.7347   -480.29457    1671.3529   -2228.6422 
 5521000    282.15005    -3805.044   -3321.4485    -3805.044            0    11909.316    16.807329    19.796814    20.504903    6822.6285    10460.892    12201.552    13065.503    996.34706    370.67493   -500.98687   -2136.4592 
 5522000    293.57889   -3788.7894   -3285.6052   -3788.7894            0    10140.347     16.85212    19.849571    20.559547    6877.3197    12130.293    7831.8944    10458.853   -1718.9226   -86.123364    526.25067   -2268.5421 
 5523000    273.09377   -3814.7484   -3346.6751   -3814.7484            0    12757.493    16.842984    19.838811    20.548402    6866.1412    13710.092    13136.564    11425.824   -1290.5764    24.986736   -817.62729   -2069.1955 
 5524000    281.89174   -3722.7801   -3239.6273   -3722.7801            0    11121.265    16.873496    19.874749    20.585625    6903.5231    10102.298    12314.027     10947.47   -874.44029    405.23369   -1378.8609   -2119.9294 
 5525000    274.06945   -3761.7556   -3292.0099   -3761.7556            0    10408.967    16.859364    19.858104    20.568385    6886.1922    10154.525    8562.1362    12510.241   -162.96092   -957.56381   -106.07851   -2246.6576 
 5526000    300.03993   -3774.9141   -3260.6559   -3774.9141            0    13573.176    16.875466     19.87707    20.588029    6905.9421     15757.16    13583.958    11378.411    685.92054    342.72777    885.39684   -1893.6188 
 5527000    284.65283   -3756.2035   -3268.3183   -3756.2035            0    12374.714    16.852384    19.849883     20.55987    6877.6435    12340.405    12674.207     12109.53    325.70559    908.45925    2206.9051   -2027.0927 
 5528000    276.31819   -3792.9887   -3319.3888   -3792.9887            0    10459.108     16.88719     19.89088    20.602333    6920.3457    9529.5546     11501.89    10345.881     303.9303   -441.16429   -1247.4377   -2263.7913 
 5529000    273.42659   -3798.0281   -3329.3843   -3798.0281            0    9667.8121    16.852582    19.850115    20.560111    6877.8854    9525.7822    9903.1336    9574.5205    1044.7412   -877.18931   -419.23976    -2359.636 
 5530000    292.85982   -3757.2696   -3255.3179   -3757.2696            0    10709.668    16.880984     19.88357    20.594761    6912.7187    11550.877    10393.058    10185.068   -1531.7218   -1180.1652    182.13976   -2175.6237 
 5531000    289.81504   -3745.0387   -3248.3056   -3745.0387            0    11018.424     16.87361    19.874883    20.585764     6903.663    10717.544    9907.6746    12430.053   -414.50863   -726.69206    875.60432   -2138.9393 
 5532000    282.49472   -3774.6612   -3290.4749   -3774.6612            0     11640.34    16.888496    19.892418    20.603926    6921.9513    10323.657    12192.806    12404.559    -540.3932    750.71261   -1446.5775   -2115.3876 
 5533000    293.62205    -3783.645   -3280.3868    -3783.645            0    10502.216    16.841658    19.837249    20.546783    6864.5192    10886.498    10154.342    10465.807    682.46367   -181.22087   -27.696953   -2228.9893 
 5534000    270.47445   -3781.8635   -3318.2795   -3781.8635            0    11273.285    16.847694    19.844358    20.554148    6871.9027    10857.302    11327.032    11635.522    385.63886   -1725.4544   -2000.3444   -2188.4748 
 5535000    270.86446   -3794.2598   -3330.0073   -3794.2598            0    12494.243    16.794822    19.782082    20.489644    6807.4085     11722.93    10492.605    15267.195   -1077.5104   -1559.7497   -130.11426   -2089.5905 
 5536000    272.63986   -3780.3696   -3313.0742   -3780.3696            0    12611.092    16.784269    19.769652    20.476769     6794.584     12408.37    12296.745    13128.162    309.57421   -482.03195    307.67003   -2063.4154 
 5537000     289.0873   -3772.0537   -3276.5679   -3772.0537            0    11073.457    16.815783    19.806771    20.515216    6832.9287    9221.2132    11733.633    12265.525   -1003.0768   -177.66441    768.93353    -2173.084 
 5538000    280.57491   -3780.8738    -3299.978   -3780.8738            0     11921.46    16.846096    19.842476    20.552198    6869.9475    13952.798    12955.982    8855.5998    2027.3509    220.90695   -2193.7299   -2105.5533 
 5539000    280.91939   -3791.5243    -3310.038   -3791.5243            0    11325.356    16.839705    19.834948      20.5444    6862.1309    12176.794    13417.746    8381.5289   -735.42444     56.07911    34.250702   -2176.6288 
 5540000    280.76415   -3819.7436   -3338.5234   -3819.7436            0    10265.071    16.804768    19.793797    20.501777    6819.5095    9616.2369    11221.424     9957.553     540.7767    1300.6158    791.00853   -2317.6051 
 5541000    273.01215    -3780.056   -3312.1225    -3780.056            0    11801.917    16.801006    19.789365    20.497188    6814.9303    12132.828    13118.579    10154.343    519.13894   -170.91858   -371.21779   -2139.1445 
 5542000    274.35142   -3754.8419    -3284.613   -3754.8419            0    13933.627    16.766369    19.748568    20.454931     6772.869    14974.161    14831.438    11995.281    1760.3083    1401.3039   -289.87864   -1908.3142 
 5543000    278.67174   -3782.6985   -3305.0646   -3782.6985            0    11083.473    16.907791    19.915144    20.627465    6945.7028    11097.509    10555.785    11597.125    984.98108    637.42831    1625.0155   -2182.3537 
 5544000     288.6056   -3813.4321    -3318.772   -3813.4321            0    13127.891    16.872606    19.873701     20.58454    6902.4309    15489.218    11075.865     12818.59    108.73233    2408.4481    1035.4429   -1997.2545 
 5545000    279.33174   -3861.9085   -3383.1435   -3861.9085            0    10127.853     16.87778    19.879795    20.590852    6908.7829    11492.998    9350.9209    9539.6394   -238.27653    308.46546    819.42829   -2362.6863 
 5546000    287.03384   -3784.5778   -3292.6116   -3784.5778            0     10824.51    16.906806    19.913984    20.626264     6944.489    10387.112    11524.125    10562.291   -152.63869    122.48371   -156.98831   -2196.3242 
 5547000    280.42887   -3818.8908   -3338.2453   -3818.8908            0    10695.104    16.918625    19.927905    20.640682    6959.0627    10164.311    12155.013     9765.989    860.73545    1034.9612   -83.981209   -2252.7907 
 5548000    275.60284   -3743.8428   -3271.4689   -3743.8428            0     12645.31    16.820652    19.812507    20.521157    6838.8661     11820.48    13431.441    12684.009    593.78297    563.05348   -602.65319   -2010.2529 
 5549000    293.87516   -3748.2259   -3244.5339   -3748.2259            0    11431.075    16.869401    19.869926     20.58063    6898.4988     12519.19    10349.902    11424.133   -18.692331   -1547.1923   -164.01347   -2094.4817 
 5550000    274.02174   -3758.4538   -3288.7899   -3758.4538            0     11372.36    16.879848    19.882232    20.593375    6911.3233    10710.908    11419.215    11986.956   -310.49803   -473.35833    2585.8745   -2142.5179 
 5551000    283.94623   -3762.6944   -3276.0203   -3762.6944            0    10234.314    16.887841    19.891646    20.603127    6921.1461    11590.301    8968.3531    10144.288   -1002.0099   -788.91025    910.07468    -2242.991 
 5552000    273.31458   -3790.4063   -3321.9545   -3790.4063            0    11181.611    16.889364     19.89344    20.604985    6923.0183    13011.964    11169.834    9363.0359   -763.94912    641.26272    271.59565   -2193.0017 
 5553000    288.22065   -3788.1451   -3294.1448   -3788.1451            0    12529.103    16.789172    19.775427    20.482751    6800.5409    12324.957    12792.244    12470.106    69.997239    1155.1187   -136.08167    -2051.522 
 5554000    288.53552   -3752.4065   -3257.8665   -3752.4065            0    12748.295     16.83188    19.825731    20.534854    6852.5696    13502.569    13880.771    10861.547    177.26829    1098.5267   -1089.0307   -1983.8312 
 5555000    291.67717    -3795.287   -3295.3623    -3795.287            0    13011.052    16.834536     19.82886    20.538095    6855.8144    10371.058    15365.012    13297.087   -2363.1923    1900.0943    643.18609    -1994.452 
 5556000    283.68748   -3755.0152   -3268.7845   -3755.0152            0    10298.554    16.861505    19.860626    20.570997    6888.8167    11241.675    8624.2857    11029.702    295.02793   -89.994781   -635.26226   -2234.1266 
 5557000    280.23526   -3789.6723   -3309.3586   -3789.6723            0    11855.334    16.869272    19.869775    20.580473    6898.3408    12627.209    11150.714    11788.078   -878.41909   -1270.7565   -1018.1326   -2116.6501 
 5558000    291.89623   -3809.9965   -3309.6963   -3809.9965            0    11612.393    16.819978    19.811712    20.520334    6838.0436    10395.006    14092.818    10349.356   -861.64931   -1342.3504   -1719.9126   -2151.6405 
 5559000    291.53477   -3778.4344   -3278.7537   -3778.4344            0    12337.076    16.835291    19.829749    20.539016    6856.7365    10921.672    14350.243    11739.314     372.5554   -724.66706    648.85084    -2045.065 
 5560000    287.18708   -3817.9454   -3325.7166   -3817.9454            0    12103.072    16.820008    19.811748     20.52037      6838.08    12574.457    12862.028    10872.731   -53.835148   -1429.6042    27.798915    -2118.721 
 5561000    270.84657   -3758.4896   -3294.2679   -3758.4896            0    12084.671     16.83612    19.830726    20.540028    6857.7502    11883.072    12196.459    12174.483   -6.5301382   -1885.7325    268.81977   -2085.6406 
 5562000    284.66338   -3770.0477   -3282.1444   -3770.0477            0    9987.8263    16.897571    19.903107    20.614998    6933.1158    11459.653     9104.499    9399.3273   -1129.5071     566.5776    1167.9797   -2272.2515 
 5563000    283.73959   -3740.0352   -3253.7153   -3740.0352            0    10311.418     16.88164    19.884342    20.595561    6913.5244    12347.188     9479.565    9107.5018    49.121206   -40.022546   -664.04355   -2214.0494 
 5564000    292.51507   -3811.6676   -3310.3068   -3811.6676            0    11603.343    16.779054     19.76351    20.470407    6788.2531    12289.221    11305.752    11215.056    295.19613   -809.53896    460.20791   -2161.5792 
 5565000    272.27583   -3787.5496   -3320.8781   -3787.5496            0    11635.779     16.81905    19.810619    20.519202    6836.9117    10916.685    11747.106    12243.545   -1519.5339   -1148.6847   -455.42526   -2160.6822 
 5566000    291.55996   -3755.8575   -3256.1337   -3755.8575            0    10274.215    16.884451    19.887653    20.598991    6916.9783      10162.5    9988.6796    10671.464   -461.89709    140.28111    903.03707   -2219.7014 
 5567000    277.51171   -3805.8827   -3330.2371   -3805.8827            0    12481.264    16.829784    19.823263    20.532298    6850.0106     12707.22    14606.282    10130.289   -1446.4322   -1476.7336    978.10498   -2083.3541 
 5568000    279.49827   -3807.4224    -3328.372   -3807.4224            0    10221.752     16.90659     19.91373    20.626001    6944.2232    9672.6146    9836.8467    11155.794    404.64051    338.99132    869.60448   -2293.1705 
 5569000    265.73266    -3815.041   -3359.5844    -3815.041            0    11691.673    16.806965    19.796385    20.504458    6822.1852    11502.627    13218.969    10353.421    1392.2651   -1080.2126     23.24275   -2196.3264 
 5570000    286.85957     -3793.41   -3301.7425     -3793.41            0    13253.488    16.796781    19.784389    20.492033    6809.7906    14715.838    10531.321    14513.305    486.97616   -1171.5341   -1133.5306   -1985.4881 
 5571000    275.94623   -3823.0687   -3350.1063   -3823.0687            0    10392.629    16.861513    19.860635    20.571007    6888.8264    7990.3601    12894.418    10293.107     601.2699    250.48401    814.38671   -2305.9957 
 5572000    319.70092   -3786.6846   -3238.7282   -3786.6846            0    13958.236    16.782963    19.768113    20.475175    6792.9977    16448.768    11461.127    13964.815    1001.0076     1405.838    173.71497    -1855.901 
 5573000    262.67388   -3784.7234   -3334.5094   -3784.7234            0    13901.501    16.731865    19.707927    20.412836    6731.1402    13315.879    14084.406    14304.218   -1635.1879    1549.3653    1678.8176   -1969.8439 
 5574000    274.54172   -3764.6305   -3294.0754   -3764.6305            0    14859.123    16.766507     19.74873    20.455099    6773.0353    14001.822    15671.126    14904.422   -340.76717   -163.38481   -357.05084   -1826.3243 
 5575000    276.84482   -3760.7687   -3286.2662   -3760.7687            0     13477.57    16.766574    19.748809    20.455181     6773.117    14459.807    12301.514    13671.389   -997.61517   -955.19019     238.4251   -1954.9658 
 5576000    276.07072   -3823.7765   -3350.6007   -3823.7765            0    9885.8717    16.846055    19.842428    20.552148    6869.8977    11463.673    8420.4371    9773.5052    -1703.327    1194.1409    344.33637   -2360.1312 
 5577000    267.84535   -3782.6106   -3323.5328   -3782.6106            0    12945.991    16.805368    19.794504     20.50251    6820.2405    11701.504    15038.121    12098.349    1099.0968    986.30226     377.0277   -2035.8441 
 5578000    291.97375   -3749.3739   -3248.9409   -3749.3739            0    12519.462    16.824002    19.816452    20.525243    6842.9525    10471.475      13182.5     13904.41    462.13116    55.428685    366.24184   -1999.5306 
 5579000    273.37112   -3776.8954   -3308.3467   -3776.8954            0    12594.808    16.734001    19.710442    20.415442    6733.7182    13069.711     11753.88    12960.834   -636.61502   -441.15021   -1466.8767   -2071.4814 
 5580000    295.14406   -3765.5258    -3259.659   -3765.5258            0    10865.498    16.839427    19.834621    20.544062    6861.7919    9104.2906    10812.235    12679.969    1687.8169    1868.0544   -659.04744   -2172.3247 
 5581000    276.47582   -3785.9637   -3312.0936   -3785.9637            0    10587.589    16.866621    19.866652    20.577238    6895.0888    8460.5506    12997.903    10304.314    -409.0672    1435.5065   -1050.9278   -2247.4289 
 5582000    276.66197   -3803.6584   -3329.4692   -3803.6584            0    12358.083    16.807752    19.797312    20.505419    6823.1436    12828.639    12415.201    11830.409   -137.81906   -81.286076   -362.69659   -2099.7343 
 5583000    283.30158   -3825.9421   -3340.3729   -3825.9421            0     10600.65    16.876224    19.877962    20.588954     6906.872    12051.475    8752.0842    10998.391    541.49044   -28.149396    770.98249   -2272.5732 
 5584000     284.8388   -3730.4616   -3242.2577   -3730.4616            0    11273.212    16.771982     19.75518    20.461779    6779.6733    9871.3631    10822.039    13126.234    945.16508   -1115.5063   -1215.0516   -2127.6236 
 5585000    277.33713     -3761.04   -3285.6936     -3761.04            0     11721.93    16.803351    19.792128    20.500049    6817.7848    11850.426    11408.979    11906.385    848.19188     1860.666    334.81237   -2120.1775 
 5586000    283.49542   -3758.2052   -3272.3037   -3758.2052            0      12345.6    16.793294    19.780283     20.48778    6805.5511    11402.673    11730.937    13903.188    1100.6347   -2010.0846    821.63228   -2046.9785 
 5587000    295.31537   -3805.5385   -3299.3781   -3805.5385            0    11359.976    16.829838    19.823326    20.532363    6850.0764    11632.534    10817.846    11629.547   -5.0649013    81.587215   -4.2878377   -2164.5013 
 5588000    304.16582   -3791.1134   -3269.7836   -3791.1134            0    11356.391    16.856699    19.854965    20.565133    6882.9271    11036.525    11570.766    11461.881   -19.580128   -116.53293    1226.5197   -2129.8242 
 5589000     268.6108   -3789.2729   -3328.8832   -3789.2729            0    11528.683    16.784355    19.769753    20.476874    6794.6886    15626.776    10773.408    8185.8653    166.69879    143.85474    -176.1238   -2186.4649 
 5590000    283.78435   -3808.1785   -3321.7819   -3808.1785            0    12500.207    16.802662    19.791317    20.499209    6816.9466    11990.574     10866.28    14643.766   -954.16454    1194.2286   -1569.7133   -2079.0342 
 5591000    283.32323   -3832.4935   -3346.8872   -3832.4935            0    11118.048    16.815362    19.806275    20.514702    6832.4151     11053.69    12855.106    9445.3474   -447.11682   -2476.8148      67.2167    -2239.043 
 5592000    281.67305   -3770.2036   -3287.4257   -3770.2036            0    11434.307      16.7587    19.739535    20.445575    6763.5794    11670.477     11274.46    11357.984    345.48181   -626.45215    1034.1526   -2159.5471 
 5593000    275.16998   -3822.5289    -3350.897   -3822.5289            0    8721.0886    16.830006    19.823524    20.532568    6850.2809    8765.8792     7764.096    9633.2907    1055.2089      639.822    366.17622   -2479.6226 
 5594000     279.1597   -3788.8565   -3310.3863   -3788.8565            0    13196.726    16.806084    19.795347    20.503383    6821.1119    12929.132    13389.648    13271.399   -94.714416   -2447.4459   -189.39961   -1997.5902 
 5595000    262.29234   -3781.4608   -3331.9007   -3781.4608            0    11551.916    16.836611    19.831304    20.540626      6858.35    11960.549    10874.051     11821.15    383.09192     -635.188   -1221.9818   -2176.4549 
 5596000    290.63439   -3790.7592   -3292.6218   -3790.7592            0    10555.984    16.866656    19.866693    20.577281    6895.1317    11234.159    11088.378    9345.4163    1143.1951   -1745.5466    470.48529   -2231.1287 
 5597000    282.33803   -3776.3617   -3292.4439   -3776.3617            0    13438.562    16.779764    19.764346    20.471273    6789.1149    12465.615    14087.412    13762.659   -633.60316    668.92314   -1823.8806   -1961.8613 
 5598000    254.02456   -3797.7905   -3362.4011   -3797.7905            0    11553.522    16.827907    19.821051    20.530007     6847.718    10015.659    13414.006      11230.9    376.91022    5.9850492   -759.21866   -2208.5862 
 5599000    284.46054   -3805.7879   -3318.2322   -3805.7879            0    10632.894    16.842662    19.838432    20.548009    6865.7474    11821.456    11774.126    8303.1003   -545.39778    716.24346    427.82282   -2253.5618 
 5600000    265.95643   -3791.1084   -3335.2682   -3791.1084            0    11822.052     16.83259    19.826568    20.535721    6853.4372    12870.691    11376.014    11219.451   -806.81225    1242.2178    756.99385     -2153.65 
 5601000    277.27988   -3812.8607   -3337.6124   -3812.8607            0    10523.135    16.813387    19.803949    20.512292    6830.0076    10271.283    10433.192    10864.929   -1568.5888    1939.9051   -1377.6543   -2289.4171 
 5602000     294.7156   -3776.8298   -3271.6973   -3776.8298            0    10003.495     16.80664    19.796001    20.504061    6821.7884    12218.719    9544.4148     8247.351      992.467    653.86874   -46.451707   -2276.4618 
 5603000    282.93464   -3768.0259   -3283.0857   -3768.0259            0    10015.661    16.797419    19.785141    20.492812     6810.567    10806.078    8634.3532     10606.55    94.537047   -41.011768    783.55828   -2288.2788 
 5604000    288.39472   -3824.2437    -3329.945   -3824.2437            0    10867.507    16.793662    19.780716    20.488229    6805.9982    10008.893    12352.632    10240.996    1788.4878   -725.01516   -132.17363   -2251.2525 
 5605000     289.4503    -3763.481   -3267.3731    -3763.481            0    13230.621    16.811692    19.801953    20.510225    6827.9428    12892.995    12248.372    14550.495   -36.780476    883.50046   -638.63879   -1949.8872 
 5606000    271.98564   -3811.6142   -3345.4401   -3811.6142            0    10347.586     16.87693    19.878795    20.589816    6907.7397    8718.5076    9821.3932    12502.856    582.48967    1337.8156    139.19145   -2303.0006 
 5607000    272.31517   -3790.1063   -3323.3674   -3790.1063            0    11544.752    16.809665    19.799565    20.507752    6825.4731    11102.153    14262.974    9269.1289   -583.91855   -518.27589    1024.4663   -2174.1737 
 5608000    291.95407    -3798.725   -3298.3257    -3798.725            0    9653.6734    16.847117    19.843679    20.553444    6871.1966    7357.0708    10148.021    11455.928    936.78195   -771.15507    1879.8418   -2330.9374 
 5609000    286.22455   -3810.9364   -3320.3573   -3810.9364            0    10688.655     16.89736    19.902858     20.61474    6932.8556    9888.8524    10214.645    11962.467    188.64909    838.26441   -1071.0336   -2239.6425 
 5610000    273.32869   -3794.3928   -3325.9168   -3794.3928            0    11737.664    16.936424    19.948871    20.662398    6981.0504    10264.722    12764.374    12183.898    541.11065   -838.39569   -165.38832    -2130.888 
 5611000    286.79438   -3775.6239   -3284.0682   -3775.6239            0     10556.15    16.906518    19.913646    20.625913    6944.1348    12552.357    9210.6625    9905.4303    449.35828   -1802.1505     1635.325   -2215.0143 
 5612000    295.55266   -3834.4549   -3327.8877   -3834.4549            0    9506.1783    16.906423    19.913534    20.625797    6944.0177    9277.0031    9382.8157     9858.716    1247.6283    324.37283   -1627.5919    -2365.184 
 5613000    277.18651   -3815.4948   -3340.4066   -3815.4948            0    10830.471    16.814944    19.805783    20.514192    6831.9053    11768.862     10414.67    10307.882    1533.1718   -431.37704    256.92984   -2261.2982 
 5614000    290.39078   -3763.3288   -3265.6089   -3763.3288            0    11137.175    16.846458    19.842903     20.55264    6870.3906    12459.338    10811.712    10140.476   -792.63592    471.12134    1398.8492   -2149.6907 
 5615000    298.35959    -3806.942   -3295.5638    -3806.942            0     9728.012    16.900319    19.906343    20.618349    6936.4979    8835.0136    10245.089    10103.933   -654.43294   -329.44133   -851.11626   -2311.4615 
 5616000    282.49003   -3797.2559   -3313.0777   -3797.2559            0    10930.332    16.858042    19.856547    20.566772    6884.5728    10084.931    11926.067    10779.996    1708.1947    481.72935   -462.48532   -2215.6239 
 5617000    275.60482   -3818.3729   -3345.9956   -3818.3729            0      10350.5    16.855236    19.853241    20.563348    6881.1351    9792.5117    9586.9618    11672.028    -1073.604    319.39584   -729.15217   -2307.2785 
 5618000    285.77622   -3819.9755   -3330.1648   -3819.9755            0    11209.478    16.789602    19.775934    20.483276    6801.0635    11360.482    11760.362     10507.59   -3.2347166   -229.51216    982.55735   -2218.3356 
 5619000    290.07495    -3815.811   -3318.6324    -3815.811            0    10729.834    16.853372    19.851046    20.561075    6878.8531    10670.032    10770.446    10749.023    1163.9533    1110.3318   -512.95478   -2242.2046 
 5620000    270.30139   -3786.6142   -3323.3268   -3786.6142            0    12561.942    16.827228    19.820252    20.529179    6846.8896    12619.158    12221.674    12844.994   -1263.4512    539.96066   -383.84242   -2068.9559 
 5621000    276.32285   -3808.5534   -3334.9455   -3808.5534            0    12226.993    16.802467    19.791087    20.498971     6816.709    13089.138    10259.067    13332.775    -247.6574    1221.5256   -1332.4526   -2119.4025 
 5622000    294.76804   -3780.1379   -3274.9156   -3780.1379            0    10266.206    16.844962    19.841141    20.550815    6868.5606    10714.873    8285.5751    11798.172    1085.8261    244.13866   -1972.8638   -2246.5403 
 5623000    269.12955   -3824.5689   -3363.2901   -3824.5689            0    11030.711    16.815861    19.806863    20.515311    6833.0231    9818.5975    12791.304     10482.23   -702.49158    1343.3745   -1801.7674   -2264.0507 
 5624000    294.93445   -3771.4406    -3265.933   -3771.4406            0    13230.116    16.775887    19.759778    20.466542    6784.4091    10957.968    14554.694    14177.687   -76.318637    846.62604    1678.1734   -1956.8971 
 5625000    299.68779    -3741.062   -3227.4074    -3741.062            0     11528.56    16.804202     19.79313    20.501087    6818.8206    12105.156    11225.034    11255.488    78.995502   -1023.8282    1416.7371    -2080.944 
 5626000    293.60055   -3788.1463    -3284.925   -3788.1463            0    13357.606    16.832057     19.82594     20.53507    6852.7858    12888.539    13978.677    13205.602    3743.9249   -3454.0782    -178.1594   -1949.9545 
 5627000    283.51272   -3772.8452   -3286.9141   -3772.8452            0    10436.677    16.851135    19.848411    20.558345    6876.1138    10579.176    11062.343     9668.512    1076.9017    933.82105    727.01303    -2240.313 
 5628000    296.13164   -3798.5822   -3291.0227   -3798.5822            0    11582.981     16.82557    19.818299    20.527156    6844.8659    10735.922    11648.718    12364.303    1285.4865     112.7861    124.53368   -2134.7476 
 5629000    277.61509   -3760.8519   -3285.0291   -3760.8519            0    10899.762    16.882662    19.885546    20.596808    6914.7801    8395.5027    13139.715    11164.069   -486.57796     369.6915    119.46786   -2185.8429 
 5630000    278.14819   -3804.9436   -3328.2071   -3804.9436            0    11020.168    16.884979    19.888275    20.599635    6917.6274     12706.75    10942.649    9411.1032    667.84342    323.82248    381.20003    -2216.421 
 5631000    267.95704    -3799.653   -3340.3838    -3799.653            0    7664.5192    16.916456     19.92535    20.638036    6956.3868    10051.696    6769.3369    6172.5242   -1940.6029   -566.41015   -698.27942   -2562.8048 
 5632000    283.14827   -3752.1046   -3266.7982   -3752.1046            0    11999.634    16.817332    19.808596    20.517106    6834.8171    11404.433    11454.822    13139.649   -421.94543    1160.0214   -423.21242    -2070.689 
 5633000    276.22085   -3792.8792   -3319.4461   -3792.8792            0    10323.104    16.843264     19.83914    20.548743    6866.4829     11771.23    10002.432    9195.6506   -1070.7946   -890.05592    658.93791   -2285.6842 
 5634000    279.08179   -3808.8926   -3330.5559   -3808.8926            0     12106.12    16.791935    19.778682    20.486122    6803.8986    14069.883    11368.835    10879.642    488.02109    -285.7877    493.88312   -2129.2913 
 5635000    287.14199   -3831.0657   -3338.9142   -3831.0657            0    10070.968    16.848941    19.845827    20.555669    6873.4291    11324.612    10607.581    8280.7112   -351.11447     1560.546   -184.35735   -2329.3811 
 5636000     285.3038    -3781.417   -3292.4161    -3781.417            0    12997.743    16.834218    19.828485    20.537707     6855.426    10321.649    12798.918    15872.661     391.6861    1611.6299   -547.10926   -1992.9101 
 5637000    276.22629   -3800.8836   -3327.4412   -3800.8836            0    12578.451     16.83594    19.830514    20.539808    6857.5298    12160.106    14810.715    10764.533    369.99296    532.17094    1329.9142   -2069.4698 
 5638000    293.97931   -3801.2258   -3297.3554   -3801.2258            0     12323.95    16.830881    19.824555    20.533636    6851.3498    11018.846    14076.972    11876.032   -1530.1289      1124.54    760.65529   -2065.9474 
 5639000    263.81165   -3806.2736   -3354.1095   -3806.2736            0    11498.621     16.82601    19.818817    20.527693    6845.4029    13075.755     11643.05    9777.0571    1610.2845    177.87962   -268.07154   -2206.1656 
 5640000    274.78729   -3757.7703   -3286.7943   -3757.7703            0    11367.396    16.899521    19.905403    20.617376    6935.5158    14326.691    8799.2855    10976.212   -141.95463    301.92291    299.95976   -2137.0119 
 5641000    276.69222   -3778.3521   -3304.1112   -3778.3521            0    10400.021    16.850627    19.847813    20.557725    6875.4919    10187.442    9924.0347    11088.587   -651.18082    806.67868   -1858.3758   -2261.2803 
 5642000    286.09505   -3800.3647   -3310.0076   -3800.3647            0    11089.073     16.89485    19.899902    20.611678    6929.7667    10385.535    12175.072    10706.611   -840.20137   -384.40674     161.4117   -2189.3066 
 5643000     270.9049   -3769.3725   -3305.0508   -3769.3725            0    12345.968    16.857488    19.855895    20.566096    6883.8943    11830.535    12443.915    12763.455   -2585.9845   -1066.8696    520.23543    -2065.583 
 5644000    266.97813   -3744.6392   -3287.0478   -3744.6392            0    12543.978    16.825675    19.818423    20.527284     6844.994    12439.406    12085.252    13107.275   -677.42979   -879.09993    1619.3618   -2034.8174 
 5645000     287.8234   -3754.4222   -3261.1027   -3754.4222            0    11608.866    16.884209    19.887368    20.598696     6916.681     10882.66    10893.699     13050.24   -1089.7931   -2487.9444    1926.8208   -2090.0851 
 5646000    282.22864   -3818.4445   -3334.7143   -3818.4445            0    13465.671    16.838305    19.833299    20.542693    6860.4199    13982.022    14110.076    12304.916   -1189.9957    1789.7577    311.28482   -1987.4444 
 5647000    274.17894   -3815.4409   -3345.5076   -3815.4409            0    11112.468     16.89041    19.894672    20.606261    6924.3049    10412.602    12107.578    10817.224    817.15408    923.53049   -551.02048   -2223.3274 
 5648000    273.51945   -3790.0288   -3321.2258   -3790.0288            0    11546.746    16.809472    19.799338    20.507517    6825.2381    10932.937    11415.547    12291.753   -1820.0867    335.55303    101.68797   -2171.8732 
 5649000    294.56052   -3789.1698   -3284.3031   -3789.1698            0    10029.256    16.930225    19.941569    20.654835    6973.3877    8647.0006    10506.761    10934.006   -107.59602      -414.39    1630.5755   -2264.3307 
 5650000    281.27323   -3823.1355   -3341.0428   -3823.1355            0    10845.171    16.899195     19.90502    20.616979    6935.1148      10824.2    11973.851    9737.4628    171.97952    316.14096     1409.518   -2244.1456 
 5651000    293.92114   -3795.3611   -3291.5904   -3795.3611            0    10183.207    16.908143    19.915559    20.627894    6946.1362    11230.157    8807.8555    10511.607    197.88886   -568.84657   -714.98492   -2260.0084 
 5652000    274.48812   -3800.1068   -3329.6435   -3800.1068            0    11982.463    16.797288    19.784987    20.492653     6810.408    11463.327    15005.188    9478.8736   -1347.3453   -59.796974    -1231.657   -2139.5116 
 5653000    272.74828   -3779.6131   -3312.1319   -3779.6131            0    11613.547    16.826074    19.818893    20.527771    6845.4814    9549.7097    13412.948    11877.985    1605.2961    249.75746   -304.09853   -2152.7013 
 5654000    277.94664   -3820.9343   -3344.5433   -3820.9343            0    10069.487    16.820459    19.812279    20.520921    6838.6301    8920.9798    10832.806    10454.674   -2489.2734   -1544.2199   -892.19894    -2340.269 
 5655000    285.32991   -3838.5351   -3349.4894   -3838.5351            0     12785.45    16.841892    19.837524    20.547069    6864.8052    12901.477    12139.747    13315.128   -178.09732   -458.76079   -1709.0891   -2069.4594 
 5656000     268.1643    -3816.855   -3357.2306    -3816.855            0    12011.885    16.802429    19.791042    20.498924    6816.6625    10353.991    13031.996    12649.667   -1992.9348   -80.756908   -364.69416   -2163.0807 
 5657000    279.15508     -3828.36   -3349.8978     -3828.36            0    10706.281    16.826653    19.819575    20.528477    6846.1878    10940.124    11008.512    10170.207   -665.82885   -513.71734   -446.19965   -2280.9331 
 5658000    279.89386   -3797.0842   -3317.3557   -3797.0842            0    14097.513     16.78861    19.774765    20.482065    6799.8575    12394.673    15562.068    14335.798   -323.22324    462.84261   -79.478902   -1919.3202 
 5659000    285.95493   -3814.1441   -3324.0272   -3814.1441            0    12032.452    16.848018     19.84474    20.554542    6872.2988    12026.248    10939.808    13131.301   -233.80393    904.14508    1004.2559   -2118.0695 
 5660000    280.97095   -3765.8768   -3284.3022   -3765.8768            0    11160.626      16.8251    19.817745    20.526582     6844.292    11969.668    11090.661    10421.551    -610.1237    1171.8869   -60.292608   -2170.2822 
 5661000    275.09141   -3798.1448   -3326.6476   -3798.1448            0    11555.856    16.810252    19.800256    20.508468    6826.1881    9277.9253    13649.857    11739.787   -736.63997    1085.9078    372.82724   -2176.2279 
 5662000    268.64849   -3802.5428   -3342.0885   -3802.5428            0    9434.2508    16.908572    19.916064    20.628418    6946.6649    7871.5684    9647.7809    10783.403   -1277.8537    800.98098    854.34876   -2386.3047 
 5663000    289.21631   -3810.6657   -3314.9589   -3810.6657            0    14959.942    16.749179     19.72832    20.433959    6752.0575    14518.386    15130.214    15231.227    1431.0263    1087.0332   -1548.4985   -1841.8259 
 5664000    269.13929   -3777.0632   -3315.7677   -3777.0632            0    13036.554    16.871262    19.872118      20.5829     6900.782    12209.893    13814.664    13085.106    307.80333   -222.82553    235.43734    -2003.758 
 5665000    279.82934   -3772.5789    -3292.961   -3772.5789            0    10086.849     16.81792    19.809289    20.517824    6835.5344    10780.125    10497.194    8983.2267    1593.3973    515.45516   -1916.6251   -2287.4105 
 5666000    291.17391   -3788.8485   -3289.7864   -3788.8485            0     11854.74    16.856535    19.854772    20.564933    6882.7263    12128.628    11523.495    11912.096   -749.69523    24.683036    293.56152   -2099.8372 
 5667000    264.01106   -3808.4354   -3355.9295   -3808.4354            0    13550.045    16.794187    19.781334    20.488869    6806.6363    12820.301    15331.382    12498.454    1713.3779   -744.37246    -1175.114   -2010.8462 
 5668000    295.81967   -3784.6921   -3277.6673   -3784.6921            0    11419.924    16.850847    19.848072    20.557994     6875.761    10226.955    12406.705    11626.113    2354.1315   -667.90904    1061.4418   -2132.5239 
 5669000    294.23846   -3758.2973   -3253.9826   -3758.2973            0    10415.346    16.800208    19.788426    20.496214    6813.9596    9013.1808    9305.1414    12927.716   -1156.6234   -737.53456    -816.5487   -2218.9616 
 5670000     298.2464   -3815.7559   -3304.5718   -3815.7559            0    10164.215    16.844778    19.840923    20.550589    6868.3344    9998.3877     9795.042    10699.214    -509.6203   -3040.2579   -1398.2365   -2286.4467 
 5671000     288.5964   -3819.4198   -3324.7755   -3819.4198            0    10562.211     16.79409     19.78122     20.48875    6806.5182    11400.906    10408.815    9876.9121   -78.910716   -545.51539   -557.37117   -2276.3061 
 5672000    275.25621   -3766.2246   -3294.4448   -3766.2246            0    12949.174    16.748351    19.727345    20.432949    6751.0569    11983.515    15360.382    11503.624    1376.0862   -1426.2716    324.90317   -2019.5049 
 5673000    295.35945   -3832.3953   -3326.1593   -3832.3953            0    12427.391    16.819176    19.810767    20.519355     6837.065    10978.131    12554.251    13749.791    1026.5795    1391.0069    857.82922   -2087.0044 
 5674000    263.91814   -3784.2047    -3331.858   -3784.2047            0    11044.294    16.878821    19.881021    20.592122    6910.0613    10060.189    13527.938    9544.7549    28.418683   -1726.1187    1339.8866   -2218.8565 
 5675000    280.71234   -3788.7147   -3307.5834   -3788.7147            0    11357.557    16.861525    19.860649    20.571021    6888.8401    10418.404    12398.279    11255.989   -96.254659    33.792355    614.66565   -2166.5274 
 5676000    275.45352   -3802.9602   -3330.8423   -3802.9602            0    11077.706     16.82372     19.81612    20.524899    6842.6085    11445.549    13109.229    8678.3409   -148.41431    224.82015   -1326.4613   -2225.3711 
 5677000    289.43026   -3784.4936     -3288.42   -3784.4936            0    11738.724    16.844823    19.840976    20.550644    6868.3896    12346.409    10085.112     12784.65   -742.52135    1168.7082    992.68695   -2112.5706 
 5678000    287.70033   -3783.7298   -3290.6213   -3783.7298            0    11915.019    16.802597     19.79124    20.499129    6816.8667    10314.882    11810.515     13619.66    886.22938   -2010.7462   -1415.8108   -2106.0658 
 5679000    298.03683   -3813.1562   -3302.3313   -3813.1562            0    10889.573    16.820985    19.812899    20.521563    6839.2719    12751.903    11187.189    8729.6282    388.09366   -139.68668    368.07194   -2216.1642 
 5680000    281.23028   -3794.8551   -3312.8361   -3794.8551            0    13500.473    16.779019    19.763468    20.470364    6788.2104    13240.453    14444.374    12816.593    2244.5233    -523.6148   -751.36546   -1976.3015 
 5681000    287.37315   -3789.1522   -3296.6045   -3789.1522            0    11042.997    16.805948    19.795187    20.503217     6820.946    9854.1697     12488.07    10786.752    2162.1904    -174.0546     1101.267   -2198.0858 
 5682000    301.21664   -3814.0071   -3297.7321   -3814.0071            0     10827.12    16.813639    19.804245      20.5126    6830.3146    10255.523    10965.672    11260.164    58.000761    343.74428    1374.3469   -2219.2088 
 5683000    275.42962   -3797.5193   -3325.4424   -3797.5193            0     10377.54    16.823702    19.816098    20.524877    6842.5858    12957.659    8498.7891    9676.1725    635.40801   -1673.7704     1137.791   -2289.8459 
 5684000    280.49676    -3820.427   -3339.6651    -3820.427            0    10448.389    16.853693    19.851424    20.561466    6879.2456    11138.733    10260.726    9945.7088   -622.56617    929.66642    191.59127   -2291.4123 
 5685000    282.28211   -3768.9535   -3285.1316   -3768.9535            0     12639.42    16.804541    19.793529      20.5015    6819.2328    12714.371    14258.442    10945.448    2261.4058   -354.09563    259.63445   -2028.1221 
 5686000    275.94647   -3753.6166   -3280.6538   -3753.6166            0    9582.0218    16.886688    19.890288     20.60172    6919.7281    10508.444    8771.8421    9465.7789    1316.8035    414.37002    482.26969   -2313.6636 
 5687000    255.68932   -3755.3289   -3317.0861   -3755.3289            0    11896.911    16.819333    19.810953    20.519547    6837.2573    10467.365    10507.761    14715.608   -298.44674    942.17368    1008.4731   -2130.7929 
 5688000    305.61251   -3778.5176   -3254.7083   -3778.5176            0    12621.797    16.800884    19.789222    20.497039    6814.7818    13648.122    10205.202    14012.067   -863.60621    51.051781    277.26638   -2000.2707 
 5689000    280.69253    -3814.938   -3333.8406    -3814.938            0    10475.883    16.833467    19.827601    20.536791    6854.5086    10110.864    9828.5822    11488.203    1194.1853    1116.6448   -1515.4239   -2286.6087 
 5690000    293.27153   -3733.9997   -3231.3423   -3733.9997            0     12113.07    16.835697    19.830227    20.539511    6857.2326    12999.392    11149.389    12190.428    382.45742    1877.9859    905.15345   -2019.9663 
 5691000    283.85444   -3785.9451   -3299.4284   -3785.9451            0    9061.3937    16.845422    19.841681    20.551375    6869.1221    9350.5326    8217.0173    9616.6313   -634.08537   -66.462739   -514.61978   -2391.6661 
 5692000    282.11639    -3811.301   -3327.7632    -3811.301            0    9687.7166     16.84271    19.838487    20.548066    6865.8052    9631.8471    8576.2714    10855.031    668.10945    1316.9516    429.70575   -2357.7251 
 5693000    281.68443   -3779.4677   -3296.6702   -3779.4677            0    10145.582    16.882213    19.885017    20.596261    6914.2288    11366.867    9005.9122    10063.968   -2011.9324    228.23353    1719.3449   -2273.6208 
 5694000    277.64857   -3742.0851    -3266.205   -3742.0851            0    11267.021     16.85396    19.851739    20.561792    6879.5732    12480.146    11906.125    9414.7904   -437.90968   -205.97111   -611.61741   -2135.7677 
 5695000     280.8585   -3764.5277   -3283.1458   -3764.5277            0    12872.389    16.857925    19.856409    20.566629    6884.4295    13703.136    9696.1235    15217.906    -289.0249   -899.61015    6.3620422   -1990.7278 
 5696000      278.363   -3765.4132   -3288.3085   -3765.4132            0    9761.0652    16.855464     19.85351    20.563627    6881.4147    8337.9797    10807.742    10137.474     698.2844    805.17517   -544.20988   -2308.7039 
 5697000    280.37151   -3753.8099   -3273.2627   -3753.8099            0     11417.21    16.829866    19.823359    20.532398    6850.1106    12867.047    11428.776    9955.8064    229.42468   -1540.4759    -647.0577   -2132.6625 
 5698000    279.37731    -3774.487   -3295.6438    -3774.487            0    10653.954    16.914133    19.922615    20.635203    6953.5222     11179.41    10477.708    10304.744   -1533.6766     394.6865    79.876243   -2215.2265 
 5699000    284.38042   -3751.4379   -3264.0196   -3751.4379            0    12203.151     16.84697    19.843505    20.553264    6871.0162     13890.47    10204.692    12514.292    485.25735   -527.28051   -2508.3029   -2041.1818 
 5700000    280.31422   -3763.5865   -3283.1375   -3763.5865            0    11471.309    16.788236    19.774325    20.481609    6799.4031    10775.248    11561.166    12077.514   -758.71665   -9.4459623    1048.9662   -2145.6159 
 5701000    285.66885   -3780.6654   -3291.0387   -3780.6654            0    10150.427    16.874209     19.87559    20.586496     6904.399    9579.2823    10828.719     10043.28   -1102.8007    631.49951    405.00756   -2268.9559 
 5702000     277.2604   -3768.8064   -3293.5915   -3768.8064            0     13606.54    16.846163    19.842555     20.55228    6870.0294    12765.118    15110.192     12944.31   -375.81449     949.7982    1622.4175   -1930.3206 
 5703000    272.23905   -3789.0157   -3322.4073   -3789.0157            0    10967.996    16.838045    19.832992    20.542375    6860.1017    9622.8863    12772.256    10508.844    1519.9373   -772.97034    572.41842   -2225.0863 
 5704000    266.78333   -3790.1307   -3332.8732   -3790.1307            0    9892.5599    16.902792    19.909256    20.621367    6939.5438    10841.074    9271.5327    9565.0728   -14.786848   -1066.9716    983.72688   -2331.6855 
 5705000    261.02294   -3785.1082   -3337.7238   -3785.1082            0    12652.075    16.818878    19.810417    20.518992     6836.702     14213.65    9925.2676    13817.308    542.93446   -734.61617    554.10696   -2076.2324 
 5706000    282.51452   -3800.7672    -3316.547   -3800.7672            0    11068.678    16.857301    19.855674    20.565868    6883.6646    12481.984    9366.4402    11357.608   -589.21054   -470.37997    1516.2589   -2205.3493 
 5707000    273.38081   -3773.6567   -3305.0913   -3773.6567            0    12108.742    16.903111    19.909632    20.621756     6939.937    12076.117    11492.052    12758.058    633.65756    256.36012    250.44323    -2079.543 
 5708000    288.83187   -3787.8846   -3292.8366   -3787.8846            0    10630.737    16.877736    19.879744    20.590799     6908.729      9965.55    9935.3154    11991.344    1138.8721    616.89843    1388.0798   -2221.7184 
 5709000     274.1043    -3781.965   -3312.1596    -3781.965            0    11996.804     16.80052    19.788794    20.496596    6814.3399    11970.108    11201.062    12819.242    -338.6268    763.22277   -390.57531   -2119.9154 
 5710000    285.41928   -3747.0786   -3257.8797   -3747.0786            0    12677.405    16.830059    19.823587    20.532633    6850.3465    12799.364      11017.6    14215.252    55.158601    1621.2763    73.158865     -1991.34 
 5711000    286.60313   -3798.8646   -3307.6366   -3798.8646            0    12370.847    16.818808    19.810334    20.518907    6836.6167    8383.4887    17361.882     11367.17    517.45168     419.2583     919.1846   -2074.2008 
 5712000    283.70178   -3785.2046   -3298.9494   -3785.2046            0      12003.5    16.854079    19.851879    20.561937    6879.7184    13311.593    12935.076    9763.8321   -270.03604   -662.58816    1238.7292   -2094.5946 
 5713000    281.16424   -3802.0706   -3320.1647   -3802.0706            0    9576.4929    16.894242    19.899186    20.610936    6929.0186    9058.0248    12221.099    7450.3554    146.31339    247.14081    1073.1306   -2352.4349 
 5714000    274.84281   -3824.0674   -3352.9962   -3824.0674            0    12290.596    16.822057    19.814162    20.522871    6840.5798    12227.037    11709.304    12935.446     586.3051   -1594.7491    267.41454   -2126.8515 
 5715000    267.46523   -3861.3043   -3402.8781   -3861.3043            0    11159.733    16.820953    19.812861    20.521523    6839.2328    12415.703    11803.897    9259.6004   -433.58465    294.50645   -763.68683   -2289.7706 
 5716000    280.03544   -3852.7874   -3372.8163   -3852.7874            0    10562.205    16.849444    19.846419    20.556282    6874.0442    9371.9716    10996.363    11318.281    1377.7873   -565.37992   -514.71137   -2313.9459 
 5717000    274.80531   -3856.6147   -3385.6078   -3856.6147            0    11538.585    16.819748    19.811441    20.520053    6837.7625    11679.691    11099.237    11836.826    159.02618   -1422.5436    1126.7499   -2234.9599 
 5718000    294.65046   -3846.2788    -3341.258   -3846.2788            0    9950.7471    16.881165    19.883783    20.594982    6912.9412    8894.1418    11593.997    9364.1025   -40.365133    -1097.954   -410.59234   -2338.0421 
 5719000    290.30425   -3800.9927   -3303.4211   -3800.9927            0    12093.219    16.798068    19.785905    20.493604    6811.3562    12285.069    12131.051    11863.538   -1171.7104   -3137.4613   -247.18842   -2102.1213 
 5720000    268.47595   -3808.2695   -3348.1109   -3808.2695            0    12708.095    16.812763    19.803214    20.511532    6829.2481    12577.319    10436.089    15110.878   -1647.2476    -825.6646   -1842.0587   -2082.4153 
 5721000    283.77761   -3777.0125   -3290.6274   -3777.0125            0    12595.527    16.818016    19.809402    20.517941    6835.6512    12030.277    13044.533    12711.769     1076.839    1841.5611    727.18505   -2034.9672 
 5722000    283.40293   -3834.3886   -3348.6456   -3834.3886            0    11156.029    16.853667    19.851394    20.561435    6879.2143    12550.976    11090.583    9826.5266   -1787.0769    1399.4186    858.40668   -2229.4027 
 5723000    284.84208   -3807.8933   -3319.6837   -3807.8933            0    10971.388    16.831225     19.82496    20.534056    6851.7702    11083.234     10663.55    11167.379    111.06615   -1142.6563    538.29713   -2223.3563 
 5724000    282.66763   -3765.7289   -3281.2462   -3765.7289            0    12309.769    16.833896    19.828106    20.537314    6855.0328    13040.478    12149.269    11739.558    438.70581    1104.8823    690.16607   -2050.5941 
 5725000    287.78507   -3802.3927   -3309.1389   -3802.3927            0    11286.005    16.828787    19.822088     20.53108    6848.7923    9646.0686    12858.768     11353.18    1026.6684    1508.4464    221.34026   -2181.8632 
 5726000    268.69303   -3768.9629   -3308.4322   -3768.9629            0    9435.9187    16.834456    19.828765    20.537997    6855.7165    8611.7584    9971.6668    9724.3308    209.84401   -1533.9066   -736.21098   -2364.9952 
 5727000    297.04666   -3719.6941   -3210.5663   -3719.6941            0    11849.127    16.778843    19.763261    20.470149    6787.9966    10835.243    11958.237    12753.901   -1373.9005    1594.6586   -235.95256   -2037.5506 
 5728000    297.15336    -3791.544   -3282.2333    -3791.544            0    12447.526    16.847218    19.843798    20.553567    6871.3204    13068.879    13475.825    10797.875    623.46076    134.56496   -946.22228   -2034.8523 
 5729000    289.19204   -3789.8712   -3294.2059   -3789.8712            0    10833.725    16.850172    19.847277     20.55717    6874.9349    8475.0182    11987.582    12038.574    67.367893    353.37251   -28.963117   -2207.9747 
 5730000    284.80377   -3738.2614   -3250.1174   -3738.2614            0    13525.516    16.775627    19.759473    20.466226    6784.0946    12966.176    13349.795    14260.577   -1176.5143    1904.9139    504.77141   -1911.9156 
 5731000    296.43453   -3767.9482   -3259.8695   -3767.9482            0    9707.5581    16.831828     19.82567    20.534791    6852.5066    10926.124    11589.781    6606.7694    121.82554   -1108.8162    28.861906   -2289.7274 
 5732000    285.06139   -3813.0051   -3324.4197   -3813.0051            0    14107.248    16.740115    19.717645    20.422902    6741.1024    12684.927    14108.157    15528.661   -1545.8026    192.28258    515.79539    -1937.507 
 5733000     274.0266   -3810.7507   -3341.0784   -3810.7507            0      9218.62    16.886338    19.889876    20.601293    6919.2977    9943.3483    9261.4911    8451.0207   -1193.3497   -437.74147    1334.4529   -2410.8196 
 5734000    299.32327   -3791.7405   -3278.7106   -3791.7405            0    11048.035    16.841177    19.836682    20.546197    6863.9314    11678.182    12091.675    9374.2484   -4.6527025   -43.526645   -468.77845   -2172.7648 
 5735000    281.06984   -3806.1211    -3324.377   -3806.1211            0    10435.427    16.853205    19.850849    20.560871    6878.6484    12485.053    8043.1636    10778.063   -372.12415    600.51317    831.95847   -2277.5156 
 5736000      278.046   -3810.0713   -3333.5099   -3810.0713            0    9919.2436     16.85824     19.85678    20.567014    6884.8157    8538.0819    9896.9119    11322.737    925.14422    1200.2405   -466.19064   -2337.5388 
 5737000    290.70811   -3817.4649   -3319.2011   -3817.4649            0    12738.564    16.822607    19.814808    20.523541    6841.2498    12006.782    13556.904    12652.006    424.48495   -102.82427   -1177.4701   -2048.2414 
 5738000    280.15122   -3787.2403   -3307.0707   -3787.2403            0    12533.011    16.878733    19.880918    20.592015    6909.9536    11813.061    12211.261    13574.712   -2265.5287    1368.5834   -1689.3787   -2044.0616 
 5739000    286.04473   -3811.1444   -3320.8735   -3811.1444            0    13649.343    16.807458    19.796966     20.50506    6822.7855    12718.092    13795.769    14434.168   -178.33504     735.9369    271.62483   -1962.7184 
 5740000    270.06959   -3763.1565   -3300.2665   -3763.1565            0    12970.627    16.755176    19.735385    20.441276    6759.3137    11386.638    13671.891    13853.353    73.729741    1883.5416   -1474.4482   -2021.6524 
 5741000    276.54837   -3812.8781   -3338.8836   -3812.8781            0    8727.3003    16.868682    19.869079    20.579753    6897.6167    6983.3456    10163.061    9035.4943   -1002.3251    -447.1445   -602.12365   -2460.9638 
 5742000    286.52202   -3797.2803   -3306.1914   -3797.2803            0    10640.569    16.845753    19.842072    20.551779    6869.5273    8459.1594    12334.742    11127.804   -251.68105    2164.4458    2121.1911   -2240.1659 
 5743000    272.88773   -3774.5533    -3306.833   -3774.5533            0    10317.687    16.926657    19.937367    20.650482    6968.9797     8256.889     12806.36    9889.8136    1223.1782    533.67969     433.4134   -2258.1905 
 5744000    280.51054   -3767.8538   -3287.0683   -3767.8538            0    13331.314    16.746652    19.725344    20.430876    6749.0024    13428.846    11348.001    15217.096   -239.24962   -627.54324   -896.50336   -1974.9033 
 5745000     293.7088   -3768.4432   -3265.0364   -3768.4432            0    12113.304    16.814219    19.804929    20.513308    6831.0221    12214.791    11158.353    12966.768   -1246.8483    484.22692   -387.17848   -2058.2673 
 5746000    286.16312   -3789.7789   -3299.3052   -3789.7789            0    9855.3748    16.837223    19.832025    20.541373    6859.0979    8384.3505    12373.357    8808.4168    1757.0045   -106.29085   -493.28407   -2313.4434 
 5747000    270.97072   -3797.1524   -3332.7178   -3797.1524            0    10312.189    16.795739    19.783163    20.490763    6808.5241     10659.92    9051.3388    11225.309    67.228925   -650.75154    458.06122   -2308.7655 
 5748000    287.22589   -3767.2515   -3274.9561   -3767.2515            0     10509.76    16.823079    19.815365    20.524118    6841.8268    11229.652    13477.271    6822.3562   -1201.0627   -54.259822   -830.60654   -2226.2815 
 5749000    271.58809   -3792.5197    -3327.027   -3792.5197            0     10250.85    16.794756    19.782004    20.489563    6807.3282      9434.35    9109.7608    12208.439   -182.27284   -860.55533    176.20643   -2309.3441 
 5750000    295.33498   -3795.8106   -3289.6165   -3795.8106            0    9580.4724    16.856408    19.854622    20.564779    6882.5712    8076.1479    9330.7101    11334.559    340.12099   -513.87181   -81.133699   -2327.9743 
Loop time of 490.731 on 64 procs for 250000 steps with 864 atoms

Performance: 88.032 ns/day, 0.273 hours/ns, 509.444 timesteps/s
99.1% CPU use with 64 MPI tasks x 1 OpenMP threads

MPI task timing breakdown:
Section |  min time  |  avg time  |  max time  |%varavg| %total
---------------------------------------------------------------
Pair    | 22.431     | 27.659     | 33.162     |  46.5 |  5.64
Bond    | 0.27639    | 0.28525    | 0.30126    |   1.0 |  0.06
Kspace  | 207.19     | 217.66     | 232.2      |  37.3 | 44.35
Neigh   | 6.4074     | 7.6228     | 9.3356     |  26.7 |  1.55
Comm    | 100.53     | 115.15     | 128.16     |  58.2 | 23.47
Output  | 1.5744     | 1.5884     | 1.6009     |   0.3 |  0.32
Modify  | 110.99     | 116.17     | 119.46     |  24.3 | 23.67
Other   |            | 4.591      |            |       |  0.94

Nlocal:        13.5000 ave          18 max           9 min
Histogram: 1 1 5 12 17 9 10 5 3 1
Nghost:        2293.14 ave        2344 max        2256 min
Histogram: 4 5 10 11 12 12 3 3 3 1
Neighs:        4474.09 ave        6842 max        2594 min
Histogram: 2 3 9 16 10 10 10 2 1 1

Total # of neighbors = 286342
Ave neighs/atom = 331.41435
Ave special neighs/atom = 2.0000000
Neighbor list builds = 16117
Dangerous builds = 1

unfix		3
unfix		2
unfix		1

write_data	data.final.${pid}
write_data	data.final.0
System init for write_data ...
PPPM initialization ...
  extracting TIP4P info from pair style
  using 12-bit tables for long-range coulomb (../kspace.cpp:340)
  G vector (1/distance) = 0.37483891
  grid = 24 24 24
  stencil order = 5
  estimated absolute RMS force accuracy = 0.003095755
  estimated relative force accuracy = 9.3227742e-06
  using double precision FFTW3
  3d grid and FFT values/proc = 2535 216
Last active /omp style is kspace_style pppm/tip4p/omp
WARNING: Not all mixed pair coeffs generated from mixing. Use write_data with 'pair ij' option to store all pair coeffs. (../write_data.cpp:312)

write_restart   restart.lmp.${pid}
write_restart   restart.lmp.0
System init for write_restart ...
PPPM initialization ...
  extracting TIP4P info from pair style
  using 12-bit tables for long-range coulomb (../kspace.cpp:340)
  G vector (1/distance) = 0.37483891
  grid = 24 24 24
  stencil order = 5
  estimated absolute RMS force accuracy = 0.003095755
  estimated relative force accuracy = 9.3227742e-06
  using double precision FFTW3
  3d grid and FFT values/proc = 2535 216
Last active /omp style is kspace_style pppm/tip4p/omp
Total wall time: 0:08:17
