LAMMPS data file via write_data, version 30 Jul 2021, timestep = 18750000

1008 atoms
2 atom types
672 bonds
1 bond types
336 angles
1 angle types

-3.183517851094045 14.793516850648253 xlo xhi
-0.1466944944046471 22.72669349439945 ylo yhi
0.03147561063600257 19.19852238935902 zlo zhi
-0.5170510874081534 -6.8097150314407875 0.32673354052926695 xy xz yz

Masses

1 1.008
2 15.999

Pair Coeffs # lj/cut/tip4p/long/omp

1 0 0
2 0.21084 3.1668

Bond Coeffs # harmonic/omp

1 450 0.9572

Angle Coeffs # harmonic/omp

1 55 104.52

Atoms # full

21 7 1 0.5897 1.0298819930437437 2.2867238210533882 0.9143224758679886 0 0 0
55 19 2 -1.1794 -1.0094337577604011 4.326952658437917 3.2825550162056363 0 0 0
56 19 1 0.5897 -1.5412405624853376 3.637514497944048 2.884975969225159 0 0 0
57 19 1 0.5897 -0.22341996707588052 4.368103558722323 2.7377047471627027 0 0 0
121 41 2 -1.1794 -2.580022877036887 2.3117722834208276 2.5139891046249487 1 0 0
122 41 1 0.5897 -2.5527170489653943 1.8558340389871826 1.6728070548985399 1 0 0
86 29 1 0.5897 -2.4110775666077977 1.2753713192197311 3.9698382270517527 1 0 0
31 11 2 -1.1794 1.0197039996887893 1.2445692369732102 2.3212238340123865 0 0 0
32 11 1 0.5897 0.7206107009924825 1.5181164008444021 3.1883866163171275 0 0 0
123 41 1 0.5897 -3.4882687897806353 2.6014338660697005 2.6007194186549984 1 0 0
46 16 2 -1.1794 1.5564472763711974 4.5822477385987 2.2120188647275962 0 0 0
33 11 1 0.5897 0.3643698320623434 0.610370231444305 2.0304554615512194 0 0 0
47 16 1 0.5897 1.640568763975459 5.074622297720216 1.3954513829864081 0 0 0
48 16 1 0.5897 1.6447815495614053 5.2417750757666814 2.9000545202457615 0 0 0
71 24 1 0.5897 2.755357975486655 0.36520323508886343 1.9473821963117142 0 0 0
482 161 1 0.5897 -1.202553985106524 -0.03345028880028235 0.7051724225603434 1 1 0
114 38 1 0.5897 -3.6633767473021583 5.417592885399344 1.8009703967259807 1 0 0
602 201 1 0.5897 -0.7663318006837554 5.257134963124507 0.3855830571132275 1 0 1
78 26 1 0.5897 -0.25642744368779535 3.1098758716689883 4.50940832047615 0 0 0
113 38 1 0.5897 -3.4411319744158 5.417589485267878 3.2984161165845713 1 0 0
158 53 1 0.5897 -4.5358343965946 4.337893991635713 4.443965377499624 1 0 0
76 26 2 -1.1794 0.3007396285976536 2.3680167904643477 4.74504341209779 0 0 0
603 201 1 0.5897 -0.4058508666515306 3.828102316335518 0.0391358871898662 1 0 1
527 176 1 0.5897 3.911716006185559 1.8683628649793378 0.5218086233294092 0 0 1
53 18 1 0.5897 4.134381383697136 2.699145265664081 2.7866313548595034 0 0 0
54 18 1 0.5897 2.8264471396516084 3.4524759845430335 2.9047891733887803 0 0 0
70 24 2 -1.1794 3.546412214268962 0.2584859743455311 1.4189939574669745 0 0 0
52 18 2 -1.1794 3.444782910296607 2.925386697796231 3.410834987809251 0 0 0
16 6 2 -1.1794 5.147718453199847 4.779175716516938 0.3171603928597121 0 0 0
18 6 1 0.5897 4.578888918145724 4.025516557082764 0.160017451063787 0 0 0
6 2 1 0.5897 3.1701293370631465 1.5520982337335971 4.727300551552899 0 0 0
134 45 1 0.5897 -2.4227078267195705 2.542686418520841 6.181460336567041 1 0 0
135 45 1 0.5897 -1.9475033483245152 3.667264228131352 7.076620871693217 1 0 0
60 20 1 0.5897 2.421353948477438 3.709977693417437 6.767424773397639 0 0 0
34 12 2 -1.1794 -0.1355971779277163 1.4805936801080366 7.434198642238014 0 0 0
35 12 1 0.5897 -0.06615853568742791 2.2497112246782605 7.999758717233449 0 0 0
36 12 1 0.5897 -0.9581655620267884 1.0654130772716528 7.693710075441616 0 0 0
98 33 1 0.5897 -4.270681587251213 5.518660073961003 8.695334250837105 1 0 0
11 4 1 0.5897 2.090438250879523 5.416476924687057 5.040486009949822 0 0 0
124 42 2 -1.1794 -5.487444292750283 2.6646923088208734 7.349921030106149 1 0 0
58 20 2 -1.1794 1.716002791329866 4.109826212449451 6.258674677706968 0 0 0
59 20 1 0.5897 1.3898370890359146 3.4018710930137366 5.7031436841961565 0 0 0
97 33 2 -1.1794 -4.088065197048576 5.011127700251788 9.486102918784642 1 0 0
43 15 2 -1.1794 -0.7460606094302356 5.001503539678755 7.302215352657851 0 0 0
126 42 1 0.5897 -4.606683149993625 2.9850643187545947 7.155088532779253 1 0 0
45 15 1 0.5897 0.18925076651885187 4.817404544539122 7.21498577109503 0 0 0
133 45 2 -1.1794 -2.7366325868170245 3.200024819925413 6.802465695945301 1 0 0
67 23 2 -1.1794 -2.474834043932129 0.4845873815882322 8.318055909864556 0 0 0
159 53 1 0.5897 -3.5206867246904903 4.268949503997209 5.564845969729806 1 0 0
669 223 1 0.5897 -5.5638837316321155 2.0227270885644257 9.026314281657598 1 0 0
402 134 1 0.5897 1.1223229881751262 0.5243014849278338 8.169499528135036 0 1 0
77 26 1 0.5897 0.04256069872756152 2.1488853826298575 5.640370815392564 0 0 0
69 23 1 0.5897 -2.9523488449606226 1.0959444309914832 8.878911227350695 0 0 0
87 29 1 0.5897 -3.4768498241816186 0.9031402379790119 4.978708924186708 1 0 0
401 134 1 0.5897 2.21402327540779 0.4432454475306209 9.215114272966645 0 1 0
44 15 1 0.5897 -0.8426578248668077 5.336827122083852 8.193528268996975 0 0 0
85 29 2 -1.1794 -2.5388030672636335 1.0755483747666261 4.897205673256323 1 0 0
4 2 2 -1.1794 3.3184802897034915 0.8940621392979526 5.406465919117078 0 0 0
68 23 1 0.5897 -3.14862655448874 0.09132971871412915 7.763572747519995 0 0 0
5 2 1 0.5897 2.860872605675227 0.11511893261922218 5.09010551579444 0 0 0
522 174 1 0.5897 1.8390948969983132 5.722321007299108 9.347563875229365 0 0 0
157 53 2 -1.1794 -4.051389585331351 4.8861195723087265 5.061148680820077 1 0 0
575 192 1 0.5897 0.9622970399403634 0.18903858545955832 11.853099286057091 0 0 0
589 197 2 -1.1794 -5.732358336978605 1.1139292634867246 14.348647689748462 1 0 0
560 187 1 0.5897 -4.9531438005114286 3.9055704111090765 12.841139195390701 0 0 0
576 192 1 0.5897 -0.423859684783225 0.797677288382801 11.83716875579351 0 0 0
627 209 1 0.5897 -6.936230382905122 3.051082614786136 12.304603050199686 1 0 0
525 175 1 0.5897 -1.8549919106958073 2.8269878003090922 9.970788668536867 0 0 0
550 184 2 -1.1794 -1.8078333108020708 4.947286983421595 12.268236125943249 0 0 0
99 33 1 0.5897 -3.91696682636368 5.669480452978082 10.159523156537935 1 0 0
535 179 2 -1.1794 -2.14837400143987 1.259231053818461 12.52687302130454 0 0 0
536 179 1 0.5897 -2.324445860943502 1.7721686828900551 13.315637475078569 0 0 0
537 179 1 0.5897 -2.4376640387995154 1.8195656746288806 11.806760150067944 0 0 0
574 192 2 -1.1794 0.3551371647723469 0.6745132457015526 11.294612480675184 0 0 0
625 209 2 -1.1794 -6.0314159153390055 2.803779170220406 12.113540440573143 1 0 0
556 186 2 -1.1794 0.3685252985723144 3.5900928664542526 13.105086363512749 0 0 0
561 187 1 0.5897 -3.8866135908510566 3.791732947940655 13.909430018155543 0 0 0
668 223 1 0.5897 -5.958147917154328 1.999271961187834 10.487824362109182 1 0 0
558 186 1 0.5897 -0.5065260918554308 3.735887485523902 12.745577182977737 0 0 0
559 187 2 -1.1794 -4.312215165484597 4.422721881687865 13.328929336274758 0 0 0
23 8 1 0.5897 0.47746580922563053 2.155773476496022 10.290234427673632 0 0 0
552 184 1 0.5897 -2.729509141609057 4.74960982410576 12.434883845642965 0 0 0
626 209 1 0.5897 -5.862247632877208 2.053531930357947 12.683467937593443 1 0 0
557 186 1 0.5897 0.33827691416365724 2.700327519587431 13.456847233455226 0 0 0
523 175 2 -1.1794 -2.774756931644157 2.7093616496648836 10.208543242302003 0 0 0
667 223 2 -1.1794 -5.632972600751249 1.4398064893660207 9.782446763809189 1 0 0
662 221 1 0.5897 -7.5424935320212825 4.657626902790257 14.261733783675954 1 0 0
524 175 1 0.5897 -3.178427367255415 3.559572749835934 10.033819323911185 0 0 0
22 8 2 -1.1794 0.06361763691488465 2.8884209361874733 9.833890052214397 0 0 0
986 329 1 0.5897 -4.48206195370364 0.32918746898526263 10.777479985080985 1 1 0
587 196 1 0.5897 -1.495953194585792 5.697122765280689 10.319762579224346 0 0 0
551 184 1 0.5897 -1.543033858648621 5.496465978939305 13.006107242144111 0 0 0
24 8 1 0.5897 0.6493403365931476 3.629483252466307 9.988884572732339 0 0 0
520 174 2 -1.1794 1.957638876701088 5.0796314496142205 10.046981993568256 0 0 0
591 197 1 0.5897 -4.97067274949787 0.535159474275219 14.314361830645549 1 0 0
606 202 1 0.5897 -6.3605890070390165 4.576741406070522 9.63363405259218 1 0 0
547 183 2 -1.1794 -3.886391520999674 5.351471196661571 16.940412446701615 0 0 0
581 194 1 0.5897 -2.8637949818240065 2.2330308085483477 15.550643549644592 0 0 0
582 194 1 0.5897 -2.1437231330637276 3.5284450385404504 15.24150700185079 0 0 0
630 210 1 0.5897 -8.501215232683567 2.184569503629627 16.028389141753248 1 0 0
580 194 2 -1.1794 -2.599111515070253 2.7972848520677993 14.824081512921184 0 0 0
563 188 1 0.5897 -0.9746289705911151 5.225151842725425 15.881042374205025 0 0 0
639 213 1 0.5897 -6.0021254280933745 4.025972972846008 15.371469624222714 1 0 0
661 221 2 -1.1794 -6.958729030265211 5.376897544138175 14.502781265829409 1 0 0
538 180 2 -1.1794 -3.477222207778354 1.289147869389454 16.886158301278037 0 0 0
539 180 1 0.5897 -3.279281883305332 1.8983994647739233 17.597360353201573 0 0 0
571 191 2 -1.1794 -5.989987931781354 0.6697658037212528 17.759313479875047 0 0 0
540 180 1 0.5897 -4.424184551280686 1.159260901518623 16.93807520851663 0 0 0
638 213 1 0.5897 -6.3213863402556605 3.146350556242609 16.561614003589284 1 0 0
549 183 1 0.5897 -4.470257335585187 4.599400585220573 16.84168576018474 0 0 0
562 188 2 -1.1794 -1.2899140180238007 4.523857195046266 16.451242921460157 0 0 0
20 7 1 0.5897 -5.966270948352291 2.139806592992426 18.65567023805597 0 0 -1
564 188 1 0.5897 -2.1760234018340894 4.7922803923388 16.694389881797207 0 0 0
637 213 2 -1.1794 -5.593473184442296 3.4546719727585375 16.02174964612798 1 0 0
164 55 1 0.5897 -8.593543228324515 2.0710816765772666 18.412578122569876 1 0 -1
628 210 2 -1.1794 -8.190297151186499 2.761429573163411 16.72603953511566 1 0 0
629 210 1 0.5897 -8.789405225454534 3.5077115194473745 16.705364387300527 1 0 0
101 34 1 0.5897 -9.662609455913742 4.788813453086142 18.91093102101744 1 0 -1
590 197 1 0.5897 -5.467378926949236 1.8251571358812715 14.931858474858744 1 0 0
601 201 2 -1.1794 -7.787199002286089 4.87633119225033 18.943530294327438 1 0 0
528 176 1 0.5897 -4.077463827006439 2.9857301720045824 19.1637335426443 0 0 0
593 198 1 0.5897 -7.57229041033657 0.9277063790499318 14.498645760552487 1 0 0
165 55 1 0.5897 -9.581866772974735 0.9700719468786188 18.733714644253773 1 0 -1
526 176 2 -1.1794 -3.12671735155 2.9041851101706286 19.087878315178337 0 0 0
572 191 1 0.5897 -6.6314111407976135 0.2505437704023291 17.18575210377842 0 0 0
163 55 2 -1.1794 -8.96151886206453 1.5733837763975962 19.14280849584854 1 0 -1
19 7 2 -1.1794 -5.788646385665243 2.923475768998018 19.175803027195876 0 0 -1
289 97 2 -1.1794 -2.6028004380147802 9.862223121401623 2.355284478737996 1 0 0
255 85 1 0.5897 -2.5501277137318428 9.073671876099622 3.854522919048696 1 0 0
146 49 1 0.5897 -1.6180820105955793 6.403702958529579 1.9474996529768462 1 0 0
147 49 1 0.5897 -1.2719768489385441 7.472987222726401 0.9331036806039303 1 0 0
332 111 1 0.5897 -2.3892407670847033 9.222300670479868 0.7278646735641682 1 0 0
145 49 2 -1.1794 -0.9198322849742233 6.691547835515125 1.3593100319913447 1 0 0
112 38 2 -1.1794 -3.4146141959050764 5.986737591377964 2.5292270803952297 1 0 0
291 97 1 0.5897 -3.5077129183818956 10.13865498131413 2.5003382597397414 1 0 0
188 63 1 0.5897 0.5711154051177201 9.429356828044128 1.115533116599042 0 0 0
200 67 1 0.5897 0.3827196600940912 7.732720084412475 2.229065807497456 0 0 0
290 97 1 0.5897 -2.0828893052382145 10.650229951031037 2.513414913826279 1 0 0
9 3 1 0.5897 -0.9649906293056212 5.821547613945308 4.443499915952908 0 0 0
224 75 1 0.5897 -0.39318951878862185 11.06976335394227 3.916100331093138 0 0 0
187 63 2 -1.1794 0.6246364656551897 10.065231374815584 0.4020184453311757 0 0 0
254 85 1 0.5897 -2.3465880742768728 7.856298341336213 4.731257185234635 1 0 0
253 85 2 -1.1794 -2.524998826791763 8.79596645955993 4.770204280536908 1 0 0
306 102 1 0.5897 -4.798976570072593 11.34361899083772 3.915381486669363 1 0 0
222 74 1 0.5897 3.205031959487073 11.178233327104136 3.0411575535207844 0 0 0
199 67 2 -1.1794 0.9761900349536159 8.364362951668687 2.635294113417441 0 0 0
238 80 2 -1.1794 3.554606281748624 7.9237117968311015 1.7409614370615862 0 0 0
245 82 1 0.5897 0.5808864942176175 9.348198021892319 4.136578064749349 0 0 0
201 67 1 0.5897 1.8511699546092721 8.064879450884945 2.3881669436275055 0 0 0
240 80 1 0.5897 3.2359861991863017 7.3048749867841885 1.083928520837103 0 0 0
239 80 1 0.5897 3.5633682352252594 8.768466548430442 1.2908097594669656 0 0 0
220 74 2 -1.1794 3.702303180848669 10.645741748303 3.661970213753172 0 0 0
189 63 1 0.5897 1.5492997267165087 10.31044857222292 0.36782433694494504 0 0 0
10 4 2 -1.1794 2.0622130292778813 6.122999449780843 4.395243638378828 0 0 0
174 58 1 0.5897 3.4599716988733773 8.981315387166248 4.635522452166716 0 0 0
12 4 1 0.5897 1.2315527427414903 6.5681976329711915 4.5630453356951275 0 0 0
696 232 1 0.5897 4.004569955025183 11.17339409657907 0.19977032112283705 0 0 1
694 232 2 -1.1794 3.5387433847919745 10.338855843367055 0.14638363151540654 0 0 1
29 10 1 0.5897 4.781419981734873 6.843384195460552 2.441165042201098 0 0 0
244 82 2 -1.1794 0.4484589775196097 10.005972609585314 4.819257339517466 0 0 0
191 64 1 0.5897 0.17958908163554632 9.648519992950982 8.858780603499993 0 0 0
66 22 1 0.5897 2.554008399530959 6.751801311395802 7.740284092975484 0 0 0
109 37 2 -1.1794 -4.566239885294371 6.470506892721328 7.255759320855361 1 0 0
110 37 1 0.5897 -4.548633470363512 5.949047015504999 6.453274953562023 1 0 0
293 98 1 0.5897 -4.247346076069043 10.36649221656139 7.1477391173382046 1 0 0
172 58 2 -1.1794 3.564702731017433 8.23848491904146 5.230113617893964 0 0 0
292 98 2 -1.1794 -5.167435130468322 10.36075670378056 7.411848831293 1 0 0
837 279 1 0.5897 -6.25706464104449 8.21559113137135 9.022654168409872 1 0 0
246 82 1 0.5897 0.1311989510759748 9.508791430884935 5.573239814194919 0 0 0
294 98 1 0.5897 -5.188013321595056 9.815672391924254 8.198445477171527 1 0 0
8 3 1 0.5897 -0.6224681150290095 6.078521666440812 5.895513205781992 0 0 0
64 22 2 -1.1794 1.744030364968884 7.03138850901493 8.167059908303626 0 0 0
111 37 1 0.5897 -5.490629747811202 6.6840944832001705 7.383086206886715 1 0 0
202 68 2 -1.1794 0.030709868538595586 8.817142272733484 7.3452703061729245 0 0 0
203 68 1 0.5897 -0.8463611762299497 8.462061743711446 7.4901478581832315 0 0 0
204 68 1 0.5897 0.6166760887839473 8.072724281424232 7.482433280529033 0 0 0
228 76 1 0.5897 1.4206896224471786 11.011979242147152 5.961834790220202 0 0 0
235 79 2 -1.1794 -2.4858043013285562 8.033224362277064 7.95104046988629 0 0 0
236 79 1 0.5897 -3.25910770312221 7.5658554481697795 7.635227510136274 0 0 0
237 79 1 0.5897 -2.8331974726204514 8.696206874173876 8.547764358964242 0 0 0
302 101 1 0.5897 -2.2132487630516464 10.223791803669595 5.998991851602114 1 0 0
301 101 2 -1.1794 -2.5504932640638165 10.937990967596534 6.539819284571838 1 0 0
588 196 1 0.5897 -1.8525106867383991 6.781157338556229 9.324899729838185 0 0 0
65 22 1 0.5897 2.0174192532390496 7.719880689573901 8.773218437369906 0 0 0
303 101 1 0.5897 -1.7993204629325614 11.218432488273036 7.062538929018824 1 0 0
257 86 1 0.5897 -4.375595322871929 8.761874575180041 5.000937809890045 1 0 0
173 58 1 0.5897 2.93855109069528 7.587397352613104 4.91350391687 0 0 0
7 3 2 -1.1794 -0.6570751384103071 6.504666662440762 5.039090394074282 0 0 0
835 279 2 -1.1794 -5.750048859423423 8.830337860668095 9.552936685410705 1 0 0
192 64 1 0.5897 0.6724512543864081 10.864642346682452 9.613766311583273 0 0 0
836 279 1 0.5897 -5.054539857298684 8.297597475501737 9.93856950124289 1 0 0
794 265 1 0.5897 -5.539223439025145 11.107488756036238 11.999864181637042 1 0 0
678 226 1 0.5897 0.03957873973328763 9.500059331143683 13.896607146970695 0 0 0
757 253 2 -1.1794 -5.762952793937021 8.891880966455195 14.243340624147715 1 0 0
742 248 2 -1.1794 0.14992756926523487 7.867323335412982 11.371492523606486 0 0 0
724 242 2 -1.1794 0.26827623880422014 11.02301969711833 12.97131849879453 0 0 0
616 206 2 -1.1794 -6.596887458094926 6.685398019601767 11.971802799350728 1 0 0
693 231 1 0.5897 -2.6806105067074757 9.714905050265003 10.731766748497671 0 0 0
649 217 2 -1.1794 -3.9932792159796313 7.102182054054258 11.059679673949628 1 0 0
650 217 1 0.5897 -3.5360437352296796 7.517848661902555 11.790623854123123 1 0 0
651 217 1 0.5897 -4.88847604644701 6.978901182770519 11.375547727921072 1 0 0
795 265 1 0.5897 -6.229734033304495 10.022909213141427 11.200685827187339 1 0 0
744 248 1 0.5897 -0.327137932821294 7.317638806402232 10.749873508648799 0 0 0
793 265 2 -1.1794 -6.345343768164788 10.592766794094777 11.96104317179629 1 0 0
691 231 2 -1.1794 -2.581957783587615 10.01355715616988 9.82770639545847 0 0 0
759 253 1 0.5897 -5.87760804268539 9.331190959046882 13.400662636864702 1 0 0
703 235 2 -1.1794 -2.1739530305146495 8.933389379565945 12.293117817054343 0 0 0
704 235 1 0.5897 -1.3315599376347844 8.47976188225927 12.323492515693376 0 0 0
705 235 1 0.5897 -2.237020739778912 9.379461366733107 13.137666449635285 0 0 0
743 248 1 0.5897 0.22217382316225143 8.716214038611957 10.935022118895239 0 0 0
586 196 2 -1.1794 -1.1192500191096526 6.249559091483732 9.63474572816022 0 0 0
750 250 1 0.5897 -3.3940738701361095 10.726102099694565 14.055621472798444 0 0 0
809 270 1 0.5897 -7.861499038635431 10.904923051646062 12.580970954905844 1 0 0
190 64 2 -1.1794 0.1041300139244794 10.099190738631618 9.699866926766468 0 0 0
617 206 1 0.5897 -7.259907452391178 7.374204966718142 12.019489574639895 1 0 0
618 206 1 0.5897 -6.885236164789527 6.124056504776133 11.252143182590494 1 0 0
513 171 1 0.5897 -4.247479888019335 6.257011354424862 13.911204431372687 0 0 0
516 172 1 0.5897 -0.5814783357506084 7.269229276836412 14.320033851826201 0 0 0
692 231 1 0.5897 -1.6475102049149792 10.200457939750745 9.737187311203717 0 0 0
663 221 1 0.5897 -6.7964478650443105 5.840124789472157 13.680981873939299 1 0 0
797 266 1 0.5897 -7.6514391952621885 10.954275038234844 16.771591535047108 1 0 0
695 232 1 0.5897 -3.3357677074443126 10.486591070224671 18.375377807036344 0 0 0
741 247 1 0.5897 -6.556633649688026 9.14315205418375 18.05559697253947 0 0 0
512 171 1 0.5897 -4.528966381383167 7.630771467341989 14.481863723526262 0 0 0
740 247 1 0.5897 -6.972815759934875 8.010429315387825 17.141517307971235 0 0 0
568 190 2 -1.1794 -1.661680544812313 7.555703074167078 17.813277353108838 0 0 0
676 226 2 -1.1794 0.15927009497972477 8.784419983553283 14.520976457588224 0 0 0
333 111 1 0.5897 -8.804639840313705 9.764587716269581 18.449202643439058 1 0 -1
758 253 1 0.5897 -5.635364990816379 9.604222261152824 14.869841431913736 1 0 0
798 266 1 0.5897 -8.657008363121406 9.913718093665333 16.326670295018687 1 0 0
569 190 1 0.5897 -1.8611810234477302 6.736751496138401 18.266991892038412 0 0 0
749 250 1 0.5897 -3.2482746259419066 9.840490268634435 15.274810551104068 0 0 0
570 190 1 0.5897 -0.8179332589406814 7.396301743721596 17.390148255348826 0 0 0
613 205 2 -1.1794 -8.065320893407424 6.570289363178138 16.71098644985151 1 0 0
796 266 2 -1.1794 -8.539378262986311 10.638914447387409 16.940244446356566 1 0 0
706 236 2 -1.1794 -3.651288863303561 9.252465605206016 16.973596911198385 0 0 0
707 236 1 0.5897 -4.478030535865802 8.829224944661327 17.20529984497994 0 0 0
708 236 1 0.5897 -2.9769509885339476 8.659491571010923 17.305162247472097 0 0 0
739 247 2 -1.1794 -6.2022354351800235 8.471732520657152 17.47257883940243 0 0 0
514 172 2 -1.1794 -1.1660641819525859 6.523804224833208 14.457601947375014 0 0 0
511 171 2 -1.1794 -3.905489709192123 6.90576002009391 14.526307814312803 0 0 0
677 226 1 0.5897 0.054591179587700545 9.19486100099037 15.379347340408865 0 0 0
762 254 1 0.5897 -7.7373771265196964 8.635731483800841 14.628560979387643 1 0 0
548 183 1 0.5897 -4.067353269810534 5.897946396081203 16.175650827171403 0 0 0
805 269 2 -1.1794 -5.9274687631069325 11.160681163358124 15.769277808757707 1 0 0
614 205 1 0.5897 -7.809689295639508 5.960818757629278 17.403419805809463 1 0 0
615 205 1 0.5897 -7.632246540535661 6.236248757049588 15.925383798910117 1 0 0
84 28 1 0.5897 -4.34843755964386 6.1445430583598 18.3576004684777 0 0 -1
515 172 1 0.5897 -2.022889222129419 6.917839297704502 14.621729856136035 0 0 0
760 254 2 -1.1794 -8.603465344817689 9.012284249576046 14.784914750116528 1 0 0
83 28 1 0.5897 -5.288196227766108 7.229675857132246 18.83877563698045 0 0 -1
732 244 1 0.5897 -0.8992491808609087 11.337114853933292 16.704465059129348 0 0 0
731 244 1 0.5897 -1.9577537199820592 11.487223066448657 15.63267624507558 0 0 0
331 111 2 -1.1794 -8.981222896335138 9.076866297749426 19.091224650809288 1 0 -1
82 28 2 -1.1794 -4.640618537883525 6.59672436904823 19.149082657357205 0 0 -1
748 250 2 -1.1794 -2.7534400954571456 10.207180307199787 14.541989388044215 0 0 0
280 94 2 -1.1794 -3.6039359898700893 13.980734966922101 2.5477492698447675 1 0 0
281 94 1 0.5897 -3.557101773369895 13.63485236686674 3.439047421700065 1 0 0
282 94 1 0.5897 -2.741623625822825 14.367068704659836 2.3945007435849535 1 0 0
500 167 1 0.5897 -2.059813658923219 15.74360944391142 0.5203301970125707 1 0 0
269 90 1 0.5897 -3.843380890502766 12.808921195408518 1.1735842799714913 1 0 0
499 167 2 -1.1794 -2.655634416219733 16.358388306767203 0.09217101196198929 1 0 0
770 257 1 0.5897 -1.7562901152318389 12.069020849042957 0.0987191396049054 1 0 1
313 105 2 -1.1794 -0.9348650192281394 14.722641258752544 1.4399748466509297 1 0 0
184 62 2 -1.1794 5.0656563676579065 12.656701604478664 0.4210954306486297 0 0 0
421 141 2 -1.1794 -2.295300225125678 16.196173173381183 4.773494340233601 1 0 0
250 84 2 -1.1794 1.9670893753752985 13.899683187101664 0.21051823389375104 0 0 0
406 136 2 -1.1794 3.3874485641527716 15.663583569066974 1.6961276038963757 0 0 0
407 136 1 0.5897 4.241712335767112 15.262108913458581 1.855322239748568 0 0 0
367 123 2 -1.1794 0.9021331454776842 16.49296244484922 2.5130902761126492 0 0 0
315 105 1 0.5897 -0.7359947732364573 13.880844103174839 1.0299327610886375 1 0 0
223 75 2 -1.1794 -0.7716542050060031 11.760755447779346 3.372431310766983 0 0 0
314 105 1 0.5897 -0.18482796985394945 14.89551523728659 2.0089211065099706 1 0 0
225 75 1 0.5897 -1.027206744273503 12.442403756785781 3.993986117992443 0 0 0
215 72 1 0.5897 1.5139430999754877 13.236199747374442 1.8183718599269425 0 0 0
252 84 1 0.5897 2.5102440313382894 14.518980218015495 0.6979978260646931 0 0 0
180 60 1 0.5897 1.7681221733065033 13.677804086672973 4.209490505747388 0 0 0
214 72 2 -1.1794 1.469333508100827 12.95217343265854 2.7313804000902646 0 0 0
368 123 1 0.5897 1.8023522890231414 16.167752417523275 2.500287039489741 0 0 0
408 136 1 0.5897 3.5910025654856073 16.517906140693235 1.31527923634265 0 0 0
216 72 1 0.5897 0.6798449409382838 12.412794113069978 2.7767372483476507 0 0 0
423 141 1 0.5897 -2.3933953743503107 16.63657251908935 3.929297335382667 1 0 0
369 123 1 0.5897 0.8167530026087135 16.929984411011596 3.3604090468542016 0 0 0
771 257 1 0.5897 -0.3249986489581067 11.576492791263249 0.06809718727033964 1 0 1
404 135 1 0.5897 -1.7204701025349536 15.880584894071637 7.6890069351313235 0 0 0
1004 335 1 0.5897 -5.475225320859725 17.01701965255799 8.938466549454457 1 0 0
340 114 2 -1.1794 3.392013392200922 16.3499910947028 5.362058465736167 0 0 0
327 109 1 0.5897 -4.201402892723691 13.256730807301663 5.560451740290796 1 0 0
405 135 1 0.5897 -2.839791584929245 16.376898032439883 8.579529991324083 0 0 0
211 71 2 -1.1794 -0.5750275995684118 12.489377636635643 7.619771288339128 0 0 0
227 76 1 0.5897 0.9628604357532629 11.951477290203812 7.0571799095558765 0 0 0
213 71 1 0.5897 -0.6928458080966249 13.069568918263656 6.867593411413499 0 0 0
212 71 1 0.5897 -0.5723057926198134 13.075332268937759 8.376643663564627 0 0 0
690 230 1 0.5897 1.6814806871651395 12.996740160328562 9.194569682165026 0 0 0
232 78 2 -1.1794 1.7087279074182593 14.605537023790802 8.291055272086172 0 0 0
179 60 1 0.5897 1.8220891622491848 13.407968708513076 5.698152931291598 0 0 0
234 78 1 0.5897 1.1685066435003453 15.137470162735854 7.706721851231188 0 0 0
370 124 2 -1.1794 -0.0642178678925811 16.41184915423078 7.174313185968421 0 0 0
177 59 1 0.5897 0.013721769981946963 14.227534815330428 5.186018571410209 0 0 0
277 93 2 -1.1794 -4.638255184635459 13.973423450572426 7.25520513752616 1 0 0
278 93 1 0.5897 -3.99864884337147 14.657474995432187 7.453221677618924 1 0 0
178 60 2 -1.1794 1.860514690752522 14.116204570751849 5.05532199694094 0 0 0
341 114 1 0.5897 2.873650282127068 15.5452900512246 5.369122341930594 0 0 0
403 135 2 -1.1794 -2.5198717801944976 15.594137657779097 8.130911982982575 0 0 0
226 76 2 -1.1794 1.7434174349897233 11.664948700868871 6.582847705337038 0 0 0
267 89 1 0.5897 -4.01311567828885 12.861283819706951 8.691113541491216 1 0 0
279 93 1 0.5897 -5.486889481762482 14.410601695331277 7.326094838224389 1 0 0
756 252 1 0.5897 -1.6079377379225823 14.650756395860373 9.108177064752848 0 0 0
265 89 2 -1.1794 -4.027274251784609 12.48376646506024 9.570622094761632 1 0 0
326 109 1 0.5897 -3.4670335318836107 11.934648875873139 5.490047479448865 1 0 0
424 142 2 -1.1794 -5.09726323450003 16.20634693815871 4.841769262821485 1 0 0
233 78 1 0.5897 2.4755437026485607 14.37573624640092 7.766123228352558 0 0 0
372 124 1 0.5897 0.06934924209121984 16.943962799284265 6.38988684764072 0 0 0
176 59 1 0.5897 -1.441774514125009 14.640361937173411 5.242893986574173 0 0 0
422 141 1 0.5897 -2.3117141455944674 16.904601403566758 5.417001422504336 1 0 0
325 109 2 -1.1794 -3.9014119180447935 12.589341303486224 4.943286060180225 1 0 0
774 258 1 0.5897 -5.92799658814856 12.507417616500371 9.350670661574396 1 0 0
175 59 2 -1.1794 -0.8680684800400247 13.877264405818169 5.312786534585422 0 0 0
462 154 1 0.5897 -5.06659264677531 16.956669673941867 6.570442909838531 1 0 0
266 89 1 0.5897 -3.5385416595257047 11.664813108022727 9.488167275767443 1 0 0
371 124 1 0.5897 -0.07738510079385907 17.043523328968647 7.893358901283573 0 0 0
425 142 1 0.5897 -4.141123302221116 16.16239518826302 4.82848190068465 1 0 0
682 228 2 -1.1794 -1.3920798845781972 13.93570696838165 14.283398985515536 0 0 0
728 243 1 0.5897 -3.2791719102963226 12.057213525519195 12.497699580656304 0 0 0
846 282 1 0.5897 -0.21435844625596623 16.980787151574233 14.26427002355144 0 0 0
718 240 2 -1.1794 -1.6017575449739487 12.65425719250503 11.952925993411046 0 0 0
912 304 1 0.5897 0.6090714170422125 15.298363791641496 11.903600310209727 0 0 0
720 240 1 0.5897 -1.4672800868873246 13.271765742408517 12.67180761358872 0 0 0
785 262 1 0.5897 -7.559855237267682 14.67404568448574 11.673173830217975 1 0 0
1005 335 1 0.5897 -5.2324715731627265 16.006432111377173 10.03928655847215 1 0 0
773 258 1 0.5897 -6.942779429412047 12.872261823185289 10.41336693072266 1 0 0
784 262 2 -1.1794 -6.824351089886182 14.073222888373515 11.793024414644934 1 0 0
729 243 1 0.5897 -4.4883667338562265 12.539062052980292 13.27095626472145 0 0 0
911 304 1 0.5897 -0.6765997561354249 16.097861573763417 11.903535031694844 0 0 0
910 304 2 -1.1794 0.1297601848059271 15.96097191836248 11.40612077130563 0 0 0
727 243 2 -1.1794 -4.111843141067647 11.758837095495682 12.863754219040144 0 0 0
831 277 1 0.5897 -7.737786009219169 12.326692419436933 13.906001615091665 1 0 0
719 240 1 0.5897 -1.5255505515258903 13.187186849011962 11.161432551424376 0 0 0
786 262 1 0.5897 -6.900266942748838 13.779098449561042 12.700762734122232 1 0 0
817 273 2 -1.1794 -4.286729860963012 14.834540556653971 11.100526456371595 1 0 0
818 273 1 0.5897 -5.1543080747619054 14.646617364179239 11.458749787343802 1 0 0
819 273 1 0.5897 -4.005327764752474 14.008463009471848 10.707186799864227 1 0 0
873 291 1 0.5897 -2.901773298620885 15.870047304744782 11.888418734766617 0 0 0
871 291 2 -1.1794 -2.4282330842681334 16.617630408335025 12.253253415784146 0 0 0
755 252 1 0.5897 -0.7164648603595114 14.910910065412724 10.303655446407536 0 0 0
1003 335 2 -1.1794 -5.916452164286612 16.549877736451762 9.648008292393204 1 0 0
680 227 1 0.5897 -3.276334058806629 14.233951713865547 14.355232341417638 0 0 0
962 321 1 0.5897 -6.360623845271516 17.00007866160233 12.59327122068748 1 0 0
688 230 2 -1.1794 1.842524935383497 12.311434549561566 9.843195923109507 0 0 0
754 252 2 -1.1794 -1.109903139047879 14.203714323544942 9.792512839188113 0 0 0
829 277 2 -1.1794 -7.06763584526843 12.92510454831216 14.236158817479504 1 0 0
925 309 2 -1.1794 -6.0083993713549875 16.074432975512735 14.109167816480559 1 0 0
725 242 1 0.5897 0.7437947205923798 11.635706317099741 13.53226428788219 0 0 0
679 227 2 -1.1794 -4.217693983016961 14.062597974801543 14.383144291334792 0 0 0
926 309 1 0.5897 -5.41021974423532 15.338744121463836 14.240542913999905 1 0 0
726 242 1 0.5897 -0.36994577308676213 11.566580760227604 12.509310708691748 0 0 0
737 246 1 0.5897 -1.0388040377713725 15.467199316183097 18.05791861810492 0 0 0
769 257 2 -1.1794 -7.669094213873251 12.685670921916321 19.098951351394135 1 0 0
717 239 1 0.5897 -3.2725980901919858 12.754075572845686 16.98331643460085 0 0 0
806 269 1 0.5897 -6.267496329537579 11.800653209668576 15.143923325682204 1 0 0
930 310 1 0.5897 -7.844371503902061 15.964815882556094 14.546093731781578 1 0 0
681 227 1 0.5897 -4.3456756447335705 13.554993318575393 15.18455502725945 0 0 0
830 277 1 0.5897 -7.445250611862278 13.290216653061162 15.036409622728623 1 0 0
783 261 1 0.5897 -8.739466967513668 14.428592830769567 16.744752076831183 1 0 0
715 239 2 -1.1794 -4.214023115323057 12.926289014366795 17.000869175523846 0 0 0
716 239 1 0.5897 -4.355954133560193 13.401506608367956 17.819562196779536 0 0 0
874 292 2 -1.1794 -3.466263864438603 16.558381837412036 17.060356413310814 0 0 0
907 303 2 -1.1794 -6.15584588696362 15.907210113130153 17.765700222346837 0 0 0
185 62 1 0.5897 -1.7853700257620142 13.54239850800581 18.812173225480848 0 0 -1
876 292 1 0.5897 -2.8414280236306038 15.840803433571793 17.165216930193935 0 0 0
736 246 2 -1.1794 -1.3302480950671551 14.7269720499291 17.525652870606926 0 0 0
909 303 1 0.5897 -5.482069823040814 16.277294736851644 17.195232126569593 0 0 0
781 261 2 -1.1794 -7.905124618343773 13.96723282232767 16.65895662370808 1 0 0