LAMMPS (30 Jul 2021)
  using 1 OpenMP thread(s) per MPI task
package omp 0
using multi-threaded neighbor list subroutines
echo both

include		in.partitions
variable        pid world 0
include		in.temp
variable	temperature equal 245
variable	melttemp equal 450.0
variable	tempDamp equal 100.0
include		in.pressure
variable        pressure equal 6000
variable        pressureDamp equal 1000.0 # This is 1 ps
include		in.seed
variable        seed world 745823

units		real
atom_style	full



include 	in.box

read_data       ice.data
Reading data file ...
  triclinic box = (-3.3947780 0.0048050000 -0.13785900) to (15.004777 45.145583 19.367857) with tilt (0.0000000 -6.7926110 0.0000000)
  2 by 7 by 3 MPI processor grid
  reading atoms ...
  2016 atoms
  scanning bonds ...
  2 = max bonds/atom
  scanning angles ...
  1 = max angles/atom
  reading bonds ...
  1344 bonds
  reading angles ...
  672 angles
Finding 1-2 1-3 1-4 neighbors ...
  special bond factors lj:    0        0        0       
  special bond factors coul:  0        0        0       
     2 = max # of 1-2 neighbors
     1 = max # of 1-3 neighbors
     1 = max # of 1-4 neighbors
     2 = max # of special neighbors
  special bonds CPU = 0.025 seconds
  read_data CPU = 0.073 seconds
include 	in.setup
variable	out_freq equal 500
variable	out_freq2 equal 500

timestep	1.0

neigh_modify    delay 5 every 1

include		in.tip4p
# This is TIP4P/Ice

# create groups ###
group ox type 2
672 atoms in group ox
group hy type 1
1344 atoms in group hy

# set charges - beside manually ###
set group ox charge -1.1794
Setting atom values ...
  672 settings made for charge
set group hy charge 0.5897
Setting atom values ...
  1344 settings made for charge

# ### TIP3P Potential Parameters ###
pair_style lj/cut/tip4p/long 2 1 1 1 0.1577 8.5
pair_coeff 1 1*2 0.000 0.000
pair_coeff 2 2 0.21084 3.1668
bond_style  harmonic
bond_coeff  1 450 0.9572
angle_style harmonic
angle_coeff 1 55 104.52
kspace_style pppm/tip4p 1.0e-5
pair_modify tail yes

thermo          ${out_freq}
thermo          500
thermo_style 	custom step temp pe etotal epair emol press lx ly lz xy xz yz vol pxx pyy pzz pxy pxz pyz cella cellb cellc cellalpha cellbeta cellgamma

restart 	${out_freq} restart.lmp.${pid} restart2.lmp.${pid}
restart 	500 restart.lmp.${pid} restart2.lmp.${pid}
restart 	500 restart.lmp.0 restart2.lmp.${pid}
restart 	500 restart.lmp.0 restart2.lmp.0

include         in.dump
dump            myDump all atom ${out_freq2} dump.water.${pid}
dump            myDump all atom 500 dump.water.${pid}
dump            myDump all atom 500 dump.water.0
dump_modify     myDump append yes


timer           timeout 23:50:00 every 1000
New timer settings: style=normal  mode=nosync  timeout=23:50:00


fix 		0 all shake 1e-6 200 0 b 1 a 1
       0 = # of size 2 clusters
       0 = # of size 3 clusters
       0 = # of size 4 clusters
     672 = # of frozen angles
  find clusters CPU = 0.012 seconds
fix             1 all nph tri ${pressure} ${pressure} ${pressureDamp}
fix             1 all nph tri 6000 ${pressure} ${pressureDamp}
fix             1 all nph tri 6000 6000 ${pressureDamp}
fix             1 all nph tri 6000 6000 1000
fix             2 all temp/csvr ${temperature} ${temperature} ${tempDamp} ${seed}
fix             2 all temp/csvr 245 ${temperature} ${tempDamp} ${seed}
fix             2 all temp/csvr 245 245 ${tempDamp} ${seed}
fix             2 all temp/csvr 245 245 100 ${seed}
fix             2 all temp/csvr 245 245 100 745823
velocity        all create ${temperature} ${seed}
velocity        all create 245 ${seed}
velocity        all create 245 745823

run             500000
PPPM initialization ...
  extracting TIP4P info from pair style
  using 12-bit tables for long-range coulomb (../kspace.cpp:340)
  G vector (1/distance) = 0.37789371
  grid = 25 48 36
  stencil order = 5
  estimated absolute RMS force accuracy = 0.0026123984
  estimated relative force accuracy = 7.8671602e-06
  using double precision FFTW3
  3d grid and FFT values/proc = 6615 1092
Last active /omp style is kspace_style pppm/tip4p/omp
Neighbor list info ...
  update every 1 steps, delay 5 steps, check yes
  max neighbors/atom: 2000, page size: 100000
  master list distance cutoff = 10.8154
  ghost atom cutoff = 10.8154
  binsize = 5.4077, bins = 5 9 4
  1 neighbor lists, perpetual/occasional/extra = 1 0 0
  (1) pair lj/cut/tip4p/long/omp, perpetual
      attributes: half, newton on, omp
      pair build: half/bin/newton/tri/omp
      stencil: half/bin/3d/tri
      bin: standard
Per MPI rank memory allocation (min/avg/max) = 9.641 | 9.653 | 9.672 Mbytes
Step Temp PotEng TotEng E_pair E_mol Press Lx Ly Lz Xy Xz Yz Volume Pxx Pyy Pzz Pxy Pxz Pyz Cella Cellb Cellc CellAlpha CellBeta CellGamma 
       0          245   -10133.557   -9152.7657   -10133.557            0   -3330.5287    18.399555    45.140778    19.505716            0    -6.792611            0    16200.867   -7058.1526   -3388.2186    454.78502    340.11902   -4875.8606    -3595.923    18.399555    45.140778      20.6546           90    109.20001           90 
     500    243.66697   -9784.5661   -8809.1117   -9784.5661            0    3960.2286    18.118107    45.651727    19.442535  -0.18642125   -6.7078299  0.073039398    16081.365     4382.848    4320.9309    3176.9071    637.62905    1035.5958   -493.54035    18.118107    45.652107    20.567268    89.720223    109.03472    90.233969 
    1000    250.13216   -9756.8191   -8755.4831   -9756.8191            0    5840.6679    17.982753    46.032506    19.362433  -0.45474188   -6.5550292   0.15152391    16028.051    6545.7198    5442.4137      5533.87    84.399376    98.872625    891.12104    17.982753    46.034752    20.442484    89.393835    108.70267     90.56599 
    1500    244.48913   -9731.2967    -8752.551   -9731.2967            0    4835.3403     18.10742    45.964653    19.290629  -0.16703446   -6.4808128    0.1478593    16055.615    4026.7924    4509.8592    5969.3694   -188.85481   -361.61947    -1509.177     18.10742    45.964956    20.350704    89.517405     108.5696    90.208211 
    2000    243.40276   -9711.4595   -8737.0628   -9711.4595            0    5518.5857    18.013484    45.650488    19.521936  -0.07481231   -6.4263702  0.030479354    16053.363      4895.08    6679.6724    4981.0047    69.013654    158.61671    853.07158    18.013484    45.650549    20.552498    89.885671    108.22086    90.093897 
    2500    246.10696   -9706.1238   -8720.9015   -9706.1238            0    6031.1928    18.078067     45.88069    19.326354  -0.31235617   -6.5414275  0.052873979    16029.938    5325.0766     6914.348    5854.1538   -661.07847    517.04586    435.28791    18.078067    45.881753    20.403456     89.72647    108.69945    90.390064 
    3000    240.05149    -9696.508   -8735.5272    -9696.508            0    6548.0884    18.011848    45.968313    19.314747  -0.42798018   -6.6465192   0.18371428    15992.113     6221.463     6747.651    6675.1512     140.5354    -35.11305    536.67384    18.011848    45.970305    20.427174    89.311147    108.98838    90.533427 
    3500    242.48916   -9738.0629   -8767.3235   -9738.0629            0    7328.6235    17.973056    45.692852    19.377547  -0.50522822   -6.6134782   0.13985286    15913.621    7351.6523    7998.6224    6635.5958   -113.83278    305.82722   -930.84896    17.973056    45.695645    20.475522    89.404057    108.84411    90.633497 
    4000    240.12871   -9728.6999   -8767.4099   -9728.6999            0     6855.063    18.111978    45.659769    19.254766 -0.061101839    -6.509929   0.13129171    15923.475    6495.0953    6653.1231    7416.9706   -293.42622    691.20427   -82.948258    18.111978     45.65981    20.325906    89.605348     108.6797    90.076673 
    4500    245.67144   -9730.2395   -8746.7607   -9730.2395            0    6129.8524    17.917245    45.918814     19.45262 -0.0051814636   -6.3748324 -0.063190412    16004.422    6253.7373    6115.0354    6020.7846   -637.70153   -191.38177   -108.36569    17.917245    45.918814    20.470636    90.174852    108.14444    90.006465 
    5000    240.88386   -9689.9326   -8725.6196   -9689.9326            0    4640.8466    18.080406    46.251845     19.30232  -0.31994601   -6.4564697   0.23519518    16141.607    3518.6205    4550.6971    5853.2224   -173.05635   -875.97031    598.37088    18.080406    46.252952    20.354874    89.212239    108.49339    90.396336 
    5500    236.43315   -9729.3202   -8782.8244   -9729.3202            0    5756.3999    18.121551    45.876611    19.365217  -0.54588019   -6.6512828    0.2496636    16099.377    6011.3796    5723.0215    5534.7986   -128.49164    514.96088   -311.34331    18.121551    45.879858    20.477147    89.080014    108.95436    90.681723 
    6000    245.66339   -9710.2609   -8726.8143   -9710.2609            0    6136.2028    17.965298    45.781999    19.520265  -0.32572463   -6.6300388  0.016350593     16055.17    6719.4727    6220.5559    5468.5796    305.34411    593.40173   -302.88999    17.965298    45.783157     20.61549    89.823462       108.76    90.407635 
    6500    242.85724   -9748.3696   -8776.1567   -9748.3696            0    5779.6336    18.108387    45.813218    19.272805  0.091474722   -6.4980892  0.057542333    15988.786    5529.7021    5419.5227     6389.676   -939.42819   -482.10017   -723.81901    18.108387     45.81331    20.338866     89.87445    108.63216    89.885598 
    7000    250.68222    -9747.434    -8743.896    -9747.434            0    5985.2424    17.976831    45.767378    19.481885  -0.54445833   -6.3974495  0.068023797    16028.768     6100.686    6005.1485    5849.8927     584.1771   -261.42621    539.67454    17.976831    45.770616    20.505508    89.597304    108.17901     90.68157 
    7500    252.25875   -9738.9698   -8729.1205   -9738.9698            0    6687.1668    18.002749    45.881316    19.324282  -0.51839848   -6.3639645   0.16649071     15961.66    6816.4215    6485.2376    6759.8412   -484.01275   -498.03641   -637.70449    18.002749    45.884245      20.3459    89.328687    108.22736    90.647339 
    8000    244.15992   -9726.8612   -8749.4334   -9726.8612            0    7210.8267    18.015896    46.007963    19.204002   0.31780913    -6.585621  0.097672575    15917.711    7358.1964    6623.4061    7650.8776   -2285.1417    464.90869    -740.5722    18.015896    46.009061     20.30206     89.85274    108.92813    89.604224 
    8500    241.34586   -9732.0915    -8765.929   -9732.0915            0    6770.0568    17.941761    45.629818    19.484352 -0.049482448   -6.6726596  -0.13432537    15951.435    7051.2042     7300.383    5958.5831   -181.99413    125.96888    1065.4074    17.941761    45.629844    20.595689    90.353556    108.90399    90.062133 
    9000    252.52114   -9714.1617    -8703.262   -9714.1617            0    5838.2844    18.157656    45.692562    19.314198  -0.32557151   -6.5916071   0.22962752    16024.407    5491.5403     5815.726     6207.587   -69.454882   -36.598024   -434.40705    18.157656    45.693721    20.409318    89.223503    108.84266    90.408241 
    9500    246.15653   -9715.0181   -8729.5975   -9715.0181            0    5613.4109    18.029138    45.832299    19.391862  -0.49905429   -6.5423068   0.19352228    16023.822    4815.9642    5674.2205    6350.0481    930.26283   -446.11694   -902.98308    18.029138    45.835016    20.466644    89.258837    108.64218    90.623852 
   10000    249.42599   -9700.1625   -8701.6534   -9700.1625            0    5569.8406    18.031368     45.98369     19.34035   -0.2287739    -6.514081  -0.09112091    16036.029    4358.5231    6712.1261    5638.8728    362.74868    649.60036    25.343007    18.031368    45.984259    20.408104    90.164834      108.614     90.28505 
   10500    254.17026   -9699.9031   -8682.4017   -9699.9031            0    5427.7271    18.044627    45.974247    19.403622      0.56461   -6.3919702  0.045894637    16097.015    5517.8427      4866.29    5899.0486   -1130.1435   -42.490057   -1029.4282    18.044627    45.977714    20.429389    90.091437    108.23295    89.296386 
   11000    247.04628   -9722.1651   -8733.1825   -9722.1651            0    5691.6436    18.023011    45.642223    19.550108  -0.56211911   -6.3402328   0.10463441     16082.12    6338.7584    5466.8987    5269.2735    620.59755    28.070097    483.23845    18.023011    45.645684    20.552767    89.490658    107.96799    90.705606 
   11500    242.57063   -9721.6628   -8750.5973   -9721.6628            0    5690.4509    18.147875    45.824843    19.332316  -0.68580733   -6.5035179   0.21507897    16077.209     6102.164     5687.961    5281.2277    22.353551   -404.52913   -1071.3934    18.147875    45.829975     20.39805    89.122541    108.59221    90.857416 
   12000    244.89238   -9693.3124   -8712.9524   -9693.3124            0    4297.6852    18.003371    46.101456    19.451536 -0.069615906   -6.6624125  0.076165027    16144.418    5351.7328    4334.1741    3207.1487   -722.75598    99.624224   -485.13082    18.003371    46.101509    20.561027    89.759721    108.90689     90.08652 
   12500    240.68753   -9682.6608   -8719.1337   -9682.6608            0    5187.8128    18.088592    45.898714    19.404218  -0.27701718    -6.685062  -0.11672355    16110.218    4618.8402    5324.4707    5620.1276    936.26982     390.3286    1416.7734    18.088592     45.89955    20.523824    90.213215    109.00933    90.345799 
   13000    247.34936   -9705.0058   -8714.8099   -9705.0058            0    5205.6457    18.144174    45.730241    19.445015  -0.26424583   -6.5267636   0.24168828    16134.257    6027.1477    5632.3495    3957.4398   -267.07497   -94.376158   -579.99553    18.144174    45.731004    20.512574    89.219562    108.55311    90.331072 
   13500    247.99431   -9756.0761   -8763.2984   -9756.0761            0    5017.8009    18.112917    45.809094    19.400548  -0.50551645   -6.4881228   0.14003611     16097.34    4940.0383    4878.8759    5234.4886    349.31664   -215.94222   -184.15412    18.112917    45.811883     20.45719    89.407287    108.49103     90.63225 
   14000    239.57498   -9745.6717   -8786.5985   -9745.6717            0    5582.1902    18.009706    46.256905    19.340887  -0.12474968   -6.6344919 -0.057422422    16112.375    5195.5315    5743.5453    5807.4938    322.54076    869.14259    1206.1852    18.009706    46.257074    20.447241    90.110768     108.9334     90.15452 
   14500    238.13562   -9761.7187   -8808.4075   -9761.7187            0    3792.4065    18.083681    46.112166    19.417257    0.2873398   -6.7971412   0.20450568    16191.618    4809.0033    3501.9489    3066.2673   -557.39839    1171.3617   -1006.4099    18.083681    46.113062    20.573595    89.548428    109.29195    89.642976 
   15000    247.63884   -9727.1025   -8735.7478   -9727.1025            0    4570.8683    18.186236    45.672273    19.407434  -0.58139039   -6.7103496  0.051607651    16119.945    4255.4896    4161.4662    5295.6491    242.27294    351.00152   -641.37075    18.186236    45.675973    20.534847    89.617697    109.07337    90.729314 
   15500    249.76761   -9738.5626   -8738.6859   -9738.5626            0    5390.9044    18.024309     45.84499    19.466068  -0.38083033   -6.4798184   0.13847086    16085.284    5867.0438    5559.2238    4746.4455    262.55831    723.05347   -365.10641    18.024309    45.846572    20.516701    89.462991    108.41101     90.47594 
   16000    244.77553   -9707.2218   -8727.3295   -9707.2218            0    4813.9239    18.050976    46.022337    19.344322  0.073442237   -6.3667188   0.13206495    16070.259    3487.3037    5142.1121    5812.3559   -606.83174   -213.44451    310.79553    18.050976    46.022396    20.365543    89.657035    108.21732    89.908568 
   16500    248.76197   -9722.7927   -8726.9418   -9722.7927            0     6585.746    18.053204    45.624634    19.404805  -0.26526206   -6.4400697 -0.078241221    15983.172    5071.7735    6598.4392    8087.0253   -122.56052    5.8311805    534.06611    18.053204    45.625405    20.445711     90.11433    108.35984    90.333114 
   17000    247.92386    -9723.694   -8731.1983    -9723.694            0     6827.459    18.035626    45.582834      19.4081  -0.40912301   -6.5959245   0.18488208    15955.689    7691.0152    7109.6124    5681.7496   -277.11651     1184.837    187.09967    18.035626     45.58467     20.49914    89.317791    108.76975    90.514237 
   17500    244.05514   -9708.2053   -8731.1969   -9708.2053            0    7296.5215     18.09693    45.928368    19.145594  -0.31506062   -6.5813001   0.21228968    15913.098    6941.2947    6910.3434    8037.9263   -607.79125   -324.22837    318.44981     18.09693    45.929449    20.246292    89.271469    108.96933    90.393033 
   18000    237.30963   -9731.4404   -8781.4359   -9731.4404            0    6911.6331    17.823584    45.952826    19.437537  -0.19471005   -6.4341634 -0.033149606      15920.2     7090.392    6912.2621    6732.2452   -227.94369    934.93178   -163.22068    17.823584    45.953238    20.474799    90.016474    108.31542    90.242771 
   18500    241.35056   -9715.1299   -8748.9486   -9715.1299            0    6821.4131    18.136639    45.579331    19.295737  -0.24464222   -6.4472666  0.010901025    15950.934    6171.7188    7137.5629    7154.9577    5.8214862   -660.96532    -53.24463    18.136639    45.579988    20.344356    89.871843    108.47597    90.307526 
   19000    243.63709    -9721.148   -8745.8132    -9721.148            0    6462.9248    18.063105    45.673974    19.405256  -0.50566093   -6.6034956   0.28221649    16009.603    6173.0107    6495.0046    6720.7592    1180.5771    471.91132   -606.93636    18.063105    45.676773    20.499994    89.006909    108.79129    90.634301 
   19500     248.4561   -9733.4238   -8738.7974   -9733.4238            0    6396.6127    17.974485    45.874534    19.390353  -0.46129451   -6.6630274   0.11813636    15988.725    6952.2159      5561.22    6676.4023    -16.15273   -257.79893   -1572.4654    17.974485    45.876854    20.503553    89.482667    108.96372    90.576122 
   20000    240.48111   -9746.4311   -8783.7304   -9746.4311            0    5766.1249    18.165301    45.718246    19.274741   0.13466918    -6.629659 -0.017234604    16007.397    4966.3343    6156.2019    6175.8387   -387.64636     129.2384    261.98256    18.165301    45.718444     20.38304    90.103339    108.98095    89.831228 
   20500    236.63022   -9704.6192   -8757.3345   -9704.6192            0    6143.6144    18.016101    45.682007    19.480743 -0.054738015   -6.5449884   0.14115487    16032.878    6829.1378    6566.1434     5035.562    1278.6705    5.7100576    446.89211    18.016101     45.68204    20.551305    89.584601    108.57046    90.068654 
   21000    241.33494   -9725.3919   -8759.2732   -9725.3919            0    5577.7816    18.054077    46.097856    19.269994  -0.74904722   -6.4931078  0.082488438    16037.534    5661.9933    4765.7053    6305.6461    762.14673   -1083.9772    1136.6216    18.054077    46.103942    20.334697     89.47036    108.62131    90.930921 
   21500    239.40795   -9758.2425    -8799.838   -9758.2425            0    5917.8058    17.983721    45.886684    19.425051  -0.10002968   -6.5710454   0.19518075    16029.811    6200.2246    5801.8682    5751.3247    115.08365    26.161245   -1106.5169    17.983721    45.886793      20.5073     89.41465    108.68861      90.1249 
   22000    247.80737   -9730.1816   -8738.1522   -9730.1816            0    5853.0018    18.088267    45.639104    19.406832   0.17506061   -6.6718204 -0.020453846    16020.966    5174.1785    6594.2489    5790.5779   -143.79279    313.24232   -78.527369    18.088267     45.63944    20.521665    90.128556     108.9723    89.780228 
   22500    250.06063    -9730.325   -8729.2754    -9730.325            0    6072.7869     18.07001    45.961779    19.289082  -0.66254436   -6.5330651  0.044761409    16020.157    4243.1046    6663.1034    7312.1526    801.03976    225.87285   -522.19884     18.07001    45.966554    20.365451    89.609157     108.7108    90.825868 
   23000    241.89397   -9769.1222   -8800.7655   -9769.1222            0     7085.914     17.88603    45.906573    19.443852  -0.33698034   -6.4143929   0.28795699    15965.081    9132.8588    6583.9811    5540.9022    433.95476   -305.85833    -674.3354     17.88603     45.90781     20.47659    89.062498     108.2555    90.420576 
   23500    245.73573   -9741.2736   -8757.5374   -9741.2736            0    5852.5366    18.120974    45.716945     19.32719  -0.24296396   -6.5823898  0.014961601    16011.332    6119.1753    5349.1679    6089.2667    131.25337   -425.97631    240.77156    18.120974    45.717591    20.417355    89.859848    108.80764    90.304497 
   24000    252.51992   -9696.2976   -8685.4028   -9696.2976            0     5740.904    17.974315    45.784177    19.486615   -0.1575492   -6.6500924   0.12204322      16036.3     6586.818    6050.2778    4585.6162   -623.34053   -217.19605   -201.15213    17.974315    45.784449    20.590454     89.59672    108.84261    90.197161 
   24500    244.54003   -9708.8418   -8729.8924   -9708.8418            0     6991.742    18.046874    46.109096    19.220474  -0.45920479   -6.6147683   0.30012178    15993.838    6452.8181    7320.5596    7201.8484    63.296796    421.66234   -343.95302    18.046874    46.111383    20.329088    88.968459    108.98887    90.570595 
   25000    252.85072   -9725.8735   -8713.6545   -9725.8735            0    6414.9585    18.068996    45.644654     19.39414  -0.61014633   -6.4414808  0.003365712    15995.377    6600.2795     7707.526      4937.07   -426.07464   -86.710398    702.31021    18.068996    45.648732    20.435884    89.749173    108.37315    90.765845 
   25500    248.41377   -9739.1606   -8744.7037   -9739.1606            0    6382.2882    18.001107    45.578148    19.495166   0.17665312   -6.3391192   0.04799212    15994.947    7197.8294    6411.6866    5537.3484   -564.49111   -937.44513   -56.820037    18.001107    45.578491    20.499956    89.934536    108.01259    89.777932 
   26000    245.48648   -9690.9371   -8708.1988   -9690.9371            0    6119.3544    18.070831    46.012777    19.271266  -0.15933064   -6.5423688   0.13933678    16023.848     5417.041     6222.435    6718.5873    255.53407    186.24575    112.11394    18.070831    46.013052    20.351995    89.543953    108.75129      90.1984 
   26500    245.06743   -9774.8455   -8793.7847   -9774.8455            0      4538.16    17.989206    46.027584    19.430438   -0.8025374   -6.7485649   0.13053343    16088.396    4038.4988    4894.7748    4681.2066    -132.3422    336.63334   -91.985448    17.989206     46.03458    20.569445    89.308728     109.1527    90.998909 
   27000    238.55921   -9687.8943   -8732.8874   -9687.8943            0    5424.0753    18.158337    45.693763    19.393563   0.01032036   -6.7350812    0.1610089    16091.281    5152.4923    5425.3005    5694.4332   -1400.1584   -187.57966   -597.59496    18.158337    45.693765    20.530405    89.554901     109.1507    89.987059 
   27500    247.56704   -9717.2433    -8726.176   -9717.2433            0     6782.057    18.031013    45.729854    19.373891  0.019802533   -6.3761162  -0.01426864     15974.85    6005.3642    7115.8166    7224.9901   -14.965444   -433.02878    792.59918    18.031013    45.729859    20.396145    90.047839    108.21682    89.975189 
   28000    244.89168   -9727.8072     -8747.45   -9727.8072            0    6673.5736    17.913029    45.986602    19.333985  -0.57276674   -6.2542224  0.086530375     15926.55    7085.1817    6492.6334    6442.9058    862.59909   -94.292601    417.19262    17.913029    45.990169    20.320575    89.536413    107.92536    90.713587 
   28500    239.61857   -9676.4913   -8717.2436   -9676.4913            0    6528.9442    18.092414    45.586825    19.376678   -0.3676945   -6.6674157   0.30247108    15981.414    6565.2097    7104.2543    5917.3685   -305.22028   -291.46893   -1163.5259    18.092414    45.588308     20.49394    89.004001    108.98593    90.462127 
   29000    235.54685   -9701.9051   -8758.9573   -9701.9051            0    6671.4666    18.135782    45.712936    19.317774  -0.33184084   -6.9764613 -0.0021303918    16015.204     6127.812    6409.5742    7477.0134      1074.74    1022.3823    1412.8583    18.135782    45.714141    20.538924     89.86467    109.85678    90.415916 
   29500    253.15917   -9729.3372   -8715.8834   -9729.3372            0    4123.3381    17.977552    46.201362    19.396184  -0.19637185   -6.5968675  0.081641451    16110.226    4613.1071    4179.5519    3577.3552     115.1161   -155.38022   -811.31113    17.977552    46.201779    20.487491    89.693267    108.78361    90.243526 
   30000    252.66688   -9694.9455   -8683.4624   -9694.9455            0    5508.3222    18.031961    46.112125    19.361526  -0.23026854   -6.2113227   0.18406336    16098.955    5584.6647    4842.7518    6097.5502     1128.419    144.18377    473.90984    18.031961      46.1127    20.334283    89.393965    107.78588    90.286114 
   30500    245.35985   -9732.1852   -8749.9538   -9732.1852            0    5229.6415    18.056071    45.793676    19.458788  -0.28726155   -6.3260707     0.110621    16089.574    6161.4469    4773.4489    4754.0286   -60.547225   -174.96907   -383.77042    18.056071    45.794577    20.461569    89.579128    108.00912    90.359409 
   31000    243.97726   -9681.5153   -8704.8187   -9681.5153            0    5405.2146    18.096263    45.780514    19.383595  -0.33818385    -6.699687  0.040879871     16058.46     4760.177    5538.4072    5917.0596    70.031541    187.39243    253.85283    18.096263    45.781763    20.508809    89.747535      109.067     90.42324 
   31500    239.77888   -9700.9549   -8741.0653   -9700.9549            0     5448.579    17.933783    46.379174    19.335404  -0.21393454   -6.8517612    0.1200122    16082.301    6689.3945    4993.4665     4662.876    236.98275    1096.8433    -981.1401    17.933783    46.379668    20.513871    89.576529    109.51212    90.264288 
   32000    245.04303   -9716.9429   -8735.9798   -9716.9429            0    5387.1321    18.141316    46.042911    19.232836  -0.25670839   -6.5715669   0.14674475    16064.784    4443.6724    5674.5953    6043.1285   -921.22219    292.82657   -330.16339    18.141316    46.043627    20.325083    89.483047    108.86401    90.319445 
   32500    249.88645   -9714.6543   -8714.3018   -9714.6543            0      6288.97    18.104852    45.331316    19.520802  -0.23124077   -6.2522416  0.080932278     16021.05    4932.6119    7520.0405    6414.2576   -554.21791   -766.07511    641.06192    18.104852    45.331905    20.497776     89.68463     107.7594     90.29227 
   33000    252.33199   -9721.9537   -8711.8113   -9721.9537            0    5259.4313    18.042685    45.914708    19.378412  -0.21093907   -6.4607789 0.0060357028    16053.554     5641.956    4967.8294    5168.5083   -25.065318    -602.1116    1157.0204    18.042685    45.915193    20.427054    89.899817    108.43843    90.263224 
   33500    244.27687   -9743.9866   -8766.0907   -9743.9866            0    5143.9938    17.973315    46.291958    19.277433 -0.067681301    -6.652088  0.089435569    16039.209    5065.0131    4519.4484    5847.5199   -396.35761   -178.52381    1187.0021    17.973315    46.292007     20.39308    89.721399    109.03789    90.083769 
   34000    240.49621   -9755.6474   -8792.8862   -9755.6474            0    6320.4366      18.0322    45.573501    19.510756   -0.3979385   -6.6825466   0.13087473    16033.753    7200.0363    6286.1097    5475.1639   -409.60346    60.980981    9.7306313      18.0322    45.575238    20.623849     89.47432    108.90623    90.500282 
   34500     243.7004   -9771.6457   -8796.0574   -9771.6457            0    6465.6528    18.217653    45.346465    19.354554  -0.45368079   -6.4702047   0.12265411    15988.916    6488.9784    6477.8409    6430.1392    649.18329   -907.17535    385.80788    18.217653    45.348735    20.407777    89.473921    108.48437    90.573212 
   35000    238.44781   -9772.6433   -8818.0823   -9772.6433            0    6324.7847    17.907878    46.073923    19.350792  0.088891867   -6.2485819   0.14034587    15966.071    6435.5382    5804.2488    6734.5671    806.92389   -40.320678    450.38969    17.907878    46.074009    20.335133    89.638531    107.89539    89.889458 
   35500    245.77101   -9731.2511   -8747.3737   -9731.2511            0    6720.1545    17.900582    46.134939    19.369155  -0.27488521   -6.4787849    0.0440633    15995.867    6585.2923    6522.0601    7053.1112    241.64615   -647.27277    173.63705    17.900582    46.135758    20.424024      89.7681    108.49452    90.341381 
   36000    239.23034   -9714.9176    -8757.224   -9714.9176            0    6200.9488    18.099662    45.687088    19.331071  -0.35843242   -6.6711703   0.13358153    15985.266    6649.7923    5534.2764    6418.7776   -18.962021   -447.12755    292.59987    18.099662    45.688494    20.450248    89.479116    109.03918    90.449498 
   36500    247.29493   -9720.2035   -8730.2256   -9720.2035            0    4969.3975    18.086416    45.601112     19.47183  -0.21893897   -6.5725653   0.19287559      16059.6    5254.6155    4489.3005    5164.2764   -616.99046   -446.87444   -384.70338    18.086416    45.601638     20.55208    89.374317    108.65086    90.275085 
   37000    248.50955   -9741.6427   -8746.8023   -9741.6427            0     7710.657    17.993685    45.792032    19.299254  -0.42094469   -6.3274092 -0.073876749    15901.956     7251.387    7727.4127    8153.1712    832.36618    349.86507    694.16976    17.993685    45.793967    20.310164    90.044322      108.152    90.526678 
   37500    245.46682   -9737.2918   -8754.6322   -9737.2918            0    6635.6376     17.96022    45.979725    19.261501 -0.0079326378   -6.3140057   0.13465676    15906.263    7101.7873    6500.3589    6304.7667   -42.569697   -639.00261   -515.37254     17.96022    45.979725    20.270427    89.616301    108.14896    90.009885 
   38000    248.43001   -9707.6274   -8713.1055   -9707.6274            0     5867.123    18.036931    45.704965    19.414024    -0.165304   -6.5476129   0.21896627     16004.48    5813.3782    6132.1264    5655.8645    298.70143    38.932696     51.22645    18.036931    45.705264    20.489595    89.321465    108.63619    90.207224 
   38500    246.30646   -9725.8079    -8739.787   -9725.8079            0    6097.4308    18.080172    45.784517    19.357981  -0.72461959   -6.6810185  0.066172295     16024.38    5220.3056    6345.3605    6726.6263    868.24611   -181.10981    1121.4051    18.080172    45.790251    20.478569    89.519075    109.04098     90.90673 
   39000    247.06271   -9758.7037   -8769.6554   -9758.7037            0    5906.3298     17.86004    46.391576    19.301055 -0.012879794   -6.5517073   0.16411604    15991.993    6138.2471    5279.5898    6301.1526    -495.6548   -136.74813   -603.52273     17.86004    46.391578    20.383388    89.533567    108.74906    90.015907 
   39500    249.28053   -9704.0181   -8706.0913   -9704.0181            0    5368.4722    18.083215    46.150471    19.248845 -0.027594354   -6.4655383   -0.1265362    16064.102    3690.6386    5564.0987    6850.6794    116.23928    205.04112       627.87    18.083215     46.15048    20.306088    90.346129    108.56643    90.034258 
   40000    246.72071   -9762.1164   -8774.4372   -9762.1164            0    5347.7165    18.099355    45.322726    19.548808  -0.41259056   -6.3880517   0.15927137    16036.124    5614.6269    5405.5842    5022.9383    420.81656   -868.36047   -158.42173    18.099355    45.324604    20.566684    89.394301    108.09551    90.521572 
   40500    238.67933   -9733.9987   -8778.5109   -9733.9987            0    5839.9738    18.104384     45.68581    19.347595  -0.45710418   -6.5699865   0.22925408    16002.656    5093.8337    6387.1648     6038.923    540.01111    -733.7125    553.86263    18.104384    45.688097     20.43396    89.172878    108.75505    90.573247 
   41000    238.34898   -9725.9149   -8771.7496   -9725.9149            0    6489.8113    17.915244    46.259716    19.350975  -0.21241529   -6.6561897  0.046222753      16037.2    7109.0794    5752.7816    6607.5731   -291.71166    674.56711    993.95809    17.915244    46.260204    20.463803     89.78501    108.98172    90.263089 
   41500    251.18476   -9717.1352   -8711.5853   -9717.1352            0    5505.5685    18.118796    45.655314     19.38267  0.011743537   -6.5636027   0.09997244    16033.719    4200.6282    6104.0686    6212.0087   -212.22769   -356.43176   -838.18277    18.118796    45.655315    20.464085    89.724821    108.70754    89.985262 
   42000    243.93344   -9720.2011   -8743.6799   -9720.2011            0    5631.6761    18.161632     45.46002    19.478253  -0.53530451   -6.3976862  0.073282219    16081.794     4514.005    5742.2453    6638.7779   -462.26977    129.27717    171.73389    18.161632    45.463172    20.502149    89.584697    108.18279    90.674643 
   42500    248.03009   -9743.2335   -8750.3125   -9743.2335            0    5286.8988    17.924696    46.256159    19.380706     -0.24238   -6.4469248   0.24791855    16069.078    6139.7208    5322.0048    4398.9707   -1015.3882   -410.87207   -1511.8121    17.924696    46.256794    20.426357    89.209819    108.39812    90.300224 
   43000     243.0098   -9695.3913   -8722.5677   -9695.3913            0    5542.2107    18.046199     46.23577    19.255337  -0.21673218   -6.6868378  0.069512441    16066.267    5435.8322    5606.1882    5584.6118   -344.48883   -88.935143     418.0612    18.046199    46.236278     20.38349    89.716503    109.15056    90.268574 
   43500    243.61258    -9701.146   -8725.9093    -9701.146            0     6147.418    18.157275    45.195082    19.527063  -0.18637727   -6.6954567  0.071575097     16024.29    6429.7741    6467.3034    5545.1766   -795.50828   -320.25479   -453.89349    18.157275    45.195467     20.64317    89.724707    108.92574    90.236277 
   44000    241.02835   -9723.2108   -8758.3194   -9723.2108            0    6077.0851    18.092625    45.548743    19.419817  -0.28578992   -6.5379994   0.23789293      16003.8    4979.9377    6823.1166    6428.2009    371.60072   -888.45085    82.560712    18.092625     45.54964    20.492226    89.220152    108.60535    90.359491 
   44500    246.55041   -9736.3639   -8749.3664   -9736.3639            0    7034.8196    17.905981    46.267817    19.237158  -0.48762588   -6.4263522  0.073070488    15937.421    6204.9488    7292.5432    7606.9667    601.26845     -139.839   -366.02094    17.905981    46.270386    20.282297    89.602273    108.47225    90.603829 
   45000    239.44793   -9760.2746   -8801.7099   -9760.2746            0    6455.3562    18.008694    45.853102    19.312126   0.11763413   -6.5202609  0.020490448    15947.075    6163.6242    6267.3451    6935.0994   -937.01168   -481.20058    151.15413    18.008694    45.853253    20.383141    89.989422    108.65597    89.853011 
   45500    240.76051   -9732.8994   -8769.0802   -9732.8994            0    6076.4082    18.189296    45.333642    19.438173   -0.1423072   -6.7169216  0.063465642    16028.465    5437.6992    6920.2989    5871.2266   -1102.8822    1091.3124    567.17393    18.189296    45.333865     20.56608    89.764447    109.06266    90.179857 
   46000    248.85692   -9722.7265   -8726.4956   -9722.7265            0    5261.8329    18.057607    45.938057    19.420696  -0.63569715   -6.6140133   0.20506716    16110.076     6087.289    5133.4202    4564.7895    620.84038   -133.95407    409.71359    18.057607    45.942455    20.517082    89.171789    108.80608    90.792816 
   46500    240.64687   -9722.1283   -8758.7641   -9722.1283            0    5378.3352    17.958004    46.401307    19.281209 -0.0059379623   -6.3727453   0.17957243    16066.546    6619.7956    4438.9198    5076.2903   -706.18807   -577.22993   -319.39903    17.958004    46.401307    20.307859    89.491054     108.2888    90.007332 
   47000    241.70848   -9730.2624   -8762.6483   -9730.2624            0    5183.0177    18.016591    45.828468    19.482548 -0.071506924   -6.3591094 0.0006506882    16086.209    5951.2886    4881.1521    4716.6125    172.84025    -489.2123    466.80555    18.016591    45.828524    20.494096    89.970441     108.0767    90.089399 
   47500     247.9204   -9705.8018   -8713.3199   -9705.8018            0    5728.1029    18.238466    45.381872    19.439511  -0.26981048   -6.5719078  0.046838323        16090    5255.4964    6252.9922    5675.8199    165.42059    114.90267    330.29026    18.238466    45.382674    20.520398     89.76013    108.67878    90.340639 
   48000    243.15302   -9727.5664   -8754.1695   -9727.5664            0    6210.6107    17.985683    46.203625    19.354291  -0.57343647   -6.6508578   0.25847521    16083.488    6124.7436    6189.5223    6317.5664    600.27561   -293.81394   -1138.4346    17.985683    46.207183    20.466785    89.045362    108.96307    90.711065 
   48500    240.53131    -9722.709   -8759.8074    -9722.709            0    3746.8147    18.009927    46.359595    19.337919  -0.23482599   -6.6677775   0.12143862    16145.865    4096.5675    3019.5218     4124.355    319.11253   -269.65414     34.23149    18.009927    46.360189     20.45554    89.565251    109.02401    90.290219 
   49000    245.74067   -9700.6648   -8716.9089   -9700.6648            0    4828.0361     18.13347    45.717515    19.465535 -0.072459046   -6.5334052 -0.042160154    16137.263     4826.089    5151.0139    4507.0055     955.0924   -190.81616    391.49388     18.13347    45.717573     20.53276    90.088751    108.55375     90.09081 
   49500    262.85004   -9689.1233   -8636.8747   -9689.1233            0    4554.3454    18.187174    45.725423    19.436987  -0.15757464   -6.4984542  0.081738438    16164.114    4329.6484    4966.4829    4366.9048    527.25937    187.20024   -671.94489    18.187174    45.725694    20.494708    89.708883     108.4864    90.197447 
   50000    261.08332   -9753.1824   -8708.0064   -9753.1824            0    5196.5027    17.992644    46.246125    19.299994  -0.42769781   -6.5303734  0.081561945    16059.333    5421.2616    4819.7845    5348.4619     209.9681    42.333465   -228.99467    17.992644    46.248102    20.375039    89.600823    108.69368    90.529873 
   50500     235.5114    -9702.403   -8759.5972    -9702.403            0    3718.9047    17.902377    46.298306    19.495622  -0.22213941   -6.6422311  0.079761767    16158.941    4181.2067    3529.3389    3446.1687    218.24915    782.61783    298.55767    17.902377    46.298839    20.596235     89.68946    108.81402    90.274903 
   51000    242.83198   -9708.0961   -8735.9843   -9708.0961            0    4083.4139    18.282677    45.631004    19.383706  -0.13440056   -6.6651678   0.10299826     16170.99    3551.3541    4292.4153    4406.4721    602.24549    82.973337    533.68053    18.282677    45.631202    20.497881    89.657224     108.9755    90.168757 
   51500    238.03067   -9692.8368   -8739.9457   -9692.8368            0    5788.6552    18.053531     45.65863    19.488599  -0.39539024   -6.5068574   0.11275777    16064.443    5931.9574    5295.7936    6138.2147   -348.64155   -296.98812    329.49603    18.053531    45.660342     20.54647    89.528446    108.46286    90.496152 
   52000    241.47166   -9731.1507   -8764.4846   -9731.1507            0    5061.9223    18.021121    46.168995    19.257584   -0.3846969    -6.451313    0.1964297    16022.638    4542.4866    4246.1033    6397.1769   -35.771631   -707.15235    400.87795    18.021121    46.170598    20.310405    89.294235    108.52001    90.477398 
   52500    255.66735   -9714.6261   -8691.1315   -9714.6261            0    6168.5569    18.044245    45.778154    19.414749  -0.19796294   -6.6077372  0.042126017    16037.209    6104.3246     6770.333    5631.0132   -154.86155    433.83423    48.028047    18.044245    45.778582    20.508449    89.802481    108.79577    90.247768 
   53000    244.58967   -9737.7986   -8758.6504   -9737.7986            0    5909.6201    18.117235    45.293723     19.51689  -0.20645101   -6.6405679  0.086916353    16015.501    6078.1618    6195.5687    5455.1298   -610.42103    -241.4047   -261.40317    18.117235    45.294194     20.61586    89.674322    108.79056    90.261155 
   53500    245.50051    -9722.773   -8739.9786    -9722.773            0    6246.4191    18.138314    45.887214    19.220593  -0.64636061   -6.5099459   0.17370692     15997.62    6279.7434    5672.5303    6786.9837    93.313834    56.957681   -683.06825    18.138314    45.891766     20.29386    89.250733    108.71035    90.807007 
   54000    255.93788    -9739.031   -8714.4534    -9739.031            0    5861.1748    17.821886    46.197435     19.41915  -0.19002682   -6.3140103   0.14811472     15988.28    6121.6274    5786.5921    5675.3049    448.36853    56.949131   -766.16308    17.821886    46.197826    20.420383    89.511544    108.01111    90.235677 
   54500    241.64019   -9755.3019   -8787.9611   -9755.3019            0    6379.3446    18.130736    45.769718    19.283184  0.040271735   -6.5412284  0.032784381    16001.932    6365.4089    6710.1684    6062.4565    226.16391   -63.572507    56.510617    18.130736    45.769736    20.362463    89.923946     108.7379    89.949587 
   55000    246.89419    -9710.962   -8722.5883    -9710.962            0    5898.6955    18.129733    45.606232    19.424306  -0.53563999   -6.7236911  0.033089642    16060.576    4933.2161    6272.4477    6490.4227    388.08647    306.36743    446.66664    18.129733    45.609378    20.555116    89.687665    109.09318    90.672901 
   55500    237.19258   -9741.0531   -8791.5172   -9741.0531            0    4719.8245    18.011906     45.95268    19.397227  -0.37808911   -6.6266763   0.16386524    16054.994    5013.4447    4791.8426    4354.1861     928.2251    -642.7052     284.4821    18.011906    45.954236    20.498588     89.38959    108.86109    90.471407 
   56000     249.3182   -9706.7814   -8708.7039   -9706.7814            0    5355.3213    18.142768    46.175177    19.236018  -0.10280521   -6.5327012  0.079788505    16114.888    5826.0001    5332.6459     4907.318    208.77549    132.25385   -165.50242    18.142768    46.175292     20.31519    89.733948    108.75774    90.127564 
   56500    248.50192   -9754.1706   -8759.3608   -9754.1706            0    5481.9715    17.931948    45.774896    19.547112  -0.31439046   -6.4969931 0.0012083403    16044.916    7063.5016    4977.1766    4405.2363    257.35761    89.179956   -744.52956    17.931948    45.775976    20.598556    89.872522    108.38557    90.393512 
   57000    244.33006   -9721.1618   -8743.0529   -9721.1618            0    5343.2717    18.163772    45.892039    19.264815  -0.18607075   -6.5804662   0.10221811    16058.621     4815.113    5055.4829    6159.2192   -919.96512    94.459465   -671.27931    18.163772    45.892416    20.357949    89.637225    108.85887    90.232306 
   57500    237.87648   -9704.1826   -8751.9089   -9704.1826            0    5288.1307    18.004977    45.891622    19.432627    -0.400324   -6.5689267   0.20259313    16056.744    5507.0138    4992.0418    5365.3366      305.946   -198.63393    59.461884    18.004977    45.893368    20.513869    89.274113    108.67616    90.499793 
   58000    248.36158   -9752.6539   -8758.4059   -9752.6539            0    4821.5208    18.100393    45.735531     19.41401  -0.37134975   -6.5496709   0.11462988     16071.52    4847.0819    4986.0588    4631.4217   -165.93624    150.97755   -268.57455    18.100393    45.737038     20.48939    89.530753    108.64246    90.465203 
   58500    242.56991   -9707.3333   -8736.2706   -9707.3333            0    6229.7236    18.205938    45.716823    19.291265  -0.11374039   -6.5441362 -0.030264114     16056.46    4102.9728    6810.3228    7775.8753   -197.04507   -489.28005   -66.846906    18.205938    45.716965    20.371047    90.039328    108.73835    90.142548 
   59000    247.34587   -9710.6102   -8720.4283   -9710.6102            0    6689.6508     17.90679    45.888717    19.464581  -0.22335099   -6.4964204   0.15562179    15994.428    6509.6499    6916.0751    6643.2274   -763.95522    388.82559   -772.26551     17.90679     45.88926    20.520663    89.477202    108.45619     90.27887 
   59500    247.79094   -9715.0025   -8723.0389   -9715.0025            0    7089.0921    18.070321    45.991323     19.21762  -0.62901541   -6.5176834   0.18896898     15971.34    7120.1917    6525.3085     7621.776    1092.8388    -5.569213    441.42339    18.070321    45.995624    20.293664    89.214851     108.7336    90.783576 
   60000    241.70374   -9758.9499   -8791.3548   -9758.9499            0    6274.6576    17.959411     45.72519    19.454116  -0.31797753   -6.5762543   0.15112765    15975.671     6723.046    6456.6029     5644.324    211.89514   -526.84133    183.53357    17.959411    45.726295    20.536129    89.450767    108.67675    90.398434 
   60500    239.53234   -9747.5562   -8788.6537   -9747.5562            0    6870.0902    18.015869    45.780479    19.312435  0.016930807    -6.538214  0.013860026    15928.415    7733.3638    7039.2993    5837.6074   -257.30888   -53.736036   -240.30116    18.015869    45.780482    20.389178    89.967847     108.7035    89.978811 
   61000    240.47623   -9728.9433   -8766.2622   -9728.9433            0    6331.0645    18.061973    45.906806    19.261621  -0.29275045   -6.4368055  0.033425882    15971.111    7081.8175    6454.1198    5457.2561   -629.94234    332.87167    381.55738    18.061973     45.90774    20.308708    89.789895    108.47846    90.365374 
   61500    258.67817   -9724.7175   -8689.1699   -9724.7175            0    7105.2537    17.937819    45.651997    19.497456  -0.45944092   -6.4746722   0.18492682    15966.413     7295.886    8175.6856    5844.1894    768.27275     529.6986   -322.97352    17.937819    45.654309    20.545228    89.302582    108.36941    90.576604 
   62000    240.94752   -9689.7503   -8725.1825   -9689.7503            0    5854.7981     18.15321    45.876644    19.290274  -0.41411492    -6.607071   0.11101055    16065.101    4418.4388    5864.7016    7281.2539   -131.19882    40.884044   -505.11901     18.15321    45.878513    20.390694    89.520503    108.90645    90.517178 
   62500    240.41381   -9751.5167   -8789.0854   -9751.5167            0     4725.717       18.013    45.915639    19.449134  -0.23660504   -6.6255907  0.047824086    16085.959    5478.9564    4667.2562    4030.9383     214.0852   -213.98141   -94.042824       18.013    45.916248    20.546765    89.771436      108.812    90.295245 
   63000    247.50312   -9681.4559   -8690.6445   -9681.4559            0    5950.5499    18.143253    45.801757    19.336237  -0.12130491   -6.4629616  0.056386322    16068.274    4606.7417    6284.2849    6960.6232    315.43726   -224.31002     814.7533    18.143253    45.801917    20.387818    89.793434    108.48166    90.151746 
   63500    236.99637   -9727.7133   -8778.9628   -9727.7133            0    6433.1331    18.086723    45.667627    19.348095  -0.53381801    -6.028765   0.18265823    15981.095     5937.425    6247.9934    7113.9809    653.11643   -1798.6289   -413.05187    18.086723    45.670747    20.266429      89.2844    107.30604    90.669711 
   64000    245.26992   -9699.6541   -8717.7827   -9699.6541            0    5372.2011    17.921022    46.011335    19.432281  -0.38863329   -6.2175557   0.13507387    16023.279    6225.9683    4792.7229    5097.9121   -899.45962    -801.5819   -888.35013    17.921022    46.012976    20.403181    89.473224     107.7422    90.483935 
   64500    240.76622   -9729.4987   -8765.6567   -9729.4987            0    6546.8864    18.097147    45.945009    19.218965 -0.066321631   -6.7632005  0.043352132    15980.062    5990.7294    6658.7523    6991.1775   -84.517297    922.23361   -349.41853    18.097147    45.945057    20.374282    89.850633    109.38705    90.082706 
   65000    237.23944   -9763.1014   -8813.3778   -9763.1014            0    5622.3456    18.056414    45.624932    19.436132  -0.31550904   -6.7694981  0.041631298    16011.926      5004.38    6578.5463    5284.1107    308.21345     307.8969   -102.25356    18.056414    45.626023    20.581328    89.753788    109.20291     90.39621 
   65500    247.33623   -9745.4765   -8755.3332   -9745.4765            0    5367.1496    18.112509    45.603676    19.414934  -0.39081988   -6.4352913    0.2732963    16036.677    5359.1502    5483.6534    5258.6452    184.07143    -53.42749    -556.1933    18.112509     45.60535    20.455496    89.080017    108.33664    90.491008 
   66000    258.53811   -9697.5914   -8662.6044   -9697.5914            0    5393.7609    18.009366    46.002904    19.427312  -0.32352216   -6.1773904   0.12569378      16095.2    5352.9237     4827.192    6001.1669   -162.81031   -333.51991    948.46605    18.009366    46.004042    20.386181    89.524643    107.63899    90.402934 
   66500    251.19792   -9704.7826   -8699.1801   -9704.7826            0    5570.9719    17.972238    46.234938    19.339353 -0.050847528   -6.3994946  -0.01229774    16069.945    7116.9321    4214.5324    5381.4512   -334.83155   -1173.3702     630.7042    17.972238    46.234965    20.370671    90.014794    108.30965    90.063012 
   67000    236.49267   -9734.5587   -8787.8246   -9734.5587            0    7017.9043     18.13719    45.803542    19.238807   0.04366323   -6.9423421   0.14173653    15982.591     6146.567    7100.2918    7806.8541    24.061636    811.06353    -137.0605     18.13719    45.803563    20.453554    89.621495    109.84153    89.945382 
   67500    248.40806   -9757.0015   -8762.5674   -9757.0015            0    6513.4769    18.021269     45.58342    19.436037  -0.62996227   -6.8086338   0.09195783    15966.142    5121.5991    7363.0001    7055.8313     421.4129     168.8519     345.5836    18.021269    45.587773    20.594307    89.482421    109.30566    90.791777 
   68000    232.48433   -9702.1466   -8771.4588   -9702.1466            0    6513.8039    18.066695    45.807905    19.359205  -0.31073278   -6.4374996   0.20043721    16021.629    6384.2737    6698.8861    6458.2518   -1100.5022   -821.39452   -958.16825    18.066695    45.808959    20.402461    89.314484    108.39255    90.388654 
   68500    244.90005   -9697.9154   -8717.5246   -9697.9154            0     5917.645    18.029614    45.903703    19.400738  -0.13388292   -6.3414021  0.033029594    16056.556    6455.4586    5472.3947    5825.0817    560.82658   -727.43784    76.656673    18.029614    45.903898    20.410858    89.855364    108.10068    90.167109 
   69000    248.07025   -9772.4686   -8779.3868   -9772.4686            0    5957.3213    18.054529    45.657787    19.400547 0.0068265436   -6.6790735  0.033077409     15992.45    7151.6922    5382.0285    5338.2432   -377.92394   -582.72346   -328.94963    18.054529    45.657787    20.518098    89.910422    108.99715    89.991433 
   69500    246.41433   -9751.6283   -8765.1755   -9751.6283            0    6429.0439    18.139652    45.582345    19.348443  -0.37672135   -7.0676875   0.29819634    15998.219      6445.34    6284.2165    6557.5754   -772.68669    1004.5193   -48.798162    18.139652    45.583902    20.601053    89.008183    110.06428    90.473518 
   70000    240.11974   -9728.4758   -8767.2218   -9728.4758            0    5539.0759    18.016218     46.04278    19.361787  -0.86418992   -6.6919186   0.10416387    16060.927    5681.5982     4961.223    5974.4065    982.89674    487.20393    218.71401    18.016218     46.05089    20.485883    89.357479    109.06618    91.075274 
   70500    241.27719   -9747.0858   -8781.1982   -9747.0858            0    6605.2832    18.015528    46.032877    19.305009  0.029077784   -6.3435802   0.12044247    16009.772    6513.5316    6173.6019    7128.7163   -164.56871   -835.66683   -319.19575    18.015528    46.032887    20.320898    89.671703    108.19007    89.963808 
   71000    246.44526   -9751.7156    -8765.139   -9751.7156            0    5598.0598    18.029405    45.816319    19.406816  -0.17626279   -6.4774463  0.044471515    16030.825    5860.0074     5356.215    5577.9569     364.9952    169.75696   -215.03951    18.029405    45.816658    20.459321    89.805673    108.45751    90.220425 
   71500    241.34543   -9728.1925   -8762.0318   -9728.1925            0    6036.0389    18.140355    45.619052    19.379767  -0.69255958   -6.7859269  0.099739166    16037.645    4865.4448    6149.6034    7093.0683    623.56225    121.89197    896.30463    18.140355    45.624309    20.533731    89.434293    109.29773    90.869761 
   72000    252.53356   -9697.2906   -8686.3412   -9697.2906            0    5349.8962    18.018374    46.029649    19.394458  -0.22574255   -6.7515349   0.31728854    16085.365     5234.686    5634.5539    5180.4487   -707.39895    385.89576   -1075.1361    18.018374    46.030203    20.538474     89.02246    109.19148    90.280993 
   72500    239.29278   -9740.0795   -8782.1359   -9740.0795            0    5992.3859     17.91103    46.295318    19.309676  -0.01049478   -6.4293632 -0.014753359    16011.522    7027.5514    5231.8136    5717.7927   -1140.0781    348.17248    408.53274     17.91103    46.295319    20.351917    90.037431    108.41573    90.012988 
   73000    242.44077   -9760.3959   -8789.8502   -9760.3959            0    6069.7096    18.039102    45.647283    19.448598  -0.25790549   -6.2716094 -0.070441947    16014.675    6954.0126    5833.1403    5421.9759    67.142994    47.605022    1590.9705    18.039102    45.648012    20.434921    90.098153     107.8729    90.323716 
   73500    245.28169   -9691.9585     -8710.04   -9691.9585            0    5308.0366    18.164453     45.46803    19.464254   -0.1462544   -6.4537741   0.28661224    16075.564    4160.6154    6309.2254    5454.2692    432.13703    476.07955   -191.28087    18.164453    45.468265    20.508304    89.141242    108.34215    90.184299 
   74000    249.15834   -9733.2216    -8735.784   -9733.2216            0    6955.9627    18.012345    46.020249    19.297945  -0.69342032   -6.6459954   0.10010267    15996.696    5557.1975     7535.568    7775.1226    1095.4844    606.28441     2047.972    18.012345    46.025473    20.410535     89.43794    109.00289    90.863252 
   74500    244.31003   -9724.7996   -8746.7708   -9724.7996            0    6225.5292    17.969653    46.149117    19.267302  -0.14132946    -6.654226   0.15405502    15978.058    5944.6156    5714.9494    7017.0225   -43.074739   -77.371437       -327.3    17.969653    46.149333    20.384587     89.50971    109.05249    90.175465 
   75000    245.43329   -9685.9909   -8703.4655   -9685.9909            0    7600.6628    18.109434    45.376221      19.4389  0.066298489    -6.498291  0.037486157    15973.677    6318.6934    8472.6774    8010.6176    -585.9675   -31.394743    322.49044    18.109434    45.376269    20.496342    89.921752     108.4844    89.916286 
   75500    244.36144    -9734.308   -8756.0734    -9734.308            0     6807.677     18.12429    45.529892     19.36545  -0.29551908   -6.3856406 -0.070558443    15980.311     5912.528    7622.3975    6888.1056    702.92931    85.482745    780.63955     18.12429    45.530851    20.391225    90.081796    108.24955    90.371882 
   76000    241.55719   -9705.2938   -8738.2853   -9705.2938            0    6657.4665    17.955018    46.124038      19.3168  -0.11886828   -6.4205921   0.27805027    15997.362    7654.7295    6818.4539    5499.2161   -965.20064    567.77909   -1156.8974    17.955018    46.124191    20.357802    89.170849     108.3842    90.147659 
   76500    238.78122   -9786.5852   -8830.6895   -9786.5852            0    5632.6197    18.078308    45.804528    19.326054  -0.62449938   -6.5911073  0.028694016    16003.294    5867.6155    5214.6988    5815.5448   -648.73332    76.177778   -600.85641    18.078308    45.808785    20.419106    89.667359    108.83181    90.781123 
   77000    241.19259   -9770.8651   -8805.3162   -9770.8651            0     6717.872     18.09874    45.410126    19.435576  -0.04764772   -6.6595271  0.053250598     15973.44    6596.6233    6562.5485     6994.444   -919.62512   -204.95856   -4.4666141     18.09874    45.410151     20.54492    89.832007    108.91377    90.060119 
   77500    241.02011   -9730.4121   -8765.5537   -9730.4121            0    6855.7292    17.953149    45.957522    19.374875   0.12343876   -6.4970667  0.073669199    15985.865    7526.5769    6130.2731    6910.3377   -216.71895    268.56265    626.82784    17.953149    45.957688    20.435339    89.842377    108.53796    89.846108 
   78000     246.7602   -9664.6116   -8676.7743   -9664.6116            0    7289.3573    17.994324    46.250014     19.19253  -0.71384444   -6.4034759  0.010000495    15972.748    6901.6954    7207.9829    7758.3937    517.46478    -203.0922    378.57619    17.994324    46.255522    20.232593    89.691831    108.45097     90.88426 
   78500    237.87549   -9740.1842   -8787.9144   -9740.1842            0    7279.7219    17.977276    45.741373    19.410801  -0.18007961   -6.5399132   0.27810249    15961.605    7378.7351    7199.2289    7261.2016   -225.70375    1033.6353    601.83626    17.977276    45.741728      20.4848    89.150111    108.61799    90.225567 
   79000    244.27399   -9743.5597   -8765.6752   -9743.5597            0    6351.2971    18.173101    45.578187    19.341757  -0.32930561   -6.6585466 -0.023308428     16020.72    5942.5995    6218.7294    6892.5625   -81.723657    92.433399    175.33419    18.173101    45.579377    20.455814    89.930538     108.9964    90.413959 
   79500    254.96116   -9750.7019   -8730.0343   -9750.7019            0    5551.6276    17.988463    46.011134    19.352502  -0.21490146   -6.6138529   0.12922922    16017.477    5056.9027    5658.0404    5939.9398    66.046156    507.42592   -807.83497    17.988463    46.011636    20.451872    89.551425    108.86783    90.267606 
   80000    249.51749   -9721.1949   -8722.3195   -9721.1949            0     6186.945    17.991922      45.9031    19.354766  -0.60819548   -6.5306482   0.18345782    15984.811    6823.7275    5955.1916    5781.9158    991.38394   -55.581743   -264.93116    17.991922    45.907129    20.427677    89.242785    108.64455    90.759099 
   80500    241.82531   -9709.9474   -8741.8656   -9709.9474            0    6686.7692    18.163738    45.243188    19.439941  -0.19981822   -6.4870967   0.04818443     15975.46    6734.3839    6885.6563    6440.2673   -432.10403   -660.90611    829.77666    18.163738    45.243629    20.493805    89.785189    108.45377    90.253047 
   81000    245.18535   -9712.1866   -8730.6538   -9712.1866            0    6966.1488    18.023705    45.653193     19.41257   0.50062326   -6.5130873 -0.044430292    15973.432      7250.94    6917.3325    6730.1737   -576.04834    -183.4007    27.233985    18.023705    45.655937    20.476087    90.324155    108.54701    89.371732 
   81500    240.18877   -9721.9993   -8760.4689   -9721.9993            0    6721.2845    17.928856    46.259048    19.215901    -0.455744   -6.5890212  -0.02952926    15937.127    5825.6102    6879.5942     7458.649    512.82279    601.68958    1317.3212    17.928856    46.261293    20.314205      89.9002    108.92652     90.56446 
   82000    247.32966   -9740.3798   -8750.2628   -9740.3798            0    6688.4787    18.068474    45.736038    19.323661  -0.74300896   -6.6539144   0.32712373    15968.695    6281.3115    6951.4147      6832.71    358.29539    133.71479    -63.79423    18.068474    45.742073    20.439801    88.780081    108.99812    90.930722 
   82500    258.45962   -9705.6805   -8671.0077   -9705.6805            0    5819.6403    18.120419    45.336097    19.476612  -0.36375552   -6.6032384   0.11186235    16000.214    6046.9984    5869.7022    5542.2205   -26.363529     61.99281    261.23738    18.120419    45.337557    20.565838    89.540761    108.72813    90.459705 
   83000    244.39808    -9736.827   -8758.4458    -9736.827            0    5752.3887    18.026856    45.875511    19.352501 -0.044390233   -6.3680687  -0.13604641    16004.349    5336.3553    6385.7381    5535.0728     1060.279    373.05164    687.61501    18.026856    45.875532     20.37376    90.365268    108.21371    90.055441 
   83500     246.3419   -9720.8839   -8734.7211   -9720.8839            0    6192.9317    17.958602    46.117615    19.274229  -0.10179024   -6.3168143   0.18995362    15963.068    8199.1913    5319.1981    5060.4057   -173.40585   -1038.6754    1097.9203    17.958602    46.117728    20.283839    89.424046    108.14489    90.126462 
   84000    251.61997   -9698.9543   -8691.6622   -9698.9543            0    6594.7399    18.046441    45.768883     19.39031  -0.88602357   -6.6134355   0.20296855    16015.725    7569.1413    6120.7297    6094.3488    899.57578     628.5217    807.65889    18.046441    45.777458    20.488114    89.074491    108.83196     91.10903 
   84500    240.61778   -9716.1485   -8752.9006   -9716.1485            0    5604.2267    18.092548     45.70108    19.392863  -0.38722631   -6.7248466   0.11156845    16034.969     6246.428     5791.951     4774.301    -609.7416   -686.71452    1378.9682    18.092548     45.70272    20.526061    89.529532    109.12467    90.485457 
   85000    242.39915   -9715.9528   -8745.5738   -9715.9528            0    6224.0805     17.97598    46.129927    19.346667   0.51609749   -6.4743308 -0.063413567    16042.849    6141.1171    5513.2628    7017.8615   -303.33422   -150.41481    1032.7332     17.97598    46.132814    20.401336    90.381498    108.50264    89.359007 
   85500    245.27493   -9667.8092   -8685.9178   -9667.8092            0     5423.494    18.033531    46.178987    19.339372  -0.54062741   -6.2249902 0.0055763395    16105.252    3908.9056     5970.491    6391.0854    275.83123    189.90815    -771.3595    18.033531    46.182152    20.316541    89.778763    107.84242    90.670743 
   86000    237.68236   -9694.0076    -8742.511   -9694.0076            0    5942.4567    18.083518    45.742558    19.433683  -0.84929533   -6.3149936     0.359159    16075.278    6107.1849    6314.8717    5405.3134    391.97436    -99.37124     -1294.03    18.083518    45.750442    20.437128    88.664491    107.99874     91.06368 
   86500     235.3858   -9726.8514   -8784.5484   -9726.8514            0    7038.4087    18.062442    45.668416    19.390685  -0.23656868   -6.6430107  0.088635791    15995.049      7797.84    6404.9658    6912.4202    55.229882     616.3998   -578.13541    18.062442    45.669029    20.497222    89.656048    108.91065    90.296797 
   87000    249.24617   -9755.1778   -8757.3886   -9755.1778            0    5597.2604    18.066445    45.900289    19.313664  -0.15065435   -6.7802347 -0.041654432    16015.953    4649.7359    6557.8926    5584.1528     670.7041     1168.565    1735.9647    18.066445    45.900536    20.469268    90.054303    109.34404    90.188056 
   87500    242.99764   -9718.9349     -8746.16   -9718.9349            0    5596.1893    18.012623    45.860491    19.387664  -0.35972163   -6.5004612   0.27100569    16015.523     7210.346    5181.3999    4396.8222    66.445286   -559.53992    349.95721    18.012623    45.861902    20.450207    89.097853    108.53402    90.449409 
   88000    253.26264   -9720.8834   -8707.0153   -9720.8834            0     7251.884    18.087301    45.475988    19.415452  -0.61727483   -6.1643359   0.24474496    15969.944    6705.6267    7989.2628    7060.7625    107.97566   -691.29828   -468.33208    18.087301    45.480177    20.372008    89.076379    107.61314    90.777665 
   88500    243.30984   -9727.6351   -8753.6104   -9727.6351            0    7227.0196    17.995158    45.745246    19.380267  0.086087295   -6.2964893  -0.13258963    15953.698    5269.4236    8101.7194    8309.9156   -469.83339     92.70359  -0.66525442    17.995158    45.745327    20.377882    90.406116    107.99816    89.892176 
   89000    244.28068   -9769.9785   -8792.0672   -9769.9785            0    6577.6366    17.991319    45.964115    19.336997   0.31969275   -6.6662913 -0.010759073    15990.828    6578.6873    6236.3759    6917.8465   -1082.2781   -213.05606   -604.61059    17.991319    45.965227    20.453826    90.160016    109.02126    89.601499 
   89500    236.25598   -9748.1814   -8802.3949   -9748.1814            0    5519.5688    18.090574    45.813214    19.351724  -0.58275455   -6.7039762   0.11539884    16038.463    4347.5961    4939.9035    7271.2069    895.01015   -339.11389    845.01142    18.090574     45.81692    20.480376    89.438629     109.1072    90.728776 
   90000    242.03417   -9738.6692   -8769.7512   -9738.6692            0    5411.9402    18.058995    45.788115    19.446859  -0.44479923   -6.5638498   0.23690402    16080.362    5398.0721    5432.6776     5405.071   -357.66769    66.661091   -705.61236    18.058995    45.790275    20.526095    89.160738    108.64967    90.556571 
   90500    251.18441   -9733.1204    -8727.572   -9733.1204            0    4184.1909    18.069642    46.162361    19.323319 -0.013139385   -6.3536722 -0.080030348    16118.302    3236.5084    4319.9319    4996.1325    -646.1336    488.28893    442.49552    18.069642    46.162362    20.341244     90.22033    108.20116    90.016308 
   91000    240.90372   -9722.2464   -8757.8539   -9722.2464            0    4169.9275    18.057282    45.879783    19.502535  0.046126039   -6.3692134 -0.0092698313    16157.152    5653.8517    3406.0178    3449.9128   -13.403089   -378.15584    163.09955    18.057282    45.879806    20.516234    90.043771     108.0862    89.942397 
   91500    235.04354   -9739.1445   -8798.2116   -9739.1445            0     5080.703      18.1488     45.54192    19.483619  -0.39386844   -6.6786508   0.24168399    16103.819    4658.3647    5876.9025    4706.8416    333.84488    940.73264   -743.51083      18.1488    45.543623    20.597917    89.167059    108.91948    90.495509 
   92000    243.55229    -9717.993   -8742.9977    -9717.993            0     5719.801    18.061034      46.0023    19.307594    -0.622779   -6.7137216   0.14755371    16041.697    6078.5737    5156.0012     5924.828    475.41955   -259.04713    202.62534    18.061034    46.006515    20.442089    89.331727    109.17329    90.775623 
   92500    243.44633   -9727.8501   -8753.2789   -9727.8501            0    7177.1831    17.911355     45.97057    19.333834   0.11887384   -6.4511475  0.081496391    15919.386    6195.7625    7465.2717    7870.5152   -1338.9382    450.38792   -387.68349    17.911355    45.970723    20.381881    89.817799    108.45223    89.851841 
   93000    248.01209   -9716.6893   -8723.8404   -9716.6893            0    6738.8821    18.076409     45.40116    19.474961 -0.0082357793   -6.2741171 -0.068236606    15982.904    7590.0785    6681.7109    5944.8569   -830.79895   -713.59354   -8.9872915    18.076409    45.401161    20.460775    90.187894    107.85693    90.010393 
   93500    250.85437   -9765.8242    -8761.597   -9765.8242            0    7106.7749    18.100236    45.602104    19.342184  -0.91840275   -6.3735256   0.17360955     15965.21    6940.9218    7169.8849     7209.518     707.0321   -448.88855   -644.31524    18.100236    45.611351    20.365953    89.150608     108.2371    91.153751 
   94000    249.66267   -9770.6838   -8771.2272   -9770.6838            0    5686.1157    17.945573    46.200359    19.324291  -0.68480267   -6.6661994   0.32196784    16021.613    6355.6076    5083.1466     5619.593    359.52524    395.30382   -444.58342    17.945573    46.205434    20.444317    88.820806    109.03018    90.849202 
   94500    242.49909   -9762.0843   -8791.3052   -9762.0843            0    5326.0996    18.046127    45.790522     19.41127 -0.028163249   -6.6736419  0.013493922    16040.339    5662.4519    5442.6838    4873.1631    54.873168    579.38237    1093.5075    18.046127     45.79053    20.526448    89.950877    108.97309     90.03524 
   95000    235.66909   -9771.8172   -8828.3801   -9771.8172            0    6397.1814    18.141415    45.509936    19.406119 -0.090473362   -6.5552256 -0.047343425    16021.976    6125.9123    6411.6307    6654.0011    301.74282    655.34891    1387.3718    18.141415    45.510026    20.483424    90.095976    108.66449    90.113903 
   95500      242.613   -9741.5838   -8770.3486   -9741.5838            0    4678.7869     18.00506    45.925663    19.447341  -0.42056044    -6.544447    0.1720677    16080.897    3786.9663    4338.7355    5910.6591     578.9888   -484.09146   -575.82863     18.00506    45.927589     20.51971    89.352221    108.59851    90.524667 
   96000    239.78309   -9714.2148   -8754.3084   -9714.2148            0    4509.2402    18.045305    46.452065    19.250209  -0.76136207   -6.6079892  0.091173703    16136.328    4988.0367    4033.4212    4506.2626    1055.8732     660.8602   -196.75311    18.045305    46.458304    20.352995    89.438508    108.94553    90.939009 
   96500     238.8325   -9699.9008   -8743.7999   -9699.9008            0    4332.6218     18.08989    46.045318    19.424533  0.012855098   -6.5498095  0.088076211    16179.757     4679.554    3542.1364    4776.1749    194.00966   -372.05249   -771.99043     18.08989     46.04532    20.499274    89.758936    108.63355    89.984004 
   97000    244.63842   -9720.0955   -8740.7522   -9720.0955            0    5018.0227    18.107914    45.623575    19.460527  0.019879186   -6.5310515  0.040718174     16077.27    5638.9151    5808.1075    3607.0456   -640.75874   -382.95928    592.32822    18.107914    45.623579     20.52726     89.89429    108.55198    89.975035 
   97500    241.17662   -9712.4887   -8747.0037   -9712.4887            0    5729.1276    18.094106    45.965295    19.326819  -0.72193628   -6.5220761  0.093408729    16074.134    5850.8884    5460.4621    5876.0323    822.84643   -4.9880033    172.52931    18.094106    45.970964    20.397847    89.449947    108.64741     90.89982 
   98000    236.98941   -9756.1429   -8807.4203   -9756.1429            0    5711.9975    17.944326    46.074875      19.3938  -0.36278823   -6.5260272   0.25038338    16034.456    6856.7244    5918.2189    4361.0494    745.26881   -201.07481   -160.83213    17.944326    46.076303      20.4639     89.15509    108.59668    90.451131 
   98500    239.91707   -9749.0889   -8788.6462   -9749.0889            0    6011.7078    18.107064    45.752886    19.337085  -0.15803403   -6.5342625 -0.040868537    16019.816    6678.5944    6117.4666    5239.0625    717.29652    -129.2019    1245.0246    18.107064    45.753159    20.411298    90.051365    108.67077    90.197903 
   99000    243.48462    -9711.875   -8737.1505    -9711.875            0    6625.6786    18.103742    45.325682    19.432817  -0.15578352   -6.4640676 -0.035264437    15945.879    5697.0359    8456.2911    5723.7088    210.90763   -448.79639    94.444373    18.103742     45.32595    20.479741    90.036503    108.39899    90.196924 
   99500    255.50108   -9694.8536   -8672.0245   -9694.8536            0    7016.3044    17.914156     45.91912    19.372572  -0.32706836   -6.4460878   0.30794149    15935.922     7385.256    7549.9912     6113.666    37.096762    466.64794   -824.43714    17.914156    45.920285    20.419193    89.007066    108.40233    90.408094 
  100000    240.68487   -9727.2156   -8763.6992   -9727.2156            0    6738.6856    18.021705    46.220261    19.177438  -0.69262561   -6.5151829   0.13557557     15974.19    6012.4142    6826.5574    7377.0853    782.56502   -230.34561    2082.3471    18.021705     46.22545    20.254385     89.34036    108.76381    90.858532 
  100500     247.9499   -9745.1048   -8752.5049   -9745.1048            0    6089.9614    17.939516    45.838881    19.461703  -0.11093663   -6.5644956   0.09550982     16003.89    5454.2026    6822.1251    5993.5564    759.99138    592.55259   -558.85712    17.939516    45.839016    20.539221    89.689249    108.63921    90.138664 
  101000     235.9072   -9713.2771   -8768.8869   -9713.2771            0    6936.1042    18.205589    45.452326    19.343782   0.12836737   -6.5534797 -0.060178473    16006.716    5458.7914    8214.9787    7134.5424   -645.70102    820.62493    1130.1679    18.205589    45.452507     20.42385    90.220743    108.71578    89.838185 
  101500     246.5951   -9730.9633   -8743.7869   -9730.9633            0    6726.1145    17.930339    45.879858    19.393335  -0.50535534   -6.3264261   0.25028544     15953.76    7174.6369    6832.8849    6170.8217    732.70244    965.30959   -238.25623    17.930339    45.882641     20.40068    89.101376    108.06577    90.631073 
  102000    245.38699   -9706.4654   -8724.1253   -9706.4654            0    5876.1668    17.965018    46.188482    19.298086  -0.67146925   -6.3298626   0.31824703    16013.106    5564.1639    5837.0703    6227.2662   -367.24978    299.03373   -124.43904    17.965018    46.193362    20.312177    88.842776    108.15743    90.832884 
  102500    242.50246   -9740.6656    -8769.873   -9740.6656            0    6599.9914    18.122409    45.664694    19.297881  -0.10616384   -6.6130811  0.021185018    15970.044    6755.3808    7148.9113    5895.6822    340.29806   -287.22374    451.51803    18.122409    45.664818    20.399547    89.897316    108.91577    90.133204 
  103000    233.80687   -9668.6407   -8732.6585   -9668.6407            0    7691.0614    17.973329    45.640202    19.449727 -0.017617534   -6.6047039  0.025731535    15954.735    7882.3313     7714.468     7476.385   -466.89184    29.841787    258.05422    17.973329    45.640205    20.540561    89.921113    108.75635    90.022117 
  103500    245.13794   -9752.8854   -8771.5423   -9752.8854            0    6933.9438    18.031668    45.795857    19.270184   -0.3125035   -6.5354585   0.19147613    15912.849    7420.9095    6439.0497    6941.8722    37.229184     247.4687   -1869.1523    18.031668    45.796923    20.349173    89.335306    108.73344    90.390971 
  104000    247.39373   -9721.6362   -8731.2627   -9721.6362            0    8345.6455    17.938974    45.558951    19.410935  -0.55378662   -6.1992087   0.19773897    15864.185     7816.854    9075.2623    8144.8201    662.83778    663.81746   -1374.1015    17.938974    45.562316    20.377774    89.232184     107.7109    90.696418 
  104500     250.8486   -9745.6625   -8741.4584   -9745.6625            0    7524.0641    17.988978    45.546333    19.392182  0.054118577   -6.2190855 -0.0093785866    15888.635    7714.4592    7432.1482    7425.5849   -187.56215   -711.70464    1302.3758    17.988978    45.546365    20.365015    90.047176    107.78108    89.931921 
  105000    252.61218   -9722.5684   -8711.3043   -9722.5684            0    6146.5397    18.071414    45.869016    19.303594   0.17644217   -6.6145212  0.058191682    16001.096    5278.0216    6933.4593    6228.1381    64.978024    438.66458    537.94583    18.071414    45.869355     20.40549    89.908049    108.91433    89.779604 
  105500    254.00239    -9706.307   -8689.4775    -9706.307            0    5379.2253    17.978767    46.024969    19.414753  -0.48220382   -6.7170582  0.095624742    16065.168    5232.9119    6119.2989    4785.4653    -81.72972    180.69955    1265.4676    17.978767    46.027495    20.544115    89.537062    109.08423    90.600266 
  106000    244.89208    -9745.738   -8765.3792    -9745.738            0     6359.552    18.126468    45.717314    19.291021  -0.47125168   -6.5837022   0.18212608    15986.342     5040.077    6727.2646    7311.3143    466.60839    84.112732   -117.39323    18.126468    45.719743    20.384351    89.297353    108.84313    90.590581 
  106500    247.77652   -9725.9781   -8734.0722   -9725.9781            0    6044.3777    17.938865    45.804371    19.497293  -0.10416976   -6.3776675 -0.007419715    16020.505    7313.5853    5636.3198     5183.228    -531.3478   -301.27765   -382.35199    17.938865     45.80449    20.513876    89.980213    108.11319    90.130304 
  107000    249.59631   -9747.0375   -8747.8466   -9747.0375            0    6264.3537    18.016853    46.183195    19.190811  -0.14880146   -6.3719174 -0.024273157     15968.21    6063.9425    5682.4707     7046.648    164.37777   -88.749533    904.02281    18.016853    46.183435    20.221007    90.010606    108.36768    90.184605 
  107500    247.07585   -9729.7772   -8740.6763   -9729.7772            0    5341.0963    18.043232    46.087559    19.284728  -0.39092846   -6.5814527   0.26407692    16036.573    6287.9855    4250.5096    5484.7938    603.01261   -372.10116    164.44553    18.043232    46.089217    20.378567    89.100566      108.842    90.485988 
  108000    247.56406   -9722.4844    -8731.429   -9722.4844            0     4982.938     18.02688    45.725063    19.508355   -0.4885727   -6.6057071    0.1052253    16080.351    5140.5629     4906.237     4902.014    358.20305    617.94047    1765.8142     18.02688    45.727673    20.596659    89.510961    108.70632    90.612183 
  108500    257.73586   -9724.6349   -8692.8595   -9724.6349            0    5890.9962    18.182782    45.810575    19.288962 -0.088569685    -6.527832  0.012412435    16067.005    4885.6046    6779.5127    6007.8712   -479.96129    650.94402    8.4472706    18.182782    45.810661    20.363614    89.929566    108.69701    90.110775 
  109000    240.52825   -9717.9162   -8755.0268   -9717.9162            0    5600.0645    17.914206    46.007574    19.487434 -0.084304602   -6.4120533  0.066462535    16061.331    7879.3522    4960.6387    3960.2026   -84.628269   -325.07623    908.24059    17.914206    46.007651    20.515334    89.781567    108.21293    90.104989 
  109500    249.48417   -9743.8861   -8745.1441   -9743.8861            0    5230.4291    18.155309    45.911096    19.285536  -0.86610896   -6.6369293   0.12774451    16075.075     5046.238    5036.6707    5608.3786    1263.9851     262.6279     520.4717    18.155309    45.919265    20.396005    89.289531    108.99002    91.080752 
  110000    237.89477   -9734.8855   -8782.5385   -9734.8855            0    4567.3017    18.054407     45.68312    19.498379  -0.34671863   -6.7578877   0.17728151    16081.905    4167.8679    5379.8359    4154.2012   -248.46571    629.22368   -568.21028    18.054407    45.684436    20.637036    89.365409    109.11493    90.434846 
  110500    236.93888   -9738.2637   -8789.7434   -9738.2637            0    5353.5362    18.105739    45.754884    19.332601   0.25526373   -6.5905267 0.0065508157    16015.628    5172.1602    5200.3895    5688.0589    50.276801    151.90129   -165.47916    18.105739    45.755596    20.425096    90.084763    108.82436    89.680354 
  111000    245.51658   -9723.4787   -8740.6199   -9723.4787            0     6242.473    18.031395    45.906911    19.315125  -0.44224462   -6.3209869  0.023012104    15988.397    5929.5521      5653.66    7144.2071    1013.0531    -797.7183   -146.36891    18.031395    45.909041    20.323126    89.763461    108.12097    90.551942 
  111500    243.76922   -9697.8745   -8722.0107   -9697.8745            0      5760.84    17.927447    45.987423    19.490236  -0.46834014   -6.3235922   0.23646811    16068.474    6242.3954    5976.5717    5063.5528    901.39588   -201.00303    1141.9077    17.927447    45.989808    20.491779    89.158775    107.97438    90.583485 
[...]
  474500    249.35051   -9741.2804   -8743.0735   -9741.2804            0    6945.0151    18.052903    45.871401    19.304093  -0.47765389   -6.8297543  0.096102565     15985.95    7494.3253    5839.3276    7501.3924    560.31236    1345.7508      948.165    18.052903    45.873887    20.476884    89.532127    109.48347    90.596593 
  475000    242.79863   -9694.9349   -8722.9567   -9694.9349            0    5768.3991    18.127481    45.493912     19.43914  -0.17335007   -6.5368613 -0.046447776    16031.265    4409.7184    6867.4897    6027.9891    649.71985   -179.81499    1203.6773    18.127481    45.494242    20.508849    90.060175    108.58636    90.218319 
  475500     234.4207   -9759.5676   -8821.1281   -9759.5676            0    5772.1222    18.040244    45.633484    19.436237  -0.04110445   -6.1226747    0.1967058    16000.672    6553.6454    5454.9875    5307.7337   -425.85732   -306.02271   -335.09085    18.040244    45.633503    20.378743    89.431438    107.48428    90.051609 
  476000    242.53766   -9695.1389   -8724.2053   -9695.1389            0    6121.4011    17.917752    46.302069    19.270342  -0.77690633    -6.296344  0.073339896    15987.235     6486.138    6183.0813     5694.984     821.4993    -394.0385   -223.31597    17.917752    46.308587    20.273022    89.494211    108.09404    90.961281 
  476500    235.39684   -9748.0647   -8805.7175   -9748.0647            0    6919.5039    18.001827    45.949242    19.278934  -0.31879072   -6.8446685   0.13572821    15946.962    6359.5162    7100.4037    7298.5917    939.18881    545.71299     94.36106    18.001827    45.950348    20.458378    89.486891    109.54612    90.397505 
  477000    247.93922   -9702.3447   -8709.7876   -9702.3447            0    5659.5883    18.072005    45.631459    19.419657 -0.052300907   -6.7532813  0.066393389    16014.458     5452.223     6267.107    5259.4349   -660.70769    306.74157   -334.17735    18.072005    45.631489    20.560504    89.793412    109.17527     90.06567 
  477500    239.37434   -9675.2043   -8716.9342   -9675.2043            0    6891.1661    18.052835    45.588787    19.433504  -0.45550027   -6.4468366  0.048697322    15993.907    8174.8924    6705.4349    5793.1711    948.90623   -134.85541    745.16678    18.052835    45.591063    20.474989    89.683493     108.3526    90.572452 
  478000    247.09248   -9706.6471   -8717.4796   -9706.6471            0    6372.1346    18.008479    45.992126    19.300327  -0.30978971   -6.2185254   0.22782679    15985.462    6251.8303    5782.0988    7082.4748   -621.74432   -569.21657   -127.06605    18.008479    45.993169    20.278673    89.237942    107.85767    90.385922 
  478500    255.41272   -9758.9994   -8736.5241   -9758.9994            0    5968.2583      18.0178    46.014491    19.352234   0.11669035   -6.5728174  0.037260978    16044.548    5631.9818    5290.9845    6981.8084   -835.09895   -725.56441    152.32573      18.0178    46.014639    20.438011    89.942271    108.75958    89.854701 
  479000    242.65377   -9745.2174    -8773.819   -9745.2174            0    4885.7508    18.066029    45.769107    19.468369   0.09143511   -6.9474435  -0.10330673    16097.733    5251.0886    4960.1864    4445.9774   -216.48104    1061.9824   -1043.1143    18.066029    45.769198    20.671116    90.324815    109.63909    89.885538 
  479500    228.52173   -9779.6104   -8864.7858   -9779.6104            0     5748.899    18.163045    45.831714     19.26546  -0.42920322    -6.717263   0.22724703    16037.407    5922.1187    5589.2589    5735.3193    303.29627     879.6886    705.01066    18.163045    45.833724    20.404196    89.185248    109.22083    90.536546 
  480000    243.91127    -9731.594   -8755.1616    -9731.594            0    5677.1406    17.970968    45.874478     19.41695  -0.46554167   -6.2969321   0.23324644    16007.504     5881.796    5525.9103    5623.7156    33.774452   -600.74829   -435.71489    17.970968     45.87684    20.413812    89.166001    107.96671    90.581427 
  480500    252.22857   -9704.2829   -8694.5544   -9704.2829            0    6052.3009    18.066543    45.859821    19.347802 -0.086102641   -6.3685813 -0.033908011    16030.204    6487.4766    6675.5871     4993.839    882.41593    485.94251    398.41709    18.066543    45.859902    20.369031    90.061745    108.21961    90.107574 
  481000     241.2229   -9770.5739   -8804.9037   -9770.5739            0    5228.0617    18.079569    45.909774      19.3289 -0.068950019   -6.6937012  0.048483127    16043.546    5124.1756    4878.1356    5681.8737    483.20167   -92.162811    -1218.908    18.079569    45.909826    20.455179    89.836038    109.10119     90.08605 
  481500     237.4161   -9744.5004   -8794.0696   -9744.5004            0    5725.9964    18.058266    45.757336    19.404649  -0.51087785   -6.9721563   0.26764469    16034.026     5521.878    5740.0091     5916.102     124.9723    980.37901   -615.79636    18.058266    45.760187    20.620936    89.040067     109.7618    90.639677 
  482000    241.97591   -9766.1467    -8797.462   -9766.1467            0    5642.4479     18.11757    45.774038     19.29707  -0.56440614   -6.5090334 -0.0088248355    16003.336    6722.1229    4594.5725    5610.6484    676.23367   -574.39327    1840.3704     18.11757    45.777518    20.365277    89.799044     108.6396    90.706436 
  482500    245.18404   -9685.4253   -8703.8977   -9685.4253            0    4877.1076    18.041931    45.809546    19.498509  0.099136318   -6.2105059  0.055832379    16115.375    5226.8268    4877.7751    4526.7207   -281.39663    38.350349      558.454    18.041931    45.809653    20.463757    89.881308    107.66722    89.876007 
  483000    230.68414   -9724.5882    -8801.107   -9724.5882            0    5756.0677    18.076921    45.836467    19.370197  -0.01374906   -6.5316264   0.15018815      16049.8    5509.4516     5893.683    5865.0684    670.27894    320.54683    606.00008    18.076921    45.836469    20.442339    89.573557    108.63357    90.017186 
  483500    251.00259   -9747.5745   -8742.7539   -9747.5745            0    5777.0673    18.104851     45.91017    19.308207  -0.69118618   -6.9237836  0.093821174     16048.92    5208.9057    6106.4731    6015.8231    161.12506    1028.4373     348.7513    18.104851    45.915372      20.5123    89.446825    109.72725    90.862534 
  484000    249.91927   -9746.0651   -8745.5813   -9746.0651            0    6495.2263    17.987499     45.87391    19.415471 -0.093793302   -6.7716088   0.18634182     16020.81    6761.5417     6822.526    5901.6112    -339.2357    400.74039   -883.72557    17.987499    45.874006    20.563315    89.442209    109.22662    90.117146 
  484500    241.71463   -9701.4118   -8733.7731   -9701.4118            0     5232.319    18.163568    45.710332    19.334631  -0.14141671   -6.3700601 -0.077718463    16052.823    5083.6503    5095.6924    5517.6142      43.4015   -529.57664    273.26869    18.163568     45.71055    20.357104    90.163274    108.23504    90.177259 
  485000     238.7118   -9702.4615   -8746.8438   -9702.4615            0    5991.6343    17.971469    45.594898    19.538394  -0.33826715   -6.2937672  0.072351138    16009.903     6160.206    7082.0233    4732.6735   -118.29598   -708.55478    378.17911    17.971469    45.596153    20.527191    89.667729    107.85483    90.425068 
  485500    248.69862   -9671.7804   -8676.1831   -9671.7804            0    5907.7269    18.096441    45.833395    19.320373  -0.25808881   -6.6218984   0.29133144     16024.73     5486.667    6212.3978    6024.1158   -668.80712   -260.05614   -565.22932    18.096441    45.834122    20.425749    89.078172    108.91673     90.32263 
  486000    238.64595   -9720.0865   -8764.7324   -9720.0865            0    5086.8349    18.117599    45.878835    19.352777  -0.47559519   -6.8173534  0.055017164    16086.306    4151.0449     5678.449    5431.0109    794.28823     1131.794    687.43699    18.117599      45.8813    20.518512    89.649046    109.40563    90.593926 
  486500    243.26506   -9761.5317   -8787.6863   -9761.5317            0    5306.2996    18.030023    45.933725    19.448143 -0.098539605   -6.6560361   0.09759921    16106.682    4653.5154    5791.2978    5474.0857   -510.61008    522.06679   -917.48605    18.030023    45.933831    20.555841    89.688159    108.89305    90.122914 
  487000     247.4836   -9720.6067   -8729.8735   -9720.6067            0    6244.3667     18.12802    45.926544    19.280441  0.067868329   -6.2262776    0.1781125    16052.072    6084.4264    5397.3441    7251.3297    147.60807    -585.6924   -275.54309     18.12802    45.926594    20.261631    89.522347    107.89623    89.915331 
  487500    244.58503   -9752.9979   -8773.8683   -9752.9979            0    4635.5289    18.049708     45.75113    19.485318  -0.51781631   -6.2331072 -0.029575233    16090.869    4467.3931    5148.0404    4291.1532    338.42803   -994.52082    878.45498    18.049708    45.754061    20.458008     89.88526     107.7388    90.648452 
  488000    262.36179     -9771.58    -8721.286     -9771.58            0    5770.5897    18.051704    45.777279    19.395546  -0.30521127   -6.5129917   0.15319116    16027.662    5768.6399    6353.5759    5189.5533    20.771443    788.97607   -215.40184    18.051704    45.778297    20.460443    89.449418    108.56143    90.382003 
  488500    256.04509   -9726.6311   -8701.6243   -9726.6311            0     6702.325    18.026781    45.944843    19.310208  -0.22707465   -6.6885255    0.0387223    15993.441    5878.5268    7854.3327    6374.1154   -74.136187    1395.2006    472.26338    18.026781    45.945404    20.435802    89.798755    109.10464    90.283172 
  489000    247.05796   -9741.2269   -8752.1976   -9741.2269            0     7699.552    17.961542    45.873209    19.336981  -0.24856082   -6.5568755    0.1761014    15932.775    7833.7873    7286.1254    7978.7433     134.5017   -260.02065   -336.71346    17.961542    45.873883    20.419169     89.40617    108.73029     90.31045 
  489500    254.27517   -9712.7331   -8694.8117   -9712.7331            0    8284.1385    18.031677     45.76251    19.261382  -0.72178006   -6.2547789   0.16403177    15894.007    9510.3918    7099.6884    8242.3354    1259.2074   -1348.0606   -125.12961    18.031677    45.768202     20.25216    89.256907    107.98964    90.903611 
  490000    246.66547   -9681.2062   -8693.7481   -9681.2062            0    7921.8569    17.962298    45.612909    19.436196  -0.31633758    -6.334832  0.010589856    15924.321    7795.5669    7961.6115    8008.3924   -334.70704   -780.62254    913.09981    17.962298    45.614006    20.442503    89.847186    108.05232    90.397355 
  490500    247.26555   -9725.8861   -8736.0258   -9725.8861            0    5910.7853       18.036    45.715916    19.391635   0.28197892   -6.7370057  0.081971838    15989.028    7321.1833    5464.1082    4947.0644   -388.99408   -10.397933    194.37875       18.036    45.716786    20.528747    89.887197      109.158      89.6466 
  491000    243.76907   -9694.9039   -8719.0408   -9694.9039            0    6582.2163    18.155255    45.736323    19.279084  -0.31486288   -6.7763874  0.060286385    16008.476    5839.8802    6857.8006    7048.9681    149.79918     437.7094    74.784296    18.155255    45.737406    20.435414    89.700181    109.36593    90.394436 
  491500    237.94409   -9706.0444   -8753.4999   -9706.0444            0    6490.9321    17.970119    45.694904    19.454514  -0.52141991   -6.5222264   0.20710219    15974.936     7323.891    6516.6414    5632.2639    632.48925    91.910271    68.437702    17.970119    45.697879    20.519758    89.213941    108.53301    90.653768 
  492000    253.10943   -9704.0609   -8690.8062   -9704.0609            0    7523.0494    18.017566    45.875159    19.268353 0.0030478125   -6.2204513 -0.0050907441    15926.425    7275.8903      7291.01    8002.2478   -1206.2445   -844.12992    92.282051    18.017566    45.875159    20.247555    90.015575    107.89177    89.996193 
  492500    242.02481   -9728.7836   -8759.9031   -9728.7836            0    6420.8057    17.996311    45.688109    19.416275  0.047172224   -6.2415284 -0.011845153    15964.399    5997.9527    7167.9211    6096.5433   -171.02536    672.40591    345.56743    17.996311    45.688133    20.394817    90.051381    107.82044    89.940843 
  493000    238.90436   -9739.0357   -8782.6471   -9739.0357            0    5866.4774    18.082278    45.556559    19.477638  -0.65177561   -6.6625929   0.23082346    16045.023    4871.4955    6609.9386    6117.9981    1991.4128    1096.6979    2.0453692    18.082278    45.561222    20.586933    89.092357    108.88272    90.819672 
  493500    235.53105   -9703.1717   -8760.2872   -9703.1717            0    4954.8921    18.145749    45.834764    19.356242  -0.69410332   -6.8284812   0.17584275    16098.705    4458.1916    5234.8452    5171.6396    73.950239     409.3622    295.83757    18.145749    45.840019    20.526159    89.220578    109.43104    90.867598 
  494000    244.58587   -9698.8535   -8719.7205   -9698.8535            0    6551.9679    17.996196    45.780484    19.390734 -0.050016252   -6.6289662  0.029544934    15975.532     7227.767    6738.9203    5689.2164   -97.640233    222.89587    248.60421    17.996196    45.780511     20.49255    89.897145    108.87362    90.062597 
  494500    246.84313   -9711.4186   -8723.2493   -9711.4186            0    5113.5852    18.012808    45.917478    19.370759  -0.17890891   -6.4211693  0.067541329    16021.607    5935.9553     4660.496    4744.3045    839.59622   -225.68027     475.9824    18.012808    45.917827    20.407408    89.740129    108.33962    90.223241 
  495000    250.68742   -9754.9725   -8751.4137   -9754.9725            0    5441.6276    18.040244    45.812908    19.433087  -0.50061451   -6.4690394    0.2601313     16060.98     5917.648    5392.9292    5014.3056   -211.00408    -290.4677   -999.30565    18.040244    45.815643    20.483188     89.07464    108.41044    90.626067 
  495500    234.10731   -9744.6669    -8807.482   -9744.6669            0    4786.1039    18.049488    45.991057     19.38161  -0.61683126   -6.7340995   0.14807649    16088.966    4960.0309    5148.5065    4249.7744     763.4608     322.4912   -846.12727    18.049488    45.995194    20.518694     89.33436    109.15916    90.768404 
  496000    246.91302   -9709.9295   -8721.4804   -9709.9295            0    5276.2253    18.138813    46.066413    19.299193   0.05569021   -6.7971528  0.038735212    16126.214    3618.7549     5402.512    6807.4091   -264.67482    1141.4486    902.34045    18.138813    46.066447    20.461222    89.914543    109.40217    89.930735 
  496500    242.21076   -9682.4011   -8712.7762   -9682.4011            0     5628.784    18.010692    45.664994    19.559261 -0.088055558   -6.4810666  0.072162377    16086.674    6681.4147    6373.8428    3831.0945    -1074.933    248.26889    -81.65545    18.010692    45.665079    20.605197    89.764591    108.33278    90.110483 
  497000     247.5811   -9731.6739   -8740.5503   -9731.6739            0    6569.8341    18.157096    45.696266    19.314071  -0.52015517   -6.4119418   0.13604589    16025.107    6949.8194    6297.7366    6461.9463   -611.44889    152.01452   -524.89781    18.157096    45.699227    20.351041    89.411524    108.36486    90.652163 
  497500    242.78152   -9739.4293   -8767.5196   -9739.4293            0    5873.6381    17.975544    45.790472    19.424779  -0.26017417   -6.5525878   0.15333541    15988.703    4573.4981    6295.8738    6751.5423    206.86425    636.05935   -703.74838    17.975544    45.791211     20.50078    89.467405    108.64033    90.325542 
  498000    246.99224   -9776.6399   -8787.8737   -9776.6399            0    6358.4501    18.069315    45.990487    19.204943 -0.059558612   -6.8079603 -0.078031682    15959.627    5808.6585    6437.3854    6829.3063    -183.7248    61.036841    260.14449    18.069315    45.990526    20.376071    90.194628    109.51876    90.074199 
  498500    253.29852   -9732.1125   -8718.1008   -9732.1125            0    6604.2641    17.985312    45.967212    19.272834  -0.12497432   -6.6756388  0.021672412     15933.52    6979.8727    6030.3004    6802.6193    851.05394   -364.88203    1012.0565    17.985312    45.967382    20.396244    89.888135    109.10482    90.155774 
  499000    235.56263   -9698.3327   -8755.3218   -9698.3327            0    7593.0934    17.996218    45.413577    19.550417  -0.43020544   -6.3290911   0.23224384     15978.02    7176.5367    7586.3507    8016.3928   -214.71655   -817.86728   -754.55184    17.996218    45.415614    20.550672    89.185349    107.93723     90.54275 
  499500     255.1623   -9728.3078    -8706.835   -9728.3078            0    5596.3528    18.176652     45.76038    19.283592  -0.38445337   -6.4069056  0.079893071    16039.523    4530.7299    5711.4068    6546.9218     256.7994    176.18978    1081.0835    18.176652    45.761995     20.32023    89.622967    108.37874    90.481356 
  500000    240.24505   -9729.5736   -8767.8179   -9729.5736            0    6287.8576    17.931789    45.967851    19.406374 -0.075996993   -6.5789689  0.044140548    15996.399    6937.0045    6236.2497    5690.3187    247.43272    266.40326    823.77521    17.931789    45.967914    20.491269    89.846166    108.72716    90.094725 
Loop time of 5644.92 on 42 procs for 500000 steps with 2016 atoms

Performance: 7.653 ns/day, 3.136 hours/ns, 88.575 timesteps/s
95.9% CPU use with 42 MPI tasks x 1 OpenMP threads

MPI task timing breakdown:
Section |  min time  |  avg time  |  max time  |%varavg| %total
---------------------------------------------------------------
Pair    | 197.74     | 217.77     | 254.23     | 105.1 |  3.86
Bond    | 0.93135    | 0.99123    | 1.1518     |   6.6 |  0.02
Kspace  | 3115.2     | 3159.9     | 3204.6     |  36.2 | 55.98
Neigh   | 34.931     | 35.939     | 36.563     |   6.5 |  0.64
Comm    | 483.34     | 547.79     | 617.33     | 134.3 |  9.70
Output  | 33.459     | 33.528     | 33.741     |   0.9 |  0.59
Modify  | 1387.1     | 1433       | 1462.3     |  46.5 | 25.39
Other   |            | 216        |            |       |  3.83

Nlocal:        48.0000 ave          53 max          41 min
Histogram: 1 1 2 6 4 8 4 9 3 4
Nghost:        3116.52 ave        3167 max        3047 min
Histogram: 3 4 3 1 6 3 2 7 7 6
Neighs:        15929.4 ave       17467 max       13725 min
Histogram: 1 1 3 5 5 4 6 10 3 4

Total # of neighbors = 669033
Ave neighs/atom = 331.86161
Ave special neighs/atom = 2.0000000
Neighbor list builds = 10661
Dangerous builds = 0


write_restart   restart.equil
System init for write_restart ...
PPPM initialization ...
  extracting TIP4P info from pair style
  using 12-bit tables for long-range coulomb (../kspace.cpp:340)
  G vector (1/distance) = 0.37801311
  grid = 25 48 36
  stencil order = 5
  estimated absolute RMS force accuracy = 0.0026119605
  estimated relative force accuracy = 7.8658414e-06
  using double precision FFTW3
  3d grid and FFT values/proc = 6615 1092
Last active /omp style is kspace_style pppm/tip4p/omp
write_data   	water.equil.data nocoeff
System init for write_data ...
PPPM initialization ...
  extracting TIP4P info from pair style
  using 12-bit tables for long-range coulomb (../kspace.cpp:340)
  G vector (1/distance) = 0.37801311
  grid = 25 48 36
  stencil order = 5
  estimated absolute RMS force accuracy = 0.0026119605
  estimated relative force accuracy = 7.8658414e-06
  using double precision FFTW3
  3d grid and FFT values/proc = 6615 1092
Last active /omp style is kspace_style pppm/tip4p/omp
Total wall time: 1:34:05
