LAMMPS (30 Jul 2021)
  using 1 OpenMP thread(s) per MPI task
package omp 0
using multi-threaded neighbor list subroutines
echo both

include		in.partitions
variable        pid world 0
include		in.temp
variable        temperature equal 267.96
variable	tempDamp equal 100.0
include		in.pressure
variable        pressure equal 9000.0
variable        pressureDamp equal 1000.0 # This is 1 ps
include		in.seed
variable        seed world 745823

units		real
atom_style	full
read_restart	restart.lmp.${pid}
read_restart	restart.lmp.0
Reading restart file ...
  restart file = 30 Jul 2021, LAMMPS = 30 Jul 2021
  restoring atom style full from restart
  orthogonal box = (0.64149180 1.8471239 0.78261849) to (17.566081 21.782054 21.430577)
  4 by 4 by 4 MPI processor grid
  restoring pair style lj/cut/tip4p/long/omp from restart
  restoring bond style harmonic/omp from restart
  restoring angle style harmonic/omp from restart
  864 atoms
  576 bonds
  288 angles
Finding 1-2 1-3 1-4 neighbors ...
  special bond factors lj:    0        0        0       
  special bond factors coul:  0        0        0       
     2 = max # of 1-2 neighbors
     1 = max # of 1-3 neighbors
     1 = max # of 1-4 neighbors
     2 = max # of special neighbors
  special bonds CPU = 1.615 seconds
  read_restart CPU = 1.990 seconds
include 	in.setup
variable	out_freq equal 1000
variable	out_freq2 equal 10000
variable	out_freq3 equal 1000

timestep	2.0

neigh_modify    delay 7 every 1

include		in.tip4p
# This is TIP4P/Ice

# create groups ###
group ox type 2
288 atoms in group ox
group hy type 1
576 atoms in group hy

# set charges - beside manually ###
set group ox charge -1.1794
Setting atom values ...
  288 settings made for charge
set group hy charge 0.5897
Setting atom values ...
  576 settings made for charge

# ### TIP3P Potential Parameters ###
pair_style lj/cut/tip4p/long/omp 2 1 1 1 0.1577 8.5
pair_coeff 1 1*2 0.000 0.000
pair_coeff 2 2 0.21084 3.1668
bond_style  harmonic
bond_coeff  1 450 0.9572
angle_style harmonic
angle_coeff 1 55 104.52
kspace_style pppm/tip4p/omp 1.0e-5
pair_modify tail yes

thermo          ${out_freq}
thermo          1000
thermo_style    custom step temp pe etotal epair emol press lx ly lz vol pxx pyy pzz pxy pxz pyz enthalpy

restart 	${out_freq3} restart.lmp.${pid} restart2.lmp.${pid}
restart 	1000 restart.lmp.${pid} restart2.lmp.${pid}
restart 	1000 restart.lmp.0 restart2.lmp.${pid}
restart 	1000 restart.lmp.0 restart2.lmp.0


include         in.dump
dump            myDump all atom ${out_freq2} dump.water.${pid}
dump            myDump all atom 10000 dump.water.${pid}
dump            myDump all atom 10000 dump.water.0
dump            myDump2 all dcd ${out_freq2} dump.dcd
dump            myDump2 all dcd 10000 dump.dcd
dump_modify     myDump append yes
dump_modify     myDump2 append yes


variable natoms 	equal  "count(all)"                        # NUMBER ATOMS
variable H      	equal  "enthalpy/v_natoms"                 # ENTHALPY-per-atom
variable Vol      	equal  "vol/v_natoms"                 # volume-per-atom
fix AVG all 		ave/time ${out_freq} 1 ${out_freq} v_Vol v_H file vol_enthalpy.dat
fix AVG all 		ave/time 1000 1 ${out_freq} v_Vol v_H file vol_enthalpy.dat
fix AVG all 		ave/time 1000 1 1000 v_Vol v_H file vol_enthalpy.dat


timer           timeout 23:50:00 every 1000
New timer settings: style=normal  mode=nosync  timeout=23:50:00

fix 		1 all shake 1e-6 200 0 b 1 a 1
       0 = # of size 2 clusters
       0 = # of size 3 clusters
       0 = # of size 4 clusters
     288 = # of frozen angles
  find clusters CPU = 0.008 seconds
fix             2 all nph iso ${pressure} ${pressure} ${pressureDamp}
fix             2 all nph iso 9000 ${pressure} ${pressureDamp}
fix             2 all nph iso 9000 9000 ${pressureDamp}
fix             2 all nph iso 9000 9000 1000
fix             3 all temp/csvr ${temperature} ${temperature} ${tempDamp} ${seed}
fix             3 all temp/csvr 267.96 ${temperature} ${tempDamp} ${seed}
fix             3 all temp/csvr 267.96 267.96 ${tempDamp} ${seed}
fix             3 all temp/csvr 267.96 267.96 100 ${seed}
fix             3 all temp/csvr 267.96 267.96 100 745823

run             250000
PPPM initialization ...
  extracting TIP4P info from pair style
  using 12-bit tables for long-range coulomb (../kspace.cpp:340)
  G vector (1/distance) = 0.37450667
  grid = 24 24 24
  stencil order = 5
  estimated absolute RMS force accuracy = 0.0031331539
  estimated relative force accuracy = 9.4353999e-06
  using double precision FFTW3
  3d grid and FFT values/proc = 2535 216
Last active /omp style is kspace_style pppm/tip4p/omp
Neighbor list info ...
  update every 1 steps, delay 7 steps, check yes
  max neighbors/atom: 2000, page size: 100000
  master list distance cutoff = 10.8154
  ghost atom cutoff = 10.8154
  binsize = 5.4077, bins = 4 4 4
  1 neighbor lists, perpetual/occasional/extra = 1 0 0
  (1) pair lj/cut/tip4p/long/omp, perpetual
      attributes: half, newton on, omp
      pair build: half/bin/newton/omp
      stencil: half/bin/3d
      bin: standard
Per MPI rank memory allocation (min/avg/max) = 9.235 | 9.240 | 9.244 Mbytes
Step Temp PotEng TotEng E_pair E_mol Press Lx Ly Lz Volume Pxx Pyy Pzz Pxy Pxz Pyz Enthalpy 
 4250000    282.81126   -3829.0143   -3344.2855   -3829.0143            0    8517.8778    16.924589     19.93493    20.647959     6966.425     7381.533    8750.2984     9421.802   -273.04891    694.67484   -237.73171   -2478.8848 
 4251000    281.54402   -3868.0723   -3385.5155   -3868.0723            0    9086.3374    16.981232    20.001649    20.717064    7036.6056    9959.7712    10495.918    6803.3226    735.30588   -1852.3634    1255.5427   -2453.0604 
 4252000    258.49989   -3849.2147   -3406.1547   -3849.2147            0     7779.813    17.009819     20.03532    20.751939    7072.2022    8019.0538    7551.8038    7768.5813    171.70455    1913.6294   -1681.7017   -2603.7385 
 4253000    267.21854   -3879.3512   -3421.3478   -3879.3512            0    7940.9386    16.999781    20.023496    20.739693    7059.6888    9396.4855    8769.4038    5656.9266    1224.0709   -390.82127   -651.94423   -2603.7621 
 4254000    257.64222   -3871.4299   -3429.8399   -3871.4299            0    9229.8212    16.915662    19.924415    20.637068    6955.4072    6907.7576    10066.816     10714.89    730.11911    807.13034    536.29122   -2493.5901 
 4255000    271.35413   -3840.7018   -3375.6101   -3840.7018            0    9558.1068    16.914449    19.922987    20.635588    6953.9116    7255.3302    9216.2604     12202.73    1151.6846     616.9412     290.1332   -2406.2684 
 4256000    257.55295   -3807.4888   -3366.0519   -3807.4888            0    11414.993    16.890986     19.89535    20.606964    6925.0131    12453.756    10646.977    11144.245   -1446.2183    572.05195     1341.243   -2213.2037 
 4257000    270.85116    -3835.349   -3371.1193    -3835.349            0    8217.9523    16.919074    19.928435    20.641231    6959.6178    9519.8099    8175.3152    6958.7318   -942.32989    41.326245     1679.501   -2537.0063 
 4258000    269.06835   -3855.6793   -3394.5054   -3855.6793            0     8589.438     16.96505    19.982588    20.697321     7016.508    10026.716     9180.945    6560.6533    2174.3697     64.92415    537.98702   -2515.5605 
 4259000    263.84943   -3810.1584   -3357.9295   -3810.1584            0    10480.512    16.929004     19.94013    20.653345     6971.878    9035.4294    11710.731    10695.376    469.39834   -120.47428    1223.5804   -2292.2953 
 4260000    258.30774   -3816.2058   -3373.4752   -3816.2058            0    9246.1461    16.967347    19.985294    20.700124    7019.3585     9480.355    9411.8463    8846.2369   -332.67022   -540.44313   -577.48968   -2426.9458 
 4261000    270.68734   -3845.7674   -3381.8186   -3845.7674            0    8506.9136    16.990954      20.0131    20.728925     7048.698    8746.2322    9725.1858    7049.3229   -1012.0326    1081.7451    611.98016   -2507.3246 
 4262000    283.21981   -3826.3227   -3340.8936   -3826.3227            0    9837.4798    16.906196    19.913266    20.625519    6943.7373    12279.749    9089.3109    8143.3797   -1403.0234    564.54541   -262.67485   -2344.6788 
 4263000    280.98445   -3823.9698    -3342.372   -3823.9698            0    8370.3371    16.969835    19.988225     20.70316    7022.4471    9482.9325    7847.0586    7781.0201   -420.92178   -65.591425   -362.43405   -2485.1224 
 4264000    254.82182   -3842.7378   -3405.9819   -3842.7378            0    7049.4491    17.064371    20.099575    20.818493    7140.4641    7409.0787    6512.0418    7227.2269    2224.9767    38.955402    787.00667   -2671.8781 
 4265000    262.87294   -3851.3044   -3400.7492   -3851.3044            0     10278.07    17.042107    20.073351    20.791331    7112.5521    10208.167    10878.334    9747.7088    474.25791   -808.16488    1883.5687   -2334.6124 
 4266000    283.40937   -3885.2912   -3399.5372   -3885.2912            0    10202.872     16.93958    19.952587    20.666247    6984.9527    10373.247    8886.3565    11349.012   -1244.4308   -736.14644    1165.1136   -2360.1873 
 4267000    281.61188   -3847.2173   -3364.5441   -3847.2173            0    12286.278    16.914688    19.923268     20.63588     6954.206    12012.905    12716.045    12129.883   -743.61068    206.30702    304.49276   -2118.4703 
 4268000    257.01075   -3860.4824   -3419.9747   -3860.4824            0    8089.4146    16.991164    20.013347    20.729181    7048.9594    8425.4507    7145.9427    8696.8505   -1061.9993    69.623408     199.5223    -2588.368 
 4269000    269.37561   -3845.6659   -3383.9654   -3845.6659            0    9630.0213    16.968872     19.98709    20.701984    7021.2513     12148.29    8519.8508    8221.9233    1576.0046    90.861652    -793.2097   -2397.8729 
 4270000    259.58958   -3866.9868   -3422.0591   -3866.9868            0    11161.646    16.915001    19.923636    20.636261    6954.5918    12351.606    9951.8212     11181.51    923.95786   -825.28014     -2173.06   -2289.9826 
 4271000    262.22976   -3850.2445   -3400.7917   -3850.2445            0     8977.072    16.941357     19.95468    20.668416    6987.1514    9727.5698    6877.9512    10325.695    61.798852    2225.4956   -543.37058   -2486.0242 
 4272000     264.6744   -3826.2657   -3372.6229   -3826.2657            0    8179.6576    16.986595    20.007965    20.723606    7043.2738    9187.2995    7832.7432    7518.9303    279.23394   -689.15785    2139.3382   -2532.4172 
 4273000    259.18164    -3872.783   -3428.5545    -3872.783            0    10877.791    16.870568    19.871301    20.582053    6899.9301    12628.882    9440.7784    10563.713    399.14198   -354.11429   -279.35124   -2333.9398 
 4274000    290.33856   -3841.8693   -3344.2389   -3841.8693            0     7017.219    17.015737     20.04229    20.759159    7079.5861    7053.0251     7489.229    6509.4029    662.74584    1224.2255   -93.001249   -2619.7216 
 4275000    275.37559   -3851.0718   -3379.0875   -3851.0718            0    8793.3338    16.976647    19.996248     20.71147     7030.907    9771.7644    8263.9759    8344.2609   -672.85016    -19.42014    -513.7369   -2477.4317 
 4276000    285.07887   -3849.6506   -3361.0352   -3849.6506            0    8493.5513     17.01746    20.044321    20.761262    7081.7377    8413.6806     10829.49    6237.4834    892.38698   -441.21787   -78.663641   -2483.8222 
 4277000    289.36734   -3866.7653   -3370.7996   -3866.7653            0    9800.1105    16.916121    19.924956    20.637628     6955.974    9456.7453    8859.4625    11084.124   -979.89007   -578.10656    -1472.178   -2376.6201 
 4278000    266.65474   -3866.9068   -3409.8697   -3866.9068            0    7866.2348    16.936198    19.948605    20.662122    6980.7708    7298.6626    9361.5523    6938.4896   -567.38145   -371.27204   -722.19915    -2609.029 
 4279000    252.86185   -3871.3191   -3437.9225   -3871.3191            0    7163.7438    16.969916     19.98832    20.703258    7022.5478    5598.3699    9058.7196    6834.1419   -1025.6098    988.43759    1137.0729   -2704.2358 
 4280000    276.34002    -3830.651   -3357.0136    -3830.651            0     7800.528    16.984352    20.005323     20.72087    7040.4841    6884.4446    8902.3158    7614.8236     849.9637   -1463.5426    1044.3143   -2556.0691 
 4281000    266.81491   -3810.8031   -3353.4915   -3810.8031            0    8673.6581    17.014209    20.040491    20.757295    7077.6791    8334.5385    9519.5245    8166.9114    660.45311   -443.44072     762.8855   -2458.1905 
 4282000    281.89687   -3851.6894   -3368.5278   -3851.6894            0    9058.2564    16.951156    19.966223    20.680371    6999.2831    11504.305    5449.0065    10221.458    1270.2253    2257.6651    663.29525   -2443.8849 
 4283000    273.37429   -3835.2127   -3366.6585   -3835.2127            0    8503.8027    16.936491    19.948949    20.662479    6981.1325     9132.259    7534.6406    8844.5085    1556.2772   -467.78091   -1081.7042   -2500.8637 
 4284000    259.01037   -3855.0943   -3411.1594   -3855.0943            0    9439.5892    16.973856     19.99296    20.708064    7027.4394    9618.2523    7127.8536    11572.661   -1289.4826    80.944106    -923.3109   -2443.7148 
 4285000    265.15389   -3892.5524   -3438.0878   -3892.5524            0    7680.4896    16.991651     20.01392    20.729775    7049.5651    9013.7874    5174.8537    8852.8278   -243.08982    1173.3691    1447.8672   -2648.4514 
 4286000    256.44229   -3833.7418   -3394.2085   -3833.7418            0    9184.9539    16.893165    19.897917    20.609622    6927.6938    10681.747     9199.094    7674.0211    1541.2175    771.55006   -399.51038   -2466.2222 
 4287000    267.28615   -3838.7378   -3380.6185   -3838.7378            0    9250.4127    16.959033    19.975501     20.68998    7009.0447    8323.9933    8098.3852    11328.859    464.43674   -477.66194    776.26872   -2435.0439 
 4288000    260.97047   -3814.3141   -3367.0196   -3814.3141            0    7632.5803    16.979579    19.999701    20.715046    7034.5498     6590.155    7413.8967    8893.6892   -198.04616    1412.2489   -958.86945   -2583.9803 
 4289000    271.83053   -3850.4529   -3384.5447   -3850.4529            0      8654.82     16.91373     19.92214    20.634711     6953.025    9119.3939    7473.7897    9371.2765    619.47122    1139.5074   -514.42292   -2506.9222 
 4290000    280.19782   -3876.6695     -3396.42   -3876.6695            0    9188.3573    16.893443    19.898244    20.609961    6928.0353    8905.0091    9513.6513    9146.4116    165.60017    756.87995   -791.15856   -2468.0442 
 4291000    259.76272   -3812.0092   -3366.7847   -3812.0092            0     8237.393    16.927112    19.937902    20.651037    6969.5415    6521.0562    8279.4121    9911.7107    721.60293    389.37831    455.65056   -2529.5064 
 4292000    276.17679   -3848.2631   -3374.9056   -3848.2631            0    8961.6379    16.876037    19.877743    20.588726    6906.6432    7838.5651    9929.8287    9116.5198   -1050.0683    165.30084   -675.35087   -2472.2329 
 4293000    272.38356   -3845.3298   -3378.4737   -3845.3298            0    9223.6963    16.933161    19.945026    20.658416    6977.0152    10110.337    7877.7595    9682.9923   -2297.2337    274.70999   -398.05204   -2439.9385 
 4294000    273.06714   -3856.1501   -3388.1224   -3856.1501            0    9259.8207    16.945347    19.959381    20.673284    6992.0899    10317.637    9839.6205    7622.2049    -585.7482   -451.59389   -1067.6503   -2443.8757 
 4295000    253.40593   -3880.6299   -3446.3008   -3880.6299            0    9641.7654    16.864398    19.864034    20.574527    6892.3631     11249.15    7549.8649    10126.281    -677.6789    1258.2339    456.08496   -2477.1294 
 4296000    272.28676   -3853.9659   -3387.2757   -3853.9659            0    8872.8598    16.935255    19.947493    20.660971    6979.6042    8687.9923    9657.1649    8273.4222   -1219.2511    811.21798    329.62743   -2484.1041 
 4297000    262.14769   -3866.2607   -3416.9485   -3866.2607            0    8220.1519    16.969261    19.987548    20.702459    7021.7342     7537.719    7898.3411    9224.3956   -1945.6796   -478.89036   -641.77316   -2575.1656 
 4298000    276.16379   -3857.4451   -3384.1098   -3857.4451            0    11027.521    16.874555    19.875997    20.586918    6904.8237    12230.157    7808.5998    13043.807   -266.14455   -838.49738    636.35938   -2273.6409 
 4299000    270.04172   -3836.0453    -3373.203   -3836.0453            0    10471.314    16.969334    19.987634    20.702548    7021.8248    10430.611     10015.43    10967.901    1594.5806   -888.53832    338.75273   -2300.8765 
 4300000     257.5633   -3843.0005   -3401.5458   -3843.0005            0     9580.161    16.974487    19.993704    20.708835    7028.2238    9083.4172    7720.0223    11937.043    362.07571    36.949506    73.660382   -2419.5848 
 4301000    264.91004   -3829.8926   -3375.8458   -3829.8926            0    6338.7823    17.000069    20.023836    20.740045    7060.0482    6768.0173    7080.3447    5167.9851   -1265.0606   -105.82107   -521.70238   -2723.1822 
 4302000    264.77992   -3863.6378   -3409.8141   -3863.6378            0    6810.9293    16.973614    19.992675    20.707769    7027.1391    6892.7109    6598.9953    6941.0817   -113.36409    495.77096   -92.839639   -2711.8054 
 4303000    277.15244   -3877.8655   -3402.8357   -3877.8655            0    7363.8263    16.953144    19.968565    20.682796    7001.7462    7680.4039    7162.1358    7248.9393   -7.5598186    357.86132    897.64375   -2650.8912 
 4304000    279.19053   -3846.0644   -3367.5414   -3846.0644            0    9620.4093    16.926603    19.937303    20.650416    6968.9128    9555.4313     9543.246    9762.5507    143.83248    1592.1146   -407.73446   -2389.7764 
 4305000    264.90304   -3861.2318    -3407.197   -3861.2318            0    8819.2825     16.95151     19.96664    20.680803    6999.7216    8379.0861    8158.7731    9919.9885   -422.49667   -1171.2358    1305.4528   -2506.8915 
 4306000    267.31662    -3797.456   -3339.2844    -3797.456            0    10480.722    16.906144    19.913205    20.625456    6943.6735    10408.564     11381.13    9652.4731    837.38288    1250.9652   -1693.0994   -2277.9399 
 4307000    279.79119   -3855.8524   -3376.2998   -3855.8524            0    11664.871     16.87897    19.881197    20.592304    6910.2447    10065.267     11011.28    13918.065   -166.15831     1152.154    415.65514   -2200.7278 
 4308000    271.89294   -3839.7864   -3373.7712   -3839.7864            0    7918.2371    16.935698    19.948015    20.661512    6980.1524    8897.7544    7637.8514    7219.1056    374.36583   -1673.9649   -772.23078   -2567.7077 
 4309000    258.61513   -3802.8077   -3359.5502   -3802.8077            0    10072.084    16.942038    19.955483    20.669247    6987.9943    10053.506     10168.56    9994.1852    174.77286   -786.77872    471.95886   -2333.0767 
 4310000    264.38877   -3883.7749   -3430.6216   -3883.7749            0    9303.4152    16.919868     19.92937      20.6422    6960.5975    9778.1071    8000.0041    10132.134   -1237.3481    602.04877   -1350.9526   -2486.2023 
 4311000    262.46313   -3823.4024   -3373.5496   -3823.4024            0    9446.7448    16.970644    19.989177    20.704146    7023.4512    6920.3051    11314.251    10105.678    89.802898    760.93671    194.07304   -2405.9211 
 4312000    257.64797   -3801.0701   -3359.4703   -3801.0701            0    7626.4444     17.04772    20.079962    20.798178     7119.582    7843.2233    5919.3584    9116.7515    1182.2617    1134.5233    392.97699   -2567.6028 
 4313000    277.21235   -3824.5372   -3349.4048   -3824.5372            0    8757.8237    16.984495    20.005492    20.721044    7040.6624    9442.3923     9086.363    7744.7158    22.371888      1075.16    326.44565   -2450.1441 
 4314000     272.3894   -3846.7188   -3379.8526   -3846.7188            0     8977.766    16.933635    19.945585    20.658995    6977.6016    7491.8104    9412.7239    10028.764   -373.66684     767.1824     1141.955   -2466.2647 
 4315000    270.57749   -3875.9506     -3412.19   -3875.9506            0    9302.4849    16.918657    19.927943    20.640722    6959.1022    10284.548    8324.2773    9298.6289   -923.61085    83.417671   -1080.7224   -2468.0681 
 4316000     282.0027   -3819.5625   -3336.2195   -3819.5625            0    9344.0927    16.955748    19.971631    20.685973    7004.9728    6922.0422     9223.804    11886.432    836.77433   -477.44549     1575.232   -2381.6238 
 4317000    258.19455   -3847.5127    -3404.976   -3847.5127            0    8094.1319    16.955971    19.971894    20.686245    7005.2489    6908.8897    7475.0617    9898.4444    431.15609    707.16208    1436.8855   -2578.0442 
 4318000    262.73437   -3839.6623   -3389.3446   -3839.6623            0    8866.3446    16.973499     19.99254    20.707629    7026.9963    8251.6414    9002.8615    9344.5308   -558.52435   -917.34185   -978.78349    -2480.708 
 4319000    259.78739    -3871.317   -3426.0503    -3871.317            0    8787.5253    16.959309    19.975826    20.690318    7009.3877    6875.5382    9345.3919    10141.646   -871.31787    1559.8296    1273.1615   -2527.7479 
 4320000    275.80625    -3837.075   -3364.3525    -3837.075            0    9137.6495    16.923848    19.934058    20.647055    6965.5107    6483.4368    12371.254    8558.2573    80.674475    561.85167    420.92451   -2436.1059 
 4321000    270.83703   -3862.9796   -3398.7742   -3862.9796            0    8456.4835     17.02965    20.058678    20.776133    7096.9665    5837.9613     8750.443    10781.046     810.7669   -33.667197    1562.9249   -2523.5114 
 4322000    279.77855    -3806.529   -3326.9982    -3806.529            0    8479.0763    16.992386    20.014786    20.730671    7050.4795    8627.8115    8940.3142    7869.1033    1731.6794    1503.0927    732.04508   -2455.1455 
 4323000    247.86509   -3833.9129   -3409.0806   -3833.9129            0    10517.609    16.907119    19.914353    20.626646     6944.875    9004.0847    12258.565    10290.176   -582.82844    1539.0564   -1802.8939   -2343.8164 
 4324000     271.8306   -3852.9009   -3386.9926   -3852.9009            0    9838.6077    16.982106    20.002678     20.71813     7037.692     9083.766    10518.384    9913.6727   -828.02209    128.79952    870.61126   -2377.1823 
 4325000    268.22035   -3853.0316   -3393.3111   -3853.0316            0      6111.96    17.043334    20.074797    20.792828    7114.0889    6211.2825    5935.7486    6188.8489    138.30203   -667.51774    718.92959   -2759.1849 
 4326000    261.96651   -3852.2481   -3403.2465   -3852.2481            0    7574.4996    17.054517    20.087968     20.80647    7128.1008    8078.0045    9157.4381    5488.0562    -1503.061    1465.3192   -76.457869   -2615.8315 
 4327000    260.81023   -3857.9291   -3410.9093   -3857.9291            0    8402.4905    16.956866    19.972949    20.687337    7006.3589    9182.2129    6476.4677    9548.7909     366.3485   -272.64168   -70.161978   -2552.3381 
 4328000    285.78272   -3825.5499   -3335.7281   -3825.5499            0    11101.254    16.977688    19.997474     20.71274    7032.2008    9529.6318    12274.492    11499.638   -952.52986     826.6923    113.22715    -2197.212 
 4329000    245.92603   -3820.9052   -3399.3964   -3820.9052            0    8071.3785    16.997476    20.020782    20.736881    7056.8182     10462.69    7603.2265    6148.2193    704.98086   -403.22899    999.65981   -2568.7187 
 4330000    276.62766   -3814.3482   -3340.2179   -3814.3482            0    9282.6633    17.021158    20.048676    20.765773    7086.3546    7891.6146    10238.973    9717.4024   -188.28988    1452.6519   -901.77869   -2380.8805 
 4331000    267.05439   -3837.4671    -3379.745   -3837.4671            0    9359.2599    16.986521    20.007879    20.723516    7043.1826     9929.757    7891.1763    10256.846   -995.85293   -2234.8808    1053.2657   -2418.3843 
 4332000    263.99264   -3863.1647   -3410.6903   -3863.1647            0    9153.9715    16.913701    19.922105    20.634675    6952.9883    9489.8154    7660.5372    10311.562    504.47139   -824.58015   -1642.3996   -2482.4574 
 4333000    257.17799   -3854.7078   -3413.9136   -3854.7078            0    7857.5924    16.964475    19.981911     20.69662    7015.7945    8849.1508    5736.5928    8987.0337   -771.76803   -562.61679   -833.92421   -2609.9391 
 4334000    279.60469   -3812.5002   -3333.2673   -3812.5002            0    10549.171    16.877939    19.879983    20.591046    6908.9782     11679.45    9610.5552    10357.507    1949.8452    377.54548    2728.6609   -2270.3291 
 4335000    263.94719   -3854.2363   -3401.8399   -3854.2363            0    10591.664    16.923963    19.934192    20.647195    6965.6517    11126.138    9956.4238    10692.431   -1312.6445   -1268.4413    252.74802   -2325.8657 
 4336000    265.35842   -3847.5882   -3392.7729   -3847.5882            0    8015.4838    16.993574    20.016186    20.732121    7051.9595     9819.675    9111.6944    5115.0822    41.776213    -171.4236    474.02047   -2568.4157 
 4337000    256.23864    -3834.187   -3395.0027    -3834.187            0    10456.195    16.934957    19.947143    20.660608    6979.2364    10470.129    9448.6447    11449.811    1948.5814   -853.16605    1271.0169   -2330.7189 
 4338000    265.10207   -3813.8261   -3359.4502   -3813.8261            0    7700.7484    17.040134    20.071027    20.788924    7110.0822     8299.729    9234.7205    5567.7956   -2459.2672    2402.6385    237.08383   -2560.9345 
 4339000    267.97086    -3869.401   -3410.1081    -3869.401            0    8917.9586    16.969029    19.987274    20.702175    7021.4458    8488.9754     8941.946    9322.9545    607.73789    580.35845   -855.34085   -2496.9039 
 4340000    274.19131   -3841.0884   -3371.1339   -3841.0884            0    10363.457    16.896534    19.901886    20.613732    6931.8393    9428.0966    10734.255     10928.02   -723.61012    916.26648   -300.40116   -2323.4529 
 4341000    248.94095   -3842.3363     -3415.66   -3842.3363            0    7594.7853    16.937348    19.949958    20.663525    6982.1921    8430.0446    5226.2014    9128.1099   -275.32399    43.425427   -461.53038   -2642.2974 
 4342000    286.18794   -3853.9745   -3363.4582   -3853.9745            0    7698.7757    16.930977    19.942454    20.655752    6974.3161    6678.1924    8133.0751    8285.0597    224.86693    1448.7038    514.35997   -2580.3907 
 4343000    254.90397   -3842.2916   -3405.3949   -3842.2916            0    7105.0512    16.962958    19.980124    20.694769    7013.9123    8105.4384     7929.819    5279.8961     1412.888    -242.6434     401.7111   -2678.6141 
 4344000    262.94572   -3842.3816   -3391.7016   -3842.3816            0    8898.3361    16.922534    19.932509    20.645451    6963.8874    10943.383    9537.0397    6214.5858   -1128.7947    1303.0635    255.11278   -2487.9763 
 4345000    264.71906   -3850.6739   -3396.9545   -3850.6739            0     12009.63    16.825735    19.818494    20.527358    6845.0677    12641.783    11412.694    11974.414    411.49814    285.30106    72.630688   -2198.0536 
 4346000    267.85545   -3824.8427   -3365.7476   -3824.8427            0    8828.8585    16.968048    19.986119    20.700978    7020.2278    8909.8994    7286.8561     10289.82   -1457.4657   -964.40586    1289.3785   -2461.8241 
 4347000    277.45997   -3864.1334   -3388.5765   -3864.1334            0    8896.8276    16.942627    19.956177    20.669965    6988.7232    11177.241    6165.1663    9348.0758   -1330.7624   -1535.2606    171.91877   -2481.7819 
 4348000     265.6075   -3874.6547   -3419.4126   -3874.6547            0    8991.2119    16.916326    19.925197    20.637878    6956.2265    10269.475    8913.6143    7790.5462   -774.57332     324.0757    656.02252   -2507.2593 
 4349000    262.67183   -3847.1359   -3396.9253   -3847.1359            0    9767.9465    16.933559    19.945496    20.658903    6977.5081    10406.329    9346.7236    9550.7868   -404.55598   -163.82209   -482.26811   -2402.9411 
 4350000    270.90984   -3889.5517   -3425.2215   -3889.5517            0    6992.1421    16.943839    19.957604    20.671444    6990.2232    7977.2725    7655.8192    5343.3345   -1026.2534    1327.4445   -513.70335    -2712.406 
 4351000    261.88992   -3876.3876   -3427.5172   -3876.3876            0    7945.8384    16.936543    19.949011    20.662543    6981.1971    6692.5689    8921.5346    8223.4115   -114.56777   0.46339768    1095.7821   -2618.5228 
 4352000    272.52594   -3849.5895   -3382.4894   -3849.5895            0     9062.581    16.915021     19.92366    20.636286    6954.6166    8672.4621    8020.3334    10494.947    2727.8677   -950.23003     661.7562   -2463.3085 
 4353000    270.54899    -3850.455   -3386.7433    -3850.455            0    10134.288    16.906139    19.913198     20.62545    6943.6668    9611.6902    10779.405    10011.769   -1047.8902    1779.2708    -28.37437   -2360.4818 
 4354000      264.319   -3852.1268   -3399.0931   -3852.1268            0    6706.0449    16.972577    19.991453    20.706504    7025.8508    5754.0937    6723.3929    7640.6481    822.63122    134.04182    97.530201   -2711.9593 
 4355000    268.83883   -3810.1516    -3349.371   -3810.1516            0    9825.3188    16.950587    19.965552    20.679676    6998.5779    10567.254    10021.894    8886.8082   -1167.0025    59.364652    314.50335   -2346.5294 
 4356000    265.15686   -3840.2417   -3385.7719   -3840.2417            0    11548.286    16.891859    19.896379    20.608028    6926.0868    12528.709    11575.249      10540.9   -101.85013   -749.32065   -1100.2518    -2219.281 
 4357000     269.5005   -3862.5711   -3400.6564   -3862.5711            0    8477.2205    16.911139    19.919088    20.631551    6949.8302    8502.5293    7527.6238    9401.5083    -1851.838    130.99954   -265.49491    -2541.438 
 4358000    268.25071   -3840.7764   -3381.0039   -3840.7764            0    9094.3449    16.964974    19.982498    20.697229    7016.4136    7831.5895    9441.8228    10009.622    53.923696   -1614.8254   -406.96253   -2450.4051 
 4359000    280.79589   -3861.1432   -3379.8686   -3861.1432            0    9739.2252    16.869088    19.869557    20.580247    6898.1141    9890.0847    10153.404    9174.1863    508.15519   -9.3586177   -598.50382   -2400.0839 
 4360000    257.09754   -3810.1011   -3369.4447   -3810.1011            0    9465.6464    16.879155    19.881415     20.59253    6910.4718    7538.9845    10388.356    10469.598   -899.83073   -513.58571    2447.1285   -2415.4765 
 4361000    263.43478   -3826.7063   -3375.1881   -3826.7063            0    8771.1049    16.965744    19.983406    20.698169    7017.3696    8415.7393    7544.6166    10352.959   -94.543709   -615.18621    361.72727   -2477.5433 
 4362000    270.51626   -3847.1655   -3383.5099   -3847.1655            0    8256.4659    17.002388    20.026568    20.742874    7062.9377    7687.9017    7564.0711    9517.4249    1333.3654    -1220.381   -531.96803   -2533.0468 
 4363000    263.72888   -3842.2662   -3390.2439   -3842.2662            0    7519.2842    17.032272    20.061767    20.779332    7100.2453    6953.4665    8355.5437    7248.8425    -1275.688    30.919809   -235.97438   -2611.6236 
 4364000    270.95314   -3822.7813   -3358.3768   -3822.7813            0    8355.4077    17.078094    20.115738    20.835234    7157.7043    8427.3379    6240.2539    10398.631    2288.6959    969.89218     1192.484   -2486.1744 
 4365000    279.93952   -3869.0297    -3389.223   -3869.0297            0      8781.31    17.049494    20.082052    20.800343    7121.8053    9990.1699    7395.1192    8958.6411     -319.728   -462.75893    282.93709    -2477.159 
 4366000    251.26139   -3872.7174    -3442.064   -3872.7174            0    7234.3384    16.990676    20.012773    20.728586    7048.3522    5723.6393    7274.3982    8704.9777    634.54554     1092.272    509.96739   -2698.4247 
 4367000    256.47233   -3918.9814   -3479.3966   -3918.9814            0    8121.0753    16.974092    19.993239    20.708353    7027.7332    6173.6989    10122.955    8066.5722   -594.14082    1134.5406    337.31914   -2647.0491 
 4368000    270.50991   -3927.8425   -3464.1977   -3927.8425            0    9090.3948     16.93733    19.949937    20.663503    6982.1701     9398.882     8974.989    8897.3133     893.6117   -715.53064    486.59836   -2538.5429 
 4369000    271.23303   -3891.9568   -3427.0726   -3891.9568            0     8122.266    16.981193    20.001602    20.717015    7036.5562    6523.9721    8646.6715    9196.1544    1904.1692    999.25717   -328.45789   -2593.5579 
 4370000    269.98047   -3882.1324   -3419.3951   -3882.1324            0     9395.816    16.937216    19.949804    20.663364    6982.0296    8178.7372    8709.5079    11299.203    2074.2443    221.94721    43.251872   -2462.6592 
 4371000    274.71559   -3919.1282   -3448.2751   -3919.1282            0    7735.6168     16.94843    19.963012    20.677045    6995.9065    9107.5799    5845.4532    8253.8173    150.60791   -908.27833     13.06884   -2659.0247 
 4372000    282.22412   -3867.2075    -3383.485   -3867.2075            0    10055.713     16.95686    19.972941     20.68733    7006.3512     11635.86     9613.431    8917.8489     731.4239   -269.03114    236.39506   -2355.9878 
 4373000    268.87492   -3906.7816   -3445.9392   -3906.7816            0    9249.9519    16.875037    19.876564    20.587505    6905.4148    8996.6425    9283.6745    9469.5388    1385.0677    -597.5821    1165.4698   -2514.3914 
 4374000    274.11328   -3834.2022   -3364.3814   -3834.2022            0    7148.4481     16.94443    19.958301    20.672165    6990.9548    6734.7698    6225.8807     8484.694    2516.4152    71.243186   -11.727952   -2635.5549 
 4375000    284.11282   -3834.1665   -3347.2068   -3834.1665            0    9678.9311    16.948856    19.963514    20.677565    6996.4347    9547.8845    9757.3782    9731.5308    186.04368    805.38601    182.88774   -2359.6091 
 4376000    265.43283   -3844.3803   -3389.4375   -3844.3803            0     8206.024    16.967932    19.985983    20.700838     7020.085     8840.157    8614.1888    7163.7261    -291.5175     -81.7463   -335.98655   -2549.2987 
 4377000    271.25313   -3857.9232   -3393.0046   -3857.9232            0    9522.7334    16.943455    19.957152    20.670975    6989.7475    8871.7602    10727.516    8968.9239   -173.09215   -350.50415   -154.65426   -2422.2734 
 4378000    269.20517   -3849.3867   -3387.9783   -3849.3867            0     8086.249    16.941725    19.955115    20.668865    6987.6075    8639.7159     8995.548    6623.4832   -1723.5915    542.06252   -689.81089   -2563.9322 
 4379000    274.86553   -3833.8936   -3362.7835   -3833.8936            0    8381.8954    16.944704    19.958623    20.672499    6991.2935    9216.3471    8032.4385    7896.9005   -205.10783   -450.72624   -2020.4943   -2508.1584 
 4380000    265.78654   -3871.6774   -3416.1284   -3871.6774            0    8586.0761    16.992104    20.014455    20.730328    7050.1296    9253.0516    8650.4126    7854.7642   -394.16657    550.26792    -579.2613   -2533.3174 
 4381000     260.4343    -3856.965   -3410.5895    -3856.965            0    8497.4189    16.911726    19.919779    20.632266    6950.5534    9275.6411     8222.403    7994.2127   -425.16821     288.7237   -414.27704   -2549.2342 
 4382000     282.7767   -3849.1767   -3364.5071   -3849.1767            0    5722.0761    17.031516    20.060876    20.778409    7099.2991    7655.8499    4350.2542    5160.1242   -884.41623    -27.06186    835.34879   -2772.0663 
 4383000    260.87953   -3846.0454   -3398.9068   -3846.0454            0    7584.2926    16.983055    20.003796    20.719288    7038.8717    5923.6411    8134.3693    8694.8673   -1426.7686   -745.73068   -448.24051   -2620.3433 
 4384000    268.36113   -3887.7694   -3427.8076   -3887.7694            0    8259.6335      16.9765    19.996075    20.711291    7030.7247    9251.2965    8158.9226    7368.6813   -1187.1175    266.64595   -928.37108   -2580.8986 
 4385000    261.09889   -3860.3186   -3412.8041   -3860.3186            0    10224.659    16.891764    19.896267    20.607913    6925.9705    9731.2186    12421.198    8521.5593   -220.99779    747.83368    -1201.897     -2380.03 
 4386000     262.2915   -3846.0015   -3396.4429   -3846.0015            0    8059.9119    16.932915    19.944737    20.658117    6976.7114    6916.3481    9605.5623    7657.8255   -958.68842     2694.717   -1229.1286   -2576.3615 
 4387000    252.02705    -3840.326   -3408.3602    -3840.326            0    9169.8467    16.950078    19.964953    20.679055    6997.9476    9312.4531    9491.9877    8705.0992    454.63734    555.78344    154.56815    -2472.505 
 4388000    280.74692   -3882.5444   -3401.3538   -3882.5444            0    7489.3002      16.9732    19.992187    20.707264    7026.6246    7808.6437    6377.3651    8281.8918   -714.16462    762.64927   -1294.6661   -2633.8794 
 4389000    250.53381   -3885.8595   -3456.4531   -3885.8595            0    9919.3064    16.961055    19.977882    20.692447     7011.552     10437.22    9663.0514     9657.648    681.79271   -420.87362   -112.98982   -2442.1416 
 4390000    269.78716   -3852.5539   -3390.1479   -3852.5539            0    8872.6399    16.935234    19.947468    20.660946    6979.5782     10414.62    9083.9723    7119.3274   -1169.4105    371.26595    520.21903    -2487.002 
 4391000    264.94254   -3864.9284   -3410.8259   -3864.9284            0    10736.646     16.94863    19.963247    20.677289    6996.1543    10669.049    9014.3592    12526.529    1198.9432    1687.7572    265.82401   -2315.3473 
 4392000    252.97255   -3831.8421   -3398.2558   -3831.8421            0    8903.5014    16.991777    20.014069    20.729928    7049.7217    8922.2727    9526.0232    8262.2084    943.63233    1521.0594    345.86937   -2482.8605 
 4393000    260.09255   -3833.6979   -3387.9082   -3833.6979            0    8262.4084     17.00261    20.026829    20.743145    7063.2145     6504.535    9581.7137    8700.9765   -1681.4711   -1183.4888    1706.8755   -2536.7996 
 4394000    279.21703   -3850.6073   -3372.0389   -3850.6073            0    11104.787    16.982962    20.003686    20.719174    7038.7556    11667.523    10772.573    10874.266   -786.94061     902.9898   -873.58578   -2232.0989 
 4395000    272.44114   -3811.6252   -3344.6704   -3811.6252            0    9584.4711     16.93773    19.950408    20.663991    6982.6645    8979.3704    10390.781    9383.2614    1465.7878   -1249.3303   -389.98157   -2368.6358 
 4396000    259.15719   -3851.1834   -3406.9968   -3851.1834            0    6092.0384     17.03168    20.061069    20.778609    7099.5043    5494.0653     5768.767    7013.2831   -143.83337    718.11252   -581.64396   -2776.2333 
 4397000    266.37011   -3863.1522   -3406.6029   -3863.1522            0    7596.4992    17.027355    20.055975    20.773334    7094.0978    9233.7825    7399.4016    6156.3136    187.16874    992.46563    1415.2141    -2620.668 
 4398000    266.81233    -3855.398   -3398.0908    -3855.398            0    9434.7251    16.900216    19.906222    20.618224    6936.3715    8687.1735    9692.2409     9924.761    731.78061    839.69859   -1335.8351   -2443.6753 
 4399000    283.69277   -3801.1995   -3314.9598   -3801.1995            0    8443.1843    16.983572    20.004404    20.719918    7039.5138    8232.6948    8324.5801     8772.278    1019.9657    1110.4057   -23.126665   -2448.1479 
 4400000    254.04459   -3832.0965   -3396.6728   -3832.0965            0    8032.1961     17.06841    20.104332     20.82342    7145.5354     8985.891    7713.4602     7397.237   -1362.1389   -68.159057    145.53806   -2559.6352 
 4401000    277.38553   -3845.0078   -3369.5785   -3845.0078            0    9242.2139    16.967649     19.98565    20.700492    7019.7334    9843.7241    9755.1182    8127.7993    1310.1761   -1203.7934   -1000.1026   -2423.4012 
 4402000    268.68908   -3860.9154   -3400.3915   -3860.9154            0    7939.6238    16.954473    19.970129    20.684417    7003.3921     7008.865    9326.7849    7483.2215   -883.92124    998.83724   -596.54052   -2589.4599 
 4403000    263.78538   -3819.0446   -3366.9255   -3819.0446            0    9770.2734    16.983335    20.004126    20.719629    7039.2199      10028.8    8742.6951    10539.326    637.80237    341.03788   -1053.2809   -2363.9112 
 4404000    250.22165   -3811.0769   -3382.2056   -3811.0769            0     9338.882    16.977135    19.996823    20.712065    7031.5136    8972.7004    8986.9951    10056.951    832.06652    1169.6506     652.5631   -2424.5274 
 4405000    275.41702   -3846.2835   -3374.2281   -3846.2835            0    10052.078    16.951212    19.966289    20.680439    6999.3525    8842.3784    11681.936    9631.9206    1460.0353    360.69603   -1078.9559   -2348.1283 
 4406000    252.86144   -3865.1921   -3431.7962   -3865.1921            0    8692.1549    17.023978    20.051997    20.769213    7089.8777    7911.8267    9758.9596    8405.6785    1228.0404    320.01769    601.58381   -2533.0396 
 4407000     258.7652   -3823.3973   -3379.8826   -3823.3973            0    10097.966    16.891097    19.895481    20.607099    6925.1496    8890.1974    8671.8647    12731.837    641.08656    931.59325   -1676.6972   -2360.0264 
 4408000    286.34026    -3873.414   -3382.6366    -3873.414            0     8858.245    16.933314    19.945207    20.658603    6977.2048    8143.6124    8120.6737    10310.449    268.30475    -199.3023    625.88492   -2481.2625 
 4409000    257.58426   -3813.1118   -3371.6212   -3813.1118            0    10352.379     16.89962    19.905521    20.617497    6935.6384    9524.1046    11038.697    10494.334   -1346.1603   -733.09396     1566.041   -2324.4866 
 4410000    273.16122   -3825.6731   -3357.4841   -3825.6731            0    9559.4191    16.980594    20.000897    20.716285     7035.812     8582.462    11359.126    8736.6694    738.51791    310.02159   -352.28234   -2376.5912 
 4411000    259.64998   -3849.1732    -3404.142   -3849.1732            0     10591.94    16.932662     19.94444    20.657808    6976.3993    12114.986    8301.6209    11359.213    1852.6536   -537.94142   -433.94121   -2326.4796 
 4412000    280.44479   -3882.3622   -3401.6894   -3882.3622            0    9173.9262    17.000966    20.024893    20.741139    7061.1658    9365.1811    8191.5164    9965.0812    555.01954    2023.9226    1345.8549   -2456.9597 
 4413000    269.58852   -3829.8242   -3367.7587   -3829.8242            0    9981.2506    16.922868    19.932903     20.64586    6964.3005    11047.831    9489.3343    9406.5866    338.50304    1166.0308   -204.85132   -2353.9913 
 4414000    264.18035   -3847.5192   -3394.7231   -3847.5192            0    9207.6825    16.969659    19.988016    20.702944    7022.2277    8348.0765    9572.1963    9702.7747    405.42512   -1954.1971    982.74857   -2451.7461 
 4415000    265.55488   -3841.6311   -3386.4791   -3841.6311            0    9024.6284    16.946174    19.960354    20.674293    6993.1134    8543.0162    8544.3769     9986.492   -174.55414    268.67312    854.69673   -2466.0809 
 4416000    278.86918   -3837.9674   -3359.9952   -3837.9674            0    10157.456    16.897873    19.903462    20.615366    6933.4871    9727.3702    10613.274    10131.722    491.17485   -446.26467    136.79297   -2332.8957 
 4417000    253.45147   -3856.5399   -3422.1327   -3856.5399            0    8789.2495    16.906598     19.91374     20.62601    6944.2331    7937.0156    8127.6089    10303.124    1474.9774   -833.42012   -1979.1628   -2532.0057 
 4418000    281.55405   -3826.0072   -3343.4332   -3826.0072            0    9382.1576    16.882892    19.885816    20.597088     6915.062     10359.56    9316.2146    8470.6976    -561.0731   -1132.0811   -939.75705   -2397.2512 
 4419000     279.6863   -3861.8229   -3382.4501   -3861.8229            0    8326.5945    16.960197    19.976872    20.691401    7010.4885    8030.8236    8075.3623    8873.5977   -652.46604    806.70597    437.57145   -2531.1326 
 4420000     270.4317   -3800.8395   -3337.3289   -3800.8395            0    8667.4048    16.967706    19.985717    20.700562     7019.804    8413.6516    9063.7146    8524.8482   -1553.4531    1509.2139   -1099.4434   -2449.9891 
 4421000    257.54213   -3814.0524    -3372.634   -3814.0524            0     9720.643    16.955025     19.97078    20.685091    7004.0766    9055.8784    10885.264    9220.7866   -122.21056    636.80493    235.04578   -2379.6968 
 4422000    278.21111   -3874.6453    -3397.801   -3874.6453            0    9981.4851    16.978994    19.999012    20.714333    7033.8232    11319.759    6705.0353    11919.661     568.5802   -47.232463   -471.79497   -2373.8893 
 4423000    262.88335   -3835.6245   -3385.0514   -3835.6245            0    9407.2071    16.966374    19.984148    20.698937     7018.151    8363.8985     9386.369    10471.354     477.3172   -337.51747   -1641.2589   -2422.1999 
 4424000    260.33957    -3835.387   -3389.1739    -3835.387            0    9710.2665    16.961736    19.978684    20.693278    7012.3963    9577.0723    9102.2346    10451.493   -504.46018   -204.48655   -612.21768   -2396.1184 
 4425000    269.44139   -3808.5889   -3346.7756   -3808.5889            0    10716.775    16.927719    19.938617    20.651778     6970.291    11306.227    10115.848    10728.249     -742.124   -1704.1828   -138.24851   -2257.3667 
 4426000    273.93839   -3849.1423   -3379.6212   -3849.1423            0    9149.0784    16.918486    19.927742    20.640514    6958.8921    8542.5094    8371.7601    10532.966   -444.38706    1348.0844   -637.34642   -2451.0968 
 4427000    278.83866   -3815.1363   -3337.2164   -3815.1363            0    8154.3965    16.912394    19.920567    20.633082    6951.3777        10016    6693.0005    7754.1891   -1719.9743    926.63103   -704.10359   -2510.5342 
 4428000    259.42292   -3824.3253   -3379.6833   -3824.3253            0    7572.5198    16.937567    19.950217    20.663792    6982.4635    7827.8253    7926.9463    6962.7879    826.52171    403.78832    171.53574    -2608.558 
 4429000    269.74367    -3839.199   -3376.8676    -3839.199            0    8310.6087    16.907842    19.915205    20.627528    6945.7657    6781.4834    10082.166    8068.1766   -434.52069   -503.27864    2363.1359    -2535.029 
 4430000    260.47484    -3823.104    -3376.659    -3823.104            0    7349.0955    16.897333    19.902826    20.614706     6932.822    4951.1505    9106.5818    7989.5543    264.99419    46.481962    77.724825    -2633.606 
 4431000    275.24779   -3866.4567   -3394.6914   -3866.4567            0    9116.4525    16.942741    19.956311    20.670105    6988.8644    9499.9331    7427.2468    10422.178    748.05476    226.06538     820.3364   -2465.4931 
 4432000    279.09382   -3821.8072     -3343.45   -3821.8072            0    10157.652    16.947753    19.962215    20.676219    6995.0686     13769.66    7764.3153    8938.9803   -618.76361   -557.19988     2103.473   -2307.2079 
 4433000    269.23784   -3877.4911   -3416.0266   -3877.4911            0    7940.8646    16.993483    20.016078    20.732009    7051.8451    8963.1531     7515.486    7343.9547    644.28496    289.57641   -346.99095   -2599.3569 
 4434000    265.64365   -3865.0646   -3409.7605   -3865.0646            0    7017.7327    16.983783    20.004653    20.720175    7039.7763    4958.9874      6649.16    9445.0505    341.22834    3.6082986    482.33149   -2689.2645 
 4435000    269.31896   -3852.5181   -3390.9146   -3852.5181            0    9666.2409     16.95204    19.967264    20.681449     7000.378    11872.503    8165.2229    8960.9973   -28.852802    701.53821   -1681.3822   -2404.0559 
 4436000    271.68269    -3842.692   -3377.0371    -3842.692            0    9243.7472    16.962187    19.979215    20.693828    7012.9559    8698.9793    9104.3653    9927.8969    1310.2556   -254.19319    812.20552   -2431.6165 
 4437000    257.29026    -3847.911   -3406.9243    -3847.911            0      9451.28    16.930475    19.941864     20.65514    6973.6966    9017.5945     9545.268    9790.9774    266.07402    413.71456   -857.40549   -2445.6893 
 4438000    279.44616   -3836.9917   -3358.0306   -3836.9917            0    9580.7824    16.962731    19.979856    20.694492    7013.6306    8467.8125    11325.154    8949.3804   -403.26312    2098.2525    661.65295   -2378.0448 
 4439000    255.90988   -3830.0854   -3391.4646   -3830.0854            0    12582.343    16.839368    19.834552     20.54399    6861.7199    11651.641    13947.571    12147.817   -1350.6617    333.20428    1131.4911   -2132.3351 
 4440000    280.00211   -3808.4524   -3328.5383   -3808.4524            0    10192.492    16.952864    19.968234    20.682454    7001.3985    10060.018    8813.1044    11704.352    203.60037    978.30509    831.34333   -2287.8012 
 4441000    277.90087   -3833.5941   -3357.2815   -3833.5941            0    9785.8012    16.977106    19.996789     20.71203    7031.4774    10539.424    7912.4194    10905.561    2510.6273    1074.6346    336.09391   -2353.7781 
 4442000    270.51204    -3825.386   -3361.7376    -3825.386            0    8900.9643    16.932917     19.94474     20.65812    6976.7147    10779.673    7720.8273    8202.3928    137.95736    322.81601    2583.2817   -2456.0803 
 4443000    276.72115   -3861.3898   -3387.0992   -3861.3898            0    7474.1032    16.986219    20.007522    20.723147    7042.8063    6659.6721    8045.8782    7716.7594   -39.826714    535.54722   -93.710637   -2619.4183 
 4444000    267.11569   -3818.2107   -3360.3835   -3818.2107            0    10470.019    16.963739    19.981044    20.695723     7014.882    8597.8478    10097.334    12714.875    332.72304    634.91546   -839.66031   -2289.2497 
 4445000    259.80942    -3831.707   -3386.4025    -3831.707            0    9122.1174    16.951643    19.966796    20.680965    6999.8863    6945.7456     9801.385    10619.221   -384.73655   -418.01727   -615.24872   -2455.1606 
 4446000     271.1484   -3848.3523   -3383.6132   -3848.3523            0    7054.8805    17.016597    20.043303    20.760208    7080.6592    6129.5029    9328.3961    5706.7424   -534.93644    187.41634  -0.57318339    -2655.097 
 4447000    252.54725   -3819.8089   -3386.9516   -3819.8089            0    8749.5899     16.96755    19.985533    20.700371    7019.6104    7925.8617     9439.007     8883.901    351.32272   -50.935923    588.61689   -2491.2226 
 4448000    271.07122   -3833.8294   -3369.2226   -3833.8294            0     8399.798    16.949247    19.963974    20.678042    6996.9183    7483.4056    9906.8372    7809.1514   -6.6916265     372.2469    1638.6316    -2512.083 
 4449000    278.61218   -3834.6677   -3357.1359   -3834.6677            0    8370.3379    16.972882    19.991813    20.706876    7026.2301    7579.4385    7389.1311    10142.444    380.76845    359.91835    1355.4795   -2499.4244 
 4450000    257.98277    -3811.647   -3369.4733    -3811.647            0    11317.205    16.893715    19.898565    20.610293    6928.3705    10537.631    11716.128    11697.855     570.1849    1047.7442    629.63491    -2225.947 
 4451000    281.86399   -3857.8609   -3374.7557   -3857.8609            0     9934.757    16.915282    19.923968    20.636604    6954.9386    10298.716    9122.8275    10382.728    1680.8423   -1714.3117    820.61549   -2367.0669 
 4452000    268.48142   -3847.2511   -3387.0831   -3847.2511            0    8330.6216    16.994563    20.017351    20.733327    7053.1903     10163.57    7652.6531    7175.6417   -440.50081    1239.4951   -502.86324   -2530.1659 
 4453000    264.24603   -3864.5827    -3411.674   -3864.5827            0    8467.1259    16.934959    19.947145    20.660611     6979.239    7722.6403    9358.1468    8320.5907    598.27267    247.51384    92.578404   -2549.8472 
 4454000    261.35021   -3857.6421   -3409.6968   -3857.6421            0    7548.7159    16.950714    19.965702    20.679832    6998.7356    8936.9735     6378.171    7331.0031    199.47757    -262.8054   -658.63559    -2639.204 
 4455000    264.82126   -3879.9543   -3426.0597   -3879.9543            0    7367.0005    16.939419    19.952398    20.666051    6984.7539      6909.03    6037.2625    9154.7088   -436.01211    1585.4909    1421.5127   -2675.6167 
 4456000    267.20043   -3866.3618   -3408.3894   -3866.3618            0    8854.2978    16.992178    20.014541    20.730417    7050.2208    10228.837    8057.3042    8276.7526   -918.49846    1163.5552   -814.28734   -2497.9884 
 4457000    271.76624   -3855.0533   -3389.2552   -3855.0533            0     11606.78    16.915203    19.923875    20.636508    6954.8415    11219.373    12437.005    11163.964    58.985533   -585.35872   -1433.8944   -2211.9885 
 4458000    261.85788   -3825.4849   -3376.6695   -3825.4849            0    7782.9773    17.057381    20.091341    20.809965    7131.6926    9022.6969    7113.5753    7212.6599   -1424.8262    42.526267   -507.67681   -2567.1743 
 4459000    266.91046   -3849.6182   -3392.1428   -3849.6182            0    7057.1813    17.003289    20.027629    20.743973    7064.0608    7197.0727    7062.3808    6912.0904   -204.44085   -3220.0741    1348.1898   -2665.0973 
 4460000    255.11111   -3823.9154   -3386.6636   -3823.9154            0    7849.9851     17.05355    20.086829    20.805291    7126.8889    7246.5157    9905.2831    6398.1566    1104.3644     908.3436    502.97898    -2570.749 
 4461000    258.83923    -3859.575   -3415.9335    -3859.575            0    8451.1252    16.997343    20.020625    20.736719    7056.6524    9126.5365     7003.166    9223.6731   -935.09481    1465.3686   -66.965054    -2546.194 
 4462000     272.9104   -3855.9144   -3388.1553   -3855.9144            0    10015.597    17.010981    20.036688    20.753357    7073.6515    10634.449    9680.3798    9731.9618    824.67747    33.805195   -770.33381   -2354.9268 
 4463000    271.38116    -3854.913   -3389.7749    -3854.913            0    8468.5547    17.026166    20.054574    20.771882    7092.6111    9895.6328    6798.0965    8711.9347   -1045.8103   -729.18403    -33.86565   -2513.8007 
 4464000    264.42139   -3880.5154   -3427.3061   -3880.5154            0    7548.3674    16.954051    19.969632    20.683902    7002.8695    8366.0347    7883.5613    6395.5062    436.64602   -362.88977   -782.56854   -2656.3939 
 4465000    257.18208   -3908.2685   -3467.4672   -3908.2685            0    8368.4315    16.890562    19.894851    20.606446    6924.4917    7346.5478    10166.287    7592.4602    646.25799   -229.13232    1819.3848   -2622.3677 
 4466000    258.27571   -3853.2218    -3410.546   -3853.2218            0    9216.8161    16.970957    19.989545    20.704528    7023.8394     9184.173    8545.2261     9921.049   -208.39779   -596.81321    981.82402   -2466.4169 
 4467000    251.58523   -3849.7274    -3418.519   -3849.7274            0    8822.1866    16.975732     19.99517    20.710353    7029.7699    9111.7205    8109.0555    9245.7838   -903.03504    337.59497    477.18642   -2514.0509 
 4468000    275.93681   -3833.4018   -3360.4556   -3833.4018            0    9408.8405    16.918325    19.927552    20.640317    6958.6926    9740.5469    8419.0857    10066.889    589.03562    952.71226    743.38938   -2405.5957 
 4469000    266.39182    -3791.063   -3334.4766    -3791.063            0    10086.593    16.928631    19.939691     20.65289    6971.4173    10426.229    9733.0097     10100.54   -33.181756    988.55132   -582.64204   -2308.9629 
 4470000    252.65625   -3829.4059   -3396.3617   -3829.4059            0    9440.3556    16.979348    19.999429    20.714764    7034.2627    8932.5825    8773.8331    10614.651   -1967.9534    1177.0025    5.2895676   -2427.8991 
 4471000    259.75099   -3825.2534   -3380.0491   -3825.2534            0    8549.8983    16.982141    20.002719    20.718173    7037.7353    7599.4998    8373.5332    9676.6618   -1616.8141   -1800.3332    982.44908   -2502.5033 
 4472000    259.76447   -3848.2129   -3402.9855   -3848.2129            0    7239.8236    17.026575    20.055057    20.772382     7093.123     6494.249    7950.9613    7274.2605    1579.6719    343.79214    516.13542   -2654.0553 
 4473000    260.91682   -3856.1441   -3408.9416   -3856.1441            0    8062.3224    16.949947    19.964798    20.678896    6997.7852    9047.4911    6470.9339    8668.5421    -333.1578   -982.48973    1691.5221   -2586.1371 
 4474000    275.46294    -3872.194     -3400.06    -3872.194            0    7976.5046    16.966107    19.983833    20.698611    7017.8197    7751.2047    9613.4882    6564.8208   -407.07789    200.48021   -455.79747    -2583.683 
 4475000    262.81751   -3857.2236   -3406.7634   -3857.2236            0    9684.1624    16.903397    19.909969    20.622105    6940.2893    8831.3491    8763.8626    11457.276   -1268.0834    689.36203   -1472.9939   -2426.5615 
 4476000    277.30213   -3877.9972   -3402.7108   -3877.9972            0    11270.742    16.908949    19.916508    20.628878    6947.1302    10802.168    11469.724    11540.336   -1044.6593   -698.01667   -1059.5451   -2260.7956 
 4477000    279.58922   -3820.5468   -3341.3404   -3820.5468            0    5813.9607    17.004676    20.029262    20.745665    7065.7889    6166.7431    4790.3767    6484.7622   -333.34702    275.97904   -735.30945   -2742.2276 
 4478000    279.04532   -3840.9814   -3362.7073   -3840.9814            0    8748.7607    16.936432     19.94888    20.662408      6981.06    9157.3855    7864.6462    9224.2504    983.15913    1329.5842    -74.93752    -2471.982 
 4479000    275.72548   -3862.8051   -3390.2211   -3862.8051            0    9334.0719    16.941909     19.95533    20.669089    6987.8342     8581.477     8682.777    10737.962   -933.10667    848.30874    832.97965   -2438.9822 
 4480000    272.89222    -3829.193   -3361.4651    -3829.193            0     8440.607     16.96821     19.98631    20.701177    7020.4299    7123.4866    9800.3743    8397.9601    126.87755    1432.2208    835.59981    -2497.267 
 4481000     287.4222   -3871.4155   -3378.7837   -3871.4155            0     8618.206    16.939366    19.952335    20.665986    6984.6881    7379.4705    8417.5803    10057.567   -323.47836      849.822    351.76841   -2500.8944 
 4482000    267.27281   -3847.5697   -3389.4733   -3847.5697            0    8382.6079    16.913865    19.922299    20.634876    6953.1913    7376.3625    9233.6416    8537.8195   -158.10032    480.74252   -301.95747   -2539.4336 
 4483000    271.41826   -3871.1123   -3405.9107   -3871.1123            0    10994.619    16.856491     19.85472     20.56488    6882.6726    11715.648    9856.8323    11411.378    290.62282   -305.16899    46.136414   -2302.3068 
 4484000    264.68038   -3824.6531        -3371   -3824.6531            0    10633.184    16.902219    19.908582    20.620668    6938.8385    10327.839    11016.395    10555.318   -27.238337    -620.7985    1774.9251    -2294.966 
 4485000    267.75234   -3871.3104    -3412.392   -3871.3104            0    9237.7161    16.944289    19.958135    20.671993    6990.7805    8779.0348    9984.6729    8949.4406    186.44835   -2315.5269   -1345.7686   -2470.5758 
 4486000    249.79125   -3832.4554   -3404.3217   -3832.4554            0    8366.0837    17.002595    20.026811    20.743126    7063.1954    7299.4161    7785.2174    10013.618    579.15228    29.464565    115.16487    -2542.536 
 4487000    267.38035   -3861.9665   -3403.6857   -3861.9665            0    8943.8104    16.939529    19.952528    20.666186    6984.8907    12212.325    7567.9011    7051.2052    813.01281   -969.13341   -691.06122   -2492.6024 
 4488000    270.45448   -3814.8004   -3351.2506   -3814.8004            0    10582.783    16.894559    19.899559    20.611323    6929.4089    10109.685    10399.079    11239.585    368.62696    393.16769    1419.4966   -2281.7723 
 4489000    278.88936   -3863.9458   -3385.9389   -3863.9458            0    9136.6501    16.886828    19.890453    20.601891    6919.9005    8105.3139    9758.2798    9546.3567   -2299.7417   -306.86728    159.70893   -2463.8714 
 4490000    264.95052   -3817.3153   -3363.1992   -3817.3153            0    9159.4353    16.848704    19.845547    20.555379    6873.1379    7736.5158    9505.3441    10236.446    196.48119     237.0421    1518.2882   -2445.0788 
 4491000    256.63412   -3833.7126   -3393.8505   -3833.7126            0    10896.358    16.831529    19.825318    20.534426    6852.1409    12175.594    8934.2716    11579.207   -423.50009   -54.701106   -554.92607   -2304.9617 
 4492000    260.10674   -3838.4733   -3392.6592   -3838.4733            0    7843.0872    16.958376    19.974727     20.68918    7008.2309     7332.945    9970.7902    6225.5264   -336.25385   -92.825375   -661.60392   -2591.0341 
 4493000    256.66308   -3800.5237   -3360.6119   -3800.5237            0    8060.9761    16.997789     20.02115    20.737263    7057.2076    5787.5154     7031.858    11363.555    784.17581   -15.648123   -1.1558042   -2530.9591 
 4494000    261.15039    -3821.611   -3374.0082    -3821.611            0    9009.4565    16.923601    19.933767    20.646754    6965.2053    9000.9842    9094.1711    8933.2143   -1751.1759    690.49955   -399.85259   -2458.8242 
 4495000    280.75701   -3844.0234   -3362.8155   -3844.0234            0    8200.1524    16.903292    19.909845    20.621976    6940.1595    9631.7407    8041.3757    6927.3408   -328.16867    2654.7453    1033.7738   -2532.8362 
 4496000     276.4089   -3868.3148   -3394.5594   -3868.3148            0     8019.416     16.94929    19.964025    20.678095    6996.9722    8072.4333     8287.655    7698.1598   -2281.3701    785.98351   -214.73937   -2576.2288 
 4497000    274.95199    -3877.774   -3406.5157    -3877.774            0    9173.8196     16.97293    19.991869    20.706935    7026.2894     11258.79    5823.8153    10438.854    858.51969   -24.213943   -1074.8316   -2466.4631 
 4498000      276.442   -3836.7433   -3362.9312   -3836.7433            0    9340.0119    16.953884    19.969436    20.683699    7002.6633     9361.932    10079.613    8578.4902    439.39045   -579.93763    1309.2078   -2409.0669 
 4499000    246.79863    -3831.213   -3408.2086    -3831.213            0    8647.2687     16.95766    19.973884    20.688306    7007.3433    9371.0003     6142.729    10428.077     -141.579    684.47923    -72.29183   -2524.5018 
 4500000    284.71162   -3833.8085   -3345.8226   -3833.8085            0    7668.6528    17.082632    20.121084    20.840771    7163.4119    8867.4193     6732.366     7406.173   -280.80002   -148.53178    1321.4588   -2544.6706 
Loop time of 437.386 on 64 procs for 250000 steps with 864 atoms

Performance: 98.769 ns/day, 0.243 hours/ns, 571.577 timesteps/s
99.1% CPU use with 64 MPI tasks x 1 OpenMP threads

MPI task timing breakdown:
Section |  min time  |  avg time  |  max time  |%varavg| %total
---------------------------------------------------------------
Pair    | 21.934     | 26.838     | 31.377     |  46.3 |  6.14
Bond    | 0.27333    | 0.28309    | 0.29352    |   0.9 |  0.06
Kspace  | 181.35     | 192.73     | 201.73     |  30.2 | 44.06
Neigh   | 5.5676     | 6.6807     | 7.3829     |  19.3 |  1.53
Comm    | 94.905     | 100.39     | 110.06     |  40.0 | 22.95
Output  | 1.4246     | 1.4252     | 1.4299     |   0.1 |  0.33
Modify  | 102.7      | 104.39     | 106.54     |  10.0 | 23.87
Other   |            | 4.649      |            |       |  1.06

Nlocal:        13.5000 ave          18 max           6 min
Histogram: 1 0 2 7 5 14 10 13 6 6
Nghost:        2231.14 ave        2274 max        2196 min
Histogram: 5 6 7 11 10 7 7 6 4 1
Neighs:        4309.59 ave        6561 max        2106 min
Histogram: 1 3 9 11 8 13 10 5 2 2

Total # of neighbors = 275814
Ave neighs/atom = 319.22917
Ave special neighs/atom = 2.0000000
Neighbor list builds = 14699
Dangerous builds = 1

unfix		3
unfix		2
unfix		1

write_data	data.final.${pid}
write_data	data.final.0
System init for write_data ...
PPPM initialization ...
  extracting TIP4P info from pair style
  using 12-bit tables for long-range coulomb (../kspace.cpp:340)
  G vector (1/distance) = 0.37373958
  grid = 24 24 24
  stencil order = 5
  estimated absolute RMS force accuracy = 0.0032210785
  estimated relative force accuracy = 9.7001824e-06
  using double precision FFTW3
  3d grid and FFT values/proc = 2535 216
Last active /omp style is kspace_style pppm/tip4p/omp
WARNING: Not all mixed pair coeffs generated from mixing. Use write_data with 'pair ij' option to store all pair coeffs. (../write_data.cpp:312)

write_restart   restart.lmp.${pid}
write_restart   restart.lmp.0
System init for write_restart ...
PPPM initialization ...
  extracting TIP4P info from pair style
  using 12-bit tables for long-range coulomb (../kspace.cpp:340)
  G vector (1/distance) = 0.37373958
  grid = 24 24 24
  stencil order = 5
  estimated absolute RMS force accuracy = 0.0032210785
  estimated relative force accuracy = 9.7001824e-06
  using double precision FFTW3
  3d grid and FFT values/proc = 2535 216
Last active /omp style is kspace_style pppm/tip4p/omp
Total wall time: 0:07:20
