LAMMPS data file via write_data, version 30 Jul 2021, timestep = 14250000

1008 atoms
2 atom types
672 bonds
1 bond types
336 angles
1 angle types

-3.2292517727983707 14.839250772353818 xlo xhi
0.011923779833681536 22.568075220158697 ylo yhi
-0.030371149757772997 19.260369149756603 zlo zhi
-0.015030388583376254 -6.278323661298658 0.26911600590321616 xy xz yz

Masses

1 1.008
2 15.999

Pair Coeffs # lj/cut/tip4p/long/omp

1 0 0
2 0.21084 3.1668

Bond Coeffs # harmonic/omp

1 450 0.9572

Angle Coeffs # harmonic/omp

1 55 104.52

Atoms # full

122 41 1 0.5897 -2.573622610189173 2.399368541435905 1.4060075051190264 1 0 0
482 161 1 0.5897 -0.8500422837159389 0.2039884866064862 0.9923218423365858 1 1 0
56 19 1 0.5897 -1.2947719151281392 3.903170168064107 2.9009566719850524 0 0 0
86 29 1 0.5897 -2.686695745959697 1.562790606343203 3.654497085585075 1 0 0
123 41 1 0.5897 -3.5975120703621712 3.0043149790518484 2.34271738638881 1 0 0
55 19 2 -1.1794 -0.6388967952152305 4.515611583865734 3.2340663892519825 0 0 0
121 41 2 -1.1794 -2.657645607848383 2.851898329793901 2.245294124336805 1 0 0
157 53 2 -1.1794 -3.9458189274184576 5.08268951261838 4.72057521016585 1 0 0
158 53 1 0.5897 -4.381213895854922 4.526253586240133 4.07479255784599 1 0 0
85 29 2 -1.1794 -2.6046153026673506 1.1577964815364488 4.517895583235619 1 0 0
57 19 1 0.5897 0.11619683781841506 4.395051636158503 2.658364491128842 0 0 0
602 201 1 0.5897 -1.5946052444453065 4.71555088926822 0.04885706383884535 1 0 1
125 42 1 0.5897 -5.501955914819975 3.325632461528363 7.225700312025862 1 0 0
669 223 1 0.5897 -5.0660230104389665 2.009324458224743 8.930098570355405 1 0 0
134 45 1 0.5897 -2.22620521516469 2.6877998970095476 5.6719654300553755 1 0 0
67 23 2 -1.1794 -2.4807724538497644 0.8148299579525898 7.951222413407592 0 0 0
135 45 1 0.5897 -1.5000360031122173 3.6051583167841854 6.632682178704903 1 0 0
124 42 2 -1.1794 -4.727948105687382 2.801208049633532 7.430592551670561 1 0 0
133 45 2 -1.1794 -2.3575350666775052 3.449039709756703 6.237177592003003 1 0 0
126 42 1 0.5897 -3.9990779160967467 3.289622403777079 7.048006264867929 1 0 0
69 23 1 0.5897 -3.1913990663748213 1.450308703364575 8.036619116990842 0 0 0
87 29 1 0.5897 -3.507170095443972 1.0212330326863719 4.805754621067853 1 0 0
159 53 1 0.5897 -3.20923713551168 4.5570562041969955 5.032443077099912 1 0 0
97 33 2 -1.1794 -4.0375458739120536 5.134867574425526 9.186754702179314 1 0 0
98 33 1 0.5897 -4.068534733348558 5.548341938158982 8.324040381070953 1 0 0
606 202 1 0.5897 -5.872204407074907 4.812623009139316 9.50743137244911 1 0 0
485 162 1 0.5897 -6.053917772396469 0.24502384062975455 8.839798482177391 1 1 0
667 223 2 -1.1794 -5.152455129304569 1.4659694873096965 9.713380967960335 1 0 0
561 187 1 0.5897 -4.13181077223526 3.8254815345494317 12.720324383826634 0 0 0
668 223 1 0.5897 -5.546878544150189 2.04551137099055 10.365110801027459 1 0 0
625 209 2 -1.1794 -5.451763155184537 2.899365209330813 12.049969050063478 1 0 0
661 221 2 -1.1794 -6.950291192008352 5.082011596643965 14.204482378134472 1 0 0
559 187 2 -1.1794 -3.518144390266861 4.376687041469253 13.205911799554002 0 0 0
626 209 1 0.5897 -5.145572119693564 2.3679362349505926 12.784831519593567 1 0 0
627 209 1 0.5897 -6.378704985779171 3.0513743473329713 12.233635780812616 1 0 0
524 175 1 0.5897 -2.547365701783728 3.782347573031259 9.6789972836933 0 0 0
662 221 1 0.5897 -7.558254209888931 4.418399950531025 13.878584989622638 1 0 0
589 197 2 -1.1794 -5.3256920351637715 1.4925667735302597 14.251140395643011 1 0 0
523 175 2 -1.1794 -2.1759716677247365 3.0367601516491702 10.150553951202788 0 0 0
986 329 1 0.5897 -4.262911869123219 0.5346701774153001 10.946504548328187 1 1 0
663 221 1 0.5897 -6.565960629301516 5.463686826205018 13.415295379621563 1 0 0
987 329 1 0.5897 -3.1763462484214973 0.2669422622157075 11.965942197688761 1 1 0
593 198 1 0.5897 -7.328399741556105 1.2294633122411476 14.196535422352138 1 0 0
165 55 1 0.5897 -9.296845135980458 0.9682267299371422 18.86743982546567 1 0 -1
571 191 2 -1.1794 -5.1415325882496745 0.986533504249839 18.059349402042898 0 0 0
637 213 2 -1.1794 -5.148025359222074 3.679359996056329 15.803988861383457 1 0 0
601 201 2 -1.1794 -7.002345023990255 5.312417460380242 19.11425693124358 1 0 0
572 191 1 0.5897 -5.828167871392966 0.674820826008928 17.469866531497352 0 0 0
164 55 1 0.5897 -8.27440502449286 1.9718436544746758 18.378322900243013 1 0 -1
638 213 1 0.5897 -5.887033517845913 3.331367001525235 16.30293167642381 1 0 0
639 213 1 0.5897 -5.550828741214046 4.212469591606572 15.118647365468073 1 0 0
630 210 1 0.5897 -7.852807511562851 1.97261153608869 16.208585465837427 1 0 0
591 197 1 0.5897 -4.810447155906772 0.743115665466695 14.549499767914291 1 0 0
628 210 2 -1.1794 -7.622259572076947 2.6361419561577235 16.858831124300387 1 0 0
590 197 1 0.5897 -5.2723680842920935 2.122085915426891 14.970255189429697 1 0 0
629 210 1 0.5897 -8.210637080358719 3.3681082916146745 16.67390808502969 1 0 0
163 55 2 -1.1794 -8.626171879425137 1.5773075634650775 19.176332487986894 1 0 -1
603 201 1 0.5897 -6.445457866610868 4.533919884891771 19.114576566008754 1 0 0
332 111 1 0.5897 -2.5027762046918998 9.486124518402793 1.145176888198486 1 0 0
114 38 1 0.5897 -2.1099910502047443 6.532545665433072 2.4114274746236593 1 0 0
112 38 2 -1.1794 -3.0657635968834502 6.487860753223175 2.3879063262761306 1 0 0
289 97 2 -1.1794 -2.735676703182544 10.241069433905388 2.711391237580506 1 0 0
145 49 2 -1.1794 -0.43780697254937495 7.246526039061622 1.7667227163327 1 0 0
255 85 1 0.5897 -2.3117771713774395 9.06319630561004 4.096263969507422 1 0 0
113 38 1 0.5897 -3.3209844098951002 6.328016157885501 3.296483988824402 1 0 0
291 97 1 0.5897 -2.215641614368402 10.999408558807314 2.9773256603362976 1 0 0
188 63 1 0.5897 0.8412062026364904 10.490180218751693 1.157692164767575 0 0 0
146 49 1 0.5897 -1.0144018516515385 7.804813536523919 1.2452036277918863 1 0 0
147 49 1 0.5897 -0.2852001613053754 6.478437149392969 1.2162574657643344 1 0 0
290 97 1 0.5897 -3.643908120097237 10.526450238116954 2.810143411538013 1 0 0
9 3 1 0.5897 -0.7644036716514004 5.856782706498163 4.406207920428556 0 0 0
331 111 2 -1.1794 -2.2520792775236025 8.875839155952233 0.4516745872748057 1 0 0
187 63 2 -1.1794 0.7100088774369873 10.398538534548411 0.21398818108224962 0 0 0
837 279 1 0.5897 -5.63383294615684 8.247085520920024 9.091612272553562 1 0 0
235 79 2 -1.1794 -1.9989649734904034 7.965075388248407 8.251371273687043 0 0 0
109 37 2 -1.1794 -4.383365797626053 6.820981589104497 6.85214202022535 1 0 0
294 98 1 0.5897 -5.026279103623868 10.041355625116363 8.169880541442039 1 0 0
301 101 2 -1.1794 -2.31913013184718 10.945085001505465 6.565498499417454 1 0 0
236 79 1 0.5897 -2.7662590023473137 7.874444431633737 7.686429092467475 0 0 0
293 98 1 0.5897 -3.939838543610798 10.501784269031246 7.221510175381732 1 0 0
292 98 2 -1.1794 -4.864472743782413 10.25629875270614 7.251280031549634 1 0 0
253 85 2 -1.1794 -2.393070584717285 8.532798066607633 4.88892085495446 1 0 0
302 101 1 0.5897 -1.803993340923066 10.217326340122066 6.217352181345487 1 0 0
111 37 1 0.5897 -5.322798809385457 6.9165893075831715 7.008299671895453 1 0 0
237 79 1 0.5897 -2.076548600399639 8.844007059372778 8.622435226733199 0 0 0
110 37 1 0.5897 -4.325065106013064 6.325631832730525 6.0351479336317375 1 0 0
254 85 1 0.5897 -1.7181245271057224 7.8602604078922855 4.7979398072719714 1 0 0
257 86 1 0.5897 -4.130358371015709 8.601532007143817 4.847770555819729 1 0 0
7 3 2 -1.1794 -0.4488272606787014 6.518560845150043 5.021615895141464 0 0 0
793 265 2 -1.1794 -5.889914452838723 10.085926243706925 11.930611347697914 1 0 0
618 206 1 0.5897 -6.562419970112632 5.905665515220413 11.215754765643236 1 0 0
650 217 1 0.5897 -3.0953262925531035 7.765375085160265 11.585405020779627 1 0 0
759 253 1 0.5897 -5.652397956895403 9.215375436092291 13.542272393334414 1 0 0
649 217 2 -1.1794 -3.567727042275749 7.214424672967662 10.96129412007592 1 0 0
836 279 1 0.5897 -4.507582755348027 8.395391402487325 10.092065212758426 1 0 0
651 217 1 0.5897 -4.3563746422600484 6.942272502123807 11.43046944134918 1 0 0
795 265 1 0.5897 -5.699681420222354 9.631918485006125 11.1096850403192 1 0 0
616 206 2 -1.1794 -6.2535482917855525 6.546005922760079 11.85670311545305 1 0 0
794 265 1 0.5897 -5.147531807890271 10.677061013168576 12.055602659890745 1 0 0
691 231 2 -1.1794 -1.9516244137342729 10.259076263398896 9.900543601871023 0 0 0
617 206 1 0.5897 -6.969801484281195 7.176637333922315 11.930345165828033 1 0 0
513 171 1 0.5897 -3.503489917523276 6.064907130397648 13.974768415294688 0 0 0
728 243 1 0.5897 -3.234850995997502 10.868035047598282 13.519114883664141 0 0 0
727 243 2 -1.1794 -3.645038728127967 11.410117738688877 12.845341558252844 0 0 0
99 33 1 0.5897 -3.9244911308487693 5.86289950447987 9.797851242145157 1 0 0
835 279 2 -1.1794 -5.21268782471426 8.884513589598946 9.668209680904761 1 0 0
757 253 2 -1.1794 -5.490569543226176 8.851640863280213 14.412736945846452 1 0 0
797 266 1 0.5897 -7.445566838912716 10.596563542707651 16.970946249483166 1 0 0
796 266 2 -1.1794 -8.302388045943665 10.197885707992661 17.1227222462376 1 0 0
739 247 2 -1.1794 -5.473038159350378 8.130614756620103 18.260690875121313 0 0 0
805 269 2 -1.1794 -5.816614194980799 11.004188795182383 16.145300162257218 1 0 0
512 171 1 0.5897 -4.313192251473216 7.226887957999076 14.509575971781723 0 0 0
613 205 2 -1.1794 -7.32288304611196 6.659220144301967 16.683366727097027 1 0 0
741 247 1 0.5897 -5.754758445478796 8.90916758160034 18.74103915512442 0 0 0
740 247 1 0.5897 -6.181782133427339 7.962036644309222 17.63988565918431 0 0 0
758 253 1 0.5897 -5.596959656178194 9.594592903636189 15.006840613905347 1 0 0
761 254 1 0.5897 -7.5323336495805195 8.496442274354076 14.641380075053725 1 0 0
333 111 1 0.5897 -8.133310626217579 9.697127246481148 19.068877480665314 1 0 -1
653 218 1 0.5897 -8.84499126310437 7.354063623457309 17.342737371067685 1 0 0
614 205 1 0.5897 -7.200039542548488 6.071413786279637 17.428747716772413 1 0 0
807 269 1 0.5897 -5.139201033223339 11.36011762649152 16.72027317454563 1 0 0
615 205 1 0.5897 -7.343794445833259 6.079801085857532 15.921737360075321 1 0 0
315 105 1 0.5897 -0.7471061123136415 13.984102168681773 0.7160565727152276 1 0 0
224 75 1 0.5897 -0.8462709205957566 11.60615918709049 4.144105375273148 0 0 0
501 167 1 0.5897 -1.8440345644963274 15.964323670511632 0.478008047842323 1 0 0
280 94 2 -1.1794 -3.569998600140416 13.81655843442706 2.458725007994482 1 0 0
225 75 1 0.5897 -1.0410554236802034 13.106002914883522 4.076812055942883 0 0 0
282 94 1 0.5897 -2.718955121682085 14.210283833504583 2.2667559513287654 1 0 0
313 105 2 -1.1794 -1.0797562406200378 14.628398661961263 1.3409296539165456 1 0 0
314 105 1 0.5897 -0.29782784733225 14.962776163163454 1.7801485097699883 1 0 0
281 94 1 0.5897 -3.547921892323977 13.64429694995418 3.4000121153263274 1 0 0
223 75 2 -1.1794 -1.0779282326817983 12.313102195270472 3.5418009248444835 0 0 0
421 141 2 -1.1794 -2.3633219053069014 16.568522601317632 4.440722880875285 1 0 0
425 142 1 0.5897 -4.129606900587744 16.283833412068 4.657576869349652 1 0 0
423 141 1 0.5897 -2.532793338768469 16.878316387057446 3.55106553658345 1 0 0
326 109 1 0.5897 -3.1296908421281024 12.075532689896042 5.302699479580081 1 0 0
327 109 1 0.5897 -3.6890850419497854 13.425242852162544 5.699206449997543 1 0 0
403 135 2 -1.1794 -2.014207863502105 15.994277965504944 8.441522670720126 0 0 0
267 89 1 0.5897 -3.1578262223858586 12.982291739149 8.87796881205907 1 0 0
277 93 2 -1.1794 -3.6412821265995747 14.131283502943191 7.2897941733270235 1 0 0
278 93 1 0.5897 -3.2562412907216225 14.993210945508672 7.448215832058723 1 0 0
303 101 1 0.5897 -1.6780809880193743 11.50540073179323 7.002886384324906 1 0 0
265 89 2 -1.1794 -3.4721278168046634 12.457460816101229 9.614181915956655 1 0 0
405 135 1 0.5897 -2.3477360980392366 16.61516362546911 9.089208783000949 0 0 0
325 109 2 -1.1794 -3.7273535573483834 12.763066976411181 5.0090523987221385 1 0 0
176 59 1 0.5897 -1.0763181854201913 15.304208227056765 4.988159109262141 0 0 0
279 93 1 0.5897 -4.5789775830932316 14.257069590987683 7.434647295073609 1 0 0
1004 335 1 0.5897 -4.966732690379121 16.958792081967026 9.062911269740464 1 0 0
175 59 2 -1.1794 -0.6372422136201896 14.487678598183258 5.226269204169363 0 0 0
266 89 1 0.5897 -2.943529330662857 11.660093420173611 9.583488810619736 1 0 0
786 262 1 0.5897 -6.260317370107289 13.72429511571657 12.944951960113993 1 0 0
817 273 2 -1.1794 -3.6375970054083173 14.686101098231548 11.017122435506174 1 0 0
784 262 2 -1.1794 -6.146056125128007 14.073709982542331 12.061188650265937 1 0 0
819 273 1 0.5897 -4.4105071816476205 14.42653649882698 11.518475771456698 1 0 0
818 273 1 0.5897 -3.355411622112133 13.883470694070626 10.578553732009585 1 0 0
774 258 1 0.5897 -5.59263044287165 12.324901217826675 9.755314138739953 1 0 0
729 243 1 0.5897 -3.8796216332101707 12.219888822347945 13.298657420573605 0 0 0
785 262 1 0.5897 -6.769693871924659 14.797771234251572 12.00686476467193 1 0 0
680 227 1 0.5897 -4.240315562104638 14.632865617030712 14.177023239384535 0 0 0
1005 335 1 0.5897 -4.700260837555701 15.823056813878406 10.027794164886176 1 0 0
1003 335 2 -1.1794 -5.3421626383480785 16.500307114115735 9.814630678540333 1 0 0
773 258 1 0.5897 -6.550791450074146 12.937457986796497 10.75452729901949 1 0 0
925 309 2 -1.1794 -5.131313094477683 16.043020182602078 14.175440211328885 1 0 0
831 277 1 0.5897 -7.410109680101719 12.471092929758763 13.989826872195747 1 0 0
927 309 1 0.5897 -6.062034893782101 15.893772467669905 14.341238931731679 1 0 0
679 227 2 -1.1794 -3.7433836196327057 13.827922820749365 14.323044064245378 0 0 0
929 310 1 0.5897 -7.832463313181646 16.8609442439108 15.592860368934629 1 0 0
499 167 2 -1.1794 -8.53358801122759 16.812815982774957 19.12736508315514 1 0 -1
907 303 2 -1.1794 -5.477893099933883 16.08725188168973 17.7277707934329 0 0 0
783 261 1 0.5897 -7.345444334419028 13.578775462634528 17.208658905733344 1 0 0
781 261 2 -1.1794 -7.486696930042798 14.279156183247055 16.571693095290545 1 0 0
830 277 1 0.5897 -7.035756775349152 13.40116243008046 15.124183480706701 1 0 0
782 261 1 0.5897 -6.82169944129041 14.934167454303655 16.783710547782487 1 0 0
769 257 2 -1.1794 -7.016460590413008 12.653006489838004 18.60127995749028 1 0 0
909 303 1 0.5897 -5.2807151460829065 15.35793637833918 18.315520086329887 0 0 0
908 303 1 0.5897 -4.68313627732266 16.19641418158833 17.205665244554293 0 0 0
926 309 1 0.5897 -4.913799470997828 16.811689099414238 14.702799355097884 1 0 0
500 167 1 0.5897 -8.949724223579263 16.220489737014688 18.50110290227749 1 0 -1
770 257 1 0.5897 -7.893424689621664 12.374699184507266 18.86511228606598 1 0 0
771 257 1 0.5897 -6.437797519593451 11.963935549936329 18.9275936780272 1 0 0
928 310 2 -1.1794 -7.889949264186269 16.44103681190238 14.734595936966157 1 0 0
806 269 1 0.5897 -6.075211804386918 11.742417963718548 15.593609898535654 1 0 0
829 277 2 -1.1794 -6.6562480308862915 12.818279675349952 14.466589966903369 1 0 0
483 161 1 0.5897 -1.0684528064438013 21.92480602837064 2.2384270303323026 1 0 0
449 150 1 0.5897 -3.4962343965671625 20.72133520666946 1.7386324934302766 1 0 0
495 165 1 0.5897 -3.6573895441464974 20.517969739121057 3.84842602396071 1 0 0
391 131 2 -1.1794 -0.5862678902897382 19.385937670315272 3.1050496033587427 0 0 0
938 313 1 0.5897 -0.7678955999915265 20.75158812375905 0.3802348611972837 1 0 1
493 165 2 -1.1794 -3.974730751099637 20.076634812881515 4.636261293243396 1 0 0
448 150 2 -1.1794 -3.2247026784918296 21.226888905107792 2.504744792922117 1 0 0
393 131 1 0.5897 -0.7575749152472504 20.045896408076572 3.7768803107733318 0 0 0
392 131 1 0.5897 0.3072587897464407 19.566697531824886 2.813435977072914 0 0 0
459 153 1 0.5897 -2.369732496554497 18.457519793727734 2.2094956745997836 1 0 0
481 161 2 -1.1794 -0.45303387504234394 22.07706448616308 1.521302403024979 1 0 0
457 153 2 -1.1794 -3.013509056353907 17.76112789627738 2.0798195622760347 1 0 0
356 119 1 0.5897 0.5647112141090815 17.203853430074226 1.0901578764571207 0 0 0
458 153 1 0.5897 -2.8829227661898678 17.479068169121234 1.174496020030579 1 0 0
450 150 1 0.5897 -3.7662032002759407 22.015619867148168 2.476121580405237 1 0 0
355 119 2 -1.1794 0.617971946140182 17.77069342240012 0.32068732930606225 0 0 0
447 149 1 0.5897 -4.94500251452982 21.46044944662973 7.285988189871654 1 0 0
460 154 2 -1.1794 -4.550590512815587 17.665355579015966 7.347101287492625 1 0 0
471 157 1 0.5897 -3.0171010880828786 18.273033755046022 6.8886952693126915 1 0 0
470 157 1 0.5897 -2.8214139999747325 19.21289270952896 5.718091930944269 1 0 0
445 149 2 -1.1794 -4.0326157176636475 21.194271987444374 7.173013667711191 1 0 0
446 149 1 0.5897 -3.7532683157647613 20.91854132846089 8.0460120386182 1 0 0
461 154 1 0.5897 -5.152208027240338 18.394292154818537 7.195874931908822 1 0 0
469 157 2 -1.1794 -2.3412301118498826 18.65030750804931 6.325613887715183 1 0 0
494 165 1 0.5897 -4.153169918531535 20.786235850036682 5.25336194745424 1 0 0
344 115 1 0.5897 -0.8882774383607455 20.947505168902254 5.728363338021164 0 0 0
422 141 1 0.5897 -2.2990251737924696 17.36700788624144 4.96471959983541 1 0 0
343 115 2 -1.1794 -0.9280348571525288 21.271229710564413 4.828471317779214 0 0 0
345 115 1 0.5897 -1.5428726864714633 22.003952994069877 4.86396688573625 0 0 0
68 23 1 0.5897 -2.8676685322204776 22.664454847281256 7.423222140083111 0 -1 0
462 154 1 0.5897 -4.662141143447317 17.09957406549141 6.583096087815171 1 0 0
952 318 2 -1.1794 -6.142014832721641 21.09425883669364 12.112510004254228 1 0 0
941 314 1 0.5897 -6.557455431301154 19.75103768732376 10.736763002267478 1 0 0
985 329 2 -1.1794 -3.90613202711511 22.39786353827398 11.492165165584733 1 0 0
895 299 2 -1.1794 -3.6731520923089795 19.63536196902038 13.22401982318914 0 0 0
998 333 1 0.5897 -6.463369631570692 20.763992752807553 13.792109156514167 1 0 0
896 299 1 0.5897 -4.425171484479817 19.237047046113155 12.785906088149686 0 0 0
848 283 1 0.5897 -3.763285481553595 21.079531886724666 14.260607966505248 0 0 0
435 145 1 0.5897 -4.660102228296731 19.862226619850446 9.667279050711521 1 0 0
954 318 1 0.5897 -5.232408179896856 21.363414795629865 11.984914468600723 1 0 0
961 321 2 -1.1794 -5.589462514192721 18.053023629491506 12.205545670721262 1 0 0
953 318 1 0.5897 -6.63934739701415 21.91180969387763 12.091060650249807 1 0 0
434 145 1 0.5897 -3.7806956191015373 20.917451994987722 10.303688315377393 1 0 0
963 321 1 0.5897 -5.285242855373559 17.67420931144428 11.380822334120635 1 0 0
433 145 2 -1.1794 -3.7662348250137847 20.20444216666329 9.665195613589704 1 0 0
860 287 1 0.5897 -2.940571065191116 18.823769213574202 10.214608286128168 0 0 0
962 321 1 0.5897 -5.556788476783469 17.32767475748392 12.829272292960228 1 0 0
859 287 2 -1.1794 -2.3913595578056364 18.104612983575258 10.526606086215883 0 0 0
897 299 1 0.5897 -3.313345804703647 18.934575060548823 13.76768490772006 0 0 0
975 325 1 0.5897 -4.333989948209387 18.71720319856641 16.083696561253994 1 0 0
937 313 2 -1.1794 -7.160856374380428 20.382325969821203 18.96698536871231 1 0 0
964 322 2 -1.1794 -7.7958431695592285 17.983357724499918 16.87253873125215 1 0 0
974 325 1 0.5897 -5.71534960049083 18.177548374714313 16.38737737238403 1 0 0
973 325 2 -1.1794 -5.07064193459126 18.254797920195564 15.68413642545878 1 0 0
949 317 2 -1.1794 -7.120769869597061 22.10447250557555 16.67361006261621 1 0 0
950 317 1 0.5897 -6.981665896543863 21.55211713980514 15.904320956748228 1 0 0
951 317 1 0.5897 -7.0168402328524895 21.510804515485177 17.417237053990792 1 0 0
966 322 1 0.5897 -8.058220842655388 17.65064186411302 17.730817092662633 1 0 0
999 333 1 0.5897 -6.3311586808116065 19.73948185016861 14.898814805217562 1 0 0
965 322 1 0.5897 -8.388148416970143 18.71707219618986 16.70825576616442 1 0 0
997 333 2 -1.1794 -6.899496410192778 20.440783897896722 14.580491557394522 1 0 0
357 119 1 0.5897 -5.648512803722948 17.43588918721597 18.86886346026135 0 0 -1
847 283 2 -1.1794 -3.5852907223215107 21.841787788024426 14.81152014461448 0 0 0
437 146 1 0.5897 -9.082062312643835 20.015285471925445 19.145718533781686 1 0 -1
573 191 1 0.5897 -4.802266062333677 22.74724135234247 18.456745221698416 0 -1 0
939 313 1 0.5897 -6.554350532469929 19.674323984085923 19.183861438068817 1 0 0
52 18 2 -1.1794 4.146833956948551 2.8025555672357827 3.559116832854731 0 0 0
54 18 1 0.5897 3.658135596170836 3.2800270260579834 2.88879575109449 0 0 0
528 176 1 0.5897 4.061022230059987 1.9873897341825895 0.35848066568546655 0 0 1
46 16 2 -1.1794 2.310394957357884 4.445087760287143 2.5184087528851107 0 0 0
18 6 1 0.5897 5.2604026513596605 3.9745958175006564 0.5628899856490722 0 0 0
71 24 1 0.5897 2.9157348671760763 0.7135043554565342 1.4069599867551164 0 0 0
76 26 2 -1.1794 0.7914044409668808 2.466022971400971 4.646839151587753 0 0 0
47 16 1 0.5897 2.2222162547374102 5.048210246953263 1.7803752107315438 0 0 0
32 11 1 0.5897 1.396897182046791 1.8632545118668662 3.038629040986557 0 0 0
70 24 2 -1.1794 3.749845012288989 0.4596511639683219 1.0121076469021377 0 0 0
19 7 2 -1.1794 1.2820248890836146 3.0817331563890793 0.1882682149070289 0 0 0
31 11 2 -1.1794 1.5880789040444112 1.3763410738600161 2.2370040385337493 0 0 0
48 16 1 0.5897 2.317090499537727 5.010429261607563 3.2908010079798493 0 0 0
78 26 1 0.5897 0.08845028565441293 3.0979918755941473 4.496616092182336 0 0 0
21 7 1 0.5897 1.5510791785436417 3.053384881429383 1.1064044250291922 0 0 0
33 11 1 0.5897 0.8570415188488081 0.7649846927426235 2.1473745763167407 0 0 0
6 2 1 0.5897 3.8506483890967047 1.585017098336097 4.731067614735185 0 0 0
527 176 1 0.5897 3.2821287270960946 3.2644757545865626 0.1256969777109412 0 0 1
5 2 1 0.5897 3.1440227327901464 0.3070390914343604 5.130389656638691 0 0 0
58 20 2 -1.1794 2.477204617007464 4.234295811984552 6.048757455203899 0 0 0
36 12 1 0.5897 -0.7169027487781912 1.5999128499982245 7.512441504715889 0 0 0
34 12 2 -1.1794 0.1691872510356256 1.8862096634983363 7.291092121209117 0 0 0
35 12 1 0.5897 0.4203931689590621 2.46654421105275 8.009660237262617 0 0 0
43 15 2 -1.1794 -0.18552558139393804 4.963294152056036 7.29606431808026 0 0 0
59 20 1 0.5897 2.0467161749176084 3.575154863479198 5.5042813170867815 0 0 0
45 15 1 0.5897 0.7687008434943716 4.8894395804338915 7.304143158305757 0 0 0
4 2 2 -1.1794 3.9081285343372016 0.8455450420971219 5.336145033767103 0 0 0
77 26 1 0.5897 0.6322172824936168 2.1356215477633302 5.530967502190404 0 0 0
60 20 1 0.5897 3.1072788316178848 3.7389569999471393 6.571978522926003 0 0 0
44 15 1 0.5897 -0.40600117284766357 5.318757400359457 8.157027039223319 0 0 0
401 134 1 0.5897 2.319379904461904 0.43976769960414047 8.740397645429113 0 1 0
402 134 1 0.5897 1.0883337460517328 0.2620273202281222 7.877545994999191 0 1 0
11 4 1 0.5897 2.3288614040843774 5.581696784248937 5.124844861399275 0 0 0
550 184 2 -1.1794 -0.9129296475208415 5.064277986619773 12.217615874713516 0 0 0
556 186 2 -1.1794 1.184100461547227 3.780356309563463 13.439543901597204 0 0 0
536 179 1 0.5897 -1.7398496195404993 1.748396468116075 13.041779046004988 0 0 0
558 186 1 0.5897 0.3410036101869611 4.031903668074321 13.062747087481764 0 0 0
557 186 1 0.5897 0.9970044415250774 2.983531410644893 13.935875771546952 0 0 0
23 8 1 0.5897 0.9996160317363465 2.554070172105591 10.218357175132384 0 0 0
576 192 1 0.5897 0.12025915218167826 0.991656528149196 11.762479120891792 0 0 0
24 8 1 0.5897 1.4705349532343135 3.9599017063631035 9.911903551801142 0 0 0
535 179 2 -1.1794 -1.7760719065730646 1.276202777514608 12.209931026205114 0 0 0
574 192 2 -1.1794 0.8230515569752344 0.9202015645916956 11.116615551836816 0 0 0
552 184 1 0.5897 -1.7917547410036692 4.688949471299373 12.271788884981216 0 0 0
537 179 1 0.5897 -2.0204109803658468 1.9416366239766236 11.566734843228026 0 0 0
575 192 1 0.5897 1.5373773845728005 0.4895016228182105 11.586020730584286 0 0 0
551 184 1 0.5897 -0.8040062274250275 5.540108614464633 13.040989439688728 0 0 0
525 175 1 0.5897 -1.2299765955431141 3.1780304365628607 10.11576323157146 0 0 0
587 196 1 0.5897 -0.886085601712518 5.637653765306633 10.55555199088895 0 0 0
560 187 1 0.5897 -2.976305897035197 3.7582904777181367 13.695960627452347 0 0 0
580 194 2 -1.1794 -1.699317288773151 2.7407509473496976 14.425283300971001 0 0 0
22 8 2 -1.1794 0.8407355150580287 3.2950153567620797 9.633554807402911 0 0 0
539 180 1 0.5897 -2.2327809542946477 2.21249135855137 17.503096522788493 0 0 0
581 194 1 0.5897 -1.2932405240684632 3.424398497278835 14.958187122256305 0 0 0
20 7 1 0.5897 -4.956562262536068 2.439476267673664 19.189018372549608 0 0 -1
564 188 1 0.5897 -1.4202524707499213 4.41598577900112 17.30139561504875 0 0 0
562 188 2 -1.1794 -0.5949387846469376 4.348323796532326 16.821387263137396 0 0 0
538 180 2 -1.1794 -2.6703295133876424 1.5542788990497627 16.963155712158784 0 0 0
563 188 1 0.5897 -0.5700077933556109 5.133818302809692 16.27490971864017 0 0 0
547 183 2 -1.1794 -3.4171267589299124 5.180197310495582 17.053765291879397 0 0 0
582 194 1 0.5897 -2.05270831600194 2.118806691189176 15.061321292186244 0 0 0
84 28 1 0.5897 -3.4476668893761344 5.8868001871337405 18.93259904482588 0 0 -1
540 180 1 0.5897 -3.531737403837287 1.4471550373044146 17.366414040728664 0 0 0
905 302 1 0.5897 -1.4851249725473616 0.29271745216063016 17.654866206455274 0 1 0
549 183 1 0.5897 -3.9666975107333826 4.504273387329534 16.657138960661143 0 0 0
526 176 2 -1.1794 -2.1700801473153515 3.100937195683536 19.200908142310148 0 0 0
199 67 2 -1.1794 1.2844835783078246 9.073560089662049 2.5885838446469203 0 0 0
220 74 2 -1.1794 3.414429023674961 11.143965477435511 3.531982989628387 0 0 0
240 80 1 0.5897 3.219140573444652 7.562977293792328 0.9293941079291769 0 0 0
10 4 2 -1.1794 2.1524449339454517 6.251919083220301 4.46461347481827 0 0 0
238 80 2 -1.1794 3.699895387187791 8.257992350586768 1.3789178678640501 0 0 0
200 67 1 0.5897 0.7121524881930497 8.352273848775187 2.3270330108497985 0 0 0
239 80 1 0.5897 3.744552933133172 8.970286824107376 0.7410313429542922 0 0 0
201 67 1 0.5897 2.1373981405481244 8.850222662015916 2.216085421004504 0 0 0
221 74 1 0.5897 4.127370790701713 11.117228533386186 2.8938902679168663 0 0 0
694 232 2 -1.1794 3.4572965081547213 10.410818587289306 0.04745410668964453 0 0 1
245 82 1 0.5897 0.43254742262426493 9.64318743028929 4.085628849667649 0 0 0
82 28 2 -1.1794 2.3212542440147406 6.047678715144409 0.3287439006486606 0 0 0
12 4 1 0.5897 1.219137998344328 6.441910286198601 4.559027421753301 0 0 0
29 10 1 0.5897 4.686711637364107 7.2822918182762955 2.4843901759176568 0 0 0
174 58 1 0.5897 2.990334452034457 9.295590291875365 4.200690370924054 0 0 0
696 232 1 0.5897 4.209228770097542 10.990096385461532 0.17081945345621363 0 0 1
173 58 1 0.5897 3.062922745478555 7.818739210930055 4.525702026110193 0 0 0
172 58 2 -1.1794 3.4345210903805814 8.66660862104601 4.7692393071252015 0 0 0
228 76 1 0.5897 1.3817932301902545 11.012409242020057 5.97657429208777 0 0 0
588 196 1 0.5897 -1.3381427865042501 6.661616250938007 9.536251443139607 0 0 0
203 68 1 0.5897 -0.5148931678559814 8.370752217008558 7.435208063017175 0 0 0
202 68 2 -1.1794 0.3521021509279487 8.703269419164831 7.2030470559297965 0 0 0
204 68 1 0.5897 0.9349482459453178 7.952352416346478 7.315207217318461 0 0 0
64 22 2 -1.1794 2.2593894690679246 6.998724249180608 7.846197184531339 0 0 0
192 64 1 0.5897 0.725994644508364 9.606483149655135 8.889336374223143 0 0 0
246 82 1 0.5897 -0.015509691165578765 9.246928945631721 5.476340377332658 0 0 0
209 70 1 0.5897 3.100249237320197 10.576951568480753 7.147986557599973 0 0 0
66 22 1 0.5897 3.063695204403709 6.598272398325862 7.516304514287662 0 0 0
65 22 1 0.5897 2.5590752638647025 7.733821123743892 8.381067958646575 0 0 0
244 82 2 -1.1794 0.10818544085249737 10.007920424285327 4.909020052854221 0 0 0
522 174 1 0.5897 2.5094942373553435 5.892444689821731 9.291608527627053 0 0 0
8 3 1 0.5897 -0.31987845260651593 6.041696680857789 5.8414848701700945 0 0 0
724 242 2 -1.1794 0.8865904156289286 10.877373348363314 13.156798023728943 0 0 0
744 248 1 0.5897 0.08971001661344946 7.210079785841924 10.871687353830385 0 0 0
586 196 2 -1.1794 -0.6400090855629359 6.032962868447638 9.719286603900965 0 0 0
742 248 2 -1.1794 0.43327403792998265 7.8905501719888065 11.450623780978555 0 0 0
703 235 2 -1.1794 -1.9438379286520346 9.020788909876668 12.426589466563321 0 0 0
743 248 1 0.5897 0.4591927504604496 8.677843283251569 10.906789181946284 0 0 0
704 235 1 0.5897 -1.1809981719573255 8.468204317703293 12.256876340833065 0 0 0
705 235 1 0.5897 -1.894224389470252 9.217741612251805 13.361969409597455 0 0 0
678 226 1 0.5897 0.8349614820006606 9.295028986783574 14.1142563770541 0 0 0
191 64 1 0.5897 1.1570785122655458 10.787051202032245 9.73339632364098 0 0 0
692 231 1 0.5897 -0.9956145985195577 10.263041409152938 9.854674511069994 0 0 0
693 231 1 0.5897 -2.1484202001295993 9.933501656558057 10.778896508312936 0 0 0
726 242 1 0.5897 0.2658861025670296 11.378886986305373 12.628274641099175 0 0 0
190 64 2 -1.1794 0.6719632624896388 9.962962517827458 9.776038636997596 0 0 0
569 190 1 0.5897 -0.9604852233542083 6.460374205852171 18.929498038256103 0 0 0
750 250 1 0.5897 -2.811407444163275 9.537218397689845 15.51735799423998 0 0 0
706 236 2 -1.1794 -3.0030695651974444 8.770315359555912 17.512124295259937 0 0 0
568 190 2 -1.1794 -0.913978722187081 7.267134789498591 18.41642578558 0 0 0
748 250 2 -1.1794 -2.4401333074185763 10.187513114108633 14.921098879067992 0 0 0
708 236 1 0.5897 -2.365555968203628 8.151955969155354 17.868960904896774 0 0 0
695 232 1 0.5897 -2.7004353609058045 10.313337055671107 18.462235149840957 0 0 0
514 172 2 -1.1794 -0.7486904291817602 6.308847381710184 14.83466551848795 0 0 0
749 250 1 0.5897 -1.9853348602873186 10.80568735823224 15.493166128501556 0 0 0
707 236 1 0.5897 -3.848908094069434 8.450815127717156 17.8261696963434 0 0 0
676 226 2 -1.1794 0.9208859180639646 8.619624132825948 14.78707227977905 0 0 0
515 172 1 0.5897 -1.7019826387201968 6.39406640999547 14.830454782535424 0 0 0