LAMMPS data file via write_data, version 30 Jul 2021, timestep = 21250000

864 atoms
2 atom types
576 bonds
1 bond types
288 angles
1 angle types

0.5557667723523334 17.651805627651477 xlo xhi
1.7461511170813413 21.883026682922775 ylo yhi
0.6780341641486398 21.53516163584321 zlo zhi

Masses

1 1.00794
2 15.9994

Pair Coeffs # lj/cut/tip4p/long/omp

1 0 0
2 0.21084 3.1668

Bond Coeffs # harmonic/omp

1 450 0.9572

Angle Coeffs # harmonic/omp

1 55 104.52

Atoms # full

522 1 1 0.5897 6.4307666514459765 2.55092249759524 2.243942394250923 -4 -5 -3
678 1 1 0.5897 4.074927934094783 2.195732172043189 2.374442977364463 10 6 -2
741 1 1 0.5897 1.1123714084741545 5.961837390311001 3.9840490964646658 5 2 3
45 1 1 0.5897 8.034057358292092 3.448064784060477 3.799281495552899 -3 7 0
10 1 2 -1.1794 2.6240114911388237 4.383205041005947 3.5929773295121 -3 -3 3
11 1 1 0.5897 2.2606179047619137 4.056825928260347 4.416219422345954 -3 -3 3
397 1 2 -1.1794 5.588885762871571 6.286657502844522 1.9330250513296778 6 2 -6
399 1 1 0.5897 4.895424339625096 5.741163488429292 2.304332711816332 6 2 -6
389 1 1 0.5897 6.7461863035008705 6.144001082066389 5.081287723164704 1 4 7
849 1 1 0.5897 1.4998223096356411 6.167362158712452 1.0052453218358173 4 4 3
12 1 1 0.5897 1.9299793185980563 4.237868904867727 2.94993480944819 -3 -3 3
390 1 1 0.5897 8.119994597658495 6.102357311996001 4.446463921104704 1 4 8
677 1 1 0.5897 3.6739410176521012 2.952680081052459 3.622783207480081 10 6 -2
388 1 2 -1.1794 7.200196555733058 6.279958814098925 4.249602367927615 1 4 8
422 1 1 0.5897 6.509867649016449 2.8967578047109668 5.59616452437077 1 4 4
44 1 1 0.5897 7.111384531854514 4.6034595664857445 4.12476115076931 -3 7 0
847 1 2 -1.1794 2.3132770281154436 6.577836165316445 0.7117749409861605 4 4 3
43 1 2 -1.1794 7.110488652949239 3.667967792405198 3.9218168624055885 -3 7 0
676 1 2 -1.1794 3.8468002942642205 2.0698691996219925 3.2955399165312884 10 6 -2
398 1 1 0.5897 6.3249244845666475 6.18262062539831 2.5361182356747056 6 2 -6
186 1 1 0.5897 8.847702352749083 6.530359220136336 1.6777507165182106 -5 0 4
184 1 2 -1.1794 8.653800523029007 5.597727608778545 1.5833717802447604 -5 0 4
521 1 1 0.5897 7.599240139734555 2.0994060491231177 1.3937015498761216 -4 -5 -3
520 1 2 -1.1794 6.653416015980831 1.9946674921008847 1.4974006110348177 -4 -5 -3
185 1 1 0.5897 8.94524261723902 5.380430501185278 0.6978467321505784 -5 0 4
739 1 2 -1.1794 0.9505550335793609 6.685006762476312 4.5899743476524755 5 2 3
320 1 1 0.5897 2.0829975780281447 1.8794658921220542 2.964714447737342 5 0 2
319 1 2 -1.1794 1.1656518487481717 2.0682485337812877 2.7668772447468104 5 0 2
321 1 1 0.5897 0.7344113075984027 2.0851162429134433 3.621330877874535 5 0 2
516 1 1 0.5897 2.175431733863732 4.482432608069605 10.382478168424845 -5 -4 4
455 1 1 0.5897 7.090753036427942 4.994215794198279 7.427577463530784 4 0 0
327 1 1 0.5897 2.0318326469576196 5.763706150148681 7.4259841037281715 -1 1 0
456 1 1 0.5897 7.640389070396172 3.5843271441357327 7.474981016770753 4 0 0
454 1 2 -1.1794 7.90607078619923 4.502516521786555 7.526589670211957 4 0 0
311 1 1 0.5897 2.2873280542609233 2.607164778371053 6.528068288693536 0 5 6
102 1 1 0.5897 0.5637875102026623 4.592828989217855 8.895767926245167 3 -5 -1
258 1 1 0.5897 5.617659584604698 2.0613859799930716 10.751290811317903 4 -1 4
307 1 2 -1.1794 6.645414234264667 2.843915345861783 9.802312983358112 1 1 -7
179 1 1 0.5897 5.923269311431342 6.584092558770512 7.302798508335391 -13 2 -5
178 1 2 -1.1794 5.637927973321396 5.927320623099707 6.66754691301067 -13 2 -5
325 1 2 -1.1794 2.7417115797459903 6.0380620736992485 6.845380942019564 -1 1 0
789 1 1 0.5897 4.044884238606377 4.444267956516356 9.369841575694068 5 -1 4
309 1 1 0.5897 6.786875845888438 3.6177452353646324 10.347741497240087 1 1 -7
634 1 2 -1.1794 4.411754640868226 3.2140102198988787 8.273057061494654 -4 2 3
636 1 1 0.5897 5.107021349461675 2.9362662980504193 7.676587729651036 -4 2 3
180 1 1 0.5897 4.68468494071633 5.908961814882226 6.753046371262651 -13 2 -5
635 1 1 0.5897 3.8481504097046924 2.445085743652125 8.359340506180938 -4 2 3
421 1 2 -1.1794 6.314391551864141 2.41543220642132 6.4001658500090395 1 4 4
787 1 2 -1.1794 3.7766344787630746 5.074940481528466 10.038120048298785 5 -1 4
326 1 1 0.5897 2.330976993619628 6.115766877358387 5.984239409350788 -1 1 0
514 1 2 -1.1794 1.2505146566806278 4.236357233200415 10.400494227377783 -5 -4 4
788 1 1 0.5897 3.6024448386294146 5.8806969049225355 9.551527005313558 5 -1 4
308 1 1 0.5897 5.833997722970614 3.028776774896568 9.329304589763982 1 1 -7
312 1 1 0.5897 1.340074064693744 3.788115044839033 6.516834055866666 0 5 6
515 1 1 0.5897 1.255233305890258 3.299325413261406 10.59606925585033 -5 -4 4
310 1 2 -1.1794 1.6637170345000825 3.072084896982176 5.970152218851391 0 5 6
535 1 2 -1.1794 4.975798504359319 3.8259447672043327 13.320840772663235 5 7 5
153 1 1 0.5897 1.5848804564673136 3.2874970783025876 14.633934505292908 1 3 -1
737 1 1 0.5897 5.035750211788123 5.802433342710415 12.637483503724438 1 4 -2
218 1 1 0.5897 4.197066234471239 5.026452780205446 14.80981801131999 4 0 1
151 1 2 -1.1794 2.381074772326898 2.758240056385687 14.586405415894115 1 3 -1
662 1 1 0.5897 2.6003030396030877 5.961279611070176 15.946532541445093 -8 -6 4
824 1 1 0.5897 8.511270656614139 4.306912763119932 11.664087533995167 -1 6 3
152 1 1 0.5897 2.417549129255044 2.4606843371292957 13.677323757595905 1 3 -2
655 1 2 -1.1794 7.485476298565468 2.5605640129893805 13.672170332134222 -7 6 4
609 1 1 0.5897 3.4311664591031996 2.9122628357514406 16.05704201737108 5 -2 5
736 1 2 -1.1794 4.584465932980158 6.4426935779143495 12.08729278048075 1 4 -2
738 1 1 0.5897 4.213421337635333 5.925566938230618 11.372303648848177 1 4 -2
103 1 2 -1.1794 6.8902324570236315 6.344577653640126 13.695116419689782 3 -4 2
826 1 2 -1.1794 2.3397837910882693 2.0544143337965584 11.914835266501665 -7 5 8
657 1 1 0.5897 7.716812162248859 2.0886102528956565 12.872144703784967 -6 6 4
105 1 1 0.5897 6.5668099261831205 6.18498986438607 14.581840199508058 3 -4 2
537 1 1 0.5897 4.75590744493053 3.3785938096036943 12.503628753334482 5 7 5
219 1 1 0.5897 4.502472728687424 5.577881955180672 16.186306553109468 4 0 1
656 1 1 0.5897 8.153499849462317 2.299872985203208 14.30627713593817 -7 6 4
825 1 1 0.5897 7.517604123687515 5.275064184342526 12.270219212992115 -1 6 3
217 1 2 -1.1794 4.279735980184384 5.847350781236949 15.29519701944724 4 0 1
536 1 1 0.5897 5.891678928444903 3.5978373390470084 13.480377112902858 5 7 5
336 1 1 0.5897 1.253068014272782 5.8203579478071 13.039780779752775 -2 -1 6
823 1 2 -1.1794 7.68104772359123 4.749324266664228 11.487153118965779 -1 6 3
335 1 1 0.5897 0.9033413853298753 4.762102580449939 12.015156690575475 -2 -1 6
98 1 1 0.5897 8.426623237957056 6.365877363028845 11.328518881149462 0 -7 1
827 1 1 0.5897 3.230149414881902 1.982018553461701 11.570875947958465 -7 5 8
146 1 1 0.5897 6.14945390535397 1.905818245715211 14.459976369944659 -3 4 -4
147 1 1 0.5897 5.031674588561536 1.974837546131174 15.478752247272675 -3 4 -4
256 1 2 -1.1794 4.953752652600544 1.769831905009589 11.376209312226276 4 -1 4
84 1 1 0.5897 3.253799602005984 4.206452939225667 19.76663017090428 -6 4 -6
283 1 2 -1.1794 7.8173796895224 5.575016148278178 16.673271720510137 9 -5 -3
215 1 1 0.5897 6.696731187863184 3.6346922115297926 19.363674821458844 1 -3 6
607 1 2 -1.1794 4.155357209876843 2.9698465504281115 16.680384222545364 5 -2 5
420 1 1 0.5897 8.15421469162678 3.2301247373871567 18.036749134882 -5 -5 4
704 1 1 0.5897 5.439108622571714 6.307840962242327 18.51065150958884 -1 -1 -7
848 1 1 0.5897 2.8601077046023455 5.84720219232219 21.279954065557362 4 4 2
681 1 1 0.5897 6.654476343653199 5.339772076557626 21.231787209971195 4 -4 -6
680 1 1 0.5897 7.254814157711065 5.454999645968719 19.846723044036715 4 -4 -6
671 1 1 0.5897 1.552096743804256 3.333619146126103 18.66351357384388 6 -5 -3
216 1 1 0.5897 6.093327402001683 3.480494401124924 17.98374151797786 1 -3 6
705 1 1 0.5897 6.074078356266488 5.716202738542901 17.270125278505148 -1 -1 -7
608 1 1 0.5897 4.020086546448242 2.2313581964024953 17.274258863431612 5 -2 5
703 1 2 -1.1794 5.296688497220606 5.654889795024406 17.82531840074096 -1 -1 -7
670 1 2 -1.1794 2.227820296012732 3.9717262972950462 18.43416408202173 6 -5 -3
663 1 1 0.5897 1.8911385450591003 5.155628543625344 17.014305837654035 -8 -6 4
672 1 1 0.5897 2.797155424027831 3.5081090672534216 17.81996520324047 6 -5 -3
214 1 2 -1.1794 6.679010550536737 3.0495562765840756 18.60630187726752 1 -3 6
284 1 1 0.5897 7.936070425235658 6.176505331101944 17.408458549054217 9 -5 -3
285 1 1 0.5897 8.412726630171424 4.84876114152825 16.858816318182747 9 -5 -3
83 1 1 0.5897 4.707938266840638 4.404432441434539 20.138584216552445 -6 4 -6
765 1 1 0.5897 3.8932842156729257 2.4564785152979245 21.040667019197308 -9 -1 -4
82 1 2 -1.1794 3.847700139302908 4.222879964091574 20.517171812229137 -6 4 -6
679 1 2 -1.1794 6.74104237969926 4.869143246746625 20.402728048307132 4 -4 -6
661 1 2 -1.1794 1.7588644509635458 5.872870886756927 16.39431170079102 -8 -6 4
413 1 1 0.5897 1.2472455582676596 5.980431768318328 18.96961816674021 4 2 4
418 1 2 -1.1794 9.058132462461613 3.377887719445073 17.758529734185544 -5 -5 4
650 1 1 0.5897 6.1308024782589365 10.06631905617774 3.425849974977435 4 2 0
71 1 1 0.5897 8.599187905249089 9.027044106369331 1.8144845942447625 15 -3 -1
768 1 1 0.5897 2.8374406180023626 7.71270100570628 2.1386865897812584 -1 3 8
245 1 1 0.5897 5.217871021598712 7.932741079971675 1.157357426880201 -6 6 3
639 1 1 0.5897 4.5402143637206045 8.15544422062596 4.090919334302388 -7 -7 4
606 1 1 0.5897 2.617690733150604 9.775656899129524 2.7292292052378464 -4 0 -2
637 1 2 -1.1794 5.345684854731834 8.540394998320401 4.43635771159143 -7 -7 4
612 1 1 0.5897 5.6790990998261 11.49919416634548 5.593038177408324 4 -1 -2
604 1 2 -1.1794 2.5186085267409983 10.721210971607862 2.617754455059883 -4 0 -2
246 1 1 0.5897 5.481695090821607 9.349723950279664 1.6206284907079818 -6 6 3
638 1 1 0.5897 6.0000561814171185 7.847382928029047 4.347864688159022 -7 -7 4
767 1 1 0.5897 2.2914035794112975 7.6289654974871475 3.548259161479981 -1 3 8
649 1 2 -1.1794 6.370850710357303 10.605784649813804 2.6723902688101546 4 2 0
244 1 2 -1.1794 5.029193600752276 8.846534275149182 0.9435992368101268 -6 6 3
651 1 1 0.5897 5.57971582300638 11.106929855506527 2.4742152777833977 4 2 0
766 1 2 -1.1794 2.771210499116916 8.207473265533935 2.955456708996935 -1 3 8
605 1 1 0.5897 3.2524112353521772 11.09827280253101 3.103235316035853 -4 0 -2
75 1 1 0.5897 7.42807194475229 9.99008461439655 5.7248885612997 3 -2 2
72 1 1 0.5897 8.472400245455567 8.474645914726322 3.2183508738920983 15 -3 -1
74 1 1 0.5897 8.745028214415271 10.107219298448596 4.987309306370268 3 -2 2
70 1 2 -1.1794 8.829376551132048 8.270540142164775 2.35393985987256 15 -3 -1
73 1 2 -1.1794 8.06861074002732 9.476073659015334 5.233099456072336 3 -2 2
457 1 2 -1.1794 4.393622687596884 11.739198331640774 4.3521105238372915 -5 3 -4
459 1 1 0.5897 3.627849197570449 11.679564187460103 4.923366664454679 -5 3 -4
524 1 1 0.5897 1.3750673380340732 11.657558753954175 5.27867991182874 -1 1 5
756 1 1 0.5897 3.9673567178636095 11.74955713478034 1.046630002051321 -7 -5 -3
752 1 1 0.5897 4.43533357911057 8.963757969757523 6.027072931359486 1 -3 2
6 1 1 0.5897 6.375770503976929 10.244434852931755 10.933145082551677 1 1 -2
619 1 2 -1.1794 1.5294692724349526 11.607536781458437 8.228395319349602 -1 -5 7
502 1 2 -1.1794 1.1104930001149134 8.450106474658686 9.490298282804245 -1 1 6
781 1 2 -1.1794 3.9192610816595876 7.785969667278018 9.48476631078499 -7 1 -2
4 1 2 -1.1794 6.5336376629882995 10.832842206795027 10.19478003734968 1 1 -2
783 1 1 0.5897 4.354374295609679 7.8311011268177415 10.33620997013307 -7 1 -2
50 1 1 0.5897 6.02048912862971 8.099149745339258 8.818808037496444 5 -3 -3
640 1 2 -1.1794 8.609348401730617 9.881213985807706 8.779670125117836 -3 7 -4
37 1 2 -1.1794 0.8299588364260375 8.840587780426931 6.695198436610452 -5 -4 -4
49 1 2 -1.1794 6.7380113623340225 7.845779889644505 8.238052094497988 5 -3 -3
620 1 1 0.5897 2.4629272534339557 11.701023582071487 8.418700532335192 -1 -5 7
39 1 1 0.5897 1.758242703218097 8.996959376738225 6.521561416936124 -5 -4 -4
753 1 1 0.5897 3.9241044408531485 8.090230832135017 7.153045562793124 1 -3 2
554 1 1 0.5897 4.137058487288401 10.329274143827792 7.899444638394337 -5 -6 4
553 1 2 -1.1794 4.254151069341221 11.203297445186676 8.271836141749375 -5 -6 4
555 1 1 0.5897 4.941948811540801 11.094181414418212 8.928593959297434 -5 -6 4
51 1 1 0.5897 7.321495976922255 8.604624684890409 8.232279788993061 5 -3 -3
782 1 1 0.5897 3.068668577528241 8.201178935943158 9.62762679398122 -7 1 -2
642 1 1 0.5897 7.824401534070333 10.192901107600154 9.230232722810662 -3 7 -4
611 1 1 0.5897 5.658407613406385 11.223811361641527 7.081595290012147 4 -1 -2
751 1 2 -1.1794 3.82578268995634 8.959835720339106 6.765169521163043 1 -3 2
5 1 1 0.5897 6.780540072642134 11.664573899583464 10.599247359727974 1 1 -2
610 1 2 -1.1794 6.253894015332476 11.331685524785991 6.339932577621069 4 -1 -2
503 1 1 0.5897 1.1131799474552841 8.560366259751316 8.539436404277296 -1 1 6
600 1 1 0.5897 8.99570641131491 11.471491336103753 7.871612727307919 2 -1 -5
38 1 1 0.5897 0.614777608895551 8.06819196511365 6.172317941353884 -5 -4 -4
232 1 2 -1.1794 3.635355571584711 10.411896477825845 11.796396072587479 -4 -2 1
33 1 1 0.5897 4.760801035444183 7.487718403336895 15.675664253475546 2 8 2
654 1 1 0.5897 5.082926750488048 9.419245283976382 14.353501613821681 -4 -2 4
653 1 1 0.5897 4.784137401711759 10.19312972820659 13.087050466062845 -4 -2 4
234 1 1 0.5897 2.6781654573547717 10.408854747583767 11.805506637849605 -4 -2 1
263 1 1 0.5897 6.18239393646775 11.289595686956398 15.056096497076824 2 0 0
69 1 1 0.5897 6.218879360207554 9.049864739765617 12.582637884719306 9 -5 1
466 1 2 -1.1794 0.7055471612003752 10.013179689013525 12.039821651827673 2 3 8
229 1 2 -1.1794 3.1780460024139447 11.485945968899927 14.668869836020999 1 -1 1
832 1 2 -1.1794 2.2933512720454203 7.338219467902206 13.303289691035268 8 -3 -1
652 1 2 -1.1794 5.471984080424889 10.036792598152187 13.734164210041971 -4 -2 4
812 1 1 0.5897 0.6215302759410051 10.21467592199243 15.1896348008319 -3 8 3
834 1 1 0.5897 2.413105389687532 8.018640917868002 13.965847487291187 8 -3 -1
281 1 1 0.5897 2.2119753451085904 8.9151970695208 16.298678521926767 -4 -4 -2
749 1 1 0.5897 8.523732397019774 11.553508022978637 15.467358399023675 -2 6 0
31 1 2 -1.1794 5.1564948249645335 8.281154293273854 16.036481418517 2 8 2
770 1 1 0.5897 8.874851660464161 7.542213472864151 15.217260591475092 4 0 0
282 1 1 0.5897 2.6654338144733623 9.870183038306042 15.214959299336854 -4 -4 -2
833 1 1 0.5897 3.1535027915377287 6.925396670809138 13.225034755025773 8 -3 -1
280 1 2 -1.1794 2.1382786794588537 9.084338527654578 15.359392034565017 -4 -4 -2
368 1 1 0.5897 6.933247122371052 11.135178592302818 13.03097932589142 4 11 -6
68 1 1 0.5897 5.754563503217089 7.80314990151186 11.860018904591113 9 -5 1
233 1 1 0.5897 3.8689567081701783 11.253214837658787 11.404070969585852 -4 -2 1
67 1 2 -1.1794 6.352431854245777 8.546372038420039 11.779528300423689 9 -5 1
104 1 1 0.5897 7.674107837273284 6.879999247252616 13.818283106739358 3 -4 2
367 1 2 -1.1794 7.635570726545768 11.616267977516845 12.593259866836073 4 11 -6
97 1 2 -1.1794 8.753400427202273 7.258170404224436 11.212837908975107 0 -7 1
468 1 1 0.5897 0.7520162703988713 9.67004231040405 11.147372176038186 2 3 8
99 1 1 0.5897 7.985077315843956 7.813959978281109 11.343515339897317 0 -7 1
262 1 2 -1.1794 6.693958424001749 11.645677186600114 15.782605574176078 2 0 0
230 1 1 0.5897 2.428127142795139 11.78473020057785 14.154396984537316 1 -1 1
436 1 2 -1.1794 6.58403916458282 11.72190867585728 20.586185750727992 -7 2 -1
414 1 1 0.5897 1.6200204280188164 6.8843675666652455 20.12553497510953 4 2 4
861 1 1 0.5897 2.582512001597692 7.962197342309691 18.205837678659833 -1 -2 8
596 1 1 0.5897 5.8924321744300086 11.236542986025956 18.9620165491395 6 -6 4
860 1 1 0.5897 2.988816242371929 9.339493956683881 18.685544523274856 -1 -2 8
176 1 1 0.5897 8.891012926255483 7.108497903979346 19.531873631601606 -4 -6 6
461 1 1 0.5897 8.111859570365464 8.908121059458901 17.304176490261995 -2 2 -7
859 1 2 -1.1794 3.099774395555745 8.728320802314114 17.957205172933747 -1 -2 8
412 1 2 -1.1794 1.314682138900809 6.902308759150782 19.218456811655003 4 2 4
90 1 1 0.5897 5.711419228560725 9.178910866550849 18.82711514443608 2 -6 -2
89 1 1 0.5897 5.544993361985073 8.518246491290006 20.179109904490588 2 -6 -2
718 1 2 -1.1794 2.82971103996991 10.062314480168402 20.451567838614984 -1 4 4
88 1 2 -1.1794 5.794743430436949 8.336061245373568 19.273163124738176 2 -6 -2
719 1 1 0.5897 3.620256405225238 9.614964688742418 20.753600516096668 -1 4 4
437 1 1 0.5897 7.204963739620017 11.026820738347249 20.804427647779683 -7 2 -1
850 1 2 -1.1794 8.900392261941633 10.212311363241552 21.445884043427483 -13 0 -6
595 1 2 -1.1794 5.573259102050873 10.915166720785178 18.118714329713313 5 -6 4
177 1 1 0.5897 7.458647142324521 7.525893098378839 19.27463644322463 -4 -6 6
597 1 1 0.5897 4.709999161855122 11.316827589887769 18.019937416875997 5 -6 4
720 1 1 0.5897 2.192563009126464 9.92294970296126 21.152232660481722 -1 4 4
593 1 1 0.5897 1.8053510244840985 11.532463120057066 20.57972982319125 -3 2 -6
32 1 1 0.5897 4.753500067353733 8.37936383301188 16.899188337693182 2 8 2
175 1 2 -1.1794 8.101449871236609 6.851207108902511 19.055748825125818 -4 -6 6
240 1 1 0.5897 8.385563524522343 10.551250288204029 18.55221760149147 -9 -3 0
264 1 1 0.5897 6.387699045585265 11.1635471412864 16.550783955984727 2 0 0
238 1 2 -1.1794 8.873809701966426 9.756032548441175 18.765726659661148 -9 -3 0
460 1 2 -1.1794 7.899529360904869 8.564918674231397 16.436161130256806 -2 2 -7
351 1 1 0.5897 2.300789539116047 11.524902926693024 17.845627216174584 -12 5 2
474 1 1 0.5897 0.5827560416159656 8.66722168510013 18.616565307153564 4 -1 -5
462 1 1 0.5897 6.98579185741397 8.287915758617057 16.504527448014496 -2 2 -7
647 1 1 0.5897 1.518465070222883 12.183847650195206 2.597275552569031 -9 0 6
754 1 2 -1.1794 4.486112784854582 12.53321474458503 1.228505397304703 -7 -5 -3
836 1 1 0.5897 7.867872180912016 13.646062062938354 0.8547813987213013 0 2 -5
61 1 2 -1.1794 2.173815988656834 14.663717562590588 3.980094275080039 0 2 2
407 1 1 0.5897 4.047488164501377 14.490634586975045 1.674400708803202 -14 1 2
646 1 2 -1.1794 0.8482125084578508 12.848106317326552 2.436472237026197 -9 0 6
62 1 1 0.5897 1.5526907301802175 15.276202707952383 4.374303244807178 0 2 2
165 1 1 0.5897 5.520403371946924 14.81262812193586 3.0828487276968217 -8 1 -4
523 1 2 -1.1794 2.0716975234622894 12.189582139685028 5.663458545330812 -1 1 5
648 1 1 0.5897 1.0456545118737046 13.544759429292 3.062571791724724 -9 0 6
163 1 2 -1.1794 6.385848828246734 14.579286626956733 3.4188424394734507 -8 1 -4
542 1 1 0.5897 4.668418956622847 15.344128103484588 5.567047454915477 -14 6 3
450 1 1 0.5897 7.41549032002349 13.197588599459458 2.7824209003465565 8 -1 -5
406 1 2 -1.1794 4.102946858597557 15.318815769426358 2.151211611950255 -14 1 2
449 1 1 0.5897 7.657746979563257 11.859141485080004 2.1176306766084823 8 -1 -5
448 1 2 -1.1794 8.087091734353962 12.68825133634123 2.3287363487939463 8 -1 -5
164 1 1 0.5897 6.855775714577991 15.411689870894444 3.470112372625627 -8 1 -4
458 1 1 0.5897 4.526390918213576 12.678760480403026 4.226021915396444 -5 3 -4
63 1 1 0.5897 2.539751517488126 14.18216767640812 4.722064189143401 0 2 2
408 1 1 0.5897 3.297144511032124 15.353360242305385 2.666765035950803 -14 1 2
755 1 1 0.5897 5.273172961851494 12.429502925198788 0.6936236946158042 -7 -5 -3
602 1 1 0.5897 7.109356169781936 14.013321574929257 5.155958260642519 6 3 0
198 1 1 0.5897 1.9761511695117515 14.723476672012128 9.494566505417291 0 -4 -3
141 1 1 0.5897 6.976159869881342 13.689211980693615 8.232518823113555 -4 5 0
79 1 2 -1.1794 4.119348472674058 13.051178787454276 10.638162810771211 8 3 -3
601 1 2 -1.1794 7.244167497780994 13.911087610778363 6.098134262647302 6 3 1
483 1 1 0.5897 3.9890090029831966 15.579262577055333 8.937301622667585 -4 0 -4
645 1 1 0.5897 8.97068609330398 15.618823336955016 7.943364960289703 3 -4 -1
482 1 1 0.5897 3.809696314676312 14.979242763726964 7.558912354379851 -4 0 -4
603 1 1 0.5897 7.003578059463788 13.002151424499441 6.27777656015633 6 3 1
140 1 1 0.5897 7.5090505010680175 13.68266621214094 9.649578783663049 -4 5 0
139 1 2 -1.1794 6.71000045202276 13.545359805498245 9.140687231152416 -4 5 0
525 1 1 0.5897 1.9576189480867627 12.087345919575087 6.608362632134577 -1 1 5
80 1 1 0.5897 3.556145117823406 13.823656081115155 10.588995166607079 8 3 -3
481 1 2 -1.1794 3.318715695688911 15.273212028374521 8.32628255668046 -4 0 -4
621 1 1 0.5897 1.1926057870327456 12.503539118329696 8.233436441798842 -1 -5 7
559 1 2 -1.1794 8.936874758307397 13.732212703228646 10.60493134958309 5 2 2
498 1 1 0.5897 6.084888060727539 15.355398794218749 9.406485169102044 7 -1 2
643 1 2 -1.1794 8.756035931022652 16.35607049236419 8.514935224854309 3 -4 -1
81 1 1 0.5897 4.645749621155803 13.086723788982642 9.839424508597505 8 3 -3
196 1 2 -1.1794 1.6227371712276724 14.270896563794985 10.260442970177222 0 -4 -3
111 1 1 0.5897 0.9562945385264074 13.967970034774416 6.607775307729494 -3 3 -15
496 1 2 -1.1794 5.69949468015439 16.1467261433994 9.782754532918183 7 -1 3
786 1 1 0.5897 0.9989400892726709 16.769239634018426 6.519881416226198 4 7 4
197 1 1 0.5897 1.5215907795768169 14.95767707076902 10.919566926770482 0 -4 -3
785 1 1 0.5897 1.938319426831597 16.494975594584467 7.6750507602646545 4 7 4
560 1 1 0.5897 8.893589766455754 14.627620585126476 10.940627891609141 5 2 2
497 1 1 0.5897 5.800461854654054 16.810587856581694 9.100559016288214 7 -1 3
541 1 2 -1.1794 4.498623645576478 14.510214362908279 6.005308867310483 -14 6 3
543 1 1 0.5897 5.347373549911351 14.067712238073794 6.016330302359112 -14 6 3
801 1 1 0.5897 2.380954387160735 14.508877082763728 12.7368904041097 2 0 5
369 1 1 0.5897 7.654730885180143 12.466166568147864 13.033268128471876 4 11 -7
434 1 1 0.5897 6.607544247649922 13.99424704463532 13.63814056111929 1 5 -5
359 1 1 0.5897 3.865461779680947 14.105851695697444 14.607149547127946 6 7 -8
358 1 2 -1.1794 3.6344922202950154 14.516467955127137 15.440469350697024 6 7 -8
194 1 1 0.5897 0.8219322997894944 13.258687141665783 13.540679606351869 0 -7 -3
193 1 2 -1.1794 1.5163626925838636 12.953259600938411 12.956877478669218 0 -7 -3
564 1 1 0.5897 4.386389426551986 12.455490366742248 13.700476891055407 0 -4 1
447 1 1 0.5897 8.593389304147207 14.472183959185047 15.144007654151366 1 4 -2
433 1 2 -1.1794 7.559550084157027 14.092928636788432 13.654837197145898 1 5 -5
130 1 2 -1.1794 8.65582187325306 16.073937279585852 12.046849682634342 -6 1 -4
563 1 1 0.5897 4.735138963327368 13.240181940995523 12.453603259001373 0 -4 1
799 1 2 -1.1794 2.6364842406733713 15.430200174144815 12.690294073679363 2 0 5
347 1 1 0.5897 3.5463327641157507 16.16176583247516 16.00648292026395 -2 1 -6
224 1 1 0.5897 1.7279511737487117 13.859420680561287 15.889316894087274 5 -1 -6
377 1 1 0.5897 5.7437515125472745 16.06425135213009 11.84418870305242 9 7 -1
562 1 2 -1.1794 4.977415950029882 13.133797399217025 13.373543135481004 0 -4 1
435 1 1 0.5897 7.724101480067774 14.912187565171143 13.187868149739884 1 5 -5
376 1 2 -1.1794 5.345920947955024 16.297127834329263 12.683116238325717 9 7 -1
378 1 1 0.5897 4.516685938774838 15.819120437086319 12.696411255301925 9 7 -1
800 1 1 0.5897 1.9328103938910912 15.89748342875403 13.140655419037161 2 0 5
223 1 2 -1.1794 0.8153649714151165 13.743836877008754 16.15413571923647 5 -1 -6
195 1 1 0.5897 1.1327509578541828 13.002642840984477 12.081235790164769 0 -7 -3
360 1 1 0.5897 4.386280215369576 14.346580576649908 16.00817202708239 6 7 -8
231 1 1 0.5897 3.134240090302607 11.997874527754561 15.476550295532727 1 -1 1
446 1 1 0.5897 9.031971842086357 15.403774418663842 16.253908843290503 0 4 -2
629 1 1 0.5897 6.386169154235624 13.503462549365878 16.60564554131323 -3 -1 1
225 1 1 0.5897 0.8304282972589394 12.990770080101063 16.744901662466674 5 -1 -6
243 1 1 0.5897 8.674281114670755 12.820946203054959 17.27414358201922 3 -3 4
843 1 1 0.5897 3.1412896493371774 14.69743797641226 18.955152896489707 -6 2 -2
438 1 1 0.5897 7.1333014538669035 12.478233775417982 20.37977852995065 -7 2 -1
411 1 1 0.5897 6.524462814302493 15.965084439936925 17.308990141414547 5 -2 -5
349 1 2 -1.1794 3.1407742803558367 11.88553015903058 17.561591514023796 -12 5 2
415 1 2 -1.1794 6.120884085237032 15.80875425067161 20.220150453299595 4 -2 -1
594 1 1 0.5897 1.2176270800192288 12.701263645602388 21.341687941912113 -3 2 -6
241 1 2 -1.1794 8.480920879647476 12.383067413033773 18.10310553354801 3 -3 4
417 1 1 0.5897 5.254550526873247 15.518779460050157 19.9343561498208 4 -2 -1
837 1 1 0.5897 7.35428705180233 14.639310595360994 20.691225827486413 0 2 -6
630 1 1 0.5897 5.548666128055438 13.930902670136193 17.792219331916577 -3 -1 1
251 1 1 0.5897 0.6978005111492962 12.366056749278043 18.66950986640751 -1 -12 3
125 1 1 0.5897 2.276353259730084 16.560392027350854 19.34062982706726 3 -3 6
592 1 2 -1.1794 1.667123730100452 12.478181690795164 20.526525689958348 -3 2 -6
835 1 2 -1.1794 8.006028924407213 13.949129223996161 20.81448401718552 0 2 -6
350 1 1 0.5897 3.283582488573189 12.640046614787556 18.13309978073479 -12 5 2
126 1 1 0.5897 2.0425483721720052 16.444250685576286 17.849342847773528 3 -3 6
628 1 2 -1.1794 5.91483079634818 14.25336710329318 16.968662279505814 -3 -1 1
842 1 1 0.5897 3.435854803158801 13.604367016704588 19.960416098991146 -6 2 -2
841 1 2 -1.1794 3.7668257724384357 14.00078056262287 19.154416844319364 -6 2 -2
124 1 2 -1.1794 1.942782235476927 15.963269532843766 18.67093882519883 3 -3 6
780 1 1 0.5897 8.309080427855637 16.449192752967853 18.236699013140154 -3 2 3
416 1 1 0.5897 5.959140123010138 16.63458169902765 20.67638263818175 4 -2 -1
278 1 1 0.5897 3.673331860760055 16.462648358991615 21.40326057878645 2 -1 1
242 1 1 0.5897 9.0531762642073 12.811237986577053 18.73989933732109 3 -3 4
303 1 1 0.5897 5.969211337346144 19.79197238600318 4.475226109639782 -2 6 4
3 1 1 0.5897 7.235363956219577 18.225795833207357 3.4156942659193312 2 -8 6
463 1 2 -1.1794 2.50016791627351 19.30287728831943 5.853795609306142 3 -2 3
354 1 1 0.5897 8.300910098026932 17.590209750854036 0.9120755404380659 7 2 0
183 1 1 0.5897 4.005349462741537 17.163402436925633 4.326393472343454 -5 1 -2
1 1 2 -1.1794 7.2113629475621925 17.431519191401172 3.9494339433937355 2 -8 6
213 1 1 0.5897 3.5628636429593987 18.899461742275875 2.0881468541176127 3 -4 5
565 1 2 -1.1794 2.4161116672778786 17.96231734817829 3.1852255708096404 -2 1 -3
624 1 1 0.5897 7.131270094462647 20.745586594916844 2.5188672015723266 3 4 6
211 1 2 -1.1794 4.127238972508083 19.15109557123054 1.357044970052298 3 -4 5
623 1 1 0.5897 7.817742729623763 20.38797114868884 3.8200010408956717 3 4 6
182 1 1 0.5897 5.496584557324095 17.251105321818073 4.572603594783196 -4 1 -2
288 1 1 0.5897 8.656863404499362 19.74355332580116 5.754853678644998 3 -1 2
302 1 1 0.5897 4.611485543033504 20.439760702482054 4.304811412464739 -2 6 4
622 1 2 -1.1794 7.449490017310087 19.999098798408916 3.0266075396629804 3 4 6
566 1 1 0.5897 1.7112210474146805 18.053201021385874 2.543995887983606 -2 1 -3
212 1 1 0.5897 3.745323599336828 19.96487410423572 1.028084146899623 3 -4 5
301 1 2 -1.1794 5.196553960164774 20.070961806759733 4.966629536205995 -2 6 4
567 1 1 0.5897 2.1102674181102756 18.45157056943399 3.9490534797814165 -2 1 -3
2 1 1 0.5897 8.069058880009456 17.40127528044731 4.373396455292159 2 -8 6
181 1 2 -1.1794 4.667312380207952 17.05708593245017 5.00962649859 -5 1 -2
34 1 2 -1.1794 3.522787619158632 19.04898188716401 9.524464864140525 0 0 -2
819 1 1 0.5897 7.274499848441153 18.64217861869421 10.79574008657969 -2 -3 1
686 1 1 0.5897 4.889485679612454 17.539155149137986 6.764464150345728 5 -10 -8
86 1 1 0.5897 1.2921654976892476 21.462458512327046 9.03160196874328 6 9 4
784 1 2 -1.1794 1.4461024721609133 17.197362913997097 7.249989079424477 4 7 4
121 1 2 -1.1794 2.686046574953827 21.366332658164957 8.042395947152702 3 -3 2
123 1 1 0.5897 2.2095521818565764 20.855156148696146 7.388213408533673 3 -3 2
36 1 1 0.5897 2.980481894461287 18.429730276281738 10.013067409103602 0 0 -2
745 1 2 -1.1794 8.391055823898123 20.983735815802177 8.680721680298516 0 6 -8
300 1 1 0.5897 7.791814233809401 19.381430250175875 7.75809933412537 -4 1 -2
794 1 1 0.5897 4.846502426232303 19.315713728040222 10.717219807572542 -4 3 3
298 1 2 -1.1794 7.776473813152203 18.694166105345204 7.091958810893476 -4 1 -2
817 1 2 -1.1794 8.208502554938605 18.5622978112088 10.601911126225907 -2 -2 1
746 1 1 0.5897 7.843951892520683 21.568698615518336 9.204928434821259 0 6 -8
35 1 1 0.5897 3.884636021206959 18.53401580559637 8.803233266655962 0 0 -2
122 1 1 0.5897 3.0668419487812626 20.711642662113682 8.6277872386645 3 -3 2
299 1 1 0.5897 8.149725176496414 17.928409657092537 7.528545942394013 -4 1 -2
687 1 1 0.5897 5.933228506542644 18.504926269251108 7.284041334377254 5 -10 -8
685 1 2 -1.1794 5.093162061486902 18.10504323587751 7.509170531999722 5 -10 -8
142 1 2 -1.1794 2.0918782651381775 17.31476843010025 10.726906878523597 7 2 6
818 1 1 0.5897 8.26553055549467 17.82344726700091 9.995978427608552 -2 -2 1
465 1 1 0.5897 2.2658018800949815 18.527920211710324 6.3644926718510195 3 -2 3
423 1 1 0.5897 5.909455000725109 21.738450010048552 6.100225107595682 1 3 4
464 1 1 0.5897 3.453317809840602 19.357057903915653 5.923588398639427 3 -2 3
846 1 1 0.5897 1.278533702568837 21.236621697978443 15.613937428843938 -6 -4 5
249 1 1 0.5897 5.092697493510462 20.03160479638629 14.187304484893948 -5 3 -4
627 1 1 0.5897 1.8760834411388514 19.387956809759018 15.0573499508482 -3 -4 5
28 1 2 -1.1794 8.536426862375869 20.86067965192032 11.885080975411379 -7 3 7
682 1 2 -1.1794 1.2131735281770322 19.680668433551197 12.17768297746701 1 0 -6