LAMMPS data file via write_data, version 30 Jul 2021, timestep = 14750000

864 atoms
2 atom types
576 bonds
1 bond types
288 angles
1 angle types

0.43317364287362636 17.774398757123297 xlo xhi
1.6017526038060126 22.027425196200042 ylo yhi
0.5284708325294218 21.684724967477855 zlo zhi

Masses

1 1.00794
2 15.9994

Pair Coeffs # lj/cut/tip4p/long/omp

1 0 0
2 0.21084 3.1668

Bond Coeffs # harmonic/omp

1 450 0.9572

Angle Coeffs # harmonic/omp

1 55 104.52

Atoms # full

170 1 1 0.5897 1.8337645385073769 5.343152167472251 5.4506801016670785 -3 3 -3
43 1 2 -1.1794 6.755082207119419 1.9158064873509066 5.1756353080879425 0 6 0
734 1 1 0.5897 1.1469726020061102 2.9305634604956543 5.0688904019657635 -3 1 -1
110 1 1 0.5897 9.058752234487866 1.9961157977636501 3.083941798613378 -2 -3 -8
109 1 2 -1.1794 8.44010761475805 2.7210379079798512 2.9941980490183813 -2 -3 -8
441 1 1 0.5897 3.0079515870171787 2.550733978228532 3.7234607602833885 0 1 -2
143 1 1 0.5897 2.1879931807640967 1.6781638153019598 0.7296023348041214 2 6 4
96 1 1 0.5897 4.3177680119046595 3.7687204085133774 1.9701775930884988 -1 3 1
798 1 1 0.5897 0.6277799084384448 4.309374213220476 2.57816825258124 -1 -4 -1
476 1 1 0.5897 5.762724527833377 4.976268110900598 4.231461724431652 5 -4 0
861 1 1 0.5897 6.681218635678846 2.807567295243065 2.056760933839705 -2 -4 0
94 1 2 -1.1794 3.404353059501637 3.8457635136396835 2.2459204484285884 -1 3 1
475 1 2 -1.1794 5.780041829257781 4.903580046825413 5.185766387665171 5 -4 0
400 1 2 -1.1794 3.524269936039048 6.595990115200548 3.326903986544095 1 0 1
111 1 1 0.5897 7.896539601332598 2.671398474427796 3.7805424515098625 -2 -3 -8
95 1 1 0.5897 3.3442473198773226 4.717689894699409 2.636344204829742 0 3 1
477 1 1 0.5897 6.710857733321195 4.880186238246156 5.407833670623019 5 -4 0
859 1 2 -1.1794 5.961499507711073 3.0500640335907856 1.474125337804336 -2 -4 0
860 1 1 0.5897 5.822069377408468 2.2752639638607577 0.9295990013656974 -2 -4 0
169 1 2 -1.1794 2.5040897352583125 5.951813966862492 5.761292433472886 -3 3 -3
116 1 1 0.5897 8.516347563211234 6.276729585448715 4.100890454357027 -2 -2 3
209 1 1 0.5897 5.47994064512417 6.543311279539652 5.755527823895471 1 -1 1
45 1 1 0.5897 6.078715991403289 2.283519648828006 5.744508850752937 0 6 0
440 1 1 0.5897 3.1760322809842068 2.4750549712474244 5.226134580640077 0 1 -2
401 1 1 0.5897 3.1623301784065623 6.41770801264812 4.194964722457853 1 0 1
439 1 2 -1.1794 2.7153098963255133 2.064564694629201 4.494349308217167 0 1 -2
796 1 2 -1.1794 0.7140021471904784 5.262677940914445 2.569135050828897 -1 -4 -1
733 1 2 -1.1794 0.5039297401505818 3.579672965941629 5.3542620668362195 -3 1 -1
14 1 1 0.5897 5.105480321990687 6.166559171235468 2.6781074666263223 2 -4 -2
15 1 1 0.5897 5.9210643856616105 5.431293955050554 1.6359007831785055 2 -4 -2
13 1 2 -1.1794 5.977993019584938 5.808861089311622 2.513665028207123 2 -4 -2
735 1 1 0.5897 0.6282081525774798 3.640286177962386 6.301450102389417 -3 1 -1
479 1 1 0.5897 2.0255299077400375 4.283774476085915 8.19805720746474 -2 4 -3
56 1 1 0.5897 3.633958328165496 4.444560984047494 7.591067244512805 -1 0 1
297 1 1 0.5897 7.884976587134517 5.810483207603671 8.516678549725649 -2 4 -1
204 1 1 0.5897 6.155830033953966 5.6449235941758635 9.90712503373912 -5 4 0
203 1 1 0.5897 5.122696589270542 5.24351571540676 8.875859050971973 -5 4 0
712 1 2 -1.1794 4.137864582157887 2.1688599996120046 10.381013046785837 -8 -2 3
363 1 1 0.5897 6.366992976156449 3.525158587358842 8.694393335252466 4 -2 -2
478 1 2 -1.1794 1.226048140819704 3.7800771531316086 8.045022093607129 -2 4 -3
57 1 1 0.5897 3.174540835491955 5.887099300128946 7.598571959813035 -1 0 1
55 1 2 -1.1794 3.4765555614739485 5.185824998382093 8.175895873874422 -1 0 1
202 1 2 -1.1794 6.064819137438335 5.361593182090262 8.997337918046584 -5 4 0
630 1 1 0.5897 4.915345434538857 2.89528922707054 7.312721109419548 -2 -5 5
480 1 1 0.5897 1.3488961511153565 2.9757910491066886 8.549301135907909 -2 4 -3
211 1 2 -1.1794 8.964040187649633 2.3573248374015545 6.670943948755362 4 3 3
11 1 1 0.5897 0.7946643889287137 5.860707433305621 10.11778906816746 -2 2 5
628 1 2 -1.1794 4.291139849373043 3.1344054406266526 6.627540819474445 -2 -5 5
361 1 2 -1.1794 6.065375203936924 2.619124541679312 8.628017290432622 4 -2 -2
213 1 1 0.5897 8.252207700749244 1.9458741183004267 6.180773607186326 4 3 3
362 1 1 0.5897 5.428762309092421 2.5255935144004096 9.336709798489384 4 -2 -2
381 1 1 0.5897 8.463447450423068 5.325013223267116 6.755991085426793 7 3 1
12 1 1 0.5897 1.7899985680503554 5.009073021464643 10.876758579964568 -2 2 5
295 1 2 -1.1794 8.817425755185987 5.86714898439351 8.307865642437319 -2 4 -1
714 1 1 0.5897 3.3152185486195505 1.8362252611185188 10.022024195325214 -8 -2 3
10 1 2 -1.1794 0.8509365815133847 5.139071324876291 10.744164579446409 -2 2 5
807 1 1 0.5897 0.975327569061184 1.9096882126026877 10.346214713599402 2 0 -5
180 1 1 0.5897 4.030375657502448 6.327671230013409 10.542021134114341 -6 3 -3
380 1 1 0.5897 8.705329324126575 3.9725028817096226 6.120224098059931 7 3 1
629 1 1 0.5897 4.7441430568385385 3.8021806671115117 6.1126158210200305 -2 -5 5
379 1 2 -1.1794 8.379336679460204 4.851779978320687 5.928198556931272 7 3 1
113 1 1 0.5897 3.615197000082296 4.355312036748643 12.554006951191944 -4 -3 3
713 1 1 0.5897 4.281632827978707 1.64987042688199 11.172370738167077 -8 -2 3
87 1 1 0.5897 2.64744271654676 4.665792324369973 15.046243073094708 -1 5 1
447 1 1 0.5897 5.648790564746301 5.589737967921208 16.069330637568083 1 0 0
740 1 1 0.5897 6.69496504021085 3.163979527344546 15.239258941411634 -2 1 3
86 1 1 0.5897 3.398187782174945 5.82345513978841 14.42311546880785 -1 5 1
741 1 1 0.5897 7.352110815073344 2.918614268983454 13.897640632413665 -2 1 3
446 1 1 0.5897 4.830814792028209 4.8393919711296665 15.039827319392325 0 0 0
500 1 1 0.5897 6.967219754960788 6.603996692314993 12.370958760423445 0 1 -3
445 1 2 -1.1794 5.6959292170637195 4.8623652264540524 15.448866819413867 0 0 0
739 1 2 -1.1794 7.206269962845877 2.516428151879423 14.753941938836446 -2 1 3
494 1 1 0.5897 7.94837857629286 6.570680310266408 14.477364994155096 -1 0 -2
85 1 2 -1.1794 3.253013612703396 4.881223529224844 14.33689647632739 -1 5 1
366 1 1 0.5897 7.66184818257091 4.543164834057231 11.978868059066658 4 6 6
112 1 2 -1.1794 3.630443864673459 4.55427278812946 11.61781339492758 -4 -3 3
364 1 2 -1.1794 7.727855128472202 3.6212254199933387 12.227762353222067 4 6 6
291 1 1 0.5897 1.729072988145866 2.167506803334527 14.41926662425864 -9 -5 -6
365 1 1 0.5897 7.937999336872855 3.1668321105051698 11.411897337319397 4 6 6
114 1 1 0.5897 3.829012028073214 3.7173523656177645 11.197799300121192 -4 -3 3
495 1 1 0.5897 6.525305502887554 6.060809440597813 14.39432440511137 -1 0 -2
499 1 2 -1.1794 7.103469423255673 6.297605835644186 11.474388497724235 0 1 -3
341 1 1 0.5897 8.910065220280691 2.056481030430604 15.251579086013262 2 5 2
333 1 1 0.5897 7.475007182964719 1.6653963024561715 18.147392945864773 -1 -3 -5
799 1 2 -1.1794 1.867016443629832 3.274907452100514 18.552460503274585 1 -2 2
719 1 1 0.5897 7.487551190483967 4.912700837435424 20.309424010733945 6 6 1
789 1 1 0.5897 8.12379289507237 2.733268258804628 21.08798771836982 5 -1 4
665 1 1 0.5897 0.5745681262668019 5.473516454687296 16.87609843559869 3 3 2
666 1 1 0.5897 1.6787607346037794 4.482960858401752 17.178698796887772 3 3 2
528 1 1 0.5897 3.4634173204283645 5.391166937071224 20.39736351500106 -3 -3 0
787 1 2 -1.1794 8.741202377085086 2.127304954593654 20.678229236892278 5 -1 4
755 1 1 0.5897 1.188144331682639 5.939534541251504 20.20433750781715 -4 0 -5
801 1 1 0.5897 2.1005727660410325 3.820774517531521 19.303350281347175 1 -2 2
185 1 1 0.5897 6.227395165233426 5.421226478939955 18.230804974947034 -2 8 2
662 1 1 0.5897 5.295234815406693 2.207031460348062 17.346546984400447 -5 -5 2
664 1 2 -1.1794 1.4542582453048296 5.213599210559996 16.602467975519904 3 3 2
661 1 2 -1.1794 5.717828352629183 2.3479411071649063 18.193798634764875 -5 -5 2
526 1 2 -1.1794 2.6212011905837596 4.964900187336608 20.556233532957787 -3 -3 0
184 1 2 -1.1794 6.786440684304825 4.785052691376946 18.67692710169867 -2 8 2
186 1 1 0.5897 7.573879705699059 4.735802289440882 18.13489477371632 -2 8 2
663 1 1 0.5897 6.073963329406536 3.234810124866422 18.13981906495786 -5 -5 2
800 1 1 0.5897 2.354723726111885 2.4620857261571865 18.685716215010235 1 -2 2
529 1 2 -1.1794 8.914855919231988 4.154636737539778 17.16034339698078 0 -1 -8
466 1 2 -1.1794 5.134983391926851 6.594513751389798 20.940806783819923 5 -3 4
530 1 1 0.5897 8.759548082550488 3.21954473748601 17.293561513880572 0 -1 -8
718 1 2 -1.1794 7.721202183568737 4.830849087951204 21.234079441234535 6 6 1
527 1 1 0.5897 2.72877551644342 4.528407213335439 21.401318558080774 -3 -3 0
63 1 1 0.5897 2.4223212235516423 6.615706973146385 16.996080125261177 0 -2 3
609 1 1 0.5897 5.475802124690899 1.6725071071044866 19.83754185292645 3 2 2
332 1 1 0.5897 8.79970444414745 1.7742080624709864 18.872229818767362 -1 -3 -5
720 1 1 0.5897 6.941296105328974 4.45974609317885 21.646760791940764 6 6 1
583 1 2 -1.1794 7.543772342021683 10.223877826455684 0.5701251776211278 6 -6 2
454 1 2 -1.1794 1.4990150618423699 7.630903651853757 1.753588945794992 1 0 2
224 1 1 0.5897 5.084280186657633 8.894534342135547 4.345502197242827 0 -1 -6
730 1 2 -1.1794 8.865861808999664 9.291719354829015 5.396356716256412 -1 2 -6
215 1 1 0.5897 3.2810959726847737 10.199406319858614 3.8432487784055134 -1 0 3
214 1 2 -1.1794 2.374254749071338 10.493610151376478 3.757507230131921 -1 0 3
216 1 1 0.5897 1.8540097731952163 9.776477639931368 4.119910504522416 -1 0 3
223 1 2 -1.1794 4.955378844723181 9.686948602462547 3.8241976063294096 0 -1 -6
302 1 1 0.5897 9.037924494823182 9.108887463756837 1.4012031897767447 0 1 8
69 1 1 0.5897 5.023155919824372 10.368136360545405 2.157873553971397 5 -3 -4
732 1 1 0.5897 8.515413404841958 8.603974573048276 4.83026652208662 -1 2 -6
67 1 2 -1.1794 4.826937401665334 10.633437488266301 1.259311906811711 5 -3 -4
225 1 1 0.5897 5.605210411391946 10.303964004428318 4.160771749043631 0 -1 -6
115 1 2 -1.1794 8.131935454633476 7.065108924602513 3.7175483885590728 -2 -2 3
456 1 1 0.5897 0.6904064927185807 8.141903864525622 1.7897359863838866 1 0 2
584 1 1 0.5897 6.647508591323794 10.388713298611696 0.8631026572124502 6 -6 2
68 1 1 0.5897 4.801070209882392 11.589759585286306 1.291648258934892 5 -3 -4
418 1 2 -1.1794 1.3699432692013844 8.462219824930756 5.232124841236961 -10 -3 5
708 1 1 0.5897 1.7121631350886082 11.659040350947429 2.3026948812916848 -2 -1 -7
117 1 1 0.5897 7.4090500791116245 6.742375988191485 3.1794550042846947 -2 -2 3
420 1 1 0.5897 0.6473635183799054 8.047060370539935 4.7611794047750156 -10 -3 5
455 1 1 0.5897 1.2199739554401963 6.728729360483039 1.9100676470785727 1 0 2
171 1 1 0.5897 2.080569809835342 6.809793329671585 5.733609921634968 -3 3 -3
402 1 1 0.5897 2.8258539296572875 7.061448260838096 2.8666357748573783 1 0 1
83 1 1 0.5897 8.98299929281237 11.091819977387189 8.109078019935364 -1 -1 -4
424 1 2 -1.1794 3.121249810133321 8.15925040095713 7.651685299466114 9 -3 1
314 1 1 0.5897 1.1385955434641466 10.93770414320576 9.978775899944624 1 -1 -3
419 1 1 0.5897 0.9470205847048592 8.949771094004038 5.939020626685804 -10 -3 5
547 1 2 -1.1794 0.6926596118797926 9.437427045953633 10.852148668448342 8 -4 4
544 1 2 -1.1794 8.011680831872122 8.51459977420895 10.074079505820457 -4 4 5
545 1 1 0.5897 8.087696328830692 9.301772002785967 10.613382503565564 -4 4 5
425 1 1 0.5897 2.817602527817629 9.016757266794533 7.353768200792765 9 -3 1
334 1 2 -1.1794 3.069859654845441 11.199578584209359 7.265467710463323 4 0 2
558 1 1 0.5897 5.200557824315266 10.535989347267243 9.686078688439713 5 -1 0
747 1 1 0.5897 1.391969571430034 7.567422858134344 8.442447020174827 2 2 -8
426 1 1 0.5897 3.7604833177315116 7.88871579445688 6.992550796934852 9 -4 1
557 1 1 0.5897 4.638112360510779 11.022130205202378 8.367247479919776 5 -1 0
689 1 1 0.5897 6.334272021081969 9.530455227995926 7.9834489003039115 3 -1 4
731 1 1 0.5897 8.299024475903014 9.279763388155114 6.16760034563718 -1 2 -6
688 1 2 -1.1794 6.990639423709838 9.007317361768811 7.523253827408041 3 -1 4
208 1 2 -1.1794 5.287076927633721 7.46403231550809 5.932576073347773 1 -1 1
556 1 2 -1.1794 5.463286227525408 10.857464313101918 8.823582830993045 5 -1 0
335 1 1 0.5897 2.3717656343787787 11.4022503167853 7.888258410435006 4 0 2
210 1 1 0.5897 6.047913504253208 7.779072488111626 6.420578359923108 1 -1 1
690 1 1 0.5897 7.466863814807825 8.55381498882694 8.218823871998872 3 -1 4
179 1 1 0.5897 3.8914117151443137 7.342684251363128 9.427375325769043 -6 3 -3
178 1 2 -1.1794 3.7562857429017398 7.228163542641823 10.368067425427604 -6 3 -3
745 1 2 -1.1794 0.6041375128358556 7.3158179947739015 8.924413292468735 2 2 -8
548 1 1 0.5897 0.6490806988176578 8.747386845863307 10.190161657171425 8 -4 4
501 1 1 0.5897 7.320495138826882 7.088561055146218 10.980858046620034 0 1 -3
563 1 1 0.5897 4.084621297835627 9.05271283449897 10.853534966102892 5 0 2
546 1 1 0.5897 8.916341728073391 8.256640965091805 9.897120085351991 -4 4 5
313 1 2 -1.1794 1.2053478757968938 11.803342351406934 9.57567158464875 1 -1 -3
448 1 2 -1.1794 1.7121705247752248 7.641887890021019 12.456683722354343 6 -2 -2
493 1 2 -1.1794 7.100833257960455 6.75460257796271 14.072265982754267 -1 0 -2
564 1 1 0.5897 4.979734393689466 9.720571193601907 11.875683476081141 5 0 2
562 1 2 -1.1794 4.400547005208394 9.910485629216891 11.137602690681907 5 0 2
316 1 2 -1.1794 4.438360429124613 10.189372001944738 15.796437710145321 -6 -4 1
134 1 1 0.5897 1.5646261368059808 11.428053090592506 12.424951130307127 3 -4 -4
450 1 1 0.5897 2.154839880390191 7.281528062479966 11.688264577057398 6 -2 -2
133 1 2 -1.1794 2.4433247910491245 11.305273849284482 12.784244480367631 3 -4 -4
135 1 1 0.5897 2.9433546606024623 10.915020310670647 12.067339696766725 3 -4 -4
354 1 1 0.5897 2.9366196504372453 7.754690842654314 13.63749796470157 5 3 -2
352 1 2 -1.1794 3.665241174241406 7.513326440258708 14.209462364985642 5 3 -2
31 1 2 -1.1794 7.953154384862556 10.28939367698285 16.01173141235358 6 7 3
280 1 2 -1.1794 5.758425797219889 9.234312006180044 13.611938548527105 -3 2 2
261 1 1 0.5897 1.289870960269022 9.757327976092212 15.344099344322803 -2 -2 5
317 1 1 0.5897 3.4850993610909473 10.222457250581535 15.71591294617107 -6 -4 0
429 1 1 0.5897 8.69481910807197 10.550140547177591 12.41046690540843 1 0 -4
281 1 1 0.5897 6.389662741906212 8.573937361893126 13.89782814526364 -3 2 2
259 1 2 -1.1794 1.870214961127636 10.510340241408592 15.232573239202173 -2 -2 5
449 1 1 0.5897 1.227325865325 8.396533977677219 12.122440424263234 6 -2 -2
260 1 1 0.5897 1.9861985907647939 10.58574553548329 14.285401140263447 -2 -2 5
282 1 1 0.5897 5.439893799856562 9.62910812199109 14.423692885156578 -3 2 2
353 1 1 0.5897 4.372619206131402 8.108489003460907 13.961117421995255 5 3 -2
318 1 1 0.5897 4.684898885662816 11.066224810976284 16.090764313257836 -6 -4 1
62 1 1 0.5897 3.1644846495208108 7.624675138317709 16.145677981676794 0 -2 3
427 1 2 -1.1794 8.076984869900247 10.839848105590313 11.739167309949453 1 0 -4
428 1 1 0.5897 8.470370232872451 11.634106322840656 11.377657248898526 1 0 -4
603 1 1 0.5897 6.539725054700948 11.60714789976964 12.977392485877955 2 5 -4
32 1 1 0.5897 8.741374290386988 9.854108910020436 16.33656592691556 6 7 3
33 1 1 0.5897 7.999408852438677 11.173156180174308 16.376545122390837 6 7 3
483 1 1 0.5897 8.896836013669645 10.024015829986556 14.448159768823642 0 2 -1
764 1 1 0.5897 2.6255186226528973 8.921790520263364 18.092197499123927 -7 2 -2
189 1 1 0.5897 6.922867689006266 9.625880873389608 17.171618910286092 -3 5 -1
765 1 1 0.5897 2.6366937973746363 9.516968412111547 19.484186077504162 -7 2 -2
763 1 2 -1.1794 2.4646100338982144 9.736379565117984 18.56848248367968 -7 2 -2
54 1 1 0.5897 3.9811330658111537 10.873888506354351 18.555412824902092 -3 -1 4
174 1 1 0.5897 8.955859643711841 11.230111389267403 19.280842237505748 1 2 -4
164 1 1 0.5897 7.397302004730217 8.756235280892028 20.91420946276532 -1 2 -1
163 1 2 -1.1794 7.42128325026953 7.994127885724796 20.335514030939255 -1 2 -1
550 1 2 -1.1794 5.596866683600541 6.897030856651831 17.428345372241978 -6 5 -3
188 1 1 0.5897 5.690843760660218 9.995135751889324 17.97021680121286 -3 5 -1
187 1 2 -1.1794 6.43416418178869 9.392095701709977 17.96078242680545 -3 5 -1
467 1 1 0.5897 4.578289101499973 7.371433398413212 20.888311681991627 5 -3 4
61 1 2 -1.1794 2.96699344709942 7.400642501454769 17.05511880894877 0 -2 3
551 1 1 0.5897 5.90556610747572 7.799988675630693 17.503507998685116 -6 5 -3
165 1 1 0.5897 7.028263819668323 8.300830254274253 19.5183581556335 -1 2 -1
824 1 1 0.5897 6.598955412613939 11.538873104591366 19.100973481359667 1 4 1
605 1 1 0.5897 0.6192101613397946 9.276925697871807 18.67298831415945 -4 2 -1
52 1 2 -1.1794 4.734268637105979 11.39301850583628 18.83753719970887 -3 -1 4
552 1 1 0.5897 4.642353370221565 6.9690119500114305 17.427567646036966 -6 5 -3
100 1 2 -1.1794 3.206861019909163 8.735098778215633 21.00960608525732 7 -4 -1
585 1 1 0.5897 7.772312551888406 10.995130287163462 21.207523489502762 6 -6 1
468 1 1 0.5897 5.982383874054423 6.883115515392203 20.601826238182795 5 -3 4
102 1 1 0.5897 3.8325268446317917 9.262423959466268 21.506332640361563 7 -4 -1
101 1 1 0.5897 2.5891820693613448 8.413629831649988 21.66641450391737 7 -4 -1
561 1 1 0.5897 4.522410627729155 13.983411650638233 2.6038040910257005 2 1 2
594 1 1 0.5897 6.653129079792666 12.528475711187452 4.794889220638899 -3 1 -1
175 1 2 -1.1794 7.447835948030851 14.71249895168418 1.100844562116654 -6 -3 7
693 1 1 0.5897 2.4799118660543917 12.094250098615703 4.666397209752373 2 0 5
330 1 1 0.5897 8.520892153235629 14.90950303363693 4.010095925920405 3 5 2
691 1 2 -1.1794 2.5011442737682588 12.95400684823331 5.086752929070672 2 0 5
692 1 1 0.5897 1.6060974964488237 13.091657581170509 5.396938562963594 2 0 5
328 1 2 -1.1794 7.604163540884209 15.182811349509452 3.9755699301800433 3 5 2
140 1 1 0.5897 2.7365949367822124 14.684400247525126 3.8326634067038436 -2 -1 0
141 1 1 0.5897 3.682378985737845 15.816408090249862 4.17338726113994 -2 -1 0
139 1 2 -1.1794 3.4219417580922795 15.237191549370351 3.457168405801995 -2 -1 0
443 1 1 0.5897 3.2361124986376013 16.40090236087851 2.0745182003356692 6 4 -1
177 1 1 0.5897 7.557675454767275 14.647660606230767 2.0495422359556725 -6 -3 7
707 1 1 0.5897 1.8177857071730266 12.242797881504123 0.9098188009574057 -2 -1 -7
560 1 1 0.5897 5.711368695506466 13.83847315520308 1.677861316048826 2 1 2
559 1 2 -1.1794 5.043173706960936 13.329705648109613 2.1371531504093197 2 1 2
329 1 1 0.5897 7.63835859939719 16.10658901117006 3.727030376662662 3 5 2
706 1 2 -1.1794 1.383133709393194 12.370340273573746 1.7530870430938361 -2 -1 -7
59 1 1 0.5897 0.7497901122482591 14.074679175319543 2.344005729699113 7 -2 -1
593 1 1 0.5897 6.049840816298944 12.479400126057492 3.4072214830102445 -3 1 -1
176 1 1 0.5897 7.03285719090546 15.56431778003909 0.9649635756753907 -6 -3 7
592 1 2 -1.1794 6.590139957180904 11.975659845885582 4.015984484017949 -3 1 -1
412 1 2 -1.1794 0.9051227236230694 16.307329163976945 4.834643860303541 1 -5 5
771 1 1 0.5897 8.303141090778759 11.816513476867534 3.6187273370090463 5 1 0
414 1 1 0.5897 0.6667042774174312 15.856115225050761 4.024805500096404 1 -5 5
246 1 1 0.5897 5.214295774549431 16.80392646562216 1.1107688939669023 -7 4 0
442 1 2 -1.1794 3.4308223894325627 16.771865134055606 1.2138413868919244 6 4 -1
820 1 2 -1.1794 8.582359512830568 16.768661338493438 9.815088849502908 1 3 4
30 1 1 0.5897 6.804422875140405 16.65451540762473 7.259382933055567 -8 -2 4
128 1 1 0.5897 6.359153978608743 13.450663676420822 10.11827598379762 1 0 -4
721 1 2 -1.1794 8.430066926007843 15.866748538621454 7.1399685718134664 2 -1 1
576 1 1 0.5897 2.977903386799659 15.970187775945464 6.8597448423898575 2 1 -2
292 1 2 -1.1794 7.339692517090944 12.717534747869896 8.671647739861447 -3 -1 3
723 1 1 0.5897 8.860404950075957 16.515335774651298 6.582824387961783 2 -1 1
129 1 1 0.5897 4.968335334020185 13.807288063092773 10.598322852593855 1 0 -4
394 1 2 -1.1794 4.020215146836868 14.511124276218885 6.928017287935779 3 -2 5
683 1 1 0.5897 5.787948721892436 15.60444627552777 10.529412030031569 3 1 -4
127 1 2 -1.1794 5.876149403640485 13.736776130512604 10.893599781706866 1 0 -4
621 1 1 0.5897 2.8802989602171567 14.525026229663624 10.287503380912417 5 -2 4
619 1 2 -1.1794 3.3077763178960815 13.813240090006127 9.811152869973036 5 -2 4
620 1 1 0.5897 2.6609182153466553 13.107709503865422 9.802666360409566 5 -2 4
293 1 1 0.5897 7.222563559100634 13.143680723497761 7.822550568738145 -3 -1 3
395 1 1 0.5897 3.7929953371938985 14.108230541433 7.7660674184682374 3 -2 5
699 1 1 0.5897 5.879071827545093 14.15352525269688 6.638088905807788 0 4 -2
396 1 1 0.5897 3.530247363789671 14.006712708965203 6.278574692307407 3 -2 4
575 1 1 0.5897 1.758471450010705 16.622769152803023 6.24398803073785 2 1 -2
697 1 2 -1.1794 6.694444815362585 13.753924813445927 6.335177776391227 0 4 -2
294 1 1 0.5897 6.628092655305103 12.079127747403595 8.719963019221854 -3 -1 3
659 1 1 0.5897 0.6071473283086953 16.90388677627823 10.559041170648072 -3 -1 5
682 1 2 -1.1794 5.885648353972178 16.47950885484223 10.153931228898543 3 1 -4
822 1 1 0.5897 8.66006391211554 16.54878355555794 8.88670936624565 1 3 4
29 1 1 0.5897 5.66579384481353 16.769904453895755 8.250443649455427 -8 -2 4
574 1 2 -1.1794 2.3537244107925877 16.683921974268618 6.991129951116404 2 1 -2
821 1 1 0.5897 7.646990058131777 16.690417001234913 10.002781082872794 1 3 4
722 1 1 0.5897 9.011931385926502 15.107008091068014 7.11730019994651 2 -1 1
344 1 1 0.5897 8.69576199905401 13.153999224839406 9.922281888716629 -1 1 -3
336 1 1 0.5897 2.9733343485997183 11.855447558273525 6.574967095105685 4 0 2
698 1 1 0.5897 7.147303290784345 14.456579683368085 5.86885194397317 0 4 -2
610 1 2 -1.1794 1.1416284720394816 13.135729146331183 15.863229994320644 2 3 0
555 1 1 0.5897 7.827674582840884 16.14904580479707 12.998153476845244 -4 -10 1
158 1 1 0.5897 1.5325327779507454 15.519821637486967 12.155491284588335 0 2 -1
553 1 2 -1.1794 7.027427311876968 16.435111567970818 13.438663495075545 -4 -10 1
622 1 2 -1.1794 4.370724784824686 15.835667269422212 12.667962110167926 6 -2 1
814 1 2 -1.1794 7.699265265089309 13.121896208086017 15.601536637198773 -4 5 -3
743 1 1 0.5897 3.0802185771909074 12.748115124810665 13.662816440206571 -3 0 2
623 1 1 0.5897 5.31948243578132 15.880921806244963 12.786681732179778 6 -2 1
624 1 1 0.5897 4.084616639136856 15.156160787043007 13.278436776954312 6 -2 1
816 1 1 0.5897 7.414088580561885 14.033129635648484 15.66933494446244 -4 5 -3
742 1 2 -1.1794 3.7150522435953435 13.336364513316589 14.07173748900538 -3 0 2
815 1 1 0.5897 7.47086586763749 12.864781277187443 14.708230427826496 -4 5 -3
159 1 1 0.5897 2.8874437774792665 15.973926832548019 11.655501628211034 0 2 -1
602 1 1 0.5897 6.187071122010951 13.037598027443877 12.628828380035497 2 5 -5
744 1 1 0.5897 4.558336340545505 13.07294335733016 13.703296348955583 -3 0 2
554 1 1 0.5897 7.14273173095557 16.160065440102425 14.348259112947167 -4 -10 1
601 1 2 -1.1794 6.311368732405668 12.448378853625687 13.372931271012215 2 5 -4
612 1 1 0.5897 1.4171300559273363 12.233238672989845 15.702360039616872 2 3 0
417 1 1 0.5897 6.269660264821891 16.209202236880948 16.364124169352642 0 -1 -1
644 1 1 0.5897 8.941228309533967 15.77140278174609 11.225884284039543 3 -2 0
71 1 1 0.5897 0.9077774509354466 14.198891579032793 14.423387022396643 2 1 -3
157 1 2 -1.1794 2.0183312602823333 15.71043807915099 11.353037023658292 0 2 -1
415 1 2 -1.1794 7.065327395378779 15.725441774860455 16.142358045063748 0 -1 -1
785 1 1 0.5897 4.3657987702180705 13.149936562424443 15.788450729742403 7 6 3
70 1 2 -1.1794 0.6558716399021707 14.650782838595557 13.61802800569248 2 1 -3
251 1 1 0.5897 0.7739011583801727 16.794370909108146 16.017041504768265 5 -4 1
643 1 2 -1.1794 9.099221205511073 15.239792381983698 12.006079530534793 3 -2 0
786 1 1 0.5897 5.850706537770072 13.120909554190435 16.08207236724936 7 6 3
823 1 2 -1.1794 7.4223202030318145 12.011010955121876 19.225158556284047 1 4 1
375 1 1 0.5897 2.7754915397897606 14.778050248225833 18.525981434925683 3 5 -1
680 1 1 0.5897 3.43904912247412 15.619273191602572 20.84175432158772 -4 -6 0
279 1 1 0.5897 5.696024801491962 15.003592531404548 19.80667272569784 -1 2 1
199 1 2 -1.1794 2.771077888006239 12.395039120313669 20.5507714383174 3 -6 0
373 1 2 -1.1794 2.5076795069762863 14.780077617600572 17.60698721688379 3 5 -1
278 1 1 0.5897 6.1032185703982185 14.966968636792208 18.348993516861007 -1 2 1
654 1 1 0.5897 8.120034844827831 15.039325327727777 19.660989371242724 -1 -1 1
277 1 2 -1.1794 6.416375776763893 14.753581215883303 19.22800582669195 -1 2 1
53 1 1 0.5897 4.852055582724692 12.041777675870602 18.143627011105664 -3 -1 4
652 1 2 -1.1794 9.05362629322991 15.248850188016718 19.688889868008523 -1 -1 1
681 1 1 0.5897 3.3946956642908233 14.146467523448013 20.49405921216782 -4 -6 0
374 1 1 0.5897 1.776408543057058 15.396720957904556 17.571479379769126 3 5 -1
679 1 2 -1.1794 3.6965897903890297 14.993154743072715 20.165047834761403 -4 -6 0
625 1 2 -1.1794 4.6410962744405495 16.592580866406692 17.169305865734824 -3 -3 2
784 1 2 -1.1794 4.99406245135064 13.079659987174674 16.50722143491347 7 6 3
201 1 1 0.5897 3.5367016256339756 12.042329951265302 20.09722383991544 3 -6 0
627 1 1 0.5897 4.050593639525349 15.940664038104288 17.546908340870893 -3 -3 2
825 1 1 0.5897 7.15637124160471 12.907129459834115 19.43136900761452 1 4 1
200 1 1 0.5897 2.0238540474992806 12.07137036422406 20.04759405978629 3 -6 0
416 1 1 0.5897 7.770494962164107 16.217683236367293 16.562719231216068 0 -1 -1
611 1 1 0.5897 1.806210526533208 13.487582204666172 16.455532068080252 2 3 0
357 1 1 0.5897 1.0419900941083888 17.45449092859286 3.2671358222529894 -1 -4 3
355 1 2 -1.1794 0.625183132703388 17.891052854097357 2.524195162648911 -1 -4 3
235 1 2 -1.1794 6.153103966348707 20.54632386061177 2.945920336992106 2 -1 -4
264 1 1 0.5897 2.6951096360874613 20.666416961216296 4.60230484957945 4 -3 7
44 1 1 0.5897 6.3145266758574685 21.633459246504607 4.705638728915115 0 5 0
237 1 1 0.5897 6.481971138879338 19.695754095604187 3.236862173518316 2 -1 -4
236 1 1 0.5897 5.270440069570186 20.36471955190939 2.6231251205921824 2 -1 -4
308 1 1 0.5897 8.851534512573947 20.165578846317317 1.9596056676253821 -1 5 -3
309 1 1 0.5897 7.401669415566511 20.173710334233746 1.5239242017219707 -1 5 -3
750 1 1 0.5897 3.2910337803472727 20.255353927039582 1.606340421337065 4 5 0
748 1 2 -1.1794 3.6767993976315894 19.576187133315354 2.1596972196715867 4 5 0
274 1 2 -1.1794 6.866271286583907 17.959246975354347 3.4178588048985654 -2 4 -3
275 1 1 0.5897 6.12435568440328 17.68748054366914 3.958213719015131 -2 4 -3
276 1 1 0.5897 6.665549799450372 17.6189477552473 2.5459806140673376 -2 4 -3
749 1 1 0.5897 3.1498669802794175 19.589677513447104 2.9587193881939675 4 5 0
849 1 1 0.5897 3.993841701981658 18.179643910493105 4.866717799930524 7 -3 6
444 1 1 0.5897 3.4138696010606244 17.719010401970987 1.351337311235048 6 4 -1
262 1 2 -1.1794 2.7749256261722883 19.719980787853576 4.721298377162527 4 -3 7
847 1 2 -1.1794 4.635107941047362 17.471698951772048 4.928873369648804 7 -3 6
244 1 2 -1.1794 6.12729884141109 17.00603852835861 0.9061216200874781 -7 4 0
307 1 2 -1.1794 8.291572462462266 20.05842513392235 1.190684565494844 -1 5 -3
356 1 1 0.5897 0.7219708920818058 17.27447177059163 1.7984035515282824 -1 -4 3
263 1 1 0.5897 2.0110600224594677 19.47871488503341 5.245290741836704 4 -3 7
465 1 1 0.5897 8.55128963505253 19.477383396114927 5.609551229685802 7 1 -3
710 1 1 0.5897 6.5288438065650904 18.603743262581858 6.993094089783672 -5 -7 -1
711 1 1 0.5897 7.333639924721155 19.76847552350656 7.529503226842513 -5 -7 -1
684 1 1 0.5897 5.313821173254082 17.03376925881807 10.68503871079111 3 1 -4
257 1 1 0.5897 3.071715038612105 17.77247336035481 8.09513557764626 -2 -2 1
806 1 1 0.5897 1.0897262697381223 21.208947472462768 9.341175090324917 2 -1 -5
256 1 2 -1.1794 3.379258575316056 18.51450735805059 8.615834040877154 -2 -2 1
803 1 1 0.5897 7.2706686061282655 21.61497938515924 8.82064651875452 3 1 0
635 1 1 0.5897 1.6208303970043845 19.52487356599837 8.708550782685471 -7 0 2
486 1 1 0.5897 3.943926241589916 20.175940253482093 5.93904812322953 -1 2 0
709 1 2 -1.1794 7.005971317148023 19.38582234633234 6.715567145318703 -5 -7 -1
258 1 1 0.5897 3.630528022314777 19.173875605183923 7.969000261219778 -2 -2 1
802 1 2 -1.1794 7.548888707737747 20.71341562259178 8.982023005614069 3 1 0
484 1 2 -1.1794 4.381175914823052 20.26700501529926 6.785686923413483 -1 2 0
485 1 1 0.5897 5.300858099914512 20.074705940118882 6.602723743198205 -1 2 0
804 1 1 0.5897 7.127332056609838 20.476376039657996 9.808081634398725 3 1 0
393 1 1 0.5897 3.9472446445203664 18.659780760387687 10.315544661869714 4 -2 -2
28 1 2 -1.1794 5.932479131569714 17.033716510883607 7.369775877239131 -8 -2 4
805 1 2 -1.1794 1.5844970451150688 21.9311787181572 9.728288239563094 2 -1 -5
634 1 2 -1.1794 0.6636519591680867 19.528829138018196 8.700699942644428 -7 0 2
848 1 1 0.5897 4.916625685800354 17.482534413185903 5.843698974992916 7 -3 6
151 1 2 -1.1794 2.2505603862849988 20.320417983589365 12.028375423299638 1 0 0
600 1 1 0.5897 7.186258965905587 19.751938372894475 12.214944853809415 2 -3 -3
153 1 1 0.5897 2.5839946955159014 20.873683394432412 12.7347630127241 1 0 0
289 1 2 -1.1794 2.238031676249042 21.78563815801187 14.490884038870496 -9 -6 -6
717 1 1 0.5897 2.2192102915159357 18.07345879889251 14.495354734721802 6 -9 -3
21 1 1 0.5897 5.124216572090062 19.01815325224406 15.624280101540343 -4 -5 0
392 1 1 0.5897 3.746215486304322 19.184149865914637 11.721461220931676 4 -2 -2
226 1 2 -1.1794 7.612528638968747 19.416302853911205 13.78871626867267 1 -5 0
227 1 1 0.5897 8.568329040420172 19.4627047576208 13.764816610225855 1 -5 0
776 1 1 0.5897 4.920787491101097 21.23792019757047 15.775478327921814 0 -6 -1