#include		in.partitions
include		in.temp
variable        temperature equal 81.47
variable	tempDamp equal 100.0
include		in.pressure
variable        pressure equal 6860.1
variable        pressureDamp equal 1000.0 # This is 1 ps
include		in.seed
variable        seed equal 745823

units		real
atom_style	full

read_restart	restart.lmp.${pid}
read_restart	restart.lmp.1
Reading restart file ...
  restart file = 30 Jul 2021, LAMMPS = 30 Jul 2021
  restoring atom style full from restart
  orthogonal box = (0.15001933 0.13057249 0.10754549) to (19.849982 19.869429 20.592453)
  2 by 4 by 4 MPI processor grid
  restoring pair style lj/cut/tip4p/long/omp from restart
  restoring bond style harmonic/omp from restart
  restoring angle style harmonic/omp from restart
  972 atoms
  648 bonds
  324 angles
Finding 1-2 1-3 1-4 neighbors ...
  special bond factors lj:    0        0        0       
  special bond factors coul:  0        0        0       
     2 = max # of 1-2 neighbors
     1 = max # of 1-3 neighbors
     1 = max # of 1-4 neighbors
     2 = max # of special neighbors
  special bonds CPU = 0.002 seconds
  read_restart CPU = 0.008 seconds
include 	in.setup
variable	out_freq equal 1000
variable	out_freq2 equal 10000
variable	out_freq3 equal 1000

timestep	2.0

neigh_modify    delay 7 every 1

include		in.tip4p
# This is TIP4P/Ice

# create groups ###
group ox type 2
324 atoms in group ox
group hy type 1
648 atoms in group hy

# set charges - beside manually ###
set group ox charge -1.1794
Setting atom values ...
  324 settings made for charge
set group hy charge 0.5897
Setting atom values ...
  648 settings made for charge

# ### TIP3P Potential Parameters ###
pair_style lj/cut/tip4p/long/omp 2 1 1 1 0.1577 8.5
pair_coeff 1 1*2 0.000 0.000
pair_coeff 2 2 0.21084 3.1668
bond_style  harmonic
bond_coeff  1 450 0.9572
angle_style harmonic
angle_coeff 1 55 104.52
kspace_style pppm/tip4p/omp 1.0e-5
pair_modify tail yes

thermo          ${out_freq}
thermo          1000
thermo_style    custom step temp pe etotal epair emol press lx ly lz vol pxx pyy pzz pxy pxz pyz enthalpy

restart 	${out_freq3} restart.lmp.${pid} restart2.lmp.${pid}
restart 	1000 restart.lmp.${pid} restart2.lmp.${pid}
restart 	1000 restart.lmp.1 restart2.lmp.${pid}
restart 	1000 restart.lmp.1 restart2.lmp.1


include         in.dump
dump            myDump all atom ${out_freq2} dump.water.${pid}
dump            myDump all atom 10000 dump.water.${pid}
dump            myDump all atom 10000 dump.water.1
dump            myDump2 all dcd ${out_freq2} dump.dcd
dump            myDump2 all dcd 10000 dump.dcd
dump_modify     myDump append yes
dump_modify     myDump2 append yes


variable natoms 	equal  "count(all)"                        # NUMBER ATOMS
variable H      	equal  "enthalpy/v_natoms"                 # ENTHALPY-per-atom
variable Vol      	equal  "vol/v_natoms"                 # volume-per-atom
fix AVG all 		ave/time ${out_freq} 1 ${out_freq} v_Vol v_H file vol_enthalpy.dat
fix AVG all 		ave/time 1000 1 ${out_freq} v_Vol v_H file vol_enthalpy.dat
fix AVG all 		ave/time 1000 1 1000 v_Vol v_H file vol_enthalpy.dat


timer           timeout 02:55:00 every 1000
New timer settings: style=normal  mode=nosync  timeout=02:55:00

fix 		1 all shake 1e-6 200 0 b 1 a 1
       0 = # of size 2 clusters
       0 = # of size 3 clusters
       0 = # of size 4 clusters
     324 = # of frozen angles
  find clusters CPU = 0.000 seconds
fix             2 all nph aniso ${pressure} ${pressure} ${pressureDamp}
fix             2 all nph aniso 6860.1 ${pressure} ${pressureDamp}
fix             2 all nph aniso 6860.1 6860.1 ${pressureDamp}
fix             2 all nph aniso 6860.1 6860.1 1000
fix             3 all temp/csvr ${temperature} ${temperature} ${tempDamp} ${seed}
fix             3 all temp/csvr 81.47 ${temperature} ${tempDamp} ${seed}
fix             3 all temp/csvr 81.47 81.47 ${tempDamp} ${seed}
fix             3 all temp/csvr 81.47 81.47 100 ${seed}
fix             3 all temp/csvr 81.47 81.47 100 745823


run             250000
PPPM initialization ...
  extracting TIP4P info from pair style
  using 12-bit tables for long-range coulomb (../kspace.cpp:340)
  G vector (1/distance) = 0.37239015
  grid = 24 24 24
  stencil order = 5
  estimated absolute RMS force accuracy = 0.0034852881
  estimated relative force accuracy = 1.0495842e-05
  using double precision FFTW3
  3d grid and FFT values/proc = 3211 432
Last active /omp style is kspace_style pppm/tip4p/omp
Neighbor list info ...
  update every 1 steps, delay 7 steps, check yes
  max neighbors/atom: 2000, page size: 100000
  master list distance cutoff = 10.8154
  ghost atom cutoff = 10.8154
  binsize = 5.4077, bins = 4 4 4
  1 neighbor lists, perpetual/occasional/extra = 1 0 0
  (1) pair lj/cut/tip4p/long/omp, perpetual
      attributes: half, newton on, omp
      pair build: half/bin/newton/omp
      stencil: half/bin/3d
      bin: standard
Per MPI rank memory allocation (min/avg/max) = 10.19 | 10.19 | 10.19 Mbytes
Step Temp PotEng TotEng E_pair E_mol Press Lx Ly Lz Volume Pxx Pyy Pzz Pxy Pxz Pyz Enthalpy 
36250000     82.82134   -5069.5892   -4909.8613   -5069.5892            0    6779.5278    19.699962    19.738856    20.484907    7965.6528    7327.3982    6239.8002     6771.385   -296.94312    595.18517   -37.249942   -4122.2776 
36251000    79.512772   -5071.1906   -4917.8435   -5071.1906            0     8101.661    19.854612    19.718568    20.196562    7907.0456    7982.7035    7982.6203    8339.6593    -267.2523    120.63581    214.44299   -3983.5912 
36252000    83.211116   -5086.2011   -4925.7214   -5086.2011            0    6492.3383    19.804593    19.751584    20.434291    7993.3244    6012.8717    6815.7822     6648.361    57.937377   -133.04244     409.7593   -4168.8808 
36253000     83.18839   -5081.2146   -4920.7788   -5081.2146            0    7975.6562    19.544043    19.787668    20.464625    7914.3057    7834.8554    7893.2176    8198.8956   -208.23156     -22.0812    343.41196   -4000.2124 
36254000    78.611959   -5085.2522   -4933.6424   -5085.2522            0    6570.5064    19.752668     19.67896    20.500525    7968.7994    5992.6126    7068.8542    6650.0522     322.0947   -302.87874    268.14727   -4170.0394 
36255000    80.078386   -5080.7446   -4926.3067   -5080.7446            0    5694.0005    19.739002    19.848136    20.399967    7992.3476     5774.557    5619.9714    5687.4733   -385.39707    208.36955    250.44437   -4262.6129 
36256000     82.39989   -5075.3115   -4916.3964   -5075.3115            0    6434.1239    19.779145    19.863638     20.27792    7966.9063     7082.097    5987.3082    6232.9663   -476.92467    232.01706    406.65446    -4168.821 
36257000    83.127771   -5085.2329    -4924.914   -5085.2329            0    6188.2654    19.809395    19.719267    20.417225    7975.5143    6096.6942    6032.9683    6435.1336   -280.29783   -96.391277   -70.850689   -4205.1278 
36258000    85.095584   -5078.4869   -4914.3729   -5078.4869            0    7627.0144    19.597223    19.791429    20.404737    7914.1215    7861.5001    7142.1223    7877.4207   -33.675892   -363.21319    90.917528   -4034.0679 
36259000    84.420045   -5077.3401    -4914.529   -5077.3401            0    6289.3675    19.804905    19.758932    20.418722     7990.331    5777.1347    6698.6627    6392.3051    280.62855    1116.5858   -1173.7871    -4181.624 
36260000    82.691749   -5071.7008   -4912.2228   -5071.7008            0    6673.6463    19.795216    19.687635    20.334502    7924.7823    5276.7487    7809.5723     6934.618    110.56116    981.98275    275.11016   -4140.9174 
36261000    82.268538   -5081.9436   -4923.2818   -5081.9436            0      6630.23    19.795048    19.682827    20.442576    7964.8873    6937.0075    6705.6969    6247.9856   -280.76534    203.65245    681.89542   -4153.1162 
36262000    83.252768   -5067.3415   -4906.7816   -5067.3415            0    7022.3166    19.828196    19.731778     20.36215    7966.6005    6388.6997    7476.3775    7201.8725   -354.42365   -159.25766    924.96623   -4090.8958 
36263000    82.857751    -5070.177   -4910.3789    -5070.177            0    7498.1912    19.668873    19.776217    20.434413    7948.4939    7283.6606    7892.0285    7318.8845   -237.95942   -386.62318    149.26323   -4041.1838 
36264000    82.415467   -5083.3235   -4924.3783   -5083.3235            0    6593.2448    19.666039    19.735638     20.48318    7949.9693    6345.6595    7396.3712    6037.7037    501.71537    922.97573    240.34815   -4159.9433 
36265000    82.449997   -5081.8724   -4922.8607   -5081.8724            0    6938.3426    19.800843    19.757512    20.324315    7951.1847    6846.2342    6511.8214    7456.9721   -225.31735    180.18113    3.7984778   -4118.2914 
36266000    80.328542   -5079.1508   -4924.2305   -5079.1508            0     6450.718    19.740112    19.804532    20.410503    7979.3575    5862.6565     6010.398    7479.0994     205.6517    279.09866   -28.913631   -4173.5556 
36267000    81.076932   -5080.7689   -4924.4052   -5080.7689            0    6205.9555    19.744919    19.745726    20.483031    7985.8784    6470.0819    6200.2472    5947.5374    535.35702    287.68171    439.89768   -4201.6233 
36268000    82.141085   -5085.7322   -4927.3162   -5085.7322            0    6958.8493     19.74947    19.899981    20.220514    7946.9464    7964.6436    5756.9278    7154.9767   -410.16825   -497.01937   -501.48208   -4120.7991 
36269000     78.98663   -5077.1077   -4924.7754   -5077.1077            0    6685.1356    19.763522    19.690407    20.497004    7976.4457    6848.3517    6854.7108    6352.3444   -79.311227    944.94637    263.15571    -4147.105 
36270000    79.782634   -5081.4939   -4927.6264   -5081.4939            0     7626.478    19.835615    19.754546    20.370485    7982.0435    6608.8866    8627.3881    7643.1592   -190.37195    52.946609   -550.12128   -4039.8287 
36271000    79.659711   -5083.8346   -4930.2041   -5083.8346            0    6125.4901    19.716002    19.819258    20.370831    7960.0352    5313.3474    6544.4539     6518.669   -384.28049    971.56021    412.17433   -4219.1024 
36272000    80.337103   -5076.6269   -4921.6901   -5076.6269            0    6624.4633    19.645354    19.796523    20.511696    7977.1976    6197.2265    6498.2653    7177.8981   -211.01452    541.50524     668.5796    -4151.005 
36273000    83.033095   -5091.1369   -4931.0006   -5091.1369            0    6396.8451    19.793161    19.759958    20.382898    7971.9966    6115.7868    6231.8303    6842.9182    231.76388    231.86918   -274.89668   -4187.2817 
36274000    86.492376   -5073.0641   -4906.2563   -5073.0641            0    6742.1626    19.634937    19.828026    20.412891    7947.1881    7203.0775    6419.5445    6603.8658   -258.93053    633.60029    -217.1019   -4124.8289 
36275000    81.901008   -5067.3033   -4909.3503   -5067.3033            0    7118.9701    19.645976    19.816087     20.37083    7930.4937    6220.0529    7272.3184     7864.539   -404.53739     655.2808    1149.6834   -4085.9837 
36276000    81.058899   -5069.1431   -4912.8142   -5069.1431            0    6596.1582    19.909596    19.722922    20.312936    7976.3908    7959.9845    5254.1858    6574.3041    118.30477    1037.3793   -519.90236   -4145.4998 
36277000    85.330763    -5081.156   -4916.5885    -5081.156            0    6465.8869    19.688187    19.741221    20.578901    7998.3776    6627.1448    7003.3419     5767.174    586.47747    1435.6121    717.54823   -4162.3549 
36278000     79.51307     -5079.73   -4926.3824     -5079.73            0    6651.7463     19.67504     19.88277    20.294916    7939.2551     6406.804    6904.4471    6643.9879   -211.91405    645.06194    745.19391    -4156.204 
36279000    82.903541   -5079.3129   -4919.4264   -5079.3129            0     6980.742    19.811582    19.737176    20.370331     7965.302    8210.7284    6092.1179    6639.3798   -202.06322    219.73584   -367.06684   -4108.5032 
36280000    84.698276   -5078.4213   -4915.0735   -5078.4213            0    6156.6001    19.687752    19.782728    20.406922    7948.0355    5376.1959    6996.6488    6096.9555     -340.799     706.4337    127.65522   -4201.4377 
36281000    81.925111   -5070.7547   -4912.7553   -5070.7547            0    6468.3334    19.742495    19.768404    20.407618    7964.6366    4950.7586    8000.8527    6453.3888   -200.96312    160.66994    395.06466   -4161.4192 
36282000    82.120411   -5078.1217   -4919.7455   -5078.1217            0    5978.0137    19.806607    19.798587    20.394066    7997.3866    6831.1314    5651.8783    5451.0315   -311.18062   -114.66052    864.30999   -4222.5078 
36283000     80.43011   -5078.9429   -4923.8266   -5078.9429            0    5183.6637     19.63557    19.954248    20.453422    8013.9172    7022.0457    3324.1548    5204.7905   -282.49199   -53.935678   -880.49258   -4317.9872 
36284000     78.87539    -5078.778   -4926.6601    -5078.778            0    6670.5494    19.736483    19.760334    20.386611     7950.768    7511.1527    6164.6905     6335.805   -293.44888    421.38502   -1.8955829   -4153.1846 
36285000    79.130241   -5096.2012   -4943.5919   -5096.2012            0    5357.0622    19.782781    19.783552     20.48838    8018.6126    5538.1543    5463.9301    5069.1023    354.80018    601.37003   -651.36645   -4317.1197 
36286000    77.311254   -5080.3462    -4931.245   -5080.3462            0    6446.9011    19.695428    19.797445    20.390181    7950.5224    7175.4384    6003.7057    6161.5592    22.991092    608.60269   -298.99114   -4183.7254 
36287000    83.792466    -5082.471   -4920.8701    -5082.471            0    7001.5387    19.741238    19.731005    20.377471    7937.3195    7414.4192    6739.9325    6850.2644   -434.68046     -458.634    -470.8693   -4110.3884 
36288000    84.763654   -5080.4047   -4916.9309   -5080.4047            0    7226.8985    19.637305    19.743571    20.519296    7955.5473    6966.7164    8479.4463    6234.5329   -474.76427   -398.90603    253.85804   -4078.4409 
36289000    78.779813    -5079.004   -4927.0705    -5079.004            0    7358.7928    19.671336    19.773916    20.424179    7944.5836    7314.3461    7487.0616    7274.9708   -122.81817    17.233415    156.83329   -4074.4542 
36290000    81.363401    -5081.727   -4924.8109    -5081.727            0    6295.3254    19.862454     19.69053    20.375738    7968.9968    6250.0343    6761.8979    5874.0441     108.5056   -345.37841   -100.65691   -4193.1704 
36291000    79.425045   -5074.5428   -4921.3649   -5074.5428            0    7167.6445    19.752873    19.842754    20.347656    7975.2923    7820.6085    7170.4409    6511.8841   -7.5366075    433.47191    87.036266   -4087.6857 
36292000    80.064008   -5078.6872    -4924.277   -5078.6872            0    7317.5321    19.736083    19.780756    20.396002    7962.4897    6741.9164    7874.8664    7335.8136    103.41245    160.56553    195.89862   -4074.5305 
36293000    81.577885   -5074.3836   -4917.0538   -5074.3836            0    6519.3514     19.84097    19.749934    20.322714     7963.615    6062.4371    6493.6714    7001.9457   -441.75267   -759.75315    122.84197   -4159.8888 
36294000    81.722651   -5092.2525   -4934.6435   -5092.2525            0    6410.0571    19.773043    19.763908    20.447552    7990.7521    6492.9824    5991.6235    6745.5655    -459.6627    536.93173   -592.95947   -4187.6352 
36295000     79.75464   -5088.4158   -4934.6022   -5088.4158            0    7017.2407    19.712755    19.761596     20.43923    7962.2143    6703.5447    7172.6898    7175.4875    129.32529    809.74038    -54.42849   -4119.7551 
36296000    79.175413   -5079.9037   -4927.2073   -5079.9037            0    7298.6798    19.745829    19.704577    20.438276    7952.1903    6483.0902    8471.2404    6941.7088     210.8475    44.457404    196.10773   -4080.7463 
36297000    82.412083   -5079.3746   -4920.4359   -5079.3746            0    6945.8382    19.579331    19.795446    20.430441    7918.4625    7010.6683    6578.8429    7248.0034   -405.05323     1085.902    75.126015   -4118.3121 
36298000    78.530637   -5082.4884   -4931.0355   -5082.4884            0    7464.2819    19.766826    19.804996    20.287834    7942.3197    7979.6043    6300.7778    8112.4634   -193.12009    792.78067    48.008488   -4066.4433 
36299000    81.668887   -5077.1789   -4919.6736   -5077.1789            0    7166.3059    19.700086    19.771667    20.451915    7966.0935    9443.7831    5331.3906     6723.744   -83.032227    913.82771    263.81098   -4087.1115 
36300000    79.504808   -5086.8193   -4933.4876   -5086.8193            0    6457.4251     19.77056    19.679343    20.479522    7968.0009    5520.8399    7971.6268    5879.8084    36.352027    -133.4273    688.67601   -4183.1018 
36301000    87.803984   -5074.9458   -4905.6084   -5074.9458            0    6535.0057    19.674298    19.853408    20.514209    8012.8887    6923.1085    6528.0759    6153.8326    -164.3319    114.23233   -551.60747   -4141.9292 
36302000    82.628631   -5087.5048   -4928.1485   -5087.5048            0    7714.2136    19.593161    19.761507    20.515811    7943.5248    8139.1055    7081.6884    7921.8471   -432.99537   -19.663816    547.58605   -4034.4711 
36303000      78.6897   -5086.2009   -4934.4412   -5086.2009            0    6451.6508    19.861396     19.74845    20.329157    7973.7416    5976.2426     6727.859    6650.8507   -365.04837    205.71722     -581.841   -4184.1862 
36304000    83.503637   -5077.7496   -4916.7058   -5077.7496            0    6576.3499    19.704224    19.873305    20.362761    7973.8138    7393.7501    5908.4558    6426.8439    88.902984    263.76503    59.094808   -4151.9428 
36305000     83.76437   -5086.2767   -4924.7301   -5086.2767            0    6050.3924    19.693538    19.805378    20.527983    8006.6928    6390.9789    6222.1331    5538.0653   -144.41242    98.974131   -1081.8709   -4218.2294 
36306000    86.054974   -5074.4198   -4908.4556   -5074.4198            0    6954.6161    19.792715    19.834486    20.311518    7973.8619    7087.8023    6438.3995    7337.6464   -247.82638     347.1045    52.958876   -4099.6991 
36307000    83.691027   -5094.8708   -4933.4656   -5094.8708            0    6668.8754     19.65727    19.753985    20.491731    7957.1324    7751.7878     6742.792    5512.0464    87.254301    818.25374    -468.0508   -4159.5652 
36308000    80.247401   -5079.9038   -4925.1399   -5079.9038            0    7253.6719    19.834804    19.687148    20.429024    7977.3445    7492.0669    7743.5562    6525.3926   -192.37533   -402.74907    55.889537   -4081.2376 
36309000    81.750691   -5089.6202   -4931.9571   -5089.6202            0    6432.8927    19.877653    19.806609    20.363276     8017.203    5136.1791     7365.406     6797.093    259.43292    411.33427   -156.44522    -4179.806 
36310000    84.382292   -5089.9222   -4927.1839   -5089.9222            0    5483.9113    19.733638    19.901563    20.352306    7992.9659    5621.0452    4961.9636    5868.7252    281.28944    913.64023    382.47661   -4287.9287 
36311000    82.949264   -5078.0521   -4918.0774   -5078.0521            0     7207.329    19.737668    19.694025    20.433122    7942.6437    6862.5646    8431.9057    6327.5166    255.06749    1126.6379    742.97631   -4083.2143 
36312000    86.113986   -5076.0049   -4909.9269   -5076.0049            0    5927.0947    19.848452    19.815379    20.335201    7997.9283    5759.0116    5353.4824    6668.7903   -192.87446    242.89758    893.54947   -4218.5812 
36313000     85.51789   -5074.2767   -4909.3483   -5074.2767            0    7677.8145    19.694454    19.659973    20.457051    7920.8154    8674.2719    6786.5451    7572.6265    65.263163   -935.90057    404.25457   -4022.4304 
36314000    80.773749   -5073.1927   -4917.4137   -5073.1927            0    8109.2579    19.706047    19.790497    20.251572    7897.9605    8869.5865    7384.2904    8073.8969    70.054648    914.31173     86.06067   -3983.3598 
36315000    79.710101    -5083.106   -4929.3784    -5083.106            0    6132.5561    19.606429    19.900379    20.475774    7989.1429    6648.8679    4971.8481    6776.9523   -282.68666    92.755822    138.93609   -4214.8531 
36316000    82.193974   -5069.8966   -4911.3786   -5069.8966            0    6083.6679    19.761837    19.802846    20.367071     7970.462    5179.6524    6556.2362    6515.1151   -928.11625    1247.7699    722.71763   -4204.2069 
36317000     79.34288   -5083.2181   -4930.1987   -5083.2181            0    6827.0661    19.779356    19.842482    20.347806    7985.9342    7015.7643     6238.517    7226.9169    11.739793    9.2548971   -476.18089   -4135.0731 
36318000    81.110161   -5077.2519   -4920.8241   -5077.2519            0    7551.5502    19.624696    19.765067    20.491188    7948.1922    7516.8289    7448.0068     7689.815    -395.9061    80.969847   -41.569963   -4045.4769 
36319000    79.029038   -5081.5727   -4929.1585   -5081.5727            0    7337.8105    19.566175    19.720038    20.524853    7919.4265    7683.4169    7819.9762    6510.0384      9.03116       280.28   -423.89082   -4081.6655 
36320000    81.077616   -5072.3809   -4916.0159   -5072.3809            0    7043.1703    19.800055    19.725225    20.285044    7922.5377    5542.4219    7741.9115    7845.1776    203.20077   -80.422092    288.34644   -4102.2333 
36321000     82.09817   -5078.1779   -4919.8447   -5078.1779            0    6694.8432    19.688049    19.764534    20.449938    7957.5844    7749.6845    5787.8058    6547.0392    172.58362    1272.2565   -191.75976   -4142.8867 
36322000    85.610984   -5071.8689    -4906.761   -5071.8689            0    6265.2654    19.813273    19.711817    20.453832    7988.3586    4991.6832    8023.2694    5780.8437    255.48068    366.96314    383.95691   -4176.8449 
36323000    79.543054   -5090.3305    -4936.925   -5090.3305            0    6512.3952    19.716873    19.802516    20.411207    7969.4271    6903.1091    6170.6001    6463.4764   -270.12867    277.46953   -204.27137   -4180.0159 
36324000    80.791599   -5082.1324    -4926.319   -5082.1324            0    7177.8279    19.753808     19.81108    20.260125    7928.6836    7547.3725    6431.3358    7554.7755    10.211669    187.41245   -283.34017   -4096.3345 
36325000    81.485479    -5086.149   -4928.9974    -5086.149            0    6528.0373    19.702889    19.821171    20.433615    7980.0283    7427.8606    5714.4943    6441.7571    277.87439    49.587714    786.93716    -4169.261 
36326000    82.515761   -5081.2154   -4922.0768   -5081.2154            0    6912.0141    19.639245    19.776836    20.407094    7926.1589    7204.5353    7020.7518    6510.7552   -436.68343   -93.549545    827.81973   -4123.0832 
36327000    78.368882   -5084.8572   -4933.7162   -5084.8572            0    7087.3701    19.745214    19.677797    20.455594    7947.8638    6587.1796    7626.9555    7047.9753    149.98491    521.14796   -43.821579   -4112.2089 
36328000    85.573189   -5078.2468   -4913.2117   -5078.2468            0    5967.8304    19.754822    19.880326    20.297884    7971.6347    6248.9651    5479.3588    6175.1673   -425.22081   -1032.6201   -849.42727    -4219.403 
36329000    81.245902   -5084.5288   -4927.8393   -5084.5288            0    6813.6106    19.748215    19.673854    20.475705    7955.2923    6960.1642     7237.795    6242.8727   -102.59853   -272.13559    304.57554   -4137.3257 
36330000    86.508892    -5083.645   -4916.8054    -5083.645            0    6247.6001      19.7033    19.751303    20.495357    7976.0931    7339.7993    5508.3516    5894.6496   -363.80207   -854.11966    558.96848   -4190.0649 
36331000     83.72141    -5080.505   -4919.0412    -5080.505            0    6833.2183    19.643461    19.724182     20.52763    7953.4551    6927.4059     6701.039      6871.21   -488.05189   -396.32394    37.783533   -4126.4358 
36332000    78.532281   -5085.5242   -4934.0681   -5085.5242            0    7080.7217    19.880695    19.741894    20.337483    7982.1078    6126.6441    7735.9826    7379.5385   -230.21666    635.21522    110.80211   -4109.7952 
36333000    81.159505   -5076.8959   -4920.3729   -5076.8959            0    6549.3095    19.697152     19.82674    20.417456    7973.6354    6929.9208    6265.0543    6452.9534    117.38106    724.23923     588.8211   -4158.7714 
36334000    83.332367   -5072.4862   -4911.7727   -5072.4862            0    6948.9072    19.808546    19.822859    20.352773    7991.7607    7282.9959    6480.4236    7083.3021   -86.853296    972.09149     72.78782   -4101.8662 
36335000    76.512442   -5079.5299   -4931.9693   -5079.5299            0    5360.5872    19.657568    19.812095    20.523826    7993.1599    5511.9202    5375.1674    5194.6741   -380.96153    451.59635   -66.432393   -4307.0747 
36336000    78.579401   -5079.1561   -4927.6091   -5079.1561            0    6343.5439    19.725257     19.84985    20.340727    7964.2773     6381.421    6037.8235    6611.3871   -374.70443   -156.81014   -36.359247   -4190.8014 
36337000    83.076342   -5086.4703   -4926.2506   -5086.4703            0     5909.368    19.841776     19.72646     20.35456    7966.9376    5628.8654    5757.8937    6341.3448   -263.64767    601.95887   -207.07301   -4239.6434 
36338000    84.079694    -5084.708   -4922.5532    -5084.708            0     7127.653    19.713434     19.70989    20.505336    7967.3407    7094.1997    7087.3822    7201.3772   -374.47208    92.196894   -156.93358   -4094.3521 
36339000    76.378585   -5086.9496   -4939.6471   -5086.9496            0    6575.1164    19.762356    19.799827    20.389658    7978.2944    6631.6597    6688.6614    6405.0283   -405.20631    207.64627   -43.779681   -4174.5978 
36340000    79.457863   -5080.9589   -4927.7177   -5080.9589            0    6761.0314    19.807822    19.814833    20.356501    7989.6964    6135.7856    7724.5908    6422.7177   -439.72686   -193.78562    93.682556    -4139.912 
36341000    78.819819   -5076.7315   -4924.7208   -5076.7315            0    6698.0555    19.717473    19.791349    20.372308    7949.9952    6976.9331    5840.2997    7276.9336   -159.51898   -872.43586   -5.9203463   -4148.1314 
36342000    81.188571   -5079.5266   -4922.9476   -5079.5266            0     7742.153    19.735318    19.795642    20.360618    7954.3496    7672.7299    7289.4229    8264.3062   -168.03751    380.19855   -216.70171   -4024.8111 
36343000    83.407322   -5074.9641   -4914.1061   -5074.9641            0    8106.3379    19.651711    19.788196    20.385342    7927.2871    8195.7689    7927.4859    8195.7589     34.18335   -32.746292   -477.98248   -3976.9214 
36344000    83.044642   -5085.7926    -4925.634   -5085.7926            0    6467.8777      19.7034    19.808554    20.420308    7969.9617    6508.4988    6483.8885    6411.2459    141.45622   -152.01687    187.28931   -4173.8486 
36345000    75.310427   -5084.1672   -4938.9247   -5084.1672            0    6559.7969    19.811142    19.819969     20.36674    7997.1269    6844.4116    6695.9865    6138.9927   -283.87584    473.42651   -239.26286   -4173.8563 
36346000    83.688841   -5082.7488   -4921.3479   -5082.7488            0    6855.9087    19.730088    19.859047    20.355799    7975.8244    8045.3018    5951.6846    6570.7398   -554.90418    414.30201   -359.07086   -4123.8739 
36347000    83.271376    -5081.457   -4920.8611    -5081.457            0    7052.5666    19.736762    19.823171    20.350951    7962.2118    7334.9298    6922.6363    6900.1336   -349.25668    1296.6477    109.17738   -4101.9122 
36348000    80.064821   -5073.6231   -4919.2114   -5073.6231            0    7143.3608    19.679712    19.728733    20.407133    7923.1875    6956.1033    7269.6897    7204.2894    61.928337   -500.96269     1730.182   -4093.7849 
36349000    81.994897   -5085.4899   -4927.3558   -5085.4899            0    5704.5019    19.848689    19.738309    20.428594    8003.5056    5592.3987    5822.2698    5698.8372    288.97256   -181.32648    1085.0419   -4261.5097 
36350000    81.290708   -5083.8156   -4927.0397   -5083.8156            0    7461.4666    19.770959    19.754899    20.423617    7976.9193    8032.4748    7298.6649    7053.2603    -163.8842     297.6511   -145.21388   -4059.0086 
36351000    76.092846   -5084.0896   -4937.3382   -5084.0896            0    5833.8165    19.719626    19.867249    20.331767    7965.4724    5449.2288    6011.4545    6040.7662    124.57502    225.09304   -249.25281    -4259.634 
36352000     83.52739   -5084.1853   -4923.0957   -5084.1853            0    5225.3317    19.676973    19.752264    20.554272    7988.7214    4928.2128     6017.366    4730.4163   -266.09126     480.3621    431.49533   -4314.3064 
36353000     82.16204   -5077.7716   -4919.3152   -5077.7716            0    6156.5137    19.832827    19.718577    20.414352    7983.5449    5762.9793    7026.6262    5679.9355   -224.11008   -620.44151   -236.00479   -4202.5011 
36354000    82.741886   -5076.7008   -4917.1261   -5076.7008            0    6803.7149    19.776346    19.695542    20.416907    7952.5053    6746.6125    7431.0387    6233.4934   -127.94146   -189.02564    178.96187   -4128.0372 
36355000    86.109122   -5073.2738   -4907.2051   -5073.2738            0    6777.4248    19.618884     19.85108    20.356415     7927.929    7564.6532    5901.1133    6866.5078    11.611705   -398.77875    220.74569   -4123.5945 
36356000    79.619322   -5085.0455    -4931.493   -5085.0455            0    6748.7177    19.813394    19.678383    20.429092    7965.2125    7382.2229    6383.2385    6480.6915   -165.73536    232.26351   -269.80027   -4147.5319 
36357000    80.990836   -5080.5271   -4924.3295   -5080.5271            0    7196.1963    19.768988    19.792736    20.412609    7987.0939    7612.3723    6841.8441    7134.3725   -466.56351    342.82343   -273.99767   -4086.0908 
36358000    83.967598    -5074.636   -4912.6974    -5074.636            0    7576.0325    19.601011    19.717559    20.523853    7932.1427    7634.3426    8887.1749      6206.58   -173.67156    201.32317   -383.33022   -4036.2856 
36359000    83.416028   -5081.7342   -4920.8594   -5081.7342            0    7679.3853    19.799514    19.738276    20.281747    7926.2749    7446.9537    7906.6627    7684.5396     250.8614   -216.20567    332.63922   -4033.1487 
36360000    85.070451   -5077.5739   -4913.5084   -5077.5739            0    7037.5699    19.787963    19.745467     20.35148    7951.7827    6494.0581    7852.1869    6766.4648   -339.80978    156.84009   -479.95202   -4097.3713 
36361000    84.848777   -5078.7428   -4915.1048   -5078.7428            0    6433.7808    19.755889    19.723163    20.528903    7999.0586    6611.7197    6349.2651    6340.3577   -484.18951   -957.05983   -549.69108   -4164.5523 
36362000     81.41768   -5070.2715   -4913.2506   -5070.2715            0    6833.0167    19.756049     19.73267     20.35449    7934.9859     5018.359    7296.8614    8183.8297   -596.02127    566.80943   -344.78411   -4122.5091 
36363000    81.120038   -5085.2118   -4928.7649   -5085.2118            0    7178.2171    19.660548     19.83553    20.368063    7943.0837    8178.1487    6193.8346     7162.668   -206.21844    468.11667    -493.0371   -4097.2279 
36364000    82.598099   -5075.1083    -4915.811   -5075.1083            0    6761.8382    19.769575    19.659517     20.42797    7939.5411    6592.2964    5980.9366    7712.2816   -2.2050689    528.57139   -647.72759   -4132.8573 
36365000     80.62105   -5076.0703   -4920.5859   -5076.0703            0     7011.793    19.786566     19.77738    20.282727    7937.1673    6836.5958     7090.605    7108.1783    -238.9617    509.45881   -192.29832   -4108.9326 
36366000    81.488493   -5088.6034    -4931.446   -5088.6034            0    7095.8985    19.631487    19.697929    20.566118    7952.9107    7322.1994    6998.8099    6966.6863   -130.09439    424.61755    153.37566   -4108.4279 
36367000    78.864369   -5085.0173   -4932.9207   -5085.0173            0    7182.8141    19.731556    19.753742    20.422473    7960.1097    6894.3191    7095.8418    7558.2814   -567.23105    734.84948   -389.15191   -4099.0676 
36368000    81.367656    -5087.778   -4930.8536    -5087.778            0    6749.9435    19.799352    19.747981    20.381837    7969.2415     6022.516    6878.8035    7348.5109    9.8409382   -116.23644   -138.65969   -4146.3535 
36369000    81.763053   -5089.6033   -4931.9164   -5089.6033            0    6563.7964    19.678414    19.785683    20.469785    7969.9283    6567.3949    6689.6353     6434.359    -658.4649    334.90874    251.48384   -4168.9851 
36370000    79.493092   -5076.6702   -4923.3611   -5076.6702            0    7039.1419    19.763453    19.743799     20.41432    7965.7826    6446.7084    7157.4803    7513.2369   -93.968918    817.15474   -379.01601   -4105.6045 
36371000    78.844446   -5082.5207   -4930.4626   -5082.5207            0    7482.3938    19.549409    19.808663    20.441135    7915.7819    8088.0763    6513.0889    7846.0163    238.35143   -238.85648   -91.883601   -4066.6684 
36372000    84.455023    -5075.375   -4912.4964    -5075.375            0    7159.1279    19.652748    19.797139    20.443133    7953.7728    6976.1979    7681.8792    6819.3065   -304.49181    850.01658    58.019323   -4082.0546 
36373000    81.653018   -5077.8214   -4920.3467   -5077.8214            0    6643.7701    19.698277    19.804564    20.353589    7940.2566    6688.3947    6116.1152    7126.8004   -486.44735   -165.46674    865.39414   -4150.9948 
36374000    82.138764   -5077.2761   -4918.8646   -5077.2761            0    6850.7633    19.628515    19.764653    20.478432     7944.624    7251.1595    6111.8555    7189.2748   -134.61441    677.54572    648.44831   -4125.1065 
36375000    84.361765   -5074.1874   -4911.4886   -5074.1874            0    7681.6994    19.722053    19.740841    20.321948    7911.9422    6836.0398     8913.114    7295.9443   -586.96487   -107.60538   -897.37508    -4025.116 
36376000    77.095757   -5081.0142   -4932.3286   -5081.0142            0    7444.3364    19.755821    19.714335    20.441187    7961.2878    6892.5084    7884.0609    7556.4399   -46.869255   -133.00305    1.6373967   -4067.9874 
36377000    79.766156   -5076.3586   -4922.5228   -5076.3586            0    7664.1226    19.745358    19.713921    20.386652    7935.6763    7713.1829    8497.9831    6781.2018    391.96164     -371.976   -559.99674   -4035.5256 
36378000    81.824814   -5083.8296   -4926.0236   -5083.8296            0    7187.8091    19.810543    19.708353    20.316416    7932.2028    6947.1353    7450.7437    7165.5484    30.293063    188.86952   -280.40088    -4094.516 
36379000    85.696242   -5072.1025   -4906.8301   -5072.1025            0    6819.5393    19.629337    19.730266    20.511647    7943.9974    7673.7061    6530.4592    6254.4525   -93.509747    275.75748    -192.1815    -4116.752 
36380000    75.366426   -5084.6516   -4939.3011   -5084.6516            0    6222.4943    19.802537    19.819209    20.349991    7986.7738    5406.0686    6201.4318    7059.9825    32.147493   -84.193511    96.539822   -4214.5118 
36381000    74.890644   -5080.9513   -4936.5184   -5080.9513            0    6465.1708    19.683574    19.761538    20.528997    7985.3219    6556.9083    6691.1357    6147.4685   -170.64983    448.36353   -162.21729   -4183.5993 
36382000    82.684922   -5072.1271   -4912.6623   -5072.1271            0    6357.9013     19.65993    19.734936    20.582763     7985.854    6885.7193    6346.7869    5841.1976     211.5399   -305.56159    66.910268   -4172.1862 
36383000    82.333963   -5074.0309    -4915.243   -5074.0309            0    6750.2822    19.814437    19.762127    20.374333    7978.0881    6845.0704    6203.4121    7202.3641   -399.30011   -152.84386   -238.37025   -4129.8326 
36384000    78.546751    -5078.996    -4927.512    -5078.996            0    7221.5599    19.625907    19.766169    20.471133     7941.346    7659.5292     7592.055    6413.0954    -384.6945    123.79621   -620.63959    -4091.137 
36385000    79.825287    -5077.566   -4923.6162    -5077.566            0    6947.6654    19.712603    19.856141    20.343372    7962.7258    6817.0259     6572.949    7453.0211   -374.17097    -771.1558    262.23919   -4116.7964 
36386000    88.386886   -5090.4719   -4920.0103   -5090.4719            0    7244.2335    19.692937    19.779971    20.399721    7946.2162    6976.3744    7584.0983    7172.2278   -705.00854   -676.66165    122.33207   -4080.4948 
36387000    79.936026   -5077.3564    -4923.193   -5077.3564            0    8323.7833    19.662919    19.679406    20.449796    7913.1423    8621.7757    8655.3212    7694.2528    9.2070514    377.43828   -615.54533   -3962.5863 
36388000    80.475101   -5082.6656   -4927.4626   -5082.6656            0     6497.203    19.846961    19.679611     20.41285    7972.8604    6017.0983    7389.1502    6085.3604    286.50301     884.7566   -140.11807   -4171.9939 
36389000    74.863307   -5083.0157   -4938.6356   -5083.0157            0    6423.6875    19.722004      19.7944    20.406227    7966.2902    5837.4423    6738.8049    6694.8152   -175.18639    520.38511    587.39538   -4192.3304 
36390000    81.134792   -5075.6481   -4919.1728   -5075.6481            0    6706.8469    19.831113    19.800891    20.273868    7961.0148    5607.3559     7079.999    7433.1857   -644.81192    1254.2849    692.09902   -4140.4862 
36391000    82.195355   -5082.6589   -4924.1382   -5082.6589            0    6828.7449    19.712483    19.801549    20.395633    7961.1846    7539.7614    6381.4018    6565.0715    -385.4656     300.4984    425.94261   -4131.2819 
36392000     80.33924   -5075.3243   -4920.3833   -5075.3243            0    7099.0092    19.700574    19.773841    20.406279    7949.3889    6326.2156    8742.3367    6228.4754   -491.25673     154.4015    535.83598   -4097.3691 
36393000    79.333714   -5081.6793   -4928.6775   -5081.6793            0    6952.4349    19.747025    19.742404    20.421442    7961.3755    6261.7222    7641.4794    6954.1031   -277.89266    201.22851    -43.82532   -4121.4408 
36394000    81.390482   -5078.7322   -4921.7638   -5078.7322            0    7976.2473    19.642626    19.770891    20.482427    7954.3955    8796.1623    7863.7376    7268.8421   -272.57627    282.54708   -323.86781   -3996.4657 
36395000    83.358491   -5083.6415   -4922.8777   -5083.6415            0    7122.5152    19.791572    19.771548     20.28309    7936.9766    5575.4802     8435.889    7356.1764    230.94677     349.2773    655.64963   -4098.4276 
36396000    77.117157   -5075.8335   -4927.1066   -5075.8335            0     7064.295    19.774242    19.674632    20.429413    7948.0825    5780.6171    7630.5496    7781.7184   -54.591378   -256.89655     580.5393   -4108.2514 
36397000    76.950214   -5078.3647   -4929.9597   -5078.3647            0    8110.8922    19.664637    19.716482    20.400905    7909.7874    7885.7377    9352.7527    7094.1864   -413.30662   -569.71581    583.72561   -3994.3185 
36398000    76.633821   -5076.1377    -4928.343   -5076.1377            0    7348.2619    19.768887    19.763809    20.361397    7955.3709    8018.8232    6555.2647     7470.698    76.296252    1735.4345    297.23782   -4075.7908 
36399000    84.542151   -5079.6939   -4916.6472   -5079.6939            0    7011.8478    19.680469    19.733433    20.499003    7961.0588    7673.1791    6482.2514     6880.113    21.813024   -289.54408    736.68279   -4102.5445 
36400000    81.669086   -5080.6129   -4923.1072   -5080.6129            0    6971.8057      19.6913    19.841975    20.345067    7949.1082    7699.6197    6420.6036    6795.1939    116.03808   -973.51197   -913.73554   -4114.8687 
36401000    85.800305   -5076.4724   -4910.9993   -5076.4724            0    6541.1827    19.743382     19.78301    20.390486    7964.1879    5703.0307    7362.9229    6557.5945   -226.37122   -130.97565    840.51577   -4151.2441 
36402000    81.849148   -5081.4848   -4923.6318   -5081.4848            0    6300.2356    19.712054    19.809714    20.478296    7996.5731    6833.4164    5429.5864    6637.7039   -105.70655    527.42647   -91.158945   -4188.8869 
36403000    81.299473   -5082.9436   -4926.1507   -5082.9436            0     6806.344    19.668485    19.884867    20.434937    7992.2103    7498.6266    5810.9439    7109.4614   -303.11983     815.9937    -222.5417   -4132.8156 
36404000    83.561038   -5083.2554   -4922.1009   -5083.2554            0    7609.5967    19.776817    19.724359    20.347818    7937.3795     6495.083    9248.3102    7085.3969   -451.50935    704.25928   -317.63379   -4041.2251 
36405000     78.55745   -5078.0899   -4926.5852   -5078.0899            0    6602.0704    19.653812    19.779287    20.505414    7971.2417     7283.077    6662.4751    5860.6591   -202.37528    248.76978    41.722549   -4159.0788 
36406000    79.162725   -5078.9274   -4926.2554   -5078.9274            0    7409.1183    19.730505     19.72805    20.361482    7925.5925      6722.63    7442.4079    8062.3169   -243.04633      255.437    731.56549   -4069.8603 
36407000    84.337368   -5078.0245   -4915.3728   -5078.0245            0    7370.9956    19.661884    19.737201    20.395685    7914.9649    7809.2153    6630.0444     7673.727   -282.91987   -173.20256    8.7566084   -4064.5267 
36408000    76.580524   -5083.8616   -4936.1697   -5083.8616            0    6351.1861    19.723236    19.874055    20.326471    7967.5841    6140.8476    5998.3181    6914.3926   -404.17644    615.75124    243.01781   -4198.1679 
36409000    80.914429   -5089.9118   -4933.8615   -5089.9118            0    6845.4753    19.771698    19.778843    20.431859    7990.1095    6827.7749    7111.4153    6597.2357   -97.573602   -456.79075   -841.69153    -4136.175 
36410000    82.229293   -5083.5677   -4924.9816   -5083.5677            0    6834.6539    19.792483    19.683316     20.47725    7977.5619    7165.4949    6828.3904    6510.0764   -330.87469   -697.06161    437.50048   -4129.8068 
36411000    77.713984   -5079.6108   -4929.7328   -5079.6108            0    6789.3164    19.758256    19.854248    20.327593    7974.2163    7439.2796    5722.8795    7205.7901   -180.38591   -564.28434    569.44797   -4140.1641 
36412000    81.208525   -5082.9261   -4926.3086   -5082.9261            0    5958.9559    19.771767    19.834044    20.388321    7995.3641    4599.5017    6655.2978    6622.0683   -334.10913    837.30173   -674.99615   -4231.4694 
36413000    81.542443   -5076.8972   -4919.6358   -5076.8972            0    6336.7721    19.743814    19.661051    20.520151    7965.5968    7285.5795    5782.8129     5941.924   -138.57258   -543.16721    1146.1839   -4183.4926 
36414000    78.386831   -5079.2917   -4928.1161   -5079.2917            0    7486.4957    19.836791    19.779263     20.28668    7959.6232    7045.4343    7968.8047    7445.2479   -426.06535   -56.371492   -49.281718   -4059.0617 
36415000    82.134632   -5081.2487   -4922.8451   -5081.2487            0    7218.2001     19.69346    19.761765    20.419954    7946.9871    6951.7995    7648.8983    7053.9024   -117.32353    594.67877    99.490137   -4086.2654 
36416000    82.613524   -5074.9141   -4915.5869   -5074.9141            0    6484.6088    19.725708    19.724889    20.435875    7951.3411    5330.3713    7310.2783     6813.177   -432.17662    771.65522    943.03159   -4163.6177 
36417000    81.971509   -5078.0671   -4919.9782   -5078.0671            0    8011.0975    19.641807    19.794486     20.37511    7921.8323    7711.3184    8672.7815    7649.1927   -209.39759    226.58112    122.40543   -3994.4417 
36418000     81.61375   -5065.4424   -4908.0434   -5065.4424            0    7739.7456    19.667711    19.765518    20.365903    7917.0918    7401.5643    8360.8513    7456.8214    31.129846     342.3681     446.9139   -4014.3918 
36419000    86.413266   -5083.7609   -4917.1056   -5083.7609            0    6404.7634    19.862951    19.830431    20.294206    7993.7026    6968.0563    4945.0721    7301.1617     112.8857    7.1242448   -582.48438   -4170.4386 
36420000    79.034876   -5076.8725   -4924.4471   -5076.8725            0    6163.2964    19.815754    19.707197    20.450488    7986.1804    4789.4183    7598.0974    6102.3733   -288.21713   -542.32266    362.16205   -4206.6065 
36421000    83.437716   -5083.2249   -4922.3082   -5083.2249            0    5801.0289    19.709778    19.822959    20.486275     8004.113    5464.4242     6092.599    5846.0635   -405.89901   -421.42992   -638.16377   -4245.1438 
36422000    75.746258   -5075.0484   -4928.9654   -5075.0484            0    7333.7655    19.777829    19.678061     20.50642    7980.8798    7747.6853    7199.7352    7053.8761   -250.46935    474.29178    74.533946   -4075.3668 
36423000    80.539374   -5083.9595   -4928.6326   -5083.9595            0     7669.625    19.613083    19.816726    20.402321    7929.7107    8438.4852    6608.6792    7961.7106    505.59478    1264.3697    55.534653   -4041.6658 
36424000      81.7392   -5082.0427   -4924.4017   -5082.0427            0    5999.9673    19.726968    19.795598    20.430499    7978.2557    6225.3513    5932.0673    5842.4834    258.41863    783.71496   -453.56518   -4226.2775 
36425000    83.694878   -5085.9604   -4924.5478   -5085.9604            0    6668.3899    19.779963    19.660255    20.453053    7953.7653    6426.1683    7723.0859    5855.9154   -342.48438    246.28627    642.64718   -4151.0312 
36426000    81.925021   -5090.2685   -4932.2692   -5090.2685            0    6904.4892    19.603848    19.773091    20.521629    7954.7714    7630.5763    6575.6981    6507.1932    81.446013    633.61838    699.60483   -4131.2643 
36427000    82.869621   -5077.8044   -4917.9833   -5077.8044            0    7866.9377    19.679838    19.735503    20.355369    7905.8525    8826.6416    6771.5457    8002.6259   -276.50625    285.81695    -314.0296   -4010.9352 
36428000    80.957318   -5073.3696   -4917.2366   -5073.3696            0    8690.0829    19.636298    19.706309     20.42523    7903.7257    9329.5979    8269.4116    8471.2394   -168.29642    1772.1132   -142.09952   -3915.5505 
36429000    80.610027   -5070.0372    -4914.574   -5070.0372            0    7883.8024      19.7797     19.81479     20.32732    7966.8986    7593.3317     8067.673    7990.4023   -91.026085    41.641735    144.16152   -3998.5625 
36430000    80.056492   -5070.9639   -4916.5682   -5070.9639            0    7277.0358    19.644507    19.842441    20.394449    7949.6537    7995.4729    6041.5908    7794.0437    114.32585   -368.34832    417.55995   -4072.8865 
36431000    81.219787   -5078.9631   -4922.3239   -5078.9631            0    7743.5565    19.748924    19.716575    20.357503    7926.8276    8204.3616    7921.8714    7104.4366   -65.728631   -237.96112    197.26298   -4027.1328 
36432000    80.041636   -5078.4423   -4924.0752   -5078.4423            0    6926.4885    19.672301    19.825059    20.420483    7964.0807     7347.438    6584.7434    6847.2839   -93.697144    289.52611    24.771841   -4119.5778 
36433000    80.331041   -5094.0077   -4939.0825   -5094.0077            0    5526.9284    19.798308    19.817866    20.451398    8024.3148    4429.9823    6274.3951     5876.408    332.34465   -174.46637   -799.39907    -4292.286 
36434000    76.896414   -5080.4276   -4932.1264   -5080.4276            0    6533.6528    19.857422    19.801898    20.297395    7981.2327    4701.1333    6975.6283    7924.1967   -6.3055557    124.66559    240.06842   -4171.6217 
36435000    83.496364    -5076.033   -4915.0032    -5076.033            0    7939.9132    19.557475    19.824926    20.490954    7944.8653    9490.8593     6869.409    7459.4714   -57.976389    -95.05341      284.045   -3995.0237 
36436000    86.555461   -5081.7129   -4914.7834   -5081.7129            0     7225.257    19.626169    19.819603    20.436203    7949.3332    7141.3357     7584.916    6949.5195     85.75637    -492.8618    104.79702   -4077.1386 
36437000    77.697738   -5081.0016   -4931.1549   -5081.0016            0    6192.6287    19.810519    19.772237    20.428399    8001.7686    5274.8032     6783.304    6519.7788   -509.14858    596.68579    277.16547   -4208.4901 
36438000    80.461627   -5076.3683   -4921.1912   -5076.3683            0    6065.6221    19.686451    19.775103    20.480065    7972.9223    6061.2699    6961.0068    5174.5897   -574.06079   -385.96247    392.35932   -4215.8995 
36439000    80.081505   -5083.3576   -4928.9137   -5083.3576            0    7484.8156    19.597263    19.783762    20.424988    7918.9228    8395.0055    6848.3794    7211.0619   -180.78391    56.149974     343.1155   -4064.4971 
36440000    82.649482   -5068.3399   -4908.9434   -5068.3399            0    6181.7149    19.639323    19.845859    20.407693    7954.0863    5612.6099    6099.3165    6833.2183    132.05475    560.98463   -881.90135    -4191.851 
36441000    80.006173    -5074.243   -4919.9444    -5074.243            0    8006.8071     19.64727    19.743175    20.454948     7934.464    7462.9938    8771.1767    7786.2508   -28.144152    592.25373    12.039201   -3993.4285 
36442000    83.373519   -5079.7296   -4918.9368   -5079.7296            0     7216.579    19.753578    19.753224    20.366524    7946.9534    7786.8465    6774.2454    7088.6451   -300.66339     914.1779   -444.46475   -4082.5485 
36443000    82.100789   -5080.9709   -4922.6326   -5080.9709            0    6555.7572    19.578898    19.840907    20.510666    7967.6369    6243.8954    7026.2599    6397.1162   -438.83828   -235.38218    137.43482   -4160.8549 
36444000     80.94185   -5071.2486   -4915.1454   -5071.2486            0    7267.9283    19.642334    19.862645    20.410331    7963.0645    8324.2358     6230.158    7249.3913   -632.34876     -708.809    216.23195   -4071.0981 
36445000    83.838264   -5081.5135   -4919.8243   -5081.5135            0    7290.0228    19.794403    19.867286    20.179774    7935.9194    7316.1928      7011.12    7542.7555    287.27436    1388.7287    477.88157   -4076.0972 
36446000    82.166285   -5083.9451   -4925.4805   -5083.9451            0    7114.1325    19.742459    19.695286    20.481524       7963.9    7516.9859    7130.1198    6695.2919   -182.23359    106.29168   -38.500704   -4099.2074 
36447000    81.059227   -5078.1544   -4921.8249   -5078.1544            0    8158.3776    19.660275    19.748137    20.467827    7946.7118    8134.4338     8042.164    8298.5351    304.44154    1335.0699    753.00276   -3976.3126 
36448000    80.975525   -5076.1048   -4919.9367   -5076.1048            0    7801.7346    19.697132    19.726069    20.429154     7937.686    7258.7258    7691.2699    8455.2082    330.80002   -111.85906   -295.89739   -4016.7844 
36449000    82.017847   -5074.5001   -4916.3218   -5074.5001            0    6871.4775    19.776794    19.916203    20.236259    7970.6303    6771.2622    6339.1633    7504.0069   -493.38393   -669.22895     355.1163   -4117.5574 
36450000    80.108526   -5080.0626   -4925.5665   -5080.0626            0    7049.3512    19.749836    19.839752    20.360208    7977.7782    8294.4932    5782.8811    7070.6791   -175.90011    227.40979    546.16301   -4105.3907 
36451000    78.770782    -5075.233   -4923.3169    -5075.233            0    6489.8636    19.845318    19.798193    20.223599    7945.8813    5999.7868    6630.6883    6839.1155   -341.37934   -58.464713   -218.10583   -4171.2551 
36452000    80.373392   -5077.2446   -4922.2378   -5077.2446            0    6691.4176    19.639241    19.790804     20.46884    7955.7544    7360.2527    6627.8396    6086.1606   -92.958705    304.71318    120.39567   -4145.8559 
36453000    80.132589   -5083.4229   -4928.8805   -5083.4229            0    7570.8628    19.770095    19.748382    20.366263    7951.5469    7552.7286     7766.041     7393.819   -141.22699   -178.78011   -52.358185   -4050.9242 
36454000    79.377618   -5084.1665   -4931.0801   -5084.1665            0    6494.1742    19.647986    19.770387    20.494885    7961.2033     6803.741    6342.2056    6336.5762   -128.37429    466.80873    -578.8453   -4177.0676 
36455000    78.483562   -5085.9316   -4934.5694   -5085.9316            0     7868.227    19.753579    19.740185     20.41696    7961.3755    8067.8849    7538.8271    7997.9689   -215.24663    762.32474    764.89965   -4021.0014 
36456000    80.092491   -5083.0585   -4928.5934   -5083.0585            0    6877.4841    19.793161    19.739005    20.275807    7921.7028    5789.9487    8056.6191    6785.8846    -624.0141    367.33322    10.645664   -4134.0383 
36457000    80.439008   -5076.3546   -4921.2212   -5076.3546            0    7013.4633    19.637816    19.777297     20.44025    7938.6437    6661.2695    7003.3969    7375.7234   -598.78552    330.22881    576.17256   -4109.2236 
36458000    79.145231   -5072.3595   -4919.7213   -5072.3595            0    7616.5211    19.661173    19.803251    20.461741    7966.8837    7881.6168    6998.3483    7969.5982    239.39245    628.42032    975.00098   -4034.7666 
36459000    81.326373   -5080.3334   -4923.4886   -5080.3334            0    7363.0414    19.796721    19.834956    20.245746    7949.8381    7648.2629    6454.3072     7986.554    -249.2041    218.12461    231.15982   -4069.8159 
36460000    81.768182   -5072.0218    -4914.325   -5072.0218            0    5850.8818    19.687652    19.871779    20.423371    7990.2083    6152.4156     5885.575    5514.6548   -367.27598   -637.01691   -212.84933   -4232.5277 
36461000     84.31922   -5088.5122   -4925.8955   -5088.5122            0    6000.3223    19.892948     19.79632    20.272055    7983.2805     5208.107    6693.8081    6099.0517   -103.33154    867.02818    36.450907   -4227.2902 
36462000    81.656415   -5079.2537   -4921.7724   -5079.2537            0    7276.7103    19.760242    19.729577    20.343105    7930.9879    6930.6749    7329.9797    7569.4763    669.49387    145.88214     172.9902   -4080.1094 
36463000    82.067428   -5073.9141   -4915.6402   -5073.9141            0      6905.05    19.795729    19.645454    20.457359    7955.7868    6751.6736    7320.2765    6643.1997   -363.12113    502.38816   -216.22525    -4114.468 
36464000    81.375644   -5075.4194   -4918.4796   -5075.4194            0    7811.1236    19.683559    19.764432    20.429062    7947.6073    8408.9762    7791.6825    7232.7121    -756.0917    1022.9254   -345.02978   -4013.1102 
36465000     79.08315    -5087.579   -4935.0605    -5087.579            0    7195.8805    19.691145    19.765535    20.380858    7932.3526    6765.4988    7295.3075    7526.8352   -106.78565     1077.812    -277.0417   -4102.6035 
36466000    79.133969   -5080.9168   -4928.3003   -5080.9168            0    7072.3646     19.75768    19.762496    20.374291    7955.3676    8026.8218    6418.5029    6771.7689   -257.24399   -253.57021    1251.1219   -4107.7584 
36467000    77.980855   -5085.0669   -4934.6742   -5085.0669            0      6872.05    19.752353    19.738996    20.410815     7958.006    6350.7953     7466.078    6799.2767   -155.72234    848.47759   -792.78972   -4137.1085 
36468000     86.01695    -5086.085   -4920.1941    -5086.085            0    6902.2588    19.752371    19.788059    20.395822    7971.9331    6837.2904    6584.2533    7285.2326   -274.63971   -374.18566    755.68243   -4117.7204 
36469000    82.600677    -5075.329   -4916.0267    -5075.329            0    7086.1336    19.630932    19.713967     20.50128    7934.0684    6681.0818    7529.2202    7048.0989   -169.20956    367.29468   -87.199991   -4096.0884 
36470000    78.089146   -5079.6503   -4929.0488   -5079.6503            0    7927.8866    19.807141    19.685687    20.352901     7935.946    6277.2813    9564.8374    7941.5411   -216.31338   -344.12825    841.66453    -4011.494 
36471000    82.536682   -5084.4969    -4925.318   -5084.4969            0    7241.2614    19.816235    19.761829     20.30908    7953.1386    7242.5784    6642.5743    7838.6314    278.18772    535.01662    228.30597   -4085.4159 
36472000    79.581505   -5080.0553   -4926.5757   -5080.0553            0    7391.2628    19.743985    19.701905    20.366597    7922.4861     6249.664    7917.7403    8006.3841   -71.391163    241.29775   -64.610674   -4072.5793 
36473000    78.032996   -5077.1647   -4926.6715   -5077.1647            0    6390.4317    19.861531    19.733439    20.277515    7947.4946    5098.3878      7304.97    6767.9373   -118.31985    -178.4178    178.54836   -4185.9817 
36474000    84.498413   -5088.3509   -4925.3886   -5088.3509            0    6495.7364    19.793014    19.798331    20.355186    7976.5593    6252.1941    6571.1868    6663.8285   -269.64532   -56.716283   -551.71374     -4169.74 
36475000    79.158282   -5079.3298   -4926.6664   -5079.3298            0    6055.9549    19.624584    19.680484    20.579234    7948.1384    7718.9589    4968.4731    5480.4326   -260.00525   -126.60603    38.356891   -4224.6877 
36476000    77.252657   -5070.8393    -4921.851   -5070.8393            0    7382.5799    19.748448    19.765227    20.357177     7946.069    6754.2409    7248.1111    8145.3876    22.050771    379.68493   -264.35623   -4066.3188 
36477000    85.686854   -5073.6301   -4908.3758   -5073.6301            0     6393.506    19.864334    19.757836    20.408918    8010.0159    6631.8226    5774.3858    6774.3096      133.608      483.123    -205.9909   -4161.5001 
36478000    82.643294   -5072.8254   -4913.4409   -5072.8254            0     6392.195    19.575821    19.864962    20.411131     7937.337    6585.3028    5826.8594     6764.423    -141.7818    676.98385   -393.41427   -4173.4937 
36479000     84.32657   -5081.1011   -4918.4702   -5081.1011            0    5619.1845     19.74721    19.593325    20.571813    7959.5126    5885.3563    5396.9162    5575.2809   -583.66591   -476.24267    5.6137151   -4266.1878 
36480000    83.535264    -5073.331   -4912.2263    -5073.331            0    6232.3693    19.654971    19.744426    20.516493    7961.9613    5721.5679    7258.6335    5716.9065    -265.4755   -144.94334   -517.66649    -4188.542 
36481000    84.269842   -5081.0115     -4918.49   -5081.0115            0    6845.1501    19.818989    19.753765    20.368954    7974.4384    6237.7353     7391.264     6906.451   -215.10297   -331.47068    246.46363   -4122.4058 
36482000    81.885107   -5082.1377   -4924.2154   -5082.1377            0    6060.6179     19.76725    19.734109    20.465698    7983.4449    6417.2845    6240.5673    5524.0018   -59.304433   -119.46485    34.707886   -4218.5755 
36483000    82.069094   -5085.7892   -4927.5121   -5085.7892            0    7367.9941    19.741262    19.654332    20.490706    7950.4209    7126.6804    7881.1767    7096.1253   -250.12583   -286.22723    351.84566   -4073.2025 
36484000    83.644176   -5080.5365   -4919.2217   -5080.5365            0    6573.2589    19.782941    19.708881    20.486092    7987.5201     5812.457    7291.2133    6616.1065     101.7228    130.31185   -577.96752   -4153.5041 
36485000      79.1565   -5085.9001   -4933.2401   -5085.9001            0    7031.7973    19.728736    19.760852     20.43733    7967.6287    7241.2245     6565.624    7288.5434    -426.2631    128.13651    548.15347   -4116.1474 
36486000    81.454481   -5086.5196   -4929.4277   -5086.5196            0    6760.0012    19.661326    19.871341    20.396483    7968.8429    7022.9029    5684.7201    7572.3806   -127.03459    164.54141   -232.59917    -4143.798 
36487000    79.574963   -5074.6398   -4921.1728   -5074.6398            0    6612.1964    19.703764    19.798011    20.394453     7955.781    6017.1319     6818.302    7001.1555   -84.738446   -52.263207    737.37725   -4153.9801 
36488000    77.614975   -5068.1982   -4918.5112   -5068.1982            0    6634.7736    19.706585    19.773613    20.451129    7969.1989    7878.0026    6383.2783    5643.0398   -220.31388    187.05076    763.90001   -4147.4006 
36489000    79.293219   -5078.5681   -4925.6444   -5078.5681            0    7471.5795     19.73305    19.785429    20.482004    7996.7245    8161.8056    7780.1727    6472.7602   -78.595607    687.20505   -1090.2577   -4054.2787 
36490000    85.255363   -5085.6978   -4921.2756   -5085.6978            0    6887.1554    19.756043     19.76861    20.361869    7952.3179    5929.0719    7215.1407    7517.2535   -374.64108   -33.781412    84.745102   -4122.5281 
36491000    78.565652   -5080.4921   -4928.9716   -5080.4921            0    7111.6417    19.682769    19.858903    20.339458    7950.2511     6306.503     7180.463     7847.959    242.51775   -465.97378    573.98834   -4104.4034 
36492000    82.737235   -5089.0738   -4929.5081   -5089.0738            0    6283.8556    19.833751    19.695994    20.455846    7990.9831    5974.3552    6137.3404    6739.8713   -711.40112    532.68937    380.80641   -4197.1857 
36493000    82.799709   -5075.7239   -4916.0377   -5075.7239            0    6192.9162    19.619799    19.671394     20.60751    7953.4439    6795.7815    5852.2283    5930.7388    42.912773    124.39742   -31.606736   -4197.7039 
36494000    82.172761   -5076.9192   -4918.4421   -5076.9192            0     6701.527     19.76663    19.727037     20.39203    7951.6079    6871.0538    6114.2199    7119.3074    487.42299   -393.26092   -148.06359   -4141.2925 
36495000    83.873777   -5070.3992   -4908.6415   -5070.3992            0     7687.671    19.749574    19.818756    20.268669    7933.4002    8484.9875    6198.2585    8379.7668    18.618844   -544.09286   -536.06038   -4019.1741 
36496000    82.971019   -5077.9402   -4917.9237   -5077.9402            0    7019.4715    19.720833    19.744232    20.474858    7972.3511    7044.2266     6721.327    7292.8609    108.56852    649.46984    556.26808   -4101.7798 
36497000     81.46983   -5079.4917   -4922.3703   -5079.4917            0    6621.4743    19.664306    19.683393    20.462937    7920.3899     7349.951    5951.1051     6563.367   -361.28364   -5.9709717   -469.47714   -4157.5187 
36498000    87.448138   -5083.7703   -4915.1192   -5083.7703            0    7718.7634    19.714277    19.735176    20.418228    7944.0123    8464.4273    6984.6538    7707.2091   -144.07048     809.6556    847.29202   -4020.8598 
36499000     78.85227   -5082.0487   -4929.9754   -5082.0487            0    6507.0897    19.885268     19.79298     20.26841     7977.417    6220.1561    5961.4553    7339.6578   -334.38712   -254.31339    116.12513   -4172.9247 
36500000    83.320581   -5073.0919   -4912.4012   -5073.0919            0      6547.27    19.826007    19.757677    20.426187    8001.2612    7055.2001    5718.4986    6868.1111   -268.85477    776.86407    1054.5291    -4148.399 
Loop time of 371.4 on 64 procs for 250000 steps with 972 atoms

Performance: 116.317 ns/day, 0.206 hours/ns, 673.128 timesteps/s
194.9% CPU use with 32 MPI tasks x 2 OpenMP threads

MPI task timing breakdown:
Section |  min time  |  avg time  |  max time  |%varavg| %total
---------------------------------------------------------------
Pair    | 28.263     | 35.872     | 45.11      |  74.3 |  9.66
Bond    | 1.016      | 1.2245     | 2.3085     |  21.1 |  0.33
Kspace  | 157.1      | 169.87     | 178.05     |  38.2 | 45.74
Neigh   | 0.21877    | 0.23964    | 0.26689    |   3.3 |  0.06
Comm    | 66.39      | 71.847     | 76.528     |  32.5 | 19.34
Output  | 0.55482    | 0.5551     | 0.55665    |   0.0 |  0.15
Modify  | 73.544     | 75.966     | 81.864     |  17.8 | 20.45
Other   |            | 15.82      |            |       |  4.26

Nlocal:        30.3750 ave          36 max          24 min
Histogram: 2 1 2 2 6 9 2 3 2 3
Nghost:        2708.53 ave        2744 max        2688 min
Histogram: 3 6 7 4 3 3 2 2 1 1
Neighs:        9823.62 ave       12094 max        7629 min
Histogram: 1 2 8 1 2 6 4 4 2 2

Total # of neighbors = 314356
Ave neighs/atom = 323.41152
Ave special neighs/atom = 2.0000000
Neighbor list builds = 637
Dangerous builds = 0

unfix		3
unfix		2
unfix		1

write_data	data.final.${pid}
write_data	data.final.1
System init for write_data ...
PPPM initialization ...
  extracting TIP4P info from pair style
  using 12-bit tables for long-range coulomb (../kspace.cpp:340)
  G vector (1/distance) = 0.37229642
  grid = 24 24 24
  stencil order = 5
  estimated absolute RMS force accuracy = 0.0034951276
  estimated relative force accuracy = 1.0525473e-05
  using double precision FFTW3
  3d grid and FFT values/proc = 3211 432
Last active /omp style is kspace_style pppm/tip4p/omp
WARNING: Not all mixed pair coeffs generated from mixing. Use write_data with 'pair ij' option to store all pair coeffs. (../write_data.cpp:312)

write_restart   restart.lmp.${pid}
write_restart   restart.lmp.1
System init for write_restart ...
PPPM initialization ...
  extracting TIP4P info from pair style
  using 12-bit tables for long-range coulomb (../kspace.cpp:340)
  G vector (1/distance) = 0.37229642
  grid = 24 24 24
  stencil order = 5
  estimated absolute RMS force accuracy = 0.0034951276
  estimated relative force accuracy = 1.0525473e-05
  using double precision FFTW3
  3d grid and FFT values/proc = 3211 432
Last active /omp style is kspace_style pppm/tip4p/omp
Total wall time: 0:06:11
