LAMMPS (30 Jul 2021)
Processor partition = 0
  using 2 OpenMP thread(s) per MPI task
using multi-threaded neighbor list subroutines
variable        pid world 0 1
variable        phase world IceIII Liquid

shell cd ${phase}
shell cd IceIII
include Restart.lmp
echo both
log log.lammps
#include		in.partitions
include		in.temp
variable        temperature equal 261.95
variable	tempDamp equal 100.0
include		in.pressure
variable        pressure equal 3375.0
variable        pressureDamp equal 1000.0 # This is 1 ps
include		in.seed
variable        seed equal 745823

units		real
atom_style	full

read_restart	restart.lmp.${pid}
read_restart	restart.lmp.0
Reading restart file ...
  restart file = 30 Jul 2021, LAMMPS = 30 Jul 2021
  restoring atom style full from restart
  orthogonal box = (-0.0062436771 -0.11896617 -0.14930089) to (20.006245 20.118967 20.849299)
  2 by 4 by 4 MPI processor grid
  restoring pair style lj/cut/tip4p/long/omp from restart
  restoring bond style harmonic/omp from restart
  restoring angle style harmonic/omp from restart
  972 atoms
  648 bonds
  324 angles
Finding 1-2 1-3 1-4 neighbors ...
  special bond factors lj:    0        0        0       
  special bond factors coul:  0        0        0       
     2 = max # of 1-2 neighbors
     1 = max # of 1-3 neighbors
     1 = max # of 1-4 neighbors
     2 = max # of special neighbors
  special bonds CPU = 0.003 seconds
  read_restart CPU = 0.008 seconds
include 	in.setup
variable	out_freq equal 1000
variable	out_freq2 equal 10000
variable	out_freq3 equal 1000

timestep	2.0

neigh_modify    delay 7 every 1

include		in.tip4p
# This is TIP4P/Ice

# create groups ###
group ox type 2
324 atoms in group ox
group hy type 1
648 atoms in group hy

# set charges - beside manually ###
set group ox charge -1.1794
Setting atom values ...
  324 settings made for charge
set group hy charge 0.5897
Setting atom values ...
  648 settings made for charge

# ### TIP3P Potential Parameters ###
pair_style lj/cut/tip4p/long/omp 2 1 1 1 0.1577 8.5
pair_coeff 1 1*2 0.000 0.000
pair_coeff 2 2 0.21084 3.1668
bond_style  harmonic
bond_coeff  1 450 0.9572
angle_style harmonic
angle_coeff 1 55 104.52
kspace_style pppm/tip4p/omp 1.0e-5
pair_modify tail yes

thermo          ${out_freq}
thermo          1000
thermo_style    custom step temp pe etotal epair emol press lx ly lz vol pxx pyy pzz pxy pxz pyz enthalpy

restart 	${out_freq3} restart.lmp.${pid} restart2.lmp.${pid}
restart 	1000 restart.lmp.${pid} restart2.lmp.${pid}
restart 	1000 restart.lmp.0 restart2.lmp.${pid}
restart 	1000 restart.lmp.0 restart2.lmp.0


include         in.dump
dump            myDump all atom ${out_freq2} dump.water.${pid}
dump            myDump all atom 10000 dump.water.${pid}
dump            myDump all atom 10000 dump.water.0
dump            myDump2 all dcd ${out_freq2} dump.dcd
dump            myDump2 all dcd 10000 dump.dcd
dump_modify     myDump append yes
dump_modify     myDump2 append yes


variable natoms 	equal  "count(all)"                        # NUMBER ATOMS
variable H      	equal  "enthalpy/v_natoms"                 # ENTHALPY-per-atom
variable Vol      	equal  "vol/v_natoms"                 # volume-per-atom
fix AVG all 		ave/time ${out_freq} 1 ${out_freq} v_Vol v_H file vol_enthalpy.dat
fix AVG all 		ave/time 1000 1 ${out_freq} v_Vol v_H file vol_enthalpy.dat
fix AVG all 		ave/time 1000 1 1000 v_Vol v_H file vol_enthalpy.dat


timer           timeout 02:55:00 every 1000
New timer settings: style=normal  mode=nosync  timeout=02:55:00

fix 		1 all shake 1e-6 200 0 b 1 a 1
Finding SHAKE clusters ...
       0 = # of size 2 clusters
       0 = # of size 3 clusters
       0 = # of size 4 clusters
     324 = # of frozen angles
  find clusters CPU = 0.000 seconds
fix             2 all nph aniso ${pressure} ${pressure} ${pressureDamp}
fix             2 all nph aniso 3375 ${pressure} ${pressureDamp}
fix             2 all nph aniso 3375 3375 ${pressureDamp}
fix             2 all nph aniso 3375 3375 1000
fix             3 all temp/csvr ${temperature} ${temperature} ${tempDamp} ${seed}
fix             3 all temp/csvr 261.95 ${temperature} ${tempDamp} ${seed}
fix             3 all temp/csvr 261.95 261.95 ${tempDamp} ${seed}
fix             3 all temp/csvr 261.95 261.95 100 ${seed}
fix             3 all temp/csvr 261.95 261.95 100 745823


run             250000
PPPM initialization ...
  extracting TIP4P info from pair style
  using 12-bit tables for long-range coulomb (../kspace.cpp:340)
  G vector (1/distance) = 0.37178644
  grid = 24 24 25
  stencil order = 5
  estimated absolute RMS force accuracy = 0.0034842944
  estimated relative force accuracy = 1.0492849e-05
  using double precision FFTW3
  3d grid and FFT values/proc = 3458 576
Last active /omp style is kspace_style pppm/tip4p/omp
Neighbor list info ...
  update every 1 steps, delay 7 steps, check yes
  max neighbors/atom: 2000, page size: 100000
  master list distance cutoff = 10.8154
  ghost atom cutoff = 10.8154
  binsize = 5.4077, bins = 4 4 4
  1 neighbor lists, perpetual/occasional/extra = 1 0 0
  (1) pair lj/cut/tip4p/long/omp, perpetual
      attributes: half, newton on, omp
      pair build: half/bin/newton/omp
      stencil: half/bin/3d
      bin: standard
Setting up Verlet run ...
  Unit style    : real
  Current step  : 5750000
  Time step     : 2
  Walltime left : 2:54:59.93
Per MPI rank memory allocation (min/avg/max) = 10.19 | 10.19 | 10.21 Mbytes
Step Temp PotEng TotEng E_pair E_mol Press Lx Ly Lz Volume Pxx Pyy Pzz Pxy Pxz Pyz Enthalpy 
 5750000    275.63895   -4678.1334   -4146.5406   -4678.1334            0    2832.0982    20.012488    20.237933      20.9986    8504.6724    2455.3519    2912.5827    3128.3601   -313.73498    84.464484    1260.8916     -3795.27 
 5751000    259.32491   -4693.7773   -4193.6474   -4693.7773            0    4050.4177    20.170943    19.954508    21.109481    8496.5926    4684.0682    3110.3666    4356.8184   -189.04249    1765.2795   -274.07992   -3691.7436 
 5752000    266.22636   -4686.1461   -4172.7062   -4686.1461            0    3323.2037    19.981074    20.202752    20.799258    8396.0923    5185.9557     1637.334    3146.3213   -219.94191   -185.68369    -980.0403   -3765.7852 
 5753000    260.90329   -4682.0891   -4178.9152   -4682.0891            0    1957.1364    20.329497    20.244537    20.688852    8514.7296    2445.1791    1295.8438    2130.3864    604.15695    754.98977    773.10134   -3935.8807 
 5754000    266.90957   -4733.5128   -4218.7552   -4733.5128            0    2504.0693    20.202724    20.009806    20.775603    8398.5915    1554.5779    3280.8122    2676.8178   -78.126835    1082.0616   -1247.7734   -3912.0447 
 5755000    251.86397   -4658.8697   -4173.1288   -4658.8697            0    2335.7296    19.973743     20.11014    21.141718    8492.0947    2975.9174     3403.514    627.75729   -546.51458   -224.11837   -293.78239   -3883.8523 
 5756000    272.48274   -4687.1507   -4161.6448   -4687.1507            0    1498.3066    20.231878     19.94148    21.019039     8480.207   -102.02284    3412.6226    1184.3202    219.77507    1013.3571    344.95236   -3976.3415 
 5757000    265.87814   -4687.7363    -4174.968   -4687.7363            0    3628.8019    19.967352    20.159918    20.934626    8427.0284    4449.7034    2537.0083    3899.6941   -342.46782    -15.20829     1157.349   -3728.9898 
 5758000    264.73059   -4682.9174   -4172.3622   -4682.9174            0    1933.1393    20.107241    20.341135    20.703129    8467.6644    1703.8636    608.91262    3486.6416    490.66519    1696.1105    1391.1704   -3933.6346 
 5759000    275.87113   -4676.5813   -4144.5406   -4676.5813            0    3287.6773    20.288836    19.975054    20.902488    8471.1642     1804.999    4588.1495    3469.8834    -625.8419    1229.4094    156.17688   -3738.3703 
 5760000    264.76822   -4672.6107    -4161.983   -4672.6107            0    3321.0027    20.087416     20.10362    20.929037    8451.7683    4788.1656    2183.1003     2991.742   -64.959661   -1663.5157   -512.49292   -3752.6349 
 5761000     270.7271   -4708.8449   -4186.7249   -4708.8449            0    4326.0584     20.12242    19.891146    20.829001    8336.9739     3517.303    4307.6617    5153.2106   -267.71607   -209.96696   -337.43566   -3660.7359 
 5762000     277.9188    -4665.497   -4129.5073    -4665.497            0    2323.5411    19.851173     20.15622    21.108868    8446.1776    2952.2226    2386.0242    1632.3764    297.88219    337.89451   -480.70862   -3843.2962 
 5763000    261.36368   -4638.1726   -4134.1108   -4638.1726            0    4236.8809    20.121118    19.947286    21.047631    8447.7127    3672.9128    4423.3362    4614.3938    184.15157    516.13151   -1653.3765   -3612.1219 
 5764000    258.54976   -4681.0421   -4182.4071   -4681.0421            0    3034.1007    20.114088    19.923938    20.926807    8386.4565    3403.6023    3087.6467     2611.053    13.481729     600.4565   -1098.2711   -3811.3127 
 5765000    247.89416    -4663.014   -4184.9293    -4663.014            0    4189.3212    20.208647     20.15673    20.633548    8404.8746     4422.151    4773.1741    3372.6384   -60.405424    1375.2539   -808.24401   -3671.4171 
 5766000    257.70664   -4663.0198   -4166.0108   -4663.0198            0    4173.9149    20.215531    19.807307    20.804469    8330.4265    3709.1216    6780.3362    2032.2869   -79.312895   -1326.1446   -81.663719   -3658.9189 
 5767000    255.20474   -4667.3378    -4175.154   -4667.3378            0    4541.2353    20.165679    19.842019    21.140377    8458.8522    5525.6381    4770.8271    3327.2406    324.10434    152.12364   -581.98971   -3614.9305 
 5768000    258.96995   -4707.8297   -4208.3844   -4707.8297            0    1923.0531    20.029415     20.27179    20.993207    8523.9157    1435.7208     2426.286    1907.1524   -280.56385    870.96085    564.60711   -3969.3247 
 5769000    256.75901   -4674.0444   -4178.8631   -4674.0444            0    3527.6873    20.132734    19.978332    20.867297    8393.2116    2344.1179    4527.6912    3711.2527   -150.95605    245.59821     1356.476   -3747.0517 
 5770000    262.69319   -4689.5216   -4182.8956   -4689.5216            0     3786.679    20.180606    20.180232    20.647093    8408.5145    3583.5675    3903.7663    3872.7032    123.24187    830.88115   -715.85046   -3718.5369 
 5771000    260.30849    -4702.977   -4200.9501    -4702.977            0    2013.3147    20.153238    20.099587    20.975296    8496.4999    3247.0344    867.46716    1925.4425    195.26739    1400.1477    86.206483   -3951.4748 
 5772000    262.95953   -4682.0884   -4174.9488   -4682.0884            0    2504.1261    20.120149    19.866117    21.114415    8439.6266      2290.86    2759.4707    2462.0475   -53.447543    1042.3022    987.67906   -3866.7327 
 5773000    253.93896   -4696.6589   -4206.9162   -4696.6589            0    3963.7058    20.132448    20.042879    20.883401    8426.7076     3582.959    4106.0014     4202.157    502.17066   -632.16251    367.97939   -3719.7971 
 5774000    277.32325   -4655.7012     -4120.86   -4655.7012            0    4569.5188    20.231515    20.098193    20.448887    8314.8629     2742.092    5130.6129    5835.8515   -179.01508    214.56703   -281.88022    -3566.743 
 5775000    277.55291   -4690.5809   -4155.2968   -4690.5809            0    1457.3159    20.317276    20.010273    20.889935    8492.8917   -98.625509    4011.5586    459.01472   -1068.5905   -710.45221     869.5716   -3974.7935 
 5776000    271.79154   -4671.6894   -4147.5165   -4671.6894            0    3166.6977    20.076926    19.925109    21.159544    8464.5568    3715.4326    2712.4256     3072.235   -363.07331    1056.7947    949.17289   -3756.5976 
 5777000    273.98553   -4679.3057   -4150.9016   -4679.3057            0    3125.2672    20.272709    19.925311    21.023762    8492.3391    2874.1766    3507.6352    2993.9897   -652.15449    62.717638    70.182552   -3763.8308 
 5778000     256.0448    -4686.649   -4192.8451    -4686.649            0    4117.1718    20.071076    20.154898    20.809537    8418.0922    5052.0318    2175.1587    5124.3249    385.50926   -1092.8744    410.59796    -3687.383 
 5779000     272.7211   -4705.5299   -4179.5643   -4705.5299            0    3652.5416    20.435677    20.022335    20.733666    8483.5933    2567.4756    4547.5655    3842.5836   -417.26255    19.075589   -186.72535   -3727.6554 
 5780000      278.807    -4683.798   -4146.0953    -4683.798            0    5276.4601    20.152538    19.796476    20.840266    8314.2083    6243.6527    5026.4526    4559.2751    91.499091   -427.37681    620.24052   -3506.3023 
 5781000    276.04406   -4680.7676   -4148.3935   -4680.7676            0    4235.3611    20.062139     19.99043    21.138433    8477.5852    2071.9585    6583.4839    4050.6408    52.853776   -957.90327     450.0806   -3624.7466 
 5782000     260.6381   -4665.9263   -4163.2638   -4665.9263            0    5560.9797    20.049237    19.988766    20.928456    8387.2778    6229.3678    4735.5296    5718.0417   -648.91489   -917.54518    600.15098   -3483.0456 
 5783000    266.97864   -4689.6481   -4174.7574   -4689.6481            0    2932.2894    20.159716    20.072926    21.001648    8498.6211    2362.7872    3301.0534    3133.0276   -229.97163    571.13992    296.25908   -3811.3187 
 5784000     250.6717   -4671.1326   -4187.6912   -4671.1326            0    6661.4709    19.932832    20.035063    20.782785    8299.7206    5723.4795    6541.1685    7719.7649    325.26306   -532.67017   -1379.7812   -3381.3673 
 5785000    248.10945   -4695.7087   -4217.2088   -4695.7087            0    3680.0914    20.214752    20.012881    20.802471    8415.7524    4436.0356    1140.7485      5463.49    327.35538     385.2859   -661.38726   -3765.5323 
 5786000    252.88559   -4684.9825   -4197.2714   -4684.9825            0    4311.6582    19.994521    19.970039    20.835825     8319.565    4718.6542    4517.7895    3698.5308  -0.90065171     639.7075    393.76595   -3674.1279 
 5787000    266.24286   -4694.0393   -4180.5676   -4694.0393            0    3902.7581    20.137212    19.936284    20.913848    8396.0985    4672.2838     4388.808    2647.1825   -662.74166   -1314.6279    1127.4153   -3702.6808 
 5788000    256.80388   -4644.8646   -4149.5967   -4644.8646            0      4739.93    19.964999    20.141321    20.836591    8378.8405    6111.0277    3407.4884    4701.2738    158.25288    475.47351    631.99644   -3570.3924 
 5789000    258.12598   -4693.1642   -4195.3466   -4693.1642            0    3041.1706    20.144968    19.840934    21.090906     8429.929    3281.4694    4037.7116    1804.3309   -578.51067   -645.39507   -699.18909   -3821.4594 
 5790000    254.98334   -4678.4981   -4186.7413   -4678.4981            0    3779.8283    20.107022    20.097273    20.803124    8406.4657    4411.4236    2711.0118    4217.0495    136.50796   -228.47594   -475.10373   -3723.3355 
 5791000    256.80916   -4666.9354   -4171.6573   -4666.9354            0    3714.3035    20.387752    20.124746    20.504063    8412.7828    2605.2623    3346.2767    5191.3716   -268.32398    195.33562   -863.32073   -3715.9427 
 5792000    255.65161   -4671.1878   -4178.1421   -4671.1878            0    4429.3468    19.926462    20.150656    20.926222    8402.5328    6346.2915    3864.5534    3077.1954    -214.5166   -220.50733   -322.16364   -3635.3597 
 5793000    271.95938   -4683.5058   -4159.0093   -4683.5058            0    4178.2444    20.115248     20.08384    20.873954    8432.8982    3311.0126     4579.653    4644.0676   -583.79647    673.78947    544.92083   -3645.1472 
 5794000    260.10248   -4708.0273   -4206.3977   -4708.0273            0    5001.7965    19.926914    20.227134     20.83788    8399.0065    6684.5455     3174.461    5146.3831    269.49176   -1389.2181   -587.57899   -3593.7232 
 5795000    255.61189   -4706.4364   -4213.4674   -4706.4364            0    3565.5696    19.889479    19.867696    21.127446    8348.6817     4691.866    3206.8711    2797.9715   -24.867182   -212.66529    563.56728   -3779.3345 
 5796000    251.63449   -4680.2203    -4194.922   -4680.2203            0    2884.6541    19.973745     20.11509    21.130688    8489.7542    3185.2805     4209.793    1258.8888    543.80866      -126.56   -1084.9895   -3837.7604 
 5797000    260.08963   -4682.1842   -4180.5794   -4682.1842            0     4293.768     20.10444    19.984815    20.902087    8398.1143    2179.7183    6360.1547    4341.4311    453.90442    568.45762   -309.03808   -3654.6878 
 5798000    250.78088   -4687.0274   -4203.3754   -4687.0274            0    3574.1975    20.205369    19.961112    20.872362    8418.2752    3098.7209    4397.1742    3226.6974    31.992424    724.38972   -188.09405   -3764.5644 
 5799000    259.00731   -4669.4868   -4169.9694   -4669.4868            0    3565.5448     20.17761    20.114527    20.720017    8409.4901    1772.4321    5003.2377    3920.9646    127.81468   -980.27225   -978.49526   -3732.6775 
 5800000     255.6217    -4701.685    -4208.697    -4701.685            0    3918.0913    20.197233    19.873128     20.95583    8411.2968    4402.0734    3827.0352    3525.1653   -131.71736    179.81833     338.1752   -3728.0642 
 5801000    279.57931   -4653.3976   -4114.2054   -4653.3976            0    4532.0538    19.981358    20.170745    21.069399    8491.7868    5467.5824    3934.5355    4194.0436    223.58177    1109.3767    332.89741   -3552.9377 
 5802000    248.13279   -4677.8754   -4199.3304   -4677.8754            0    4361.2999    20.038079    19.855065    21.130775    8407.0348     4227.879    5455.0426    3400.9781    348.65507   -386.84884    512.85126   -3664.6002 
 5803000    249.44139   -4700.0482   -4218.9795   -4700.0482            0    1665.6802    19.983056    20.276308    21.133819    8563.0558    2929.9182    947.80698    1119.3152   -102.66351   -193.65835    574.31672   -4010.9637 
 5804000    270.80853   -4674.0283   -4151.7513   -4674.0283            0    3187.4651    20.074564    20.048182    20.949391    8431.2602     2449.028    3417.0694    3696.2978   -901.93049     480.7671     261.1096   -3759.8165 
 5805000    258.18991   -4678.3374   -4180.3964   -4678.3374            0    4830.1408     20.17124    20.185279    20.625346    8397.8595    5892.0182    3816.4769    4781.9274   -798.44526    290.61049    146.89338   -3588.8289 
 5806000     261.3511   -4630.0067   -4125.9692   -4630.0067            0    2974.7695    20.339526    20.008394    20.797957    8463.9624    1933.7809    3695.3748    3295.1527    887.55123   -1052.2832   -825.90318   -3758.7689 
 5807000    253.33811   -4701.8863   -4213.3025   -4701.8863            0    3089.7489    20.051819    20.082623    20.972948    8445.6621    4816.5674    1069.3263    3383.3531    161.61918   -739.57519   -286.57332    -3832.734 
 5808000    261.58098   -4686.3527   -4181.8718   -4686.3527            0    1484.1114    20.100209    20.189718    20.992455    8519.1064    2697.0196    1320.6209     434.6936    341.77376    188.19375   -1215.9923   -3997.4822 
 5809000    261.61948   -4696.1299   -4191.5748   -4696.1299            0    3708.4719    20.112749    19.844566    21.112345    8426.5444    3752.2358    4537.0202    2836.1598     629.0199   -162.12101    -613.2275   -3735.8314 
 5810000     270.7531   -4708.2204   -4186.0503   -4708.2204            0     4414.564    20.049435    20.129642    20.708629    8357.7534    4104.4897    3863.2155    5275.9869      309.086    252.53243    -106.3304   -3647.9624 
 5811000    258.58942   -4665.6339   -4166.9225   -4665.6339            0    1964.1579     20.10756    20.459167    20.551034    8454.3649    2058.2478    1282.7169     2551.509     488.3806   -79.687509   -286.59758   -3924.7453 
 5812000    275.48476   -4668.2042   -4136.9087   -4668.2042            0    2667.6196    20.163117    20.127158    20.841058    8457.8479    2729.7998    2510.3135    2762.7455    -162.9681    638.56026    1843.0217   -3807.8603 
 5813000    273.76975   -4677.3408   -4149.3528   -4677.3408            0    3770.4403    19.963241    20.168542    20.829597    8386.6094     4483.372    3668.1314    3159.8175    150.61902    1446.5911    -903.9439   -3688.1899 
 5814000    252.37409   -4664.4544   -4177.7298   -4664.4544            0    2291.8793    20.260495    20.199355    20.761001    8496.4176    1538.1074    2065.3678    3272.1627     104.7654    791.83986    710.24728   -3893.7395 
 5815000    266.51163   -4714.1956   -4200.2055   -4714.1956            0    3309.8684    20.150958     20.08591    20.801166    8419.2788    2132.5234    4408.0917    3388.9902    661.19418   -146.16268    472.82466   -3793.7982 
 5816000    267.37888   -4643.6789   -4128.0162   -4643.6789            0    3136.9533    19.828618    20.148265    21.200223    8469.7488    5496.7621    2309.2798    1604.8178   -483.10469    1305.8908    742.83597   -3740.5316 
 5817000    258.17111    -4690.888   -4192.9833    -4690.888            0    4565.9766    20.092138    19.854635     20.89985    8337.4118    5924.9359     4094.937    3678.0569   -328.97875     1643.975    165.59047   -3637.7943 
 5818000    270.43371   -4712.3278   -4190.7737   -4712.3278            0    2214.1193    19.988172    20.225847    21.062382    8515.0514    3264.2339    1675.2522    1702.8717   -303.37596     976.1895    725.26439    -3915.817 
 5819000    248.19526   -4694.0753   -4215.4099   -4694.0753            0    4122.8986    20.142489    20.092085    20.772294     8406.643    5597.4662    2717.9486    4053.2808   -213.48646    1132.0528   -710.56263   -3709.9332 
 5820000    255.00964   -4659.9332   -4168.1257   -4659.9332            0    2594.7207     20.26916     20.04722    21.021963    8542.0709    1970.8243    3219.4254    2593.9123    38.944286    621.33012   -2105.2003   -3844.8823 
 5821000    258.23404    -4673.935   -4175.9089    -4673.935            0    3123.8572    20.089348    19.987765     21.10231    8473.4458    2327.9754    3474.5804    3569.0158    -658.5323     584.4838   -713.02283   -3789.8735 
 5822000    281.32909   -4659.1943   -4116.6275   -4659.1943            0    3783.1708    20.096768     20.05219     20.88302    8415.5274    5230.8198    2638.1622    3480.5304   -572.42614    820.17859   -7.0126431    -3652.312 
 5823000    259.73283   -4713.6445   -4212.7279   -4713.6445            0    4230.5697    20.171251    20.035501    20.920274    8454.7431    3059.9377    4799.3142    4832.4571   -12.538698     26.58184    649.66794   -3691.0827 
 5824000    250.58824   -4697.1289   -4213.8484   -4697.1289            0    2888.9554    20.038511    20.071305    21.172869    8515.7081    3436.7779    2197.6719    3032.4164   -249.43745   -492.62886   -168.88141   -3855.0607 
 5825000    260.00761    -4689.906   -4188.4595    -4689.906            0    3583.8789    19.849055    20.171094    21.071748    8436.6465    5075.6695    3411.7725    2264.1948   -155.27335    146.15475    911.89138   -3747.4996 
 5826000     256.6806   -4680.9722   -4185.9421   -4680.9722            0    3259.1165    20.189075    19.954585    20.959597    8443.8798    2914.7564    3066.4198    3796.1734      137.355    413.68904     507.0638   -3784.5971 
 5827000    248.49397    -4703.515   -4224.2735    -4703.515            0    2917.9203    20.121389    20.204698    20.825426    8466.5061    4299.7256    966.02005    3488.0154    376.48337    1331.9382    1584.4732   -3863.9824 
 5828000    278.21478   -4674.5376   -4137.9769   -4674.5376            0    4437.7811    20.290431    20.020388    20.804837    8451.3886    6102.7125    2385.9277     4824.703    1073.8917    228.31558    785.46723    -3590.999 
 5829000    260.36084   -4707.9146   -4205.7868   -4707.9146            0    2790.9657    19.970335    19.995482    20.986008    8380.0589    1801.9832    4094.0559    2476.8581    307.27039    356.80402   -18.072658   -3864.6901 
 5830000    267.06382   -4664.6167   -4149.5617   -4664.6167            0    4475.4087    19.993685    20.018981     21.10487     8447.292     4252.943    5307.7722    3865.5109    269.40022    753.00044    632.68567   -3598.2133 
 5831000     264.6955   -4676.3471   -4165.8595   -4676.3471            0    4379.5716    20.049332    20.125284    20.872567    8422.0496    6161.4047    2722.9196    4254.3905    -472.6278    464.51407    81.982627   -3627.9301 
 5832000    264.81486   -4720.9439   -4210.2262   -4720.9439            0    4240.8232    19.964136     20.04595    20.801116     8324.608    5853.7881     2577.276    4291.4056   -94.442676    758.05289   -25.675378   -3695.3653 
 5833000    254.44114   -4653.7024   -4162.9913   -4653.7024            0     3845.886    20.175331    19.977981    20.861028    8408.2957     3137.664    3315.9528    5084.0413     55.67313   -758.02058   -139.05723   -3691.3843 
 5834000    263.86369   -4653.4909   -4144.6076   -4653.4909            0    1594.0856     20.14977    20.028653    21.138972    8531.1128    2029.2311     1585.742    1167.2837   -307.84894   -965.22011    832.00949   -3946.2754 
 5835000    267.49807   -4716.4739   -4200.5814   -4716.4739            0    3541.8136    20.092986     19.87637    20.978684    8378.3747    4191.0279    2542.2973    3892.1156    35.836276    432.24664     926.9175   -3767.8072 
 5836000    265.42988   -4698.4025   -4186.4986   -4698.4025            0    2701.9908     20.01411    20.270011      20.9711    8507.6866    3483.7847    2786.1239    1836.0639   -296.11572   -1361.9378    400.98404   -3851.2467 
 5837000    264.27303   -4702.9389   -4193.2661   -4702.9389            0    5938.8536    20.128936    20.153431     20.68116    8389.6668    5431.3322    5800.8614    6584.3674    67.775464   -530.84761    40.483952   -3466.6196 
 5838000     257.4439   -4676.3664   -4179.8641   -4676.3664            0    2589.4432    20.173912     20.16301    20.752412    8441.3919    1169.3481    3648.3592    2950.6223    801.58996   -573.77396    1120.2979   -3861.0803 
 5839000    245.62608   -4700.3246   -4226.6141   -4700.3246            0    3200.9949    19.974151    20.339632    20.705873    8412.1107    3411.8541    1913.6853    4277.4452   -327.16327    314.47027   -876.67488   -3833.9096 
 5840000     258.9514   -4689.7885   -4190.3789   -4689.7885            0    3799.4911    20.046874    20.011566    21.029175    8436.2599    3185.0488    5451.9888    2761.4357    180.25209    169.15935    915.60831   -3722.9116 
 5841000    256.14828   -4682.6457   -4188.6422   -4682.6457            0    4891.0004    20.029141    19.974724    20.854695    8343.4748    4356.9647    6207.9263    4108.1103   -963.84522    -1278.521   -568.43173   -3593.5003 
 5842000    265.60167   -4691.9232    -4179.688   -4691.9232            0    4210.4069    20.201038    20.222146    20.658232    8439.0598    5239.0324    3221.4616    4170.7267    711.05384     2859.928   -274.49423   -3661.4921 
 5843000    271.67822   -4673.4022   -4149.4479   -4673.4022            0    3221.0603    20.097774    20.123624    20.786324     8406.822       3144.3    3693.3739    2825.5069    565.48455    1674.3909   -347.02508   -3754.5302 
 5844000    274.08449   -4706.1115   -4177.5165   -4706.1115            0    3218.6949    20.245037    19.803864    20.930908    8391.8283    1867.4271    4022.4178      3766.24   -128.56889    997.78409   -56.272127   -3783.5926 
 5845000    257.06988   -4721.4358   -4225.6549   -4721.4358            0    4534.9982    19.868273    19.880405     21.22477    8383.5574    6029.4101    4466.0017    3109.5829    -550.8483   -864.20506    217.30779   -3671.1807 
 5846000    274.46791   -4694.0048   -4164.6703   -4694.0048            0    2385.3272    19.987692    20.267295    20.833931    8439.7518    3129.0242    1577.7649    2449.1923     518.0446   -147.96019   -95.078171   -3871.0721 
 5847000    269.37734    -4701.809   -4182.2921    -4701.809            0    3034.0428    20.248689    20.137826     20.71313    8446.0805    344.33555    3927.0609     4830.732    120.10727   -29.384726    777.26122   -3808.5666 
 5848000    261.95654   -4682.2982    -4177.093   -4682.2982            0    4162.9649    19.864905    20.320323    20.952621    8457.7615    5095.2466     3487.916    3905.7319   -1.5635297    706.76057   -1026.5643   -3663.6005 
 5849000    257.02658   -4678.4499   -4182.7525   -4678.4499            0    3560.4623    20.004496    19.978482    21.052201    8413.7113    5602.1656    1865.9904     3213.231   -460.03132    1422.7524    519.07228   -3745.8648 
 5850000    264.38354   -4691.8338   -4181.9479   -4691.8338            0    3958.3925    20.165102    19.954136    21.011252    8454.4485    3912.6297    3334.7258    4627.8219    641.63281    356.07248   -899.08852   -3693.8802 
 5851000    251.01328    -4710.824   -4226.7238    -4710.824            0    2233.4459    20.197192    20.056866    20.864338    8451.9843    1607.7566    2218.0629    2874.5183   -73.491352    -309.3867   -209.17201   -3951.4213 
 5852000    259.26531   -4681.8524   -4181.8374   -4681.8524            0    2273.0909    20.215184    20.192789    20.860309     8515.198    2147.9125    2163.5057    2507.8544   -655.58759    1204.7765   -282.19544   -3899.5527 
 5853000    262.16768   -4670.5655   -4164.9531   -4670.5655            0    1774.5633    20.088495    20.165555    20.944867    8484.6745    1582.1144    2148.2533    1593.3224    788.03385     291.1365    92.086439   -3945.3682 
 5854000    263.13005   -4680.4818   -4173.0134   -4680.4818            0    1769.4816    20.264591     20.11311    20.899571      8518.33     140.3671    3025.9531    2142.1246   -247.66374    457.90397    103.65576   -3953.1888 
 5855000    265.85462   -4642.1118   -4129.3888   -4642.1118            0    4763.1463    19.983767    20.274746    20.761027    8411.6584    4099.3256    5215.2573    4974.8559    603.92461   -238.60951    79.644729   -3545.0679 
 5856000     250.8662    -4696.002   -4212.1854    -4696.002            0    2539.4511    20.176382    20.102214    20.848297    8455.8597    1814.0599    2685.0531    3119.2403    478.87481    -802.9602   -128.91862   -3899.0202 
 5857000    255.92657   -4672.2831   -4178.7072   -4672.2831            0    4266.3664    20.088326    19.990565    20.936652    8407.6774    5432.7533    3680.9287    3685.4171   -312.15781    442.04923    594.70532   -3655.5766 
 5858000    264.95459   -4662.0278   -4151.0406   -4662.0278            0    4581.7444    20.070524    20.003155    21.019017    8438.5845    3765.5274    5488.4533    4491.2527    282.12063   -360.32096    482.93865    -3587.174 
 5859000    257.23473    -4673.101   -4177.0022    -4673.101            0    2078.1117    20.034299    20.029771    21.238251    8522.5367    4019.5635    1035.3873    1179.3843    -902.0987   -264.89295     482.9318   -3918.7086 
 5860000    269.74477   -4684.7156   -4164.4902   -4684.7156            0    2700.6721    20.057913    20.009202    21.049726    8448.1564    3792.5248    1220.6852    3088.8064     349.8835   -1248.9876   -1102.5097   -3831.7466 
 5861000    271.16869   -4660.5799   -4137.6082   -4660.5799            0    3834.5872    20.378379    20.013521     20.75202    8463.5684    2936.4838    3074.5004    5492.7775   -208.38212    904.07879    955.85801   -3664.2957 
 5862000    271.45508   -4693.8057   -4170.2818   -4693.8057            0    3254.5826    20.118171    20.145576    20.709742    8393.4954    1694.8307    4158.1916    3910.7253    262.84164   -706.40948    1474.4766   -3771.8866 
 5863000    260.19813   -4709.3971   -4207.5831   -4709.3971            0     4138.282    20.181279    19.912709    20.868035    8386.1105    1481.0131    6841.5958     4092.237    200.49601   -352.45114    296.83703   -3701.4595 
 5864000    256.33999    -4664.661   -4170.2878    -4664.661            0    3163.5475    20.138358    19.994421    21.048178    8475.1501    1738.2771    4977.3002    2775.0652     486.4095    1799.1793    1796.3367    -3779.269 
 5865000    257.50531   -4672.5916    -4175.971   -4672.5916            0    4371.5633    20.172628    19.986451    20.713793    8351.3715     3913.402    3379.2573    5822.0307   -178.51239   -464.86202   -770.27203   -3643.5312 
 5866000    260.00876    -4710.965   -4209.5162    -4710.965            0    3035.7896    20.197373    19.981176     20.90486    8436.5174     2871.274    3611.9968    2624.0981   -612.23242    892.82415   -403.48722   -3835.9989 
 5867000    247.08291   -4690.7315   -4214.2114   -4690.7315            0    3051.6228    19.964498    20.002469    21.108203    8429.3336    5055.4771    2776.4102    1322.9812    18.508346    368.54544   -314.54605   -3839.0657 
 5868000     260.1279   -4701.5113   -4199.8328   -4701.5113            0    3090.1128    19.854846    20.082654    21.096706    8412.0584    4704.6098    1798.6611    2767.0674     -629.964   -1428.5802    678.59368   -3820.7339 
 5869000     256.4295   -4703.7827   -4209.2368   -4703.7827            0    2992.0914    20.155034     20.10373    20.827706    8439.2068    3912.7326    2691.3218    2372.2197    179.52422    147.93963    788.50429   -3840.9787 
 5870000    259.67118   -4667.3996   -4166.6019   -4667.3996            0    2628.6574    20.210498    20.321084    20.568194    8447.3414    3329.4452    309.73649    4246.7907    702.58956    305.08822    1123.0516   -3842.7623 
 5871000    259.08507   -4718.1641   -4218.4968   -4718.1641            0    3416.8434    19.934585    20.185681    20.903158    8411.2883    3472.6566    3272.5512    3505.3223     -224.072   -631.35053    291.25426   -3799.3526 
 5872000    272.75569    -4674.056   -4148.0237    -4674.056            0    3799.8877    20.036017    20.063148     21.08758     8476.903    4200.4365    3805.2686    3393.9581    -379.9085    569.83015    936.79579   -3678.2552 
 5873000    258.82456   -4678.5467   -4179.3818   -4678.5467            0    2097.3775    20.008226    20.230547    20.842758    8436.6768    1228.1887    1874.9936    3188.9501   -112.38097    833.61235   -490.51875   -3921.3199 
 5874000    258.53924   -4667.8255   -4169.2108   -4667.8255            0     3214.812    19.998235    20.399609    20.642997     8421.438     5285.063   -116.53384    4475.9068    41.034451   -463.68597    -73.53975   -3774.3739 
 5875000    256.26515   -4647.3624   -4153.1335   -4647.3624            0    3563.7012    20.190645    20.112836    20.793456    8444.0381    2497.3238     5761.859    2431.9209    -428.5989    1057.2761    460.67742   -3714.2721 
 5876000    260.14118   -4711.4352    -4209.731   -4711.4352            0    4176.5818    20.242733    20.021354    20.750336    8409.8401    2901.4537    4738.5492    4889.7424   -133.71502   -1804.9789    -115.5501   -3697.4779 
 5877000    254.04925   -4674.1939   -4184.2385   -4674.1939            0    4598.1542    20.132859    19.874056    21.016757     8409.258    3873.5022    6277.9755     3642.985   -50.877523    453.25864   -432.57322    -3620.319 
 5878000    262.22877   -4697.3137   -4191.5835   -4697.3137            0    3287.7271    19.999897    20.026198    20.941831    8387.6619    5147.4607    1523.5893    3192.1315    70.831889     488.6147    581.63789   -3789.4108 
 5879000    271.04341   -4654.8709   -4132.1409   -4654.8709            0    2324.7404    20.289192    20.085318    20.826223    8486.9957    2107.2801    3080.8841    1786.0569    88.780229   -299.22988   -119.20672   -3844.3982 
 5880000    247.96582   -4700.1798   -4221.9569   -4700.1798            0    3245.0202     20.14183    20.088988    20.711583     8380.507    2996.7994     2701.034    4037.2272   -283.42093    -636.1235    -14.58942    -3825.347 
 5881000     239.1705   -4680.7421   -4219.4817   -4680.7421            0     2709.501    20.187105     19.98138    20.938746    8445.9827    1091.8675    4027.1131    3009.5224    143.30787   -325.91872   -817.16344   -3885.7362 
 5882000     267.8663    -4662.001   -4145.3983    -4662.001            0    3343.1081    20.138867    20.021439    20.940432    8443.3728    4319.3858    2743.9701    2965.9684   -549.40896   -585.09842   -117.45206   -3733.7349 
 5883000    267.56648   -4658.7651   -4142.7407   -4658.7651            0    4949.3431    19.943085    20.039118    20.952661    8373.5601    5030.8765    5369.8604    4447.2925   -433.18835   0.77749877    1762.9365    -3538.328 
 5884000    252.12879   -4694.4304   -4208.1789   -4694.4304            0    3364.1106    20.278282    20.064962    20.992576    8541.5215    3466.4238    3122.9791     3502.929   -418.79424    273.73963   -400.47521   -3789.1139 
 5885000    261.84645   -4687.8969    -4182.904   -4687.8969            0    1535.4278    20.075169     20.21132    20.823565    8449.0712    3066.1671    1118.7804    421.33593   -198.00166    362.17817   -307.67821    -3993.707 
 5886000    266.04255   -4688.2403   -4175.1548   -4688.2403            0    2696.4536     19.98239    20.138093    21.119276    8498.5492    3136.2483    2146.2132    2806.8994   -379.33538   -1739.5076   -849.13779   -3840.9493 
 5887000    258.36987   -4698.4486   -4200.1605   -4698.4486            0    3218.3262    19.791897    20.161381    21.133914    8433.1075    4087.3833     2580.799    2986.7964   -25.122698    122.76024    850.53185   -3804.3443 
 5888000    261.65575    -4698.926   -4194.3009    -4698.926            0    1820.3666    20.155063    20.052683    20.982698    8480.4318   -176.42671    3310.8296    2326.6971    582.82049    2063.3045   -1297.2974   -3969.1609 
 5889000    241.26616   -4694.3113   -4229.0092   -4694.3113            0    1899.8389    20.183504    20.223696    20.881744    8523.6155    1391.9993    3226.6204    1080.8971   -590.72464   -297.69384   -910.97785   -3992.8437 
 5890000    264.17373   -4681.3591   -4171.8779   -4681.3591            0    4047.4686    20.130773      20.0826    20.804052    8410.6262    4085.9179    3782.9428     4273.545   -835.05718    -209.5329   -1502.0747   -3675.4139 
 5891000    260.55297   -4684.2193    -4181.721   -4684.2193            0     5672.937    20.091124    19.976798    20.828716    8359.7371    5065.0254    5498.3191    6455.4666    139.08951    463.31492    284.70639   -3490.0867 
 5892000    260.38965   -4686.4206   -4184.2372   -4686.4206            0    3886.5707    20.292513    19.986433    20.630177    8367.0828    2671.8382    4489.8194    4498.0546   -578.86509    814.83765    1140.1626   -3709.9772 
 5893000    252.88852   -4674.4294   -4186.7126   -4674.4294            0    4437.5769    20.223986    20.067245    20.712759    8406.0594     1674.589    7721.2329    3916.9087    877.58471    700.66576    1728.7816   -3642.6934 
 5894000    265.91859   -4692.8303   -4179.9839   -4692.8303            0    5526.0732    19.978469    19.990592     21.02271    8396.0799    3836.8638    6679.1189    6062.2367   -977.67068    2182.6755    -564.2808   -3503.3261 
 5895000    251.10011    -4661.586   -4177.3183    -4661.586            0    1151.7141    19.944195    20.103649    21.279615    8532.0847    1657.4729    1875.6799    -78.01059   -50.427658    1117.8789    1216.9512   -4034.0086 
 5896000    250.84092    -4686.227   -4202.4592    -4686.227            0    4909.1643    19.949823    20.096401    20.872716    8368.2819    5209.1239    4999.7471    4518.6218    27.073577   -1407.7354   -65.318295    -3603.331 
 5897000    249.77154   -4692.4198   -4210.7143   -4692.4198            0    2354.0847    20.072774    20.293866    20.746584    8451.2078    3388.4173    877.05946    2796.7773    955.72007     1262.819    401.61749   -3920.5682 
 5898000    249.02793   -4680.6934   -4200.4221   -4680.6934            0    4878.2296    20.212055    19.967643     20.79832    8393.9332    5520.0971    3761.2845    5353.3071   -379.73132    -712.0568   -430.88373   -3603.2443 
 5899000    264.46032   -4672.0755   -4162.0416   -4672.0755            0    3206.1039    20.058599     20.12041    20.869663    8422.7297    1997.8815    3382.7956    4237.6346   -104.49988    1524.0199    1432.2332   -3768.2138 
 5900000    257.23503   -4686.9279   -4190.8285   -4686.9279            0    3819.4224    19.782926    20.135966    21.157386    8428.0094    4931.3915    2207.0559    4319.8199    229.24117    857.71031   -1267.3624   -3721.3685 
 5901000     261.2333   -4638.7521   -4134.9418   -4638.7521            0    2168.1643    20.070223    20.122313    20.865146    8426.5832    3677.1111    1922.6166    904.76514    229.10328   -356.69682   -1380.5377   -3868.4894 
 5902000    264.80647   -4673.7326   -4163.0311   -4673.7326            0    3316.2689    20.128103    20.336991    20.666331    8459.6603    2934.9874    3152.9222    3860.8971   -610.65003    262.50442    1169.4822   -3753.8849 
 5903000    253.60444   -4671.9675     -4182.87   -4671.9675            0    3447.3467     20.22007    20.032168    20.813505    8430.5487    4883.6465    1326.1343    4132.2594    419.53915    1273.5264    35.291909   -3759.0156 
 5904000     267.7046   -4700.4723   -4184.1815   -4700.4723            0     3065.102    19.973481    20.004771    21.115135    8436.8673     3908.378    3325.9187    1961.0093   -448.54477    100.57294    1012.4771    -3807.042 
 5905000    269.66993   -4710.3928   -4190.3116   -4710.3928            0    2893.8119    19.952701    20.069229    20.988279    8404.4486    2044.1655    3666.2567    2971.0137    101.50542    -471.6116   -464.89848   -3835.6163 
 5906000    250.56413   -4674.4541   -4191.2201   -4674.4541            0    3777.1892    20.091821    20.056445    20.831357    8394.4223    2292.1778    4341.4378    4697.9519   -1001.0191    -1224.055   -315.42022   -3728.8014 
 5907000    266.68506   -4689.5279   -4175.2034   -4689.5279            0    2982.5276    20.031874    20.308316    20.665745    8407.1066    3955.2839    2171.6416    2820.6574    414.89171    1467.4712    495.09584   -3809.5186 
 5908000    253.44051   -4709.7498   -4220.9685   -4709.7498            0    1783.8122    20.204125    20.058327    20.902381    8470.9186    911.61018    2753.6865    1686.1399   -246.22983    473.50972   -1792.6745   -4000.5969 
 5909000    256.36075   -4704.1829   -4209.7696   -4704.1829            0    694.75995    20.113143    20.153553    21.152756    8574.2971    1324.2773   -245.01964    1005.0222   -472.88006    -336.1021    1330.1734   -4122.8918 
 5910000    250.18888   -4656.7359   -4174.2256   -4656.7359            0    2347.5927    20.041638    19.990608     21.07097    8441.9691    3980.7362     416.8016    2645.2403   -52.486038    1611.9319    393.03022    -3885.196 
 5911000     254.5129   -4688.6753   -4197.8258   -4688.6753            0    4707.5825    20.094561    20.053656    20.816059    8388.2352    4739.3749    4937.9908    4445.3818   -159.13928   -80.060029    896.18054   -3621.9293 
 5912000     260.8946   -4686.7449   -4183.5877   -4686.7449            0    2552.4402    20.158022    20.318782    20.569281    8424.8988     1494.526    3531.0011    2631.7935   -292.67214   -107.22654    1154.0866   -3869.9732 
 5913000    267.20034   -4689.8749   -4174.5566   -4689.8749            0    2689.8357    20.403608     19.95853    20.684032    8423.0762    569.43037    2945.4683    4554.6084   -222.94491   -238.63717    89.246302    -3844.132 
 5914000    253.12669   -4678.3849   -4190.2088   -4678.3849            0    2929.6873    20.062296    20.031518    21.022326    8448.4154    1420.4449    4683.5694    2685.0478    -204.4748    1365.9579   -1756.2099   -3829.2377 
 5915000    262.24751   -4686.6856   -4180.9192   -4686.6856            0    3945.9285    19.793316    20.105175     21.13424    8410.3302    4819.1265    3550.9294    3467.7297   -6.9046064    181.69278    216.46569   -3696.9273 
 5916000     263.0744   -4674.0793   -4166.7182   -4674.0793            0    1165.7591    20.213976    20.104054    20.859469    8476.9308    861.57592    944.95318     1690.748   -379.94055    132.01606    82.817253   -4022.5985 
 5917000    265.02153   -4685.4629   -4174.3466   -4685.4629            0    2799.7847    19.996802    20.139283    20.810957    8381.0147    3121.0798    2429.9628    2848.3115    381.94242    1043.6758    375.31115   -3832.1331 
 5918000    264.30021   -4654.1732    -4144.448   -4654.1732            0    3057.7078    20.161739    19.882428    21.085951    8452.6057    4191.8296       3056.5    1924.7939     368.0492    165.30535     708.1683   -3767.5164 
 5919000    264.32801   -4651.8739   -4142.0951   -4651.8739            0    3976.3218    20.020797    19.821628     21.17949    8404.9702    4579.9901    4589.4604    2759.5148   -818.12733    712.53032    914.69386   -3654.6861 
 5920000    266.44326   -4681.7852   -4167.9269   -4681.7852            0    1085.9764    20.018747    20.147684    21.068066     8497.412    1395.2409    1272.3591    590.32905    82.781495    74.816851   -209.85611   -4033.3462 
 5921000    266.35581   -4675.5636    -4161.874   -4675.5636            0    2975.5373    20.211429     19.98261    20.848627    8420.2828    1987.2457    3661.2853    3278.0809    302.55637    1021.6575    599.39559   -3796.4745 
 5922000    251.31957   -4692.8155   -4208.1245   -4692.8155            0    2675.5126    20.274582    20.212054     20.71864    8490.3111    1611.8228    3690.5828    2724.1323    563.41046   -162.53858   -799.54045   -3876.8359 
 5923000    256.01322   -4700.7116   -4206.9686   -4700.7116            0    6024.3076    20.063346    19.969178    20.732052     8306.266    5970.5884    5261.9823    6840.3519   -431.57046    161.59973    789.80373   -3477.1938 
 5924000    263.91998   -4691.5019     -4182.51   -4691.5019            0    2406.8916    20.061308    20.000085    21.118729    8473.4226     2479.353    3438.2439    1303.0778   -829.79418    542.72612   -1041.6537   -3885.0756 
 5925000    257.42999   -4697.6373   -4201.1619   -4697.6373            0    3823.5732    20.098209    19.880016    21.116252    8437.0556    2679.5836    5716.1218    3075.0141    173.67334    577.46674   -1016.5088   -3730.6873 
 5926000    253.89212   -4703.2075   -4213.5552   -4703.2075            0    3583.6634     20.20439    19.980701    20.813853    8402.5084    2836.5353    4456.3162    3458.1386   -606.73413   0.98153261   -292.67136    -3774.406 
 5927000    259.63961   -4674.5667   -4173.8299   -4674.5667            0    3506.9232    20.304254    20.238392    20.592541    8461.9993    3990.5282    2821.1875    3709.0539   -258.39796   -427.74536     173.7524   -3741.0419 
 5928000    261.11325   -4688.1872   -4184.6084   -4688.1872            0    2557.0419    20.215859    20.134717     20.80743     8469.469    2178.4931      2801.15    2691.4826     123.0937    287.93836    801.05408   -3868.7663 
 5929000    264.14946   -4659.5701   -4150.1356   -4659.5701            0    5103.1389    20.121584    19.906775     20.94554    8389.8581    4602.0993    5360.8886    5346.4287    320.86506   -65.321977   -428.85469   -3525.7284 
 5930000    266.72421   -4675.0896   -4160.6895   -4675.0896            0    3066.1552    20.129632    20.151366    20.968761    8505.7599    3627.8756    3043.0104    2527.5795     319.1097     920.6857    1046.0025   -3780.3398 
 5931000    263.33818   -4702.6596   -4194.7897   -4702.6596            0    1792.1944    20.029987    20.210449    20.806657    8422.8476    1073.0349    2806.1645    1497.3839    493.00561    1116.0231    24.171079   -3974.6391 
 5932000    254.30585   -4671.7788   -4181.3286   -4671.7788            0    2793.3004    20.089978     20.31328    20.775986    8478.5415    4335.1295    248.28942    3796.4823     70.86422     -1807.41   -0.2876944   -3835.9346 
 5933000    246.75269   -4693.9795   -4218.0962   -4693.9795            0    1604.5203    19.929883    20.191624    21.119347     8498.778    2189.7742    805.05269    1818.7339    315.66208    215.49041   -249.96218   -4019.2223 
 5934000    258.75569   -4711.1697   -4212.1376   -4711.1697            0    3095.7737    20.101944    19.980611    21.067067     8461.569      4340.26    1594.9859    3352.0751   -105.61729   -1397.1893   -125.43338   -3830.1089 
 5935000    271.99577   -4680.5346   -4155.9678   -4680.5346            0    2954.6005    19.996146    20.254052    20.823051    8433.3978    3063.6442    2350.0107    3450.1465   -377.05949   -34.675534   -197.28197   -3792.5743 
 5936000    266.74613   -4667.6492   -4153.2069   -4667.6492            0    4024.7133    20.012811    20.232204    20.711703    8386.2364    4981.2478    2499.9031    4592.9892   -996.70617   -1747.5559    297.30702   -3660.9657 
 5937000    260.47396   -4701.2103   -4198.8643   -4701.2103            0    4383.8471    20.147517    19.901477    20.826059    8350.5283    2887.0974    5794.2946    4470.1495   -524.99549   -1018.7486    1041.0218   -3664.9824 
 5938000    258.56342   -4669.0284   -4170.3671   -4669.0284            0    3832.4287    20.108758    20.132613    20.845354    8439.0712    2093.4492    5530.9646    3872.8724    -141.6373    43.272257    1639.7646   -3698.6902 
 5939000    256.67737   -4707.8065   -4212.7826   -4707.8065            0    3279.6191    20.035815    19.995452    21.072812    8442.2991    3509.1063    4079.9668     2249.784    -21.18359    239.27526     1241.953   -3808.9884 
 5940000    270.17543   -4672.2377   -4151.1817   -4672.2377            0    2702.8638    20.124379    19.991675    21.045474    8467.0162    3355.7804    3244.9549     1507.856    160.00259    297.24511    772.53957   -3817.4246 
 5941000    251.41733   -4663.6238   -4178.7444   -4663.6238            0    4660.5799    20.220566    20.130409    20.564522     8370.753    3181.3114    4675.7858    6124.6425   -127.30686    693.83879   -436.67398   -3609.7861 
 5942000    265.61173   -4681.3213   -4169.0667   -4681.3213            0    3688.4403    20.040076    20.060251    20.866799    8388.6396    3753.6911    3168.3245    4143.3053    113.92876     1321.857     148.9935    -3717.824 
 5943000    264.48221   -4681.3839   -4171.3078   -4681.3839            0     1527.912    20.261776    19.932989    21.117663    8528.9547    1992.6067    730.49306    1860.6362    598.09121    -114.4562   -1084.0124   -3981.2568 
 5944000    265.93629   -4664.5898   -4151.7093   -4664.5898            0    4206.5394    19.656977    20.234742    21.134771    8406.4368    5235.3615    4140.2591    3243.9977    776.25704   -37.716301    305.05875   -3635.9907 
 5945000    260.12278   -4677.8988   -4176.2301   -4677.8988            0    4986.3171    20.054167    20.181356    20.657782    8360.6233    3537.2129    5688.8914     5732.847   -547.26615    1533.4471   -66.580719   -3568.2429 
 5946000    253.48809    -4673.923   -4185.0499    -4673.923            0     3335.118    20.279068    20.192088    20.679747    8467.8752     2568.222    3604.0624    3833.0695   -100.13061   -410.80194    490.93768   -3773.1786 
 5947000    265.77732   -4693.1221   -4180.5481   -4693.1221            0    3235.7244    20.078592       20.064    21.017116    8466.8894    3994.7443    3975.7457    1736.6833    468.01799    44.631056    318.55317    -3780.998 
 5948000    269.25088   -4698.0382   -4178.7653   -4698.0382            0    3540.2597    20.382448     19.93699    20.786133    8446.7503     1872.545    3234.6951     5513.539   -14.621018   -915.34178    303.75055   -3742.6506 
 5949000     267.7291    -4663.117    -4146.779    -4663.117            0    3606.0448    20.005644    20.281973    20.659543    8382.6908    4545.4266    3022.8857    3249.8221   -145.91407   -1481.3717    217.81871   -3705.9294 
 5950000    258.82309   -4688.2917   -4189.1296   -4688.2917            0    2738.7056    19.830047    20.196507    21.114699     8456.388     3487.233    2993.9713    1734.9126    11.354889    316.54077    1382.5386   -3851.3712 
 5951000    250.00044   -4681.2021   -4199.0552   -4681.2021            0    4746.8442    20.114407    19.966979    20.997592    8433.1355    3662.7941    5304.4978    5273.2406   -584.90658    -390.6957    660.54697   -3615.2474 
 5952000    265.00423   -4695.0491   -4183.9662   -4695.0491            0    2584.3448    19.870852    20.142878    21.172033    8474.2363    2620.3203      1932.26    3200.4541    -228.4686    473.25634    1013.8287    -3864.572 
 5953000    256.68145   -4704.5556   -4209.5239   -4704.5556            0    4031.9913    20.091988    20.193218    20.669018    8385.8731    4986.3855    2282.9767    4826.6116   -140.39283    1066.3526    438.68618   -3716.4139 
 5954000    265.84459   -4722.4878   -4209.7841   -4722.4878            0    3664.3527    20.331936    20.153281    20.597869    8440.0842    628.83449    4547.6071    5816.6165   -72.702117    270.30368    995.52612   -3758.7391 
 5955000    246.88367    -4692.114   -4215.9781    -4692.114            0     3748.555     19.87853    20.189369    20.793802    8345.2798    6124.9186    1383.8313     3736.915    380.61865    279.55863   -787.17612   -3759.7514 
 5956000    251.02998   -4696.3991   -4212.2667   -4696.3991            0    4279.6483    19.970958    19.913911    21.137828    8406.5117    4012.4771    4753.9095    4072.5583    177.44022   -102.21584   -1316.4881   -3687.5803 
 5957000    264.54365    -4689.014   -4178.8193    -4689.014            0     2907.626    20.029409    20.091299    20.970095    8438.7197     3709.757     2092.852     2920.269     316.5932    696.51491   -78.585752   -3820.9776 
 5958000     265.0218   -4676.7244   -4165.6076   -4676.7244            0    3378.6838    20.133205    20.018061    20.804302    8384.7104    2260.6628    3780.3368    4095.0519   -415.31085   -98.882693    574.42494    -3752.454 
 5959000    259.17444   -4689.6899   -4189.8502   -4689.6899            0    3478.2642    20.219534    20.029987    20.851766    8444.9031    2479.4078    3100.6512    4854.7336   -102.00575    495.79526    120.99338   -3761.4663 
 5960000     269.4355   -4666.4902   -4146.8612   -4666.4902            0    4042.2865    19.933854    20.063044    20.928285    8369.9284    5282.5131    3166.5895    3677.7569    554.14082   -1092.9488   -1241.1757   -3653.4322 
 5961000    269.75483   -4707.1264   -4186.8815   -4707.1264            0    1572.0827    20.235699    20.139146    20.972787    8547.0336    456.68515    3025.2639     1234.299    -839.2054   -303.03075    204.64361   -3990.9219 
 5962000    261.80415    -4684.432   -4179.5206    -4684.432            0     3363.953    20.194333    20.035596    20.888087     8451.435    3203.5627    3671.5567    3216.7397    352.44591    286.50286    265.80914   -3764.8949 
 5963000    264.43574   -4669.5303   -4159.5438   -4669.5303            0    2847.8475      19.9745    20.251515     21.03631    8509.4797    4875.1729    1857.9057    1810.4637   -28.994333    735.86142   -496.06929   -3806.1201 
 5964000    260.57807   -4674.8331   -4172.2864   -4674.8331            0    4648.7665    20.170856    19.730961    21.074909    8387.6106    5758.1055    5371.9407    2816.2533   -573.77147    207.25243   -564.63612   -3603.6274 
 5965000    249.31974   -4713.0405   -4232.2064   -4713.0405            0    4434.9399     19.99028      20.0627    21.011429    8426.8223    5484.7538    3236.9012    4583.1646   -413.82395   -991.74831   -757.73788   -3687.1675 
 5966000    266.58265    -4714.708    -4200.581    -4714.708            0    1369.2602    20.161173    20.162524    20.938733    8511.5978    659.44574    1368.7315    2079.6034   -72.966628   -342.81214    531.69506   -4030.6107 
 5967000    253.03794   -4712.7317   -4224.7268   -4712.7317            0    2548.1367    20.068078    20.123437    20.849683    8419.9093    4714.0749    1589.9786    1340.3568    -501.8317   -80.226807    816.70002   -3911.8265 
 5968000     267.8649   -4685.4306   -4168.8307   -4685.4306            0    1764.9956    20.128381    20.154432    20.985442    8513.2916    1961.6213     1437.997    1895.3684    159.39586    773.78294    1250.6771    -3949.693 
 5969000     260.7564   -4663.6935   -4160.8029   -4663.6935            0    3427.7446    19.936411    20.241247     21.03725    8489.3259     3884.036    2996.2637    3402.9341   -521.43098    156.92305   -485.41387   -3736.4203 
 5970000    248.20889   -4698.0804   -4219.3887   -4698.0804            0      1871.34    20.256616    20.102517    20.967442    8538.1307    2798.2181     1749.486    1066.3158    685.22206    720.83032   -414.65917   -3986.3697 
 5971000    271.32071   -4717.2419   -4193.9771   -4717.2419            0    1328.1301    20.289035    20.187707    20.712312    8483.5372    227.50725    2807.5157    949.36731    159.17769    846.35637    71.160732    -4029.656 
 5972000    260.06001   -4714.8057   -4213.2581   -4714.8057            0    2487.9319    20.316053    19.944979    20.912965    8474.0016    802.54449    5557.8841    1103.3671   -302.78297   -186.88971   -528.97861    -3905.788 
 5973000     253.4935   -4687.1258   -4198.2423   -4687.1258            0    4766.9418    20.000074    19.891863    20.980251    8346.7566      4416.71    5231.0868    4653.0285   -77.100417    676.58891    1281.0093   -3617.9678 
 5974000    250.69934   -4665.4631   -4181.9683   -4665.4631            0     2098.194    20.229767    20.309454    20.838665    8561.6806    1877.5117    1550.5131    2866.5572    77.535609    1305.7463   -467.34685   -3919.9809 
 5975000     260.8508   -4711.1932   -4208.1205   -4711.1932            0    4579.4124    20.233568    19.968933    20.678032    8354.8091    4037.3692    5336.0525    4364.8153   -507.66156     184.5083    1651.9303    -3650.136 
 5976000    265.48522   -4702.2835   -4190.2729   -4702.2835            0    2436.8555    20.084946    20.092299     20.98206    8467.3677    3925.8422    1713.7274     1670.997   -777.05609   -950.01172    660.08989   -3889.3508 
 5977000    269.57954   -4634.7564   -4114.8496   -4634.7564            0    3414.7367     20.18481    20.084218    21.005047    8515.3644    3605.9445    3314.7042    3323.5614   -408.35601   -1312.6068   -510.73537   -3690.7808 
 5978000    267.46959    -4668.568   -4152.7304    -4668.568            0    5016.4143    19.696067    20.269784    21.070661    8412.1458    8650.1931    2633.2992    3765.7506    77.871027   -748.55408     44.41392    -3537.304 
 5979000    274.12993   -4691.0477   -4162.3651   -4691.0477            0    4331.9159    20.043626    20.062912     20.93668    8419.3404    4238.2286    4297.2658    4460.2532   -407.53057   -385.24646   -289.26281   -3630.4602 
 5980000    273.52539   -4665.7736   -4138.2569   -4665.7736            0     3951.694    19.920511    20.068392    20.953252    8376.5362    3868.9374    4947.5136    3038.6311   -337.29344   -282.38647   -450.65985   -3655.5053 
 5981000    266.26501   -4677.4679   -4163.9534   -4677.4679            0    4655.9428     20.11279    20.050427    20.837111    8402.9825    5156.5517    4062.7867    4748.4899   -529.68807    195.93531    527.55491   -3593.3729 
 5982000    264.97285   -4686.3157   -4175.2933   -4686.3157            0     4774.714    20.192538    19.982186    20.811691    8397.3313    4569.6608    4337.4312    5417.0499    174.74625    155.72681    287.77001   -3590.5509 
 5983000    268.89396   -4713.8441   -4195.2595   -4713.8441            0    1858.2609    20.221779    19.882294    21.120915    8491.7769    1110.5082    3666.2227    798.05201    601.76821    67.975321    345.11762   -3965.1253 
 5984000    276.15793   -4700.7226   -4168.1288   -4700.7226            0    4383.8684    20.025108    20.182366    20.864623    8432.5221    5686.2475    2472.3583    4992.9994   -585.39048     146.2473   -19.369054    -3629.002 
 5985000    258.29707   -4701.3016    -4203.154   -4701.3016            0    3366.6758    20.211824    20.100413    20.669455     8397.297    3099.0585    3097.1843    3903.7848   -483.01668   -34.960861     115.1493   -3790.8508 
 5986000    258.99988    -4707.566   -4208.0629    -4707.566            0    1500.1042    20.210895    20.107332     20.79871    8452.3293    1944.4824    1683.3072    872.52306   -154.30103    199.65737   -1998.2869   -4023.1472 
 5987000    264.40215   -4687.7265   -4177.8047   -4687.7265            0     3045.499     19.88867    20.185379    20.945635    8408.8416    3266.1899    2188.7775    3681.5298    -231.7109   -283.06065    -1201.693    -3804.322 
 5988000    267.04746   -4679.5231   -4164.4996   -4679.5231            0    3478.7856    19.941351    19.912784    21.376371    8488.2965    1630.6707    7451.3968    1354.2895    89.371721    910.85261    765.94076     -3733.85 
 5989000     265.2448   -4696.6982   -4185.1513   -4696.6982            0    2556.8124     20.11145    20.036445    20.976491    8452.7276    3653.7882    2457.6974    1558.9517   -8.8281808    532.58543    -404.6156   -3869.9619 
 5990000    268.65585   -4693.4048   -4175.2794   -4693.4048            0    1628.7051     20.25105    20.170402    20.731216    8468.1175   -4.0163011    3680.3603    1209.7712    73.566622   -441.34249   -758.70701   -3974.1363 
 5991000    256.55789   -4698.3623   -4203.5688   -4698.3623            0    2578.4122    20.169296    20.184299    20.756314    8449.9595    3035.3272    1594.3921    3105.5174    565.52385    52.775064    242.39001   -3885.8208 
 5992000    258.25237   -4669.1542   -4171.0928   -4669.1542            0    4485.7783    20.010429    19.973858    21.043147    8410.6401    3194.1647    6068.1889    4194.9812    444.76197    441.85597   -2.1833483   -3620.8648 
 5993000    268.34956   -4677.2916   -4159.7569   -4677.2916            0     3263.132    20.209028     19.89063    21.151718    8502.3626    1097.1582    4992.6352    3699.6028    774.69818   -180.08978   -465.98301   -3755.1343 
 5994000      270.189   -4684.3738   -4163.2916   -4684.3738            0    3148.8065    20.004399    20.159084    20.887986    8423.5059    5113.6999    182.06575    4150.6539    478.80894     359.6712    -1454.098   -3776.4664 
 5995000    273.21956   -4657.8337   -4130.9068   -4657.8337            0     2472.256    19.945902    20.346872    20.699084    8400.4482    1818.9232    3767.7744    1830.0704    305.84756    -99.79973   -14.636447    -3828.026 
 5996000    267.45923   -4677.7337   -4161.9161   -4677.7337            0    1360.5936    20.250354    20.232162    20.623646    8449.6815    582.42686    1346.7721    2152.5817    247.23037   -248.65822    506.77306   -3994.2502 
 5997000    250.00726   -4668.6471   -4186.4871   -4668.6471            0     557.2164    20.245267     20.03322    21.012106    8522.0461    147.84222    796.14221    727.66479   -357.84936    -1212.049   -45.205906   -4117.2333 
 5998000    267.11579   -4671.9708   -4156.8155   -4671.9708            0    1806.9104    20.015051     20.09174    21.108868    8488.6614    2263.3665    1938.6369    1218.7277   -985.43048   -577.67169    809.31066   -3933.1229 
 5999000    254.66533   -4693.5283   -4202.3847   -4693.5283            0    4193.6702    20.082971    20.015069    20.755042    8342.7392    4688.5274     3481.475    4411.0083   -632.58544     451.0171    234.53805   -3692.1396 
 6000000    257.11831   -4636.2546   -4140.3803   -4636.2546            0    4068.8803     20.30264    20.156723    20.535799    8403.9616    4172.9563    4064.9582    3968.7264   -464.57838    288.17498    147.20226   -3641.6855 
Loop time of 375.51 on 64 procs for 250000 steps with 972 atoms

Performance: 115.044 ns/day, 0.209 hours/ns, 665.762 timesteps/s
193.1% CPU use with 32 MPI tasks x 2 OpenMP threads

MPI task timing breakdown:
Section |  min time  |  avg time  |  max time  |%varavg| %total
---------------------------------------------------------------
Pair    | 28.157     | 34.667     | 41.621     |  73.0 |  9.23
Bond    | 0.93159    | 1.1823     | 1.5729     |  15.0 |  0.31
Kspace  | 160.39     | 170.6      | 180.06     |  36.8 | 45.43
Neigh   | 2.4549     | 2.682      | 3.121      |  14.2 |  0.71
Comm    | 69.205     | 75.824     | 82.458     |  43.0 | 20.19
Output  | 0.51742    | 0.51768    | 0.51912    |   0.0 |  0.14
Modify  | 71.964     | 74.832     | 78.743     |  21.0 | 19.93
Other   |            | 15.21      |            |       |  4.05

Nlocal:        30.3750 ave          36 max          24 min
Histogram: 2 0 2 6 4 8 1 3 1 5
Nghost:        2562.62 ave        2583 max        2543 min
Histogram: 1 1 5 6 4 2 6 3 2 2
Neighs:        9368.34 ave       11679 max        7198 min
Histogram: 4 2 3 4 5 1 6 0 5 2

Total # of neighbors = 299787
Ave neighs/atom = 308.42284
Ave special neighs/atom = 2.0000000
Neighbor list builds = 8439
Dangerous builds = 0

unfix		3
unfix		2
unfix		1

write_data	data.final.${pid}
write_data	data.final.0
System init for write_data ...
PPPM initialization ...
  extracting TIP4P info from pair style
  using 12-bit tables for long-range coulomb (../kspace.cpp:340)
  G vector (1/distance) = 0.37098478
  grid = 24 24 24
  stencil order = 5
  estimated absolute RMS force accuracy = 0.0036595169
  estimated relative force accuracy = 1.1020526e-05
  using double precision FFTW3
  3d grid and FFT values/proc = 3211 432
Last active /omp style is kspace_style pppm/tip4p/omp
WARNING: Not all mixed pair coeffs generated from mixing. Use write_data with 'pair ij' option to store all pair coeffs. (../write_data.cpp:312)

write_restart   restart.lmp.${pid}
write_restart   restart.lmp.0
System init for write_restart ...
PPPM initialization ...
  extracting TIP4P info from pair style
  using 12-bit tables for long-range coulomb (../kspace.cpp:340)
  G vector (1/distance) = 0.37098478
  grid = 24 24 24
  stencil order = 5
  estimated absolute RMS force accuracy = 0.0036595169
  estimated relative force accuracy = 1.1020526e-05
  using double precision FFTW3
  3d grid and FFT values/proc = 3211 432
Last active /omp style is kspace_style pppm/tip4p/omp
Total wall time: 0:06:15
