#include		in.partitions
include		in.temp
variable        temperature equal 17.99
variable	tempDamp equal 100.0
include		in.pressure
variable        pressure equal 9053.2
variable        pressureDamp equal 1000.0 # This is 1 ps
include		in.seed
variable        seed equal 745823

units		real
atom_style	full
box tilt large
read_restart	restart.lmp.${pid}
read_restart	restart.lmp.0
Reading restart file ...
  restart file = 30 Jul 2021, LAMMPS = 30 Jul 2021
  restoring atom style full from restart
  triclinic box = (-10.507716 -9.0574150 0.29541931) to (12.487716 12.047413 21.564580) with tilt (-9.0799240 1.7650098 2.7054695)
  4 by 2 by 4 MPI processor grid
  restoring pair style lj/cut/tip4p/long/omp from restart
  restoring bond style harmonic/omp from restart
  restoring angle style harmonic/omp from restart
  1296 atoms
  864 bonds
  432 angles
Finding 1-2 1-3 1-4 neighbors ...
  special bond factors lj:    0        0        0       
  special bond factors coul:  0        0        0       
     2 = max # of 1-2 neighbors
     1 = max # of 1-3 neighbors
     1 = max # of 1-4 neighbors
     2 = max # of special neighbors
  special bonds CPU = 0.002 seconds
  read_restart CPU = 0.007 seconds
include 	in.setup
variable	out_freq equal 1000
variable	out_freq2 equal 10000
variable	out_freq3 equal 1000

timestep	2.0

neigh_modify    delay 7 every 1

include		in.tip4p
# This is TIP4P/Ice

# create groups ###
group ox type 2
432 atoms in group ox
group hy type 1
864 atoms in group hy

# set charges - beside manually ###
set group ox charge -1.1794
Setting atom values ...
  432 settings made for charge
set group hy charge 0.5897
Setting atom values ...
  864 settings made for charge

# ### TIP3P Potential Parameters ###
pair_style lj/cut/tip4p/long/omp 2 1 1 1 0.1577 8.5
pair_coeff 1 1*2 0.000 0.000
pair_coeff 2 2 0.21084 3.1668
bond_style  harmonic
bond_coeff  1 450 0.9572
angle_style harmonic
angle_coeff 1 55 104.52
kspace_style pppm/tip4p/omp 1.0e-5
pair_modify tail yes

thermo          ${out_freq}
thermo          1000
thermo_style    custom step temp pe etotal epair emol press lx ly lz vol pxx pyy pzz pxy pxz pyz enthalpy

restart 	${out_freq3} restart.lmp.${pid} restart2.lmp.${pid}
restart 	1000 restart.lmp.${pid} restart2.lmp.${pid}
restart 	1000 restart.lmp.0 restart2.lmp.${pid}
restart 	1000 restart.lmp.0 restart2.lmp.0


include         in.dump
dump            myDump all atom ${out_freq2} dump.water.${pid}
dump            myDump all atom 10000 dump.water.${pid}
dump            myDump all atom 10000 dump.water.0
dump            myDump2 all dcd ${out_freq2} dump.dcd
dump            myDump2 all dcd 10000 dump.dcd
dump_modify     myDump append yes
dump_modify     myDump2 append yes


variable natoms 	equal  "count(all)"                        # NUMBER ATOMS
variable H      	equal  "enthalpy/v_natoms"                 # ENTHALPY-per-atom
variable Vol      	equal  "vol/v_natoms"                 # volume-per-atom
fix AVG all 		ave/time ${out_freq} 1 ${out_freq} v_Vol v_H file vol_enthalpy.dat
fix AVG all 		ave/time 1000 1 ${out_freq} v_Vol v_H file vol_enthalpy.dat
fix AVG all 		ave/time 1000 1 1000 v_Vol v_H file vol_enthalpy.dat


timer           timeout 10:00:00 every 1000
New timer settings: style=normal  mode=nosync  timeout=10:00:00

fix 		1 all shake 1e-6 200 0 b 1 a 1
       0 = # of size 2 clusters
       0 = # of size 3 clusters
       0 = # of size 4 clusters
     432 = # of frozen angles
  find clusters CPU = 0.000 seconds
fix             2 all nph tri ${pressure} ${pressure} ${pressureDamp}
fix             2 all nph tri 9053.2 ${pressure} ${pressureDamp}
fix             2 all nph tri 9053.2 9053.2 ${pressureDamp}
fix             2 all nph tri 9053.2 9053.2 1000
fix             3 all temp/csvr ${temperature} ${temperature} ${tempDamp} ${seed}
fix             3 all temp/csvr 17.99 ${temperature} ${tempDamp} ${seed}
fix             3 all temp/csvr 17.99 17.99 ${tempDamp} ${seed}
fix             3 all temp/csvr 17.99 17.99 100 ${seed}
fix             3 all temp/csvr 17.99 17.99 100 745823


run             250000
PPPM initialization ...
  extracting TIP4P info from pair style
  using 12-bit tables for long-range coulomb (../kspace.cpp:340)
  G vector (1/distance) = 0.37214401
  grid = 30 36 32
  stencil order = 5
  estimated absolute RMS force accuracy = 0.003582677
  estimated relative force accuracy = 1.0789125e-05
  using double precision FFTW3
  3d grid and FFT values/proc = 7344 1152
Last active /omp style is kspace_style pppm/tip4p/omp
Neighbor list info ...
  update every 1 steps, delay 7 steps, check yes
  max neighbors/atom: 2000, page size: 100000
  master list distance cutoff = 10.8154
  ghost atom cutoff = 10.8154
  binsize = 5.4077, bins = 7 5 4
  1 neighbor lists, perpetual/occasional/extra = 1 0 0
  (1) pair lj/cut/tip4p/long/omp, perpetual
      attributes: half, newton on, omp
      pair build: half/bin/newton/tri/omp
      stencil: half/bin/3d/tri
      bin: standard
Per MPI rank memory allocation (min/avg/max) = 10.63 | 10.63 | 10.64 Mbytes
Step Temp PotEng TotEng E_pair E_mol Press Lx Ly Lz Volume Pxx Pyy Pzz Pxy Pxz Pyz Enthalpy 
12500000    21.164265   -6951.5549   -6897.1111   -6951.5549            0    9074.7621    22.995431    21.104828     21.26916    10322.235    8976.9312    8863.3533    9384.0017   -67.812625    354.70802   -10.905428   -5531.0036 
12501000    18.241421   -6960.3148   -6913.3898   -6960.3148            0    9110.2751    22.906159    21.129732    21.307131    10312.672    9561.0626    8873.4422    8896.3206   -146.08244    249.77242    287.26547   -5543.2067 
12502000    18.016928   -6960.8397   -6914.4922   -6960.8397            0    8899.5545    22.971656    21.143534    21.258221    10325.161    8717.8995    8873.1726    9107.5914    387.07266    16.640242    28.051961   -5574.3806 
12503000     17.58441   -6959.3931   -6914.1583   -6959.3931            0    9098.2438    22.930815    21.163716    21.268133    10321.452    9538.9542    8644.6188    9111.1586    15.483418   -35.088251   -157.29655   -5544.6198 
12504000      17.0688   -6960.0415    -6916.133   -6960.0415            0    9088.5109      22.9161    21.143156    21.299167    10319.845    9477.0499    8622.8585    9165.6244    16.642771    400.89247    150.56244   -5548.2726 
12505000    17.830764   -6959.5474   -6913.6789   -6959.5474            0    9170.4398    22.972646    21.119883    21.261651    10315.719    9303.6147     9044.038    9163.6667    33.017382   -329.96503   -339.41764   -5534.0396 
12506000    18.126479   -6958.1539   -6911.5246   -6958.1539            0    9157.2397    22.984036    21.055757    21.313544     10314.61    9198.5433    9603.4936    8669.6821    51.221728    345.46152   -440.03959   -5534.0193 
12507000    17.715697   -6961.0926     -6915.52   -6961.0926            0    9106.9756    22.965344    21.130974     21.27088    10322.335    9162.1815    8868.8854    9289.8599    146.04282    296.74701   -236.38957   -5544.5499 
12508000    18.099363    -6960.356   -6913.7965    -6960.356            0    9098.6971    22.997098     21.12008    21.253074     10322.63    9119.5724    9033.8477    9142.6711  -0.78104689    99.868433   -155.53975   -5544.0334 
12509000    18.341475   -6958.7385   -6911.5562   -6958.7385            0    8895.3847    23.001275    21.070018     21.30619    10325.774    8794.8876    9231.9413    8659.3253   -232.30333    22.544341   -140.77757   -5571.9929 
12510000    17.791979   -6958.7892   -6913.0204   -6958.7892            0    8859.3328    23.032973    21.057128    21.286983    10324.363    8788.8089    9107.6565     8681.533   -69.358381   -302.24325   -90.229665   -5579.0686 
12511000     18.52256    -6961.691   -6914.0428    -6961.691            0    9069.2958    23.022208    21.077408    21.263549    10318.104    9011.7021    9267.3211    8928.8642   -66.684709   -385.64721    102.55557   -5549.3045 
12512000    18.429824   -6958.1697   -6910.7601   -6958.1697            0    9015.1775     23.04189    21.068674     21.25905    10320.462    8292.2223    9432.1457    9321.1644   -219.94959   -256.45937    254.47274   -5553.8555 
12513000    18.843406   -6961.0038   -6912.5303   -6961.0038            0    8979.7684    23.037774    21.069117    21.265617    10322.024     8779.677    9160.2047    8999.4234    49.546739   -186.32621    392.45316   -5560.7508 
12514000    17.782327    -6962.219    -6916.475    -6962.219            0     9033.143    22.992876    21.104424    21.266514    10319.606    9165.5123    8944.8985     8989.018    40.730332   -408.69411    59.858449   -5556.9792 
12515000    18.155385   -6959.6357    -6912.932   -6959.6357            0    9164.9281    22.988636     21.08066    21.284416    10314.761    8947.3429    9337.3937    9210.0477    -33.99362    209.98046    177.12545     -5534.25 
12516000    18.124246    -6960.925   -6914.3014    -6960.925            0    8950.9683    22.987101    21.130112    21.249998    10321.549    8559.1807    9376.0682     8917.656    298.72106     337.8287   -436.52276   -5566.9192 
12517000     18.51009   -6962.1135   -6914.4974   -6962.1135            0    9032.1299    22.936063    21.139452    21.293742    10324.394    9113.8759     9149.619    8832.8948    338.27938     298.2553   -349.29595   -5554.5233 
12518000    17.538178    -6960.766   -6915.6501    -6960.766            0    9013.5264    22.938962    21.155803    21.262226    10318.392    9013.4711    8948.4141    9078.6942    339.36595     460.2298   -331.96892   -5559.2662 
12519000    18.166216    -6962.022   -6915.2905    -6962.022            0    8869.4385    22.957459    21.135912    21.281778    10326.489    8936.2838    8950.3099    8721.7219     223.0679     361.5919   -291.12203   -5579.5419 
12520000    17.559262   -6960.5403   -6915.3702   -6960.5403            0    8887.6377    22.943529    21.137673    21.282191    10321.284    8979.9344    8782.2304    8900.7484   -36.581711    213.50276   -343.08589   -5577.5556 
12521000    17.302903   -6961.3179   -6916.8073   -6961.3179            0    9022.2449    22.971995    21.090541     21.30502    10322.108    8920.7923     9088.705    9057.2372     -2.47832   -29.057907    35.966703   -5558.6224 
12522000    18.566456   -6961.0646   -6913.3035   -6961.0646            0    9067.5727    23.019018     21.08849    21.253048    10317.002    8894.2347    9292.3838    9016.0996   -206.06053   -164.83065   -176.31956   -5548.9703 
12523000    18.356196   -6961.8193   -6914.5991   -6961.8193            0    9180.8712    23.015276    21.063221    21.280099    10316.078    9124.8754    9231.0342    9186.7041   -45.077003   -255.40707    241.30477   -5533.3424 
12524000    18.768924   -6957.1699    -6908.888   -6957.1699            0     9114.601    23.011761    21.090312    21.259324    10317.686    8768.0213    9296.1151    9279.6665    28.076648   -224.29015    182.30169   -5537.3878 
12525000    18.240276    -6957.306    -6910.384    -6957.306            0    9085.5462    23.043833    21.050249    21.266406    10315.875    8666.2742    9546.5501    9043.8141      404.748   -649.22069     259.4568   -5543.4959 
12526000    18.261354   -6959.0232    -6912.047   -6959.0232            0    9004.3584    22.996091    21.095194    21.280777    10323.454    9098.5816    9008.5762    8905.9175   -156.85378   -432.14966    203.33094   -5556.3779 
12527000    18.006667   -6959.4286   -6913.1076   -6959.4286            0    8903.4464    23.010486    21.107533    21.255207     10323.54    8953.6663    8855.7793    8900.8936   -148.36435   -201.51015    195.43575   -5572.6204 
12528000    17.328965   -6960.5079   -6915.9302   -6960.5079            0    9090.2794    22.972898     21.11306     21.27043    10316.758    9410.0681    8803.9554    9056.8145    223.12394   -14.906078    109.62637   -5548.2128 
12529000    17.531368   -6961.3553   -6916.2569   -6961.3553            0    8900.9711    22.940424    21.125698    21.306476     10325.81    9201.8285    8653.5029    8847.5818    204.11878    41.022461    73.065726   -5575.8477 
12530000    18.281641   -6957.9347   -6910.9063   -6957.9347            0    8963.0399    22.940494    21.134024    21.288383    10321.139    9327.4587    8853.8939    8707.7672   -208.57191    252.86269   -147.37668   -5561.7607 
12531000    18.162794   -6958.1695   -6911.4468   -6958.1695            0     9196.535    22.969998    21.127716    21.258234    10316.698    8959.8251     9318.533    9311.2469    36.106711    235.49923   -390.07592   -5527.7504 
12532000    18.646822   -6960.0808   -6912.1129   -6960.0808            0    9209.2928    22.981106    21.099641     21.27533    10316.261     8972.235    9160.4269    9495.2165   -19.284093    524.05665    60.955156   -5526.5557 
12533000    17.931834   -6959.9602   -6913.8316   -6959.9602            0    9191.4107    22.953034    21.138434    21.266494    10318.316    9304.1732    8965.7971    9304.2618    487.53882   -94.152987    -286.8752   -5530.6893 
12534000    17.817554   -6960.3332   -6914.4987   -6960.3332            0    9204.5843    22.989787    21.082157    21.285637    10316.601     9283.252    9279.6572    9050.8438    37.330508    62.875389   -130.84648   -5529.6041 
12535000    17.642812   -6960.4782   -6915.0931   -6960.4782            0     9102.653    23.017045    21.078583    21.258297    10313.818    8602.7534    9404.5622    9300.6435    -209.6487   -80.239818    -58.69476   -5545.9043 
12536000    17.560152    -6961.015   -6915.8426    -6961.015            0     8987.828    23.031392    21.068915     21.26961    10321.002    8789.3779    9138.7306    9035.3754   -205.82166   -498.14346    334.86416   -5562.9837 
12537000    18.253854   -6960.1596   -6913.2026   -6960.1596            0    8993.4413    22.994495    21.110896    21.265563    10323.035    9112.0949    8786.2247    9082.0043    -8.123724   -557.12396    350.50872   -5559.2321 
12538000    18.340877   -6960.5479   -6913.3671   -6960.5479            0    9082.4089    23.036605    21.108497     21.21891    10318.079    8680.0286     9278.932    9288.2663   -66.479498    -220.6346   -86.168245   -5546.6589 
12539000    18.422951   -6961.4354   -6914.0435   -6961.4354            0    8977.4506    23.003635    21.032327    21.335876    10322.723     8891.239    9636.6187    8404.4941   -78.908271    60.508819    198.95491   -5562.5213 
12540000     17.87644   -6960.0641    -6914.078   -6960.0641            0    9171.4786     22.95265    21.137379    21.252069    10310.629    9469.6545    8720.6124     9324.169    88.834694   -152.70098    272.80738   -5534.9632 
12541000    17.736914   -6961.9809   -6916.3538   -6961.9809            0    8981.2257    22.974191    21.098948    21.299311    10324.441    9110.0081     8963.529      8870.14    13.472561    115.09957   -275.55164   -5564.0381 
12542000    17.779616   -6960.4466   -6914.7096   -6960.4466            0    8986.6515    22.961936    21.146177    21.254473    10320.262    9134.5142    8783.8633     9041.577    190.57957    188.11381    -368.6359   -5562.1248 
12543000    18.542852   -6961.1207   -6913.4203   -6961.1207            0    9084.2355    22.949626    21.121456    21.297348    10323.454    9198.5475    9175.5326    8878.6265    320.12705    361.16208   -202.07171   -5545.7253 
12544000     18.29811   -6960.9506   -6913.8798   -6960.9506            0    8924.3869    22.940069    21.152319     21.27678    10324.252    9243.2785     8661.255    8868.6271    240.65478    106.98685   -187.66602   -5570.1472 
12545000    16.923492   -6962.0654   -6918.5307   -6962.0654            0    9146.1278     22.95199    21.116275    21.282893    10314.978    9177.6067     9382.848    8877.9288    45.421295    278.39237   -194.20152   -5542.6478 
12546000    17.855861   -6959.2922   -6913.3591   -6959.2922            0    9173.1822    22.953519    21.118763     21.28466    10317.738    9028.0051    9278.2046     9213.337    168.33178     118.6018    -39.45131   -5533.0371 
12547000    18.330373   -6962.7515   -6915.5977   -6962.7515            0     9026.427    22.994684    21.109598    21.255643     10317.67    9109.9366    8833.9111    9135.4331   -166.17653   -421.03166    151.73664   -5557.3675 
12548000    18.105645   -6958.9886   -6912.4129   -6958.9886            0    9036.8786    23.012858    21.078647    21.279397    10322.208    8928.9705    9100.2898    9081.3756   -131.54376   -257.27444    227.09071   -5552.0119 
12549000    18.695947   -6960.4813   -6912.3871   -6960.4813            0    9015.1874    23.041327    21.077067    21.249753    10319.807     8719.186    9062.1988    9264.1775   -246.07513   -256.50741    172.94437   -5555.5672 
12550000    18.518798   -6960.3796   -6912.7411   -6960.3796            0    9126.2839    22.999855    21.062192    21.296409    10316.564    9265.6222    9270.5702    8842.6593    -260.3617   -68.590486   -55.988939   -5539.6324 
12551000    18.425752    -6959.351   -6911.9518    -6959.351            0    9138.8767    23.008706    21.068582    21.279522    10315.479    9142.4461    9319.0444    8955.1395    3.6798041   -518.26848    95.785017   -5537.0931 
12552000    17.780135   -6961.7438   -6916.0055   -6961.7438            0    9140.6009    23.030366    21.066233    21.265672    10317.319    8682.7069    9747.3485    8991.7473    54.699948   -33.445169    9.2193384    -5540.642 
12553000    17.367985    -6961.122    -6916.444    -6961.122            0    9059.2074    22.977898     21.11218    21.284571    10325.433    8965.1165    9199.9427    9012.5631    135.64649    126.28868   -94.090243   -5552.2555 
12554000    19.072545   -6963.1621   -6914.0992   -6963.1621            0    8937.9565    22.978708    21.117415    21.278626    10325.472    8948.0775    8713.1053    9152.6866    198.19311   -19.715079    8.2873472   -5568.1643 
12555000    17.789937   -6959.7147   -6913.9512   -6959.7147            0    8999.6821    22.970035    21.109458    21.290124    10323.262    9272.4574    8661.1028     9065.486    196.39174    264.98032   -59.482504   -5559.0114 
12556000    18.685995   -6959.9212   -6911.8527   -6959.9212            0    9060.5269    22.925485    21.146579    21.289897    10321.248    9124.6038    9029.2412    9027.7358    96.645598    506.51001   -264.80092   -5548.0185 
12557000    17.657819   -6958.3346   -6912.9109   -6958.3346            0    9264.0745       22.913    21.164536    21.264967    10312.297    9620.4891    8909.9402    9261.7943    80.269545    277.02951   -208.98544   -5519.6471 
12558000    17.669646   -6960.3592   -6914.9052   -6960.3592            0    9014.2998    22.952696    21.144883     21.27151    10323.746    9025.6111    8779.8234    9237.4649    118.13146    246.76381   -168.86846    -5557.701 
12559000    17.324724   -6958.5928    -6914.026   -6958.5928            0    9073.0311    22.956685    21.122355    21.284417    10320.798    9203.4828    9107.5079    8908.1027   -15.912372    117.65657   -63.951587   -5548.3693 
12560000    17.518482   -6960.7684   -6915.7032   -6960.7684            0    9181.6958    22.971723    21.109033    21.263444    10310.875    9197.4293    9050.5466    9297.1116    59.060583   -63.186651    437.42521   -5535.0191 
12561000    18.332718   -6961.6156   -6914.4558   -6961.6156            0    8983.3521     23.00114    21.080212     21.29011    10322.913    8972.4602    9045.6733    8931.9229   -88.998591   -144.89845     209.9127   -5562.0203 
12562000    17.641755   -6958.2045   -6912.8222   -6958.2045            0    9084.2205    23.025572    21.095316    21.246753    10320.222    8816.3974    9102.7519    9333.5121   -76.061521   -450.23122    277.67365   -5545.5575 
12563000    19.268468   -6961.5899    -6912.023   -6961.5899            0    8800.0449    23.011274     21.10282    21.270009    10328.775    8790.8298    8621.4296    8987.8752   -15.624095   -419.58998    250.10427   -5586.4318 
12564000    17.228956   -6959.3424   -6915.0219   -6959.3424            0    9035.8024    22.994622     21.08593    21.280477    10318.116    9109.6616    8902.1979    9095.5478    120.47814   -84.039182    408.26401   -5555.3221 
12565000    17.257047   -6962.5993   -6918.2066   -6962.5993            0    8984.8438    22.981323    21.098637    21.288985    10322.488    8924.8852    9170.1713    8859.4748   -54.341958    134.90985   -51.041973   -5565.6021 
12566000    18.462394   -6959.9298   -6912.4364   -6959.9298            0    8979.2728    22.976238    21.134964     21.25814    10322.995    8655.4212    9372.1464    8910.2507    185.94439    279.76607   -21.086929   -5560.6043 
12567000    17.240266   -6961.4029   -6917.0533   -6961.4029            0    9069.8421    22.969421     21.10244    21.291551    10320.246    9143.8893    9228.0138    8837.6233    30.494549      377.689   -359.18766   -5551.9496 
12568000    17.531719   -6960.5399   -6915.4407   -6960.5399            0    9134.1366    22.929793    21.167111    21.260437    10318.912    9380.6155    8696.1768    9325.6176   -74.715327    486.84844   -93.533792   -5540.8376 
12569000      17.2525   -6961.5669   -6917.1859   -6961.5669            0    9027.1787    22.928418    21.110743    21.316627    10318.014    9281.6858    9133.4901    8666.3602    255.23114    311.10572   -411.71019   -5558.7973 
12570000     17.70472   -6959.8197   -6914.2753   -6959.8197            0    9145.6161    22.974009    21.102331    21.279433    10316.379    9216.8162    9037.7259    9182.3062   -104.80027    244.87114    38.361846   -5538.2827 
12571000    17.541718   -6958.8317   -6913.7067   -6958.8317            0    9075.1304    22.949652     21.14505    21.265703    10319.641    9264.4195    8847.8073    9113.1646   -88.284486   -425.09015    76.560948   -5547.8871 
12572000    18.921899   -6959.3607   -6910.6853   -6959.3607            0    8816.2253    23.036476    21.075427    21.273007    10328.121     8380.258    8952.0882    9116.3296   -223.44677   -78.316439    101.15018   -5582.7409 
12573000    17.810141   -6962.2606   -6916.4451   -6962.2606            0    8993.9714    23.024403    21.082456     21.26858    10324.002      8891.12    9130.1681     8960.626   -134.84908   -370.95061    143.86851    -5562.268 
12574000    18.126977   -6959.8683   -6913.2378   -6959.8683            0    9066.0907    23.013192     21.09472    21.248654    10315.304    9041.2194    9026.9569    9130.0957   -221.01426   -296.30819    164.03026    -5549.352 
12575000    18.388484   -6960.7011   -6913.3978   -6960.7011            0    9052.5238    23.001964     21.04288    21.315414    10317.248    8936.8219    9438.6914    8782.0583    32.302444   -184.46185    340.79506   -5551.2965 
12576000    18.215602   -6961.5104   -6914.6519   -6961.5104            0    9022.0906    23.016874    21.088394    21.263745    10321.186     8785.621    9167.2694    9113.3815   -35.365728   -31.546743    53.062336   -5556.6115 
12577000    18.178536   -6963.0853   -6916.3221   -6963.0853            0    8841.3046    22.983184    21.129591    21.266582     10327.59    8787.7842    8915.0924    8821.0372   -79.700977   -38.557321   -27.027054   -5584.6687 
12578000    17.661702   -6956.4778   -6911.0442   -6956.4778            0    9055.3056     22.94238    21.122674     21.29854    10321.366    9320.2147    9134.9524    8710.7498   -101.28037    188.59017   -383.27769   -5547.9803 
12579000    17.289468     -6960.26   -6915.7839     -6960.26            0    8979.9521    22.916934    21.176925     21.27084    10322.956    9256.6739    8747.1384     8936.044    180.64644    357.22757   -235.59229   -5563.8546 
12580000    18.959528    -6960.783   -6912.0108    -6960.783            0    8956.7677     22.92968    21.148628    21.287065    10322.764    8874.9012    8906.3816    9089.0205    306.29711    515.39579   -243.94116    -5563.597 
12581000    18.086742   -6963.0597   -6916.5327   -6963.0597            0    8993.0264    22.940473    21.129525    21.296156      10322.7     9176.589    8848.4358    8954.0544    212.61746    359.85392   -273.81854   -5562.6686 
12582000    18.041985   -6962.8358   -6916.4239   -6962.8358            0    8981.6981    22.958445    21.156787    21.260244    10326.673     9066.128    8863.9763      9014.99   -45.359426    137.69819   -156.64493   -5563.7448 
12583000    18.342517   -6962.0611   -6914.8761   -6962.0611            0    8920.8447    22.985648    21.098079    21.285255    10322.348    8732.3007     9307.473    8722.7603   -141.08111    118.98571    -182.8249   -5571.9244 
12584000    18.889525   -6958.3814   -6909.7893   -6958.3814            0    9104.5654    22.989957    21.087976    21.281732    10317.632    8946.0842    9045.3452    9322.2667   -71.540912   -203.02224    457.64348   -5539.8064 
12585000    17.723412   -6960.5494    -6914.957   -6960.5494            0    9065.3795    23.012713    21.081286    21.268374    10318.087    8832.3989    9238.4586    9125.2811   -87.163085    -88.24523     33.21065   -5550.8103 
12586000    18.068106   -6960.8447   -6914.3656   -6960.8447            0    9179.4903     23.02853    21.049772    21.278651    10314.726    8980.2765    9352.6473    9205.5472   -96.275086   -285.72756    340.82073   -5533.4976 
12587000    18.005482   -6962.4889   -6916.1709   -6962.4889            0    9005.0435    23.023631    21.090275    21.247168    10317.087    8960.2645    9062.7169    8992.1491    -364.7487   -392.84553  -0.56291109   -5561.2348 
12588000    18.074061   -6960.9494    -6914.455   -6960.9494            0    9005.0561    23.011209    21.077392    21.294525    10328.191    8905.2983    9214.4219    8895.4481   -262.81224    113.88195     186.9493   -5558.0587 
12589000    17.969142   -6963.5016   -6917.2771   -6963.5016            0    9048.3566    23.001541    21.091857    21.264165    10316.208    8628.4942    9358.6774    9157.8982    469.69338   -129.22319   -57.422483     -5555.94 
12590000    18.384638    -6963.373   -6916.0797    -6963.373            0    9020.6983    22.953543    21.104546    21.311291    10323.703    9179.6252    9123.3911    8759.0788    40.488235    260.25376   -92.444388   -5557.9177 
12591000    17.468327   -6961.6143   -6916.6781   -6961.6143            0    8984.8868    22.956729     21.15325    21.257217    10322.705    9485.1012    8373.0573    9096.5019   -94.310152    361.85155   -322.15724   -5564.0388 
12592000    18.170156   -6960.6868   -6913.9452   -6960.6868            0    9042.7077    22.937632    21.121369    21.307938    10323.146    9156.8606    9095.9239    8875.3386     144.0142     607.2562   -289.98857    -5552.543 
12593000    17.884345    -6960.575   -6914.5686    -6960.575            0    9058.2649    22.954888    21.126949    21.276322    10318.308    9027.2071    8987.5911    9159.9963    282.99359    363.95097   -88.906751   -5551.4633 
12594000    18.162689   -6959.9579   -6913.2355   -6959.9579            0    9089.6729    22.952683    21.114589    21.293295    10319.507    8872.8214    9335.6086    9060.5887   -17.187474    283.06742   -229.59155   -5545.2449 
12595000    17.883681   -6964.8958   -6918.8912   -6964.8958            0     8877.472    22.981877    21.135073    21.265562    10329.186    8912.8454    8549.3552    9170.2153   -335.25558   -65.399535    24.454572   -5581.5836 
12596000    18.299283   -6959.8492   -6912.7754   -6959.8492            0    8894.6177    22.993151    21.110398    21.272676    10325.642    8718.7471    8934.3734    9030.7326   -94.129987    8.8167899    266.26156   -5573.3448 
12597000    17.842662   -6960.5913   -6914.6921   -6960.5913            0    8996.5572    22.963094    21.110348    21.289981    10320.508    9198.9101    8735.9392    9054.8224   -267.80495    86.276129    461.88244   -5560.5842 
12598000    17.208334   -6961.0916   -6916.8242   -6961.0916            0    9034.5927    22.999515    21.090499     21.26569    10315.375    8691.7247    9386.5647    9025.4886    71.863411   -315.02949   -101.36887   -5557.6676 
12599000    17.683727   -6959.3831   -6913.8928   -6959.3831            0    9079.3003    23.008648    21.083544    21.269789    10318.056    8593.0122    9343.9886    9300.9001   -77.129838    128.66702    287.66477   -5547.6555 
12600000    17.967591   -6962.4149   -6916.1944   -6962.4149            0    8933.1017    22.973104    21.145596    21.254754    10325.133    8867.3652    8592.9662    9338.9738   -319.29394   -372.61863    107.03393   -5571.0347 
12601000    17.661524   -6962.2176   -6916.7844   -6962.2176            0    9048.7564    22.970764    21.123931    21.269288    10320.557    9059.5671    8899.7567    9186.9455   -179.36595   -46.654776    170.30928   -5554.8132 
12602000    17.957922   -6960.4105   -6914.2148   -6960.4105            0     9021.552     22.94864    21.135725    21.272665    10318.011    9120.5206     8827.019    9117.1164   -153.29418   -54.352489    -76.88623   -5556.6732 
12603000    17.868048    -6957.808   -6911.8436    -6957.808            0    9138.7699    22.922769    21.133305    21.299691    10318.292    9325.4618    8834.9251    9255.9228    217.72401    394.61991    158.15709   -5536.6259 
12604000    18.097443   -6959.8883   -6913.3337   -6959.8883            0    9191.2639    22.929302     21.16674    21.256094    10316.403    9380.6051    9048.6926     9144.494    222.88407    644.27735   -291.80186   -5530.4699 
12605000     18.35374   -6960.3742   -6913.1603   -6960.3742            0    9076.8773    22.932736    21.147558    21.279675    10320.033    9371.0786    8803.7255    9055.8277    221.34409    146.94107   -246.89544   -5547.0259 
12606000    17.785053   -6961.0384   -6915.2874   -6961.0384            0    9275.1689    22.942704    21.119302     21.28903    10315.257    9358.3106    9217.1801     9250.016    83.198338    242.15702   -267.32768   -5519.9548 
12607000    17.166653   -6959.1044   -6914.9442   -6959.1044            0    9016.8874    22.965168    21.134324    21.261594    10319.385    8893.4252    9097.8532    9059.3836    178.71515    114.72217   -131.53817   -5557.9239 
12608000    18.215855   -6962.4515   -6915.5923   -6962.4515            0     8987.396    22.966399    21.081811    21.325425    10325.201    9186.1626    9155.7593     8620.266   -3.4919969   -2.3405968   -275.47885   -5562.2481 
12609000    16.991827   -6959.4459   -6915.7355   -6959.4459            0    9028.2585    22.997513    21.119696    21.247653    10319.996    9285.2167     8745.557    9054.0018    37.469166   -355.20341   -163.40385   -5556.9234 
12610000    17.650072   -6962.2403   -6916.8366   -6962.2403            0    8799.1965    23.050579    21.065052    21.274637    10330.147    8326.4383    9021.0119    9050.1391   -79.576808   -107.94324    179.37664   -5591.1971 
12611000    18.698898    -6962.969   -6914.8672    -6962.969            0    8700.3808     23.02336    21.072021    21.290041    10328.836     8688.792    8710.2023    8702.1482   -298.12573   -301.13546    22.672427   -5604.2812 
12612000    18.242093   -6960.6104   -6913.6837   -6960.6104            0    8891.2114    23.050995    21.045414    21.275675    10321.207    8401.2833     9257.156     9015.195    34.981378   -126.58552    227.29255    -5575.341 
12613000    18.617347   -6962.0238   -6914.1318   -6962.0238            0    8926.6344    23.018264    21.085943    21.275233    10326.185    8626.8438    8965.9582    9187.1013    258.81825   -389.89596     127.2852   -5569.8091 
12614000    18.018238   -6958.1958    -6911.845   -6958.1958            0    8990.2906    22.997647     21.09809    21.267147    10318.956    9117.9132    8848.0095    9004.9489   -92.439054   -183.30355    549.01776   -5558.8836 
12615000    18.194416   -6960.6312   -6913.8272   -6960.6312            0    8985.8631    22.984281    21.101016    21.287685     10324.35    9099.4947    9230.9786     8627.116    14.438234   -175.06535   -258.20646   -5560.8253 
12616000    17.461159   -6961.8159   -6916.8981   -6961.8159            0    9147.3676    22.985315     21.14534    21.227025     10317.02    9204.8716    8925.6104    9311.6208    347.10084    148.58361   -43.579324   -5540.5563 
12617000    17.024375   -6962.2973   -6918.5031   -6962.2973            0    9125.5729    22.942549    21.092035    21.319569    10316.647    9131.5105    9333.0284    8912.1798    422.72015     481.6675   -84.165315   -5545.4903 
12618000    17.540067   -6961.9197    -6916.799   -6961.9197            0    9033.6668    22.931959    21.150218    21.280172    10321.223    9446.1612    8861.1304    8793.7088    59.196412     427.4897   -508.01356   -5557.0113 
12619000    17.791975   -6960.9343   -6915.1655   -6960.9343            0    9012.4186    22.948841    21.135123    21.277352    10320.081    9377.1427    8711.2328    8948.8805    126.23566    141.47778   -271.81258   -5558.7263 
12620000    17.696541    -6962.166   -6916.6427    -6962.166            0    8917.0862    22.979585    21.111903     21.29237    10329.839    8944.9055    8936.2518    8870.1013    274.36467    185.19568    -360.3015   -5573.2827 
12621000    17.631693   -6960.5086   -6915.1522   -6960.5086            0    9111.6148    22.982748     21.10242    21.276282    10318.818    9029.7519    9292.1708    9012.9218    118.50243    360.73018   -209.26073   -5543.9509 
12622000    18.350206   -6958.9534   -6911.7487   -6958.9534            0    8965.1145    22.971114    21.095852    21.299462    10321.618    9199.6546    9051.4742    8644.2146   -150.98229    143.89009   -325.96717   -5562.2281 
12623000    17.738973   -6960.8144    -6915.182   -6960.8144            0    9035.8921    23.012997    21.085025    21.270052    10320.859    9061.0409    9058.8405     8987.795    77.346945   -88.826738   -100.39623   -5555.1072 
12624000    18.080153   -6960.1098   -6913.5997   -6960.1098            0    9144.8219     23.00097     21.10622    21.257347    10319.667    9123.0284    9107.2747    9204.1625    14.475842   -544.52062    174.57745    -5537.288 
12625000    18.266562   -6958.9565   -6911.9669   -6958.9565            0    9150.6756    22.999638    21.069186    21.285429    10314.571    9197.6684    9214.7173    9039.6413    314.75706   -345.36899    378.04788   -5535.4542 
12626000    18.266533   -6960.0487   -6913.0592   -6960.0487            0    9313.9686    22.983851    21.082003    21.272558    10307.525    9267.7008    9570.1853    9104.0197    108.56775   -330.92019    144.89601   -5512.9399 
12627000    17.745255   -6960.0858   -6914.4372   -6960.0858            0    9302.0751     22.99133    21.089067    21.265662     10310.99    9218.4838    9606.5813    9081.1602   -251.60284   -175.09559    74.511448   -5515.6357 
12628000    18.063951   -6960.7164   -6914.2479   -6960.7164            0     9069.048    23.008723    21.082048    21.267509    10316.252    8921.3069    9278.0231    9007.8141    44.155898   -246.20781    258.52145   -5549.7919 
12629000    18.823956   -6959.4139   -6910.9905   -6959.4139            0    9252.6426     22.96169     21.12591    21.268222    10316.929    9476.1624    9104.0709    9177.6945    121.91153   -295.20248    155.99445   -5518.8209 
12630000    16.875747   -6961.3552   -6917.9434   -6961.3552            0     9066.813    22.964583     21.11684    21.277852    10318.469     9400.408    8678.8775    9121.1534    154.36136    161.05247   -21.698158   -5553.5305 
12631000    16.920443   -6960.9345   -6917.4076   -6960.9345            0    9031.4066    22.951679    21.119893    21.292472    10321.249    9378.0247     8857.952     8858.243    101.07883    416.67565   -132.97515   -5557.9567 
12632000    17.878239   -6958.5334   -6912.5428   -6958.5334            0    9002.2944    22.947967    21.134362    21.286523    10323.765    9162.3304    9209.4637    8635.0891   -67.009476    73.829636   -453.57638   -5557.1437 
12633000    18.113575   -6960.2899   -6913.6938   -6960.2899            0    9074.7595    22.940183    21.145902    21.278958    10322.228    9063.8477    8981.6953    9178.7356    97.347092    351.18436   -245.27292   -5547.5876 
12634000    17.424184   -6962.1775   -6917.3548   -6962.1775            0    9021.3896     22.95462     21.12471    21.285716     10321.65    8971.7298    8919.8852    9172.5536    252.31036    240.47068   -14.592688    -5559.359 
12635000    16.911068   -6960.0769   -6916.5742   -6960.0769            0    9083.4436    22.978459    21.137211    21.245425    10318.914    8953.9976    8926.0171     9370.316    349.67164   -27.306984   -90.859903   -5549.5997 
12636000    17.842416   -6958.5914   -6912.6928   -6958.5914            0    9162.9182    22.970917    21.093954    21.297791    10319.791    9034.2555    9381.0591      9073.44   -268.33294   -35.161729    59.560688    -5533.641 
12637000    17.869934   -6960.0154   -6914.0461   -6960.0154            0    9055.3779    22.987862    21.103768    21.260484    10314.109    9075.1724     8916.211    9174.7503   -573.44103   -256.43023     464.3967   -5551.9297 
12638000    17.979527    -6963.226   -6916.9748    -6963.226            0    8920.0491     23.01572    21.077413    21.285591    10325.892    8835.4402    9055.0192     8869.688    56.059785   -350.10565    16.585707   -5573.6818 
12639000    17.825389   -6959.4342   -6913.5794   -6959.4342            0    9130.5274    23.053814    21.052855    21.241064    10309.321    8917.8165     9414.122    9059.6436    -317.0016   -189.16784    169.78708   -5540.7967 
12640000    17.820329   -6960.5619   -6914.7202   -6960.5619            0    9052.1254    22.977829    21.076865    21.310783    10320.825    8985.4068    9280.9774    8889.9921   -62.010968   -301.20095    106.62248   -5552.2066 
12641000    17.116489   -6959.7732    -6915.742   -6959.7732            0    8965.4475    23.030501    21.106267    21.224419    10316.933    8811.0908    8826.7749    9258.4769   -224.27479   -106.17658   -72.827334   -5566.7839 
12642000    18.526492   -6962.6638   -6915.0055   -6962.6638            0    9043.5373    22.974783    21.104586    21.293653    10324.723    9002.3295    8903.0754    9225.2068   -137.70033    57.170196    236.67404   -5553.2704 
12643000    17.766966   -6960.1324   -6914.4279   -6960.1324            0    9203.5722    22.979561    21.120151    21.264328    10320.255    9141.3711    9030.3959    9438.9496   -39.468998     260.4749   -103.91504   -5529.1952 
12644000    17.899917   -6960.5977   -6914.5513   -6960.5977            0    9132.1851    22.915311    21.164392    21.277177    10319.189    9452.5109    8922.1958    9021.8486    22.689606    242.94827   -533.50313    -5540.205 
12645000    18.287279   -6958.2804   -6911.2375   -6958.2804            0    9168.3454    22.926223    21.116991    21.305644    10314.762     9380.463    8947.4951    9177.0781    111.68851   -18.724729   -169.56857   -5532.0413 
12646000    18.111306   -6960.0112   -6913.4209   -6960.0112            0    9518.4902    22.958651    21.118502    21.256763    10306.391    9352.5038    9745.5076    9457.4592   -242.17894    350.36461   -261.48603   -5482.7144 
12647000     17.86867   -6962.7734   -6916.8074   -6962.7734            0     9150.814    22.972104    21.126486      21.2637    10319.695    9244.8853    8792.3153    9415.2413    -84.21897   -41.480524    31.628111     -5539.59 
12648000    17.461925   -6961.6239   -6916.7042   -6961.6239            0    9013.0288    22.999176     21.08128    21.285839    10320.483    9260.6474    8857.9546    8920.4844   -321.25773    -217.8031    200.09972   -5560.1202 
12649000     18.35399   -6959.1894   -6911.9749   -6959.1894            0    8986.8866    23.059477    21.048565    21.265563    10321.643    8524.8596    9532.9912     8902.809   -110.23013   -316.81872    89.801094   -5559.1737 
12650000    17.958946   -6962.0403    -6915.842   -6962.0403            0    9023.8144    23.023667    21.071936    21.274443    10321.365    9034.9639    8974.2694    9062.2099     -36.2689   -526.04856    199.61388   -5557.5186 
12651000    18.315269    -6959.957   -6912.8421    -6959.957            0    9152.0886     23.00648    21.071696    21.285523    10318.914    8953.4128    9196.4202    9306.4329   -112.62304   -138.31688    388.65058   -5535.5372 
12652000    17.170418    -6960.888   -6916.7182    -6960.888            0    9010.1548    23.011475    21.110526    21.244202    10320.101    9014.4326    9059.8261    8956.2057   -186.57762   -232.60073   -93.112209    -5560.617 
12653000    18.733138   -6960.3912   -6912.2013   -6960.3912            0    9006.9934    22.937403    21.122735    21.301194    10320.443    9068.4056    9164.0661    8788.5084   -214.84488   -280.47132    203.31163    -5556.531 
12654000    17.806922   -6959.6803   -6913.8731   -6959.6803            0     9101.473    22.935086    21.128171    21.284053     10313.75    9189.5219    9108.9053    9005.9916   -41.501825    104.66464     227.8818   -5544.8707 
12655000    17.755303   -6962.9674   -6917.2929   -6962.9674            0    8944.0389    22.974911    21.134353    21.264209    10325.047    8920.5352    8840.7106    9070.8709    203.97399   -30.335269   -235.26448   -5570.4976 
12656000    17.445349   -6963.3491    -6918.472   -6963.3491            0    9123.8372    22.986227    21.110251    21.270317    10321.316    9238.4978    8894.7287     9238.285   -61.438903    295.61875   -181.00748   -5545.0991 
12657000    17.537094   -6960.8733   -6915.7602   -6960.8733            0    9152.8517    22.971543    21.114588    21.272487    10317.893    9340.3775     8932.049    9186.1286   -202.87388    317.04849   -117.80923   -5538.4767 
12658000    18.154827   -6963.1025   -6916.4003   -6963.1025            0    8976.1732    22.981074    21.097871    21.291567    10323.253    9055.4399    8849.8883    9023.1915     100.7503    14.283224   -491.66713    -5565.001 
12659000    18.091518   -6960.5644    -6914.025   -6960.5644            0     9123.246    22.978026    21.077203    21.301409    10316.539    9234.6854    8941.8584    9193.1941    145.24052    455.13405   -47.832777   -5541.3767 
12660000    17.696085   -6961.8555   -6916.3334   -6961.8555            0    8937.9244    22.959877     21.12975    21.283992    10325.641    8801.8251    9046.5755    8965.3726    306.61165    78.764912   -100.22793   -5570.3813 
12661000    17.159616   -6961.4251    -6917.283   -6961.4251            0    9059.8321    22.997533    21.098414      21.2674    10319.187    9189.0591    9077.8229    8912.6143   -146.72635    301.52363   -54.664333   -5553.8258 
12662000    17.812475   -6960.1374   -6914.3159   -6960.1374            0    9191.6778    22.994523    21.093079    21.271349    10317.142    9267.6647    9027.7947     9279.574    12.114808    8.5457512    216.73045   -5531.2906 
12663000    17.962809   -6960.7485   -6914.5403   -6960.7485            0    9021.6815    22.993763    21.113781    21.256482    10319.709    8890.0341     9062.772    9112.2385   -16.411192   -309.51369    275.25815   -5556.7558 
12664000    17.946765     -6961.24   -6915.0731     -6961.24            0    9117.4606    23.005842    21.057212    21.288154     10312.81     9017.767    9460.7585    8873.8563   -41.994158   -427.66922   -19.299983    -5543.791 
12665000    17.137402   -6957.7617   -6913.6768   -6957.7617            0    9114.1049    23.011631    21.087073    21.259525    10316.141    8782.9235    9045.8871    9513.5041    93.260705   -349.70979    397.31261   -5542.4567 
12666000    18.868768   -6960.3841   -6911.8453   -6960.3841            0    9008.0713    23.040335    21.071516    21.254371    10318.886    8589.6607    9295.6027    9138.9505    179.45507    1.4313187    152.91549   -5556.2173 
12667000    17.766786   -6961.3708   -6915.6669   -6961.3708            0    8970.8588    23.003005    21.084535    21.286598    10324.163    8920.3232    9072.4879    8919.7652     73.15542   -33.840497    381.99951   -5564.9486 
12668000    18.427324   -6959.7658   -6912.3626   -6959.7658            0    8920.0769     22.97693    21.108176    21.281013    10321.314    8807.2496    9083.8832    8869.0978     123.4419   -124.23043   -39.328141   -5569.6611 
12669000    18.677667   -6959.2811    -6911.234   -6959.2811            0    8968.9118    23.008981    21.084825    21.277571    10322.608    8944.5961    9161.9934    8800.1459   -93.638705    132.78177   -377.77002   -5561.0123 
12670000    17.480416   -6959.5874   -6914.6201   -6959.5874            0    9169.6742    22.954117    21.131035    21.270864     10317.31    9165.8548     9039.928    9303.2398   -134.73066    232.31851   -88.118365   -5534.8833 
12671000    17.351056   -6960.5453   -6915.9108   -6960.5453            0    8948.2979    22.937897    21.146787    21.293559    10328.714    8994.6089    8952.4764    8897.8084    147.80226    33.520446   -47.810719   -5567.9956 
12672000    18.136848   -6960.7304   -6914.0744   -6960.7304            0    9027.1895    22.965951    21.137873    21.261417    10321.384    8966.7749     8959.634    9155.1595   -12.215669    182.51838   -220.19137   -5555.2405 
12673000    17.497468   -6960.9345   -6915.9233   -6960.9345            0    9022.3637    22.962785    21.111034    21.291947    10321.658    9075.7357    8920.3107    9071.0448    166.09485    237.79213   -213.12633   -5557.7798 
12674000    17.735768   -6961.6777   -6916.0535   -6961.6777            0    9126.7491    22.955609    21.113921    21.281756    10314.904    9524.7795    8723.6691    9131.7987   -32.330487   -65.255888   -144.44721   -5543.0957 
12675000    17.807431   -6961.5449   -6915.7364   -6961.5449            0    8939.7418    22.968942    21.114353    21.293247    10326.678    9080.3529    8943.3224    8795.5502   -335.33281    8.9070531    15.047485   -5569.3754 
12676000    17.456756   -6960.9642   -6916.0578   -6960.9642            0    9049.0795     23.06493    21.068835    21.235331    10319.335    8713.0362    9159.2585    9274.9438   -220.70856   -6.1579418     97.13919   -5554.1992 
12677000    18.074826   -6958.3991   -6911.9027   -6958.3991            0     9155.339    23.027745    21.052954    21.288513    10320.715    8755.1751    9367.9574    9342.8845    259.35717   -301.76577    133.31559   -5533.8681 
12678000     17.94789   -6957.8794   -6911.7096   -6957.8794            0    9179.4723    23.003786    21.107181    21.238447    10312.223      9248.82    9204.6538    9084.9429   -221.61617   -368.46676    100.89782   -5531.1793 
12679000    18.327709   -6962.1472   -6915.0002   -6962.1472            0    9026.2568    23.012363    21.037262    21.316313    10319.591    8819.2212    9450.2635    8809.2859   -115.85563   -212.15441     86.88824   -5556.5427 
12680000    18.160346   -6960.8786   -6914.1623   -6960.8786            0    8765.0197     23.02923    21.122237    21.225587    10324.738    8186.1378    8699.3877    9409.5337    44.395876    8.3428778    297.15383   -5594.3631 
12681000    17.522342   -6961.1361   -6916.0609   -6961.1361            0    9033.2788     22.95701     21.11294    21.314118    10330.739    9188.6384    9034.2555    8876.9425    65.406266     176.1206   -16.908009   -5555.0779 
12682000    18.311825   -6958.9588   -6911.8527   -6958.9588            0    9020.7709    22.988689    21.129378    21.234705    10314.475    8930.1685    8770.7667    9361.3776    172.26528    303.62804    -55.19509   -5554.8939 
12683000    17.435573   -6961.7803   -6916.9283   -6961.7803            0    9003.5085    22.923907    21.093988    21.355907     10326.79    9142.2134     9095.423     8772.889    399.97689    355.02564   -291.58899   -5560.9492 
12684000    17.887974   -6961.8892   -6915.8735   -6961.8892            0    8966.4926    22.942464    21.157459    21.259205    10319.308    9018.3152    8869.8194     9011.343   -63.906075    401.36124   -341.41821   -5566.4476 
12685000    18.399085   -6961.7141   -6914.3836   -6961.7141            0    8935.9767     22.92475     21.15209    21.312462    10334.549    8921.1971    8835.5553    9051.1775     3.518188    106.39852    88.883671    -5567.564 
12686000    18.141972   -6959.8921    -6913.223   -6959.8921            0    8983.0229     23.00039    21.106263    21.264827    10323.058    8868.1967    8967.0152    9113.8569    248.21593    117.50606    33.439744   -5560.8179 
12687000    17.372715   -6962.0067   -6917.3165   -6962.0067            0    8925.5719    23.003637    21.093501    21.271271      10321.4    9042.5746    8743.6205    8990.5206    206.37215   -6.2660162    55.750329   -5573.7766 
12688000     18.39743   -6959.3646   -6912.0383   -6959.3646            0    9124.2291    22.963761    21.074287    21.320303    10317.852     9117.971    9160.4352     9094.281    72.398024   -65.078119    261.30057   -5539.0673 
12689000    17.594636   -6961.5931    -6916.332   -6961.5931            0    9067.5167    23.018971    21.106604    21.217929     10308.78    9026.7094    8839.6042    9336.2367   -73.676702   -305.36914    274.35077   -5553.0945 
12690000    18.145041   -6958.4239   -6911.7469   -6958.4239            0    8967.6752    22.999782    21.099711    21.287026    10330.354    8736.1843    9136.9647    9029.8765   -79.281278   -379.94318    50.137558   -5560.6984 
12691000    18.275647   -6958.4299   -6911.4169   -6958.4299            0     9048.559    23.023029    21.101817    21.230799    10314.511    8857.7262    8894.8932    9393.0575   -256.66951   -4.2841763    505.76826   -5550.2732 
12692000    17.788668   -6959.1678   -6913.4075   -6959.1678            0    9174.6964    22.975213    21.072041    21.316762    10320.183    9330.3244    9170.7912    9022.9738   -52.328088   -210.96987    130.48713   -5532.5305 
12693000    17.440429   -6959.5848   -6914.7204   -6959.5848            0    9096.3148     22.98103    21.126422    21.243754     10313.99    8424.3977    9255.4645    9609.0821    123.79499    11.013032    245.44073   -5546.4621 
12694000    17.696513   -6960.3366   -6914.8134   -6960.3366            0    8980.4911    22.942166    21.106485    21.323178     10325.29    9061.5079    9081.7462    8798.2191   -19.859919   -26.406107   -83.424635   -5562.4972 
12695000    18.758652   -6961.4194   -6913.1639   -6961.4194            0    9112.3323     22.93913     21.15244    21.264877    10318.114    9015.8624    8962.7416    9358.3929   -125.88847    133.12946   -166.79619   -5541.9483 
12696000    17.593475   -6959.8222   -6914.5641   -6959.8222            0    9177.2107    22.926939    21.142679    21.282117    10316.228    9321.0712    9051.6641     9158.897    247.36695     37.67526   -124.92741    -5533.838 
12697000    17.844663   -6959.9261   -6914.0218   -6959.9261            0    9150.7963     22.94675    21.113783    21.294671    10317.112    9670.1865    8768.1158    9014.0864    99.991297   -41.579148   -74.610767   -5537.1518 
12698000    18.101966    -6958.821   -6912.2548    -6958.821            0    9272.0525    22.986535    21.120658    21.243844    10313.689    9203.2944    9338.6319     9274.231   -58.236075    191.08744   -241.73546   -5517.6029 
12699000    18.493293   -6961.1426   -6913.5697   -6961.1426            0    9152.0592    22.981277    21.094674    21.290676    10321.348    9140.7676    8952.8025    9362.6076    83.321547    121.75654    137.39846   -5535.9443 
12700000    17.274111   -6958.9731   -6914.5365   -6958.9731            0    9179.8407    22.972961    21.098783    21.271925    10310.535    9380.5773    9070.5288     9088.416    -27.55437    34.927188    8.5705224    -5534.177 
12701000     18.36488   -6961.2541   -6914.0116   -6961.2541            0    9113.4937    22.967424    21.098032    21.288992    10315.952     9164.701    9479.4494    8696.3308    38.820339   -78.537279   -341.82037   -5542.9085 
12702000    18.380557   -6962.6029     -6915.32   -6962.6029            0    8976.6224    23.033251    21.085965    21.245236     10318.35    8802.8565    9055.1663    9071.8443   -225.41117   -40.385413    250.74398   -5564.4949 
12703000    17.536871   -6964.0648   -6918.9523   -6964.0648            0    9120.6613    23.016978     21.07626    21.281639    10323.975     8988.349    8988.2345    9385.4003   -213.85228   -223.68809      470.029   -5545.7037 
12704000    17.731055   -6960.9994   -6915.3873   -6960.9994            0    8983.3435    23.016796    21.112019    21.234024    10318.271     8907.117    8860.9499    9181.9635   -200.38327   -569.01432    273.19263   -5563.5613 
12705000     17.71022   -6962.3148   -6916.7563   -6962.3148            0    8909.8185    22.977256    21.056083    21.340162    10324.605    8911.2394    9166.4145    8651.8014   -116.50567    98.744598    400.32372   -5575.1713 
12706000    17.731187    -6961.813   -6916.2006    -6961.813            0    9084.4447    23.009207    21.108117    21.235976    10313.911    8756.2756    8848.8745    9648.1839    -43.72235    254.78886    370.74442   -5549.7384 
12707000    17.199756   -6962.0199   -6917.7746   -6962.0199            0     8975.308    22.987301    21.107808    21.286514    10328.462    8978.5086    8781.4555    9165.9601    23.505465   -91.490779   -115.74261   -5565.8237 
12708000    17.804735   -6961.3766    -6915.575   -6961.3766            0     8834.426    22.969223    21.128967    21.280199     10327.62    8871.3879    8782.2591     8849.631   -73.611257    161.17715    65.068996   -5584.9537 
12709000    18.362137   -6960.7933   -6913.5579   -6960.7933            0    8889.2181    22.924557    21.181118    21.265497    10325.839    9022.8438    8743.1044    8901.7062    148.55705    30.511728   -392.62839   -5574.9147 
12710000    17.923206   -6961.6605   -6915.5541   -6961.6605            0    8978.6568    22.933722    21.126091    21.303083    10321.342    8916.1717    9011.5171    9008.2816    150.78089    396.47147    8.1445237   -5564.0312 
12711000    18.475127   -6960.7832    -6913.257   -6960.7832            0    9006.1157    22.925028    21.137839    21.291119    10317.369    9264.5501     8934.373     8819.424   -44.085048    418.72521   -268.35104   -5558.1227 
12712000    17.671485   -6962.8706   -6917.4118   -6962.8706            0    8991.1163    22.945414    21.152179    21.280957    10328.617    8936.6195    9002.2297    9034.4996    471.88444    167.99263    115.95099   -5563.0594 
12713000    17.857759   -6960.5553   -6914.6173   -6960.5553            0    9041.9612    22.993924    21.108047    21.257564    10317.504    8823.6226     9134.597     9167.664    113.88394    141.76857   -145.67444   -5554.0715 
12714000    18.889432   -6963.2577   -6914.6658   -6963.2577            0    8953.3481    22.999377    21.088885    21.282676    10322.762    9057.7554    9072.9588      8729.33   -45.545624   -266.18542   -111.02275    -5566.767 
12715000    16.958053   -6961.6108   -6917.9872   -6961.6108            0    8905.3454    23.004801    21.091572     21.27429    10322.444    9329.7137    8643.4845     8742.838   -133.50391   -421.32987    185.48855   -5577.3565 
12716000    17.843529    -6960.862   -6914.9606    -6960.862            0    8954.5734     23.01744    21.048613    21.309638    10324.204    8892.4932    8992.4696    8978.7573    28.601494   -192.63959    795.01388    -5566.689 
12717000     17.85139   -6960.2559   -6914.3343   -6960.2559            0    9132.2539    23.052985    21.060082    21.249927    10316.792    8569.5689    9505.3579    9321.8348    39.781657    42.645446   -56.519112    -5540.297 
12718000    19.048543   -6962.3335   -6913.3322   -6962.3335            0     8816.361     23.02231    21.084042    21.273103    10326.036    8861.7656    8878.9626    8708.3548   -239.69352   -408.08973    198.49634   -5585.6355 
12719000    18.158141   -6962.0633   -6915.3526   -6962.0633            0    9028.7887     22.98402    21.115399    21.264383    10319.962    9333.6853    8858.1464    8894.5346   -27.532696   -420.22507    163.44355   -5556.4653 
12720000    17.316273   -6962.1637   -6917.6186   -6962.1637            0    9073.5966    23.000843    21.087046    21.273373    10318.008    8829.9093    9138.8619    9252.0186    137.99733    179.43054    46.416517   -5552.2459 
12721000    17.356636   -6960.5325   -6915.8836   -6960.5325            0    9054.1618    22.966358    21.097112    21.297861    10319.321    9095.7193    9086.6108    8980.1554    157.87794    428.43031   0.22304123   -5553.2621 
12722000    17.698866   -6962.2076   -6916.6783   -6962.2076            0    9012.7416    22.928939    21.150356    21.284228    10321.898    9465.0386    8750.7729    8822.4132    -133.6309    235.25698   -182.02838   -5559.9517 
12723000    17.710144   -6962.7532    -6917.195   -6962.7532            0    8980.6504    22.948662    21.146143    21.278694    10326.033    9035.0078     8981.911    8925.0326    125.13695     186.8709   -26.350042   -5564.7575 
12724000    17.926131    -6957.954   -6911.8401    -6957.954            0    9171.6672    22.951723    21.139578    21.264422     10317.28    9021.3185    9244.1922    9249.4909    59.746745    491.80347   -258.52173   -5531.8074 
12725000    18.320835   -6962.4086   -6915.2793   -6962.4086            0    9123.6921    22.949928    21.118694    21.287585    10317.507    9150.6035    9038.5891    9181.8838    259.71468    164.31057   -28.079227   -5542.4351 
12726000    18.086333   -6961.9608   -6915.4348   -6961.9608            0    8941.9954    22.963787    21.102166    21.300418    10321.877    9134.8043    8842.0786    8849.1033    30.920263   -19.428089    -161.3825   -5569.3605 
12727000    19.665991   -6961.8785    -6911.289   -6961.8785            0    9041.7178    22.985676    21.094939    21.293209    10324.682    9021.8635    9277.8466    8825.4433    194.80053   -227.09793    124.73081   -5549.8332 
12728000    19.211598   -6960.8625   -6911.4418   -6960.8625            0    8999.1431    23.038237    21.090444    21.244418    10322.379    8819.6568    9001.2719    9176.5006   -62.349679    -401.2904    243.22823    -5556.699 
12729000    18.446024   -6961.2872    -6913.836   -6961.2872            0    9024.3412     23.01016    21.082971    21.279834    10323.327    9151.6144    8976.6535    8944.7555   -337.33357    -148.5526    88.138006   -5555.1751 
12730000    18.294218   -6957.6776   -6910.6168   -6957.6776            0    9185.6141    22.986247    21.095546    21.262775    10310.477    9187.3287    9100.7539    9268.7599    45.827423   -443.39133    442.07972   -5529.3968 
12731000    18.509319   -6959.6162   -6912.0021   -6959.6162            0    9069.0824    22.989998    21.086147    21.284169    10317.937    9024.6564    8938.4441    9244.1468     229.8149   -246.78085    258.57967   -5547.3181 
12732000    18.425164   -6962.4098   -6915.0122   -6962.4098            0    8903.2343    23.002257    21.097802    21.278404    10326.347    8865.5794    8984.5953     8859.528   -50.203432   -31.511352    26.298698   -5574.1924 
12733000     17.22406   -6961.4487   -6917.1409   -6961.4487            0    8909.5641    23.003384     21.13058    21.246011    10327.152    8809.1038    8821.7872    9097.8012   -7.1604195   -55.038011   -100.53133   -5575.2633 
12734000    17.755155   -6961.1156   -6915.4415   -6961.1156            0    8948.6343    22.970194    21.094541    21.307259    10324.341    9068.3701    9036.2912    8741.2415     -129.315    110.07268   -144.21996   -5568.0464 
12735000    17.889784   -6960.4387   -6914.4183   -6960.4387            0    9087.7987    22.970021    21.101631    21.283104    10316.025    9109.1694    8924.7137     9229.513    349.41491    47.692311    35.091518   -5547.1713 
12736000    18.200265   -6961.8622   -6915.0431   -6961.8622            0    9187.1125    22.955679    21.108708    21.292449     10317.57    9039.6552    9289.9739    9231.7084    302.71015    403.54097   -106.99133   -5532.6475 
12737000    17.414203   -6961.6257   -6916.8287   -6961.6257            0    8936.2215    22.990239    21.116909    21.260911    10321.806    8912.9621    9074.2549    8821.4474   -124.99794    291.17266     -532.622   -5571.6329 
12738000    18.664973   -6962.3747   -6914.3602   -6962.3747            0    8982.8927    22.966258    21.133622    21.279947    10328.439    8994.2056    8920.7616    9033.7108   -99.340702    292.10337   -41.180704   -5561.2698 
12739000    17.434902   -6959.9837   -6915.1335   -6959.9837            0    9069.3424    22.958919    21.120557    21.279247    10318.416    9057.6305    8998.5988    9151.7979    223.75479   -37.351201    41.178997   -5550.3469 
12740000    18.055318   -6959.8957   -6913.4495   -6959.8957            0    9082.3966    22.987055    21.078531    21.295818    10318.534    9104.4242    9047.4105    9095.3552    112.69571    73.772552    173.09034   -5546.6828 
12741000    17.672432   -6960.6695   -6915.2083   -6960.6695            0    9037.3304    22.983012    21.116179     21.26098    10318.238     9046.719    8986.8219    9078.4502   -76.908403   -55.387517    248.98191   -5555.2624 
12742000    18.063836   -6962.2367   -6915.7686   -6962.2367            0    8937.4388    22.995305    21.096579    21.279227    10323.027    9039.6072     8966.813    8805.8962   -329.75648   -249.42444    443.46888   -5570.2304 
12743000    17.820908   -6959.6915   -6913.8483   -6959.6915            0    9033.1627    23.025368    21.097643     21.25311    10324.357    8980.2035    9063.3591    9055.9255   -9.8388768   -254.35568    18.327536   -5553.7236 
12744000    17.968085   -6959.9529   -6913.7311   -6959.9529            0    9033.4666     23.01968    21.062068    21.276958    10315.964    8893.4273    9247.5746     8959.398    222.93907   -159.16392    275.66013   -5554.6663 
12745000    18.832743   -6960.2693   -6911.8232   -6960.2693            0    8935.2564     22.97333    21.088602    21.309224    10323.795    9048.6436    8897.7162    8859.4093    1.1095972   -83.848301    268.43622   -5566.5135 
12746000    17.885667   -6962.7442   -6916.7344   -6962.7442            0    8836.8012    23.006875    21.089236    21.280743    10325.362    8731.0904    9155.1072    8624.2061   -76.804225    312.67096    62.247916   -5586.0464 
12747000    18.171607   -6962.3416   -6915.5962   -6962.3416            0    8879.1143    22.989222    21.134387    21.255525    10327.275    8963.5482     8805.969    8867.8258    192.14237    186.61128   -354.77456   -5578.2887 
12748000    18.148684   -6960.5768   -6913.8904   -6960.5768            0    8952.6789    22.945513    21.122787    21.302964    10324.975    9112.1485    8795.8868    8950.0014    270.17136     185.9411   -137.74022   -5565.8034 
12749000    17.831563   -6961.1152   -6915.2446   -6961.1152            0    9178.1125    22.950778    21.131831    21.266531    10314.096    9215.1747    8873.0922    9446.0707    23.619993    278.41437  -0.36444692   -5534.6681 
12750000    18.320057   -6957.7224   -6910.5951   -6957.7224            0    9073.6977    22.967439    21.092842    21.309094     10323.16    9120.9585     9053.811    9046.3237   -223.04839    221.82457   -288.26548   -5544.5255 
Loop time of 543.093 on 64 procs for 250000 steps with 1296 atoms

Performance: 79.544 ns/day, 0.302 hours/ns, 460.326 timesteps/s
196.0% CPU use with 32 MPI tasks x 2 OpenMP threads

MPI task timing breakdown:
Section |  min time  |  avg time  |  max time  |%varavg| %total
---------------------------------------------------------------
Pair    | 37.263     | 48.117     | 59.981     | 105.4 |  8.86
Bond    | 0.8327     | 1.0194     | 1.2253     |  10.0 |  0.19
Kspace  | 274.65     | 291        | 307.46     |  47.6 | 53.58
Neigh   | 0.12293    | 0.1373     | 0.15286    |   1.9 |  0.03
Comm    | 71.886     | 79.092     | 85.108     |  39.2 | 14.56
Output  | 0.55882    | 0.55917    | 0.56086    |   0.0 |  0.10
Modify  | 103.06     | 107.11     | 109.47     |  12.4 | 19.72
Other   |            | 16.06      |            |       |  2.96

Nlocal:        40.5000 ave          48 max          31 min
Histogram: 7 4 1 2 1 1 0 0 5 11
Nghost:        3226.72 ave        3246 max        3211 min
Histogram: 2 4 4 2 7 5 3 1 3 1
Neighs:        13531.2 ave       16040 max       10455 min
Histogram: 7 4 1 2 1 1 0 0 5 11

Total # of neighbors = 432998
Ave neighs/atom = 334.10340
Ave special neighs/atom = 2.0000000
Neighbor list builds = 250
Dangerous builds = 0

unfix		3
unfix		2
unfix		1

write_data	data.final.${pid}
write_data	data.final.0
System init for write_data ...
PPPM initialization ...
  extracting TIP4P info from pair style
  using 12-bit tables for long-range coulomb (../kspace.cpp:340)
  G vector (1/distance) = 0.37169759
  grid = 30 36 32
  stencil order = 5
  estimated absolute RMS force accuracy = 0.0036696338
  estimated relative force accuracy = 1.1050993e-05
  using double precision FFTW3
  3d grid and FFT values/proc = 7344 1152
Last active /omp style is kspace_style pppm/tip4p/omp
WARNING: Not all mixed pair coeffs generated from mixing. Use write_data with 'pair ij' option to store all pair coeffs. (../write_data.cpp:312)

write_restart   restart.lmp.${pid}
write_restart   restart.lmp.0
System init for write_restart ...
PPPM initialization ...
  extracting TIP4P info from pair style
  using 12-bit tables for long-range coulomb (../kspace.cpp:340)
  G vector (1/distance) = 0.37169759
  grid = 30 36 32
  stencil order = 5
  estimated absolute RMS force accuracy = 0.0036696338
  estimated relative force accuracy = 1.1050993e-05
  using double precision FFTW3
  3d grid and FFT values/proc = 7344 1152
Last active /omp style is kspace_style pppm/tip4p/omp
Total wall time: 0:09:03
