LAMMPS data file via write_data, version 30 Jul 2021, timestep = 38250000

1008 atoms
2 atom types
672 bonds
1 bond types
336 angles
1 angle types

-3.0857572745104136 14.695756274064621 xlo xhi
-0.029528236116041384 22.60952723610466 ylo yhi
0.013416274204834266 19.216581725794995 zlo zhi
0.022752576490214296 -6.644352679724385 0.03989689759464326 xy xz yz

Masses

1 1.008
2 15.999

Pair Coeffs # lj/cut/tip4p/long/omp

1 0 0
2 0.21084 3.1668

Bond Coeffs # harmonic/omp

1 450 0.9572

Angle Coeffs # harmonic/omp

1 55 104.52

Atoms # full

21 7 1 0.5897 1.2491782797044095 2.2783224292786572 0.8791405642165252 0 0 0
55 19 2 -1.1794 -0.6209397823721661 4.566952969404453 3.424166576094136 0 0 0
56 19 1 0.5897 -1.148135945512666 3.943201583945822 2.9249492001961532 0 0 0
57 19 1 0.5897 0.19089764459502323 4.649635030945114 2.9236687114340003 0 0 0
121 41 2 -1.1794 -2.2826804656885256 2.4949740917170478 2.4464502494807023 1 0 0
122 41 1 0.5897 -2.137876427701057 2.2343277950916325 1.536829623021791 1 0 0
86 29 1 0.5897 -2.2873169998574965 1.4336743887720442 4.003442591541175 1 0 0
31 11 2 -1.1794 1.3421852186097452 1.2271545444862029 2.379851443062212 0 0 0
32 11 1 0.5897 1.1611021043499141 1.6084519750162107 3.2390129473842633 0 0 0
123 41 1 0.5897 -3.173623758369909 2.8447491827673272 2.4571266111972907 1 0 0
46 16 2 -1.1794 1.9328460866603905 4.87144192610545 2.471337534646036 0 0 0
33 11 1 0.5897 0.6160547180519353 0.6222406584163965 2.2279734800343873 0 0 0
71 24 1 0.5897 3.0165293891386904 0.636858293610069 1.7706782334771671 0 0 0
158 53 1 0.5897 -4.109629181562627 4.669782921910212 4.274889436429791 1 0 0
53 18 1 0.5897 4.574833134426334 2.864228581289443 2.893318141160334 0 0 0
47 16 1 0.5897 2.058177305749239 5.364518914399373 1.660555857587878 0 0 0
602 201 1 0.5897 -0.4784711799363621 5.222743931921037 0.3916334091073325 1 0 1
527 176 1 0.5897 4.086440371665055 1.9300859352868314 0.24812406472489953 0 0 1
48 16 1 0.5897 2.020005164626248 5.52476378238659 3.1654903852653815 0 0 0
52 18 2 -1.1794 3.788312716705345 2.9911606735836145 3.424066214107648 0 0 0
78 26 1 0.5897 0.07963449716379323 3.022171441409258 4.565677398071935 0 0 0
54 18 1 0.5897 3.263907421931183 3.620574974082507 2.929210791953269 0 0 0
157 53 2 -1.1794 -3.525995033329821 5.205688450371508 4.811883129514897 1 0 0
70 24 2 -1.1794 3.863986855624156 0.5215638812646061 1.3406573234741646 0 0 0
482 161 1 0.5897 -1.0368255095177297 0.002703136528453637 0.9435295366122929 1 1 0
16 6 2 -1.1794 5.474407790452588 4.810277437215024 0.264605437103427 0 0 0
101 34 1 0.5897 -2.5632671277029924 4.57947110377373 0.16977528411518403 1 0 0
76 26 2 -1.1794 0.653863398204451 2.283547328625727 4.767708457749876 0 0 0
6 2 1 0.5897 3.801809336629862 1.7003342514794977 4.619736315924887 0 0 0
18 6 1 0.5897 5.015276183193846 3.996946823113521 0.05500211210814545 0 0 0
134 45 1 0.5897 -2.243847709289407 2.647145004415629 5.991270122475071 1 0 0
135 45 1 0.5897 -1.670378603131598 3.7483539445181915 6.8575153065000025 1 0 0
60 20 1 0.5897 2.7701789682736724 3.550151402215084 6.671175489876869 0 0 0
34 12 2 -1.1794 0.2099472136962408 1.2633159068352005 7.273881698178617 0 0 0
35 12 1 0.5897 0.38990871050901355 1.9303531957878997 7.93640520774154 0 0 0
36 12 1 0.5897 -0.6493022131096406 0.9147175388794727 7.511621865493134 0 0 0
159 53 1 0.5897 -3.039608927291346 4.57392227028904 5.341349353456899 1 0 0
669 223 1 0.5897 -5.169072776029588 1.718768295672152 9.056279499284393 1 0 0
124 42 2 -1.1794 -4.936572263734038 2.526670521177941 7.512960658400124 1 0 0
58 20 2 -1.1794 2.176972389060028 4.059824152995167 6.119497325170221 0 0 0
59 20 1 0.5897 1.7186266708404894 3.4058073253697922 5.591853488569944 0 0 0
401 134 1 0.5897 2.456867821235053 0.05947488714697349 8.783495976691112 0 1 0
43 15 2 -1.1794 -0.3103422920094294 4.8941739315937065 7.225487307472389 0 0 0
126 42 1 0.5897 -4.043996618911674 2.8042158875773833 7.306513420578474 1 0 0
45 15 1 0.5897 0.614076943895105 4.699861179017 7.070557351235882 0 0 0
133 45 2 -1.1794 -2.495203642541676 3.326100077654148 6.617507567209789 1 0 0
87 29 1 0.5897 -3.258824664398534 0.9699730460631047 5.068072353673716 1 0 0
522 174 1 0.5897 2.009057224078137 5.3982900027522875 9.159301093403503 0 0 0
22 8 2 -1.1794 0.29391142104247026 2.8112308935296833 9.597650025926214 0 0 0
98 33 1 0.5897 -3.963520565792292 5.206910804055372 8.6962804384299 1 0 0
77 26 1 0.5897 0.3517751982126276 1.9711923086559935 5.620627092228962 0 0 0
69 23 1 0.5897 -2.599434604294693 1.0820122226655364 8.730762145134337 0 0 0
67 23 2 -1.1794 -2.258626235169677 0.3734758183463194 8.184722664004417 0 0 0
44 15 1 0.5897 -0.3307665345413402 5.282639900178025 8.10011167917209 0 0 0
125 42 1 0.5897 -5.4932599955642765 3.204673836632847 7.130235971679673 1 0 0
97 33 2 -1.1794 -4.009913576324127 4.821335031827793 9.571129397875639 1 0 0
4 2 2 -1.1794 3.962929574501949 0.9900463203650833 5.240723415135009 0 0 0
5 2 1 0.5897 3.321969663563058 0.31812250275794074 5.008490158709707 0 0 0
90 30 1 0.5897 -5.123618813030222 1.4474586544361574 5.973765773889606 1 0 0
24 8 1 0.5897 1.0113575190839823 3.4448256540270465 9.608135965327143 0 0 0
85 29 2 -1.1794 -2.3273704296535014 1.1212560119740187 4.907316687730987 1 0 0
574 192 2 -1.1794 0.4775038416976982 0.4779221672480153 11.235070504756797 0 0 0
667 223 2 -1.1794 -5.303899897432889 1.1219927318479062 9.792395093702966 1 0 0
560 187 1 0.5897 -4.879797368931003 3.9536509175134755 12.707576753731335 0 0 0
576 192 1 0.5897 -0.24674738639866334 0.5724459842020754 11.85390390426617 0 0 0
23 8 1 0.5897 0.5629101212194314 2.1337344354293695 10.217896817460762 0 0 0
523 175 2 -1.1794 -2.4134402686959486 2.5110841347168527 9.945858966080758 0 0 0
627 209 1 0.5897 -6.820042876967407 2.989609389949343 12.163627700528174 1 0 0
99 33 1 0.5897 -3.8836222714160753 5.560412044762883 10.166172453418719 1 0 0
535 179 2 -1.1794 -2.1008524872939276 1.2367176298559128 12.279581557457595 0 0 0
536 179 1 0.5897 -2.215878087428659 1.7989492781540737 13.045731512572392 0 0 0
537 179 1 0.5897 -2.207960726833676 1.8248217446572015 11.532071039999556 0 0 0
551 184 1 0.5897 -1.300551719914357 5.459859699592266 12.569933133282536 0 0 0
625 209 2 -1.1794 -5.950379793730989 2.6423735135849804 11.965099889344932 1 0 0
556 186 2 -1.1794 0.48771562049807127 3.381027721397305 12.980456158652473 0 0 0
561 187 1 0.5897 -3.7556996609933186 3.810951620999819 13.711336744231202 0 0 0
668 223 1 0.5897 -5.624089545292586 1.6818320044645736 10.499797208944742 1 0 0
558 186 1 0.5897 -0.2942384593370706 3.732993941530555 12.555309240702647 0 0 0
559 187 2 -1.1794 -4.217690099077373 4.458789478692159 13.179435330789303 0 0 0
550 184 2 -1.1794 -1.6960046847583765 4.895202417953622 11.905857541775122 0 0 0
552 184 1 0.5897 -2.6061358964697634 4.796718468935863 12.185743739126693 0 0 0
626 209 1 0.5897 -5.764760583804695 2.0361842189495456 12.682153222013397 1 0 0
557 186 1 0.5897 0.18265819159773589 2.5919935689761644 13.428328314610962 0 0 0
589 197 2 -1.1794 -5.604983201321122 1.0004629511626435 14.191042785120624 1 0 0
662 221 1 0.5897 -7.481115731185632 4.781578206906256 14.066384274709764 1 0 0
606 202 1 0.5897 -5.929854761190047 4.696199099932867 9.715999552252894 1 0 0
520 174 2 -1.1794 2.2436997331704713 4.699754922875915 9.770093747852899 0 0 0
587 196 1 0.5897 -1.224737952282649 5.646668246856946 10.314770916084061 0 0 0
524 175 1 0.5897 -2.896825240430306 3.3326019140539165 9.858678432763915 0 0 0
525 175 1 0.5897 -1.5012045323954069 2.7508824035210533 9.782565767917285 0 0 0
547 183 2 -1.1794 -3.630819324913782 5.039915184875867 16.993867183492306 0 0 0
581 194 1 0.5897 -2.8543124604133894 2.1799675863246533 15.251586718328275 0 0 0
165 55 1 0.5897 -9.180461820673155 0.732627821386543 18.80479602128382 1 0 -1
630 210 1 0.5897 -8.15245445450369 1.9678327413439132 16.14371485082502 1 0 0
582 194 1 0.5897 -1.9601443310109934 3.385963671561339 15.056516984124293 0 0 0
563 188 1 0.5897 -0.8543341337378489 5.0425183189163665 15.637520757503296 0 0 0
639 213 1 0.5897 -5.917150116419194 4.054728683884319 15.222079035293259 1 0 0
20 7 1 0.5897 -5.717032714055097 1.9296971548604116 18.65497709624144 0 0 -1
538 180 2 -1.1794 -3.2896607725121747 1.1674274131638158 16.637371767360953 0 0 0
539 180 1 0.5897 -2.982997264573301 1.7448305064002065 17.336506512022282 0 0 0
528 176 1 0.5897 -3.5425428586905685 2.994558421480992 18.929504613228737 0 0 0
540 180 1 0.5897 -4.155253401100297 0.8788283412436216 16.926905550448282 0 0 0
638 213 1 0.5897 -6.313584849531525 3.0699938524299832 16.301443204653893 1 0 0
549 183 1 0.5897 -4.245454073284724 4.38253603971948 16.667810081321072 0 0 0
562 188 2 -1.1794 -1.0231456382607877 4.327023440736653 16.25051658120813 0 0 0
629 210 1 0.5897 -8.569509288895333 3.321847558712497 16.677287736726974 1 0 0
564 188 1 0.5897 -1.7738620411661206 4.623760609907021 16.76508026809237 0 0 0
637 213 2 -1.1794 -5.566573148843329 3.357762575151189 15.776504792249595 1 0 0
164 55 1 0.5897 -8.15468791442315 1.7495025757415041 18.351069744937988 1 0 -1
628 210 2 -1.1794 -7.960163903524775 2.600870758422632 16.8354810436267 1 0 0
590 197 1 0.5897 -5.419432065143608 1.672299613971999 14.8471419208612 1 0 0
526 176 2 -1.1794 -2.638314856924536 2.6958021919474957 18.83256099750122 0 0 0
571 191 2 -1.1794 -5.656583801778966 0.4206321763788213 17.721803928271626 0 0 0
580 194 2 -1.1794 -2.5298563438072943 2.781241469960549 14.581170851608164 0 0 0
661 221 2 -1.1794 -6.878636359255563 5.3970698104031225 14.484000220696766 1 0 0
603 201 1 0.5897 -6.708159003175879 3.9188977720704408 19.034076666211888 1 0 0
601 201 2 -1.1794 -7.4285515597292875 4.549159095972522 19.034691705066685 1 0 0
905 302 1 0.5897 -1.9650303219568892 0.03238458286633446 17.170146862044597 0 1 0
591 197 1 0.5897 -5.122141995774391 0.2309135775400022 14.49228081856839 1 0 0
508 170 2 -1.1794 0.620518893331611 0.902976161768387 14.567175683207049 0 0 0
614 205 1 0.5897 -7.3374875317288595 5.597773577057721 17.543766930161425 1 0 0
572 191 1 0.5897 -6.454969883186159 0.03319849684030819 17.363095268620583 0 0 0
163 55 2 -1.1794 -8.505215166530007 1.325578298798841 19.13446883083408 1 0 -1
19 7 2 -1.1794 -5.51217328605413 2.6850875770791207 19.20603645709288 0 0 -1
593 198 1 0.5897 -7.4362815940918 0.8455853205833475 14.424335639627989 1 0 0
289 97 2 -1.1794 -2.5493258637601426 10.050141393230234 2.43141695459457 1 0 0
255 85 1 0.5897 -2.331128249784124 9.074617081805373 3.90242564716865 1 0 0
146 49 1 0.5897 -1.0817884465101866 6.617619857131295 1.9590555414662698 1 0 0
147 49 1 0.5897 -0.7164907359656913 7.43746284190611 0.7399072489199552 1 0 0
332 111 1 0.5897 -2.106742354076803 9.312117853980995 0.9267485081081137 1 0 0
145 49 2 -1.1794 -0.36996405043802083 6.776311277586536 1.3389501589462594 1 0 0
112 38 2 -1.1794 -2.913378748754411 6.549835908588455 2.5433528523702247 1 0 0
291 97 1 0.5897 -3.4057457915601344 10.387705638578264 2.6939627798474985 1 0 0
290 97 1 0.5897 -1.934632331646882 10.744432395899194 2.6688227854719893 1 0 0
188 63 1 0.5897 0.8181327269226801 10.083089900651895 1.2073376447615618 0 0 0
200 67 1 0.5897 0.6547330335140553 7.913639710765064 2.263349513296453 0 0 0
189 63 1 0.5897 1.9360617735695387 10.459638381793782 0.2582475260855384 0 0 0
221 74 1 0.5897 4.3675258414033475 10.634852446077232 2.7382184614529557 0 0 0
187 63 2 -1.1794 0.9832290837662399 10.47323993688254 0.3489952469926102 0 0 0
113 38 1 0.5897 -3.0527181263463845 6.19161489746126 3.419984882186217 1 0 0
199 67 2 -1.1794 1.1931492560440802 8.632611390086101 2.594146907942348 0 0 0
114 38 1 0.5897 -3.0625430301893997 5.809595788590276 1.9550828263729203 1 0 0
220 74 2 -1.1794 3.6567329787086784 10.714485208822792 3.3745058905678267 0 0 0
245 82 1 0.5897 1.0583338916524108 9.480192691820161 4.098630194445793 0 0 0
10 4 2 -1.1794 2.190877834107944 6.454588855863599 4.66192458384424 0 0 0
239 80 1 0.5897 3.9479224460778086 8.714805931827266 1.2544115486321818 0 0 0
240 80 1 0.5897 3.548229127888445 7.254640099552257 1.2614200377273665 0 0 0
694 232 2 -1.1794 3.7481405835379693 10.216791125992113 0.14290898850660713 0 0 1
174 58 1 0.5897 3.763185768150736 9.155608294850014 4.3378561228548245 0 0 0
201 67 1 0.5897 2.0913652454527014 8.375078147013008 2.386326581908845 0 0 0
238 80 2 -1.1794 3.827546879188662 7.96577648580518 1.8380541680711648 0 0 0
9 3 1 0.5897 -0.6198153217580535 6.066843411014497 4.407455821898223 0 0 0
222 74 1 0.5897 2.985912333333947 11.225863897195387 2.922234024499068 0 0 0
331 111 2 -1.1794 -1.7741097956351382 8.792203382805804 0.19502930709807512 1 0 0
696 232 1 0.5897 4.306784525748586 10.991301758867701 0.20858346549138868 0 0 1
244 82 2 -1.1794 0.8312218379931586 10.123188162003736 4.7704303687808585 0 0 0
82 28 2 -1.1794 2.5893808562952954 6.181311825672733 0.19799425568171222 0 0 0
224 75 1 0.5897 -0.15053989029871806 11.207671784569992 3.836249946163067 0 0 0
253 85 2 -1.1794 -2.414699800783894 8.74874543169581 4.798545631428343 1 0 0
191 64 1 0.5897 0.5467226281741819 9.831688024070171 8.951698459631045 0 0 0
8 3 1 0.5897 -0.4609944664090917 6.283019376387829 5.897390138046293 0 0 0
109 37 2 -1.1794 -4.3099703224715125 6.3699732464859204 7.142096316169621 1 0 0
111 37 1 0.5897 -5.23457707921844 6.600849144394659 7.231887041811119 1 0 0
293 98 1 0.5897 -3.990522041192219 10.431725387293405 7.290871585504249 1 0 0
303 101 1 0.5897 -1.577975427843484 11.067968307404996 7.016214130684682 1 0 0
292 98 2 -1.1794 -4.9202737077710825 10.291576837035606 7.470452949595347 1 0 0
172 58 2 -1.1794 3.9735108478327925 8.515499717554807 5.017637521803479 0 0 0
246 82 1 0.5897 0.5971160211216651 9.598211259773901 5.535824099908684 0 0 0
294 98 1 0.5897 -4.933736662193968 9.763366988322629 8.268555192741921 1 0 0
837 279 1 0.5897 -5.94523270113433 8.231935179209184 9.167369005603543 1 0 0
64 22 2 -1.1794 2.0225107843787473 6.7941011803893865 8.034171404698546 0 0 0
110 37 1 0.5897 -4.237385541537856 6.008580670811955 6.258678503113477 1 0 0
202 68 2 -1.1794 0.31868225036445263 8.801895275124222 7.163863781704406 0 0 0
203 68 1 0.5897 -0.5674254207197538 8.446019136798617 7.2308042222947755 0 0 0
204 68 1 0.5897 0.8913123331074764 8.050418304592641 7.31717920733072 0 0 0
588 196 1 0.5897 -1.3739864005709412 6.604351988613784 9.15194419943399 0 0 0
235 79 2 -1.1794 -2.117287855081314 7.816628290081567 8.068020792646331 0 0 0
236 79 1 0.5897 -2.9722221144593597 7.4715348257180425 7.810777649102019 0 0 0
237 79 1 0.5897 -2.317795902737881 8.616083199389653 8.554811942560116 0 0 0
302 101 1 0.5897 -2.1665619099811244 10.000602922363768 6.11833408153665 1 0 0
301 101 2 -1.1794 -2.4108006081985343 10.73403008600825 6.682915860465859 1 0 0
65 22 1 0.5897 2.3183122876982054 7.3870141231809185 8.724959522070371 0 0 0
228 76 1 0.5897 2.0321569007979114 11.177561836186555 5.743094350420948 0 0 0
11 4 1 0.5897 2.4357490805113002 5.77238269236461 5.286981952106456 0 0 0
254 85 1 0.5897 -1.739939917425796 8.073879602063737 4.872198390892947 1 0 0
7 3 2 -1.1794 -0.47087432308999233 6.749537852548087 5.061677110778781 0 0 0
257 86 1 0.5897 -4.189664532649431 8.412557987631782 5.032321082235011 1 0 0
173 58 1 0.5897 3.319843637009682 7.8249426449594255 4.907613615782416 0 0 0
66 22 1 0.5897 2.817528176932796 6.577721630029043 7.546802037400655 0 0 0
692 231 1 0.5897 -1.4452379090571013 10.249824370603937 9.585349228372026 0 0 0
12 4 1 0.5897 1.280023444943109 6.658611709804337 4.87413489117127 0 0 0
663 221 1 0.5897 -6.567300931041189 5.951243461313565 13.768302590530084 1 0 0
794 265 1 0.5897 -5.228304004507144 10.652556662806065 12.304969351244937 1 0 0
617 206 1 0.5897 -7.0843393144985285 7.278059995952201 11.894088548057375 1 0 0
192 64 1 0.5897 0.9100618931019016 10.978753786509255 9.870491936450971 0 0 0
742 248 2 -1.1794 0.5024479979816299 7.843907563209303 11.3110972351078 0 0 0
724 242 2 -1.1794 0.6836961359767537 10.599480921326915 12.968172148656501 0 0 0
616 206 2 -1.1794 -6.394396074320008 6.6406496162840405 12.077944687461644 1 0 0
693 231 1 0.5897 -2.3593048426135055 9.591863153950735 10.59716824749901 0 0 0
649 217 2 -1.1794 -3.9092301272071084 6.989833758050684 11.093160683707858 1 0 0
650 217 1 0.5897 -3.3048170199969418 7.56833767724737 11.558165351966055 1 0 0
651 217 1 0.5897 -4.679576566502417 6.942344044323755 11.659496806272559 1 0 0
795 265 1 0.5897 -5.709039704635423 9.631894798270975 11.295491963842299 1 0 0
744 248 1 0.5897 0.0623745237401252 7.248838119546587 10.704100459269654 0 0 0
793 265 2 -1.1794 -5.815025958079253 9.902540255778383 12.207534214794192 1 0 0
691 231 2 -1.1794 -2.348426408904963 9.959780388422208 9.713598951627201 0 0 0
759 253 1 0.5897 -5.692954504148181 8.75801792827525 13.699049946509389 1 0 0
703 235 2 -1.1794 -2.0750558584290824 8.720858135761269 12.172578980387232 0 0 0
704 235 1 0.5897 -1.1745317298647118 8.408686963401266 12.0838175732209 0 0 0
705 235 1 0.5897 -2.0501807505156027 9.315743136785402 12.922102796398175 0 0 0
743 248 1 0.5897 0.6251118270468616 8.650256639822766 10.810188976983302 0 0 0
678 226 1 0.5897 0.40936855227436997 9.206223867308621 13.988118072707021 0 0 0
836 279 1 0.5897 -4.790085687175739 8.17486293189511 10.144028136357239 1 0 0
750 250 1 0.5897 -3.0804831247164355 10.776297569221063 14.03027910867993 0 0 0
725 242 1 0.5897 1.049264554063691 11.277458360268199 13.536451557359007 0 0 0
513 171 1 0.5897 -4.021971588776452 5.922076583763486 14.287900679806427 0 0 0
618 206 1 0.5897 -6.494267774955755 5.975566127263466 11.396796007141493 1 0 0
586 196 2 -1.1794 -0.7211087572465522 6.104120837337507 9.641398141299659 0 0 0
726 242 1 0.5897 -0.09167999221604006 11.00442996760617 12.579729951385076 0 0 0
190 64 2 -1.1794 0.31670399907260727 10.231920098162826 9.790300342245486 0 0 0
514 172 2 -1.1794 -0.9948443008399286 6.3006536116112155 14.161892153208786 0 0 0
809 270 1 0.5897 -7.440977676471968 10.243534281684296 12.75813369379579 1 0 0
516 172 1 0.5897 -0.5033383215138159 7.114691528803335 14.271530978276697 0 0 0
515 172 1 0.5897 -1.9097625445600936 6.554432525176012 14.283615866414047 0 0 0
835 279 2 -1.1794 -5.364580565372573 8.788464106686146 9.686319538508807 1 0 0
797 266 1 0.5897 -6.9271658898600315 10.723707140457712 16.91280330600525 1 0 0
695 232 1 0.5897 -2.7700128105522364 9.945118162659908 18.449795170703325 0 0 0
741 247 1 0.5897 -5.734112536998589 8.986783912527073 18.26356145587527 0 0 0
613 205 2 -1.1794 -7.3480010581650514 6.388597402700414 17.00467265789659 1 0 0
740 247 1 0.5897 -6.159846360597006 7.748111701694206 17.504358493562705 0 0 0
568 190 2 -1.1794 -1.130196508721954 7.197570521924359 17.78645840072562 0 0 0
333 111 1 0.5897 -8.133317316228055 9.479728409011221 18.75359450880582 1 0 -1
84 28 1 0.5897 -3.8056314002950478 5.699831356299113 18.638045201985342 0 0 -1
758 253 1 0.5897 -5.538262373559533 9.18969207355867 15.141843690515461 1 0 0
615 205 1 0.5897 -7.275270675520231 6.067324277859006 16.10589746418905 1 0 0
569 190 1 0.5897 -1.3084710242353843 6.486513457008335 18.401936478783853 0 0 0
749 250 1 0.5897 -2.7845497005896798 9.865936130649576 15.202968963325961 0 0 0
798 266 1 0.5897 -8.11890977752774 9.875982965490055 16.521664577466602 1 0 0
512 171 1 0.5897 -4.492184899855715 7.257212853534964 14.824835979394665 0 0 0
796 266 2 -1.1794 -7.7973157209028825 10.457834721674436 17.21031882321533 1 0 0
706 236 2 -1.1794 -2.953823165543822 9.156141490469334 16.84041995109866 0 0 0
707 236 1 0.5897 -3.81868957383488 8.813360372791585 17.065931036168983 0 0 0
708 236 1 0.5897 -2.3732620141620986 8.397063382208726 16.894334721622933 0 0 0
739 247 2 -1.1794 -5.389790334524493 8.187269388736052 17.865420779039056 0 0 0
83 28 1 0.5897 -4.529152581456495 6.968498899526508 19.036760066841197 0 0 -1
570 190 1 0.5897 -0.3243219479363004 6.934074619077371 17.342015591542797 0 0 0
805 269 2 -1.1794 -5.430026686506837 10.84734366868498 15.990930162072495 1 0 0
762 254 1 0.5897 -7.635103944349748 8.459709587193489 14.937558738809319 1 0 0
748 250 2 -1.1794 -2.3874066930619007 10.241416781239831 14.41708733281395 0 0 0
676 226 2 -1.1794 0.46088308758900887 8.566295451489655 14.698013174585006 0 0 0
511 171 2 -1.1794 -3.7322563619432065 6.675662732841949 14.802119746353755 0 0 0
757 253 2 -1.1794 -5.807225868447427 8.449400914051743 14.597895917583621 1 0 0
807 269 1 0.5897 -4.701901945420488 11.323723938029273 16.389785175429857 1 0 0
548 183 1 0.5897 -3.715214102184741 5.771559176186824 16.382568057831065 0 0 0
280 94 2 -1.1794 -3.3870975644233488 13.983116526002032 2.5618223330176653 1 0 0
281 94 1 0.5897 -3.4573952503998218 13.554350358594482 3.414705262291004 1 0 0
282 94 1 0.5897 -2.4762253366795237 14.273393783489585 2.513322649722549 1 0 0
500 167 1 0.5897 -1.6337275935702158 15.918243545855946 0.5132847826891485 1 0 0
367 123 2 -1.1794 1.2257762951510802 16.23973646066785 2.6430938828143398 0 0 0
423 141 1 0.5897 -2.1924202590081756 16.76738214355558 3.9736535849681864 1 0 0
313 105 2 -1.1794 -0.842130422622529 14.804369025931914 1.804092467076881 1 0 0
315 105 1 0.5897 -0.5660212991283071 14.079414568575018 1.2432746611376462 1 0 0
180 60 1 0.5897 2.006822553888682 13.807401234898379 4.032006482558012 0 0 0
223 75 2 -1.1794 -0.6453194018995059 11.845075680785165 3.3215217293928183 0 0 0
225 75 1 0.5897 -0.779586439291708 12.582271706882407 3.917190142919692 0 0 0
314 105 1 0.5897 -0.02428715623867239 15.209384572466595 2.0927435611658147 1 0 0
184 62 2 -1.1794 5.349229705554123 12.468929500336483 0.19020755682974344 0 0 0
369 123 1 0.5897 1.1863420519548065 16.517237219862913 3.558360557482742 0 0 0
216 72 1 0.5897 0.9544564541428757 12.431886700921599 2.5611297439512297 0 0 0
368 123 1 0.5897 2.1383948228643543 15.984039349635532 2.5087834354216514 0 0 0
406 136 2 -1.1794 3.716139954017838 15.596613041479907 1.7553237070328809 0 0 0
407 136 1 0.5897 4.536045087436216 15.26262962208918 2.119072585841095 0 0 0
215 72 1 0.5897 2.0230271353418257 13.036208583860777 1.6750043879824121 0 0 0
252 84 1 0.5897 2.976304810452458 14.457312770287865 0.6372168092880343 0 0 0
408 136 1 0.5897 3.9770905378137407 16.35402502102051 1.2314421880949784 0 0 0
214 72 2 -1.1794 1.875735487635592 12.69171800445663 2.555835326452056 0 0 0
269 90 1 0.5897 -3.4193853967757564 12.908188897400827 1.0593857440004277 1 0 0
770 257 1 0.5897 -1.3982382520544474 12.494152148695886 0.06094325418322743 1 0 1
499 167 2 -1.1794 -2.327263676139509 16.40358530555629 0.06664624213487554 1 0 0
771 257 1 0.5897 0.02455779306853545 11.978273347675964 0.09843808351943596 1 0 1
421 141 2 -1.1794 -2.064032071523089 16.307331545440142 4.803103009717904 1 0 0
250 84 2 -1.1794 2.48562515199644 13.782702636161337 0.16778805227747107 0 0 0
404 135 1 0.5897 -1.4441747730867855 15.719854983121634 7.707454863437594 0 0 0
326 109 1 0.5897 -3.1362518345285033 12.001088642603813 5.4185122539519375 1 0 0
340 114 2 -1.1794 3.7539470514580326 16.40690462554719 5.220728856418306 0 0 0
327 109 1 0.5897 -3.9933502159948047 13.231054218538027 5.629345343139365 1 0 0
405 135 1 0.5897 -2.4654408796223013 16.262725694268127 8.684518940347646 0 0 0
211 71 2 -1.1794 -0.23196415738035547 12.292212919550916 7.346243880167354 0 0 0
227 76 1 0.5897 1.519049964357725 12.015516484304062 6.8949488394738925 0 0 0
213 71 1 0.5897 -0.47446718393316 12.85023384395426 6.607410865782351 0 0 0
212 71 1 0.5897 -0.3902592724898084 12.83472912910991 8.11886971754641 0 0 0
462 154 1 0.5897 -4.8761304632478835 16.940680646521677 6.5812609406729745 1 0 0
232 78 2 -1.1794 2.2774483792083533 14.393177595658647 8.264773928904205 0 0 0
175 59 2 -1.1794 -0.6453078136337358 13.912213881515175 5.093001382072942 0 0 0
234 78 1 0.5897 1.7285852561705948 14.947303010912218 7.710044654025414 0 0 0
370 124 2 -1.1794 0.3345461955919622 16.068834519792652 7.158475158019747 0 0 0
179 60 1 0.5897 2.26709680269769 13.418582730267437 5.471701323423468 0 0 0
277 93 2 -1.1794 -4.3806957757583085 13.758831036527445 7.292591527466871 1 0 0
278 93 1 0.5897 -3.734408992716414 14.4450292930875 7.459037435786899 1 0 0
756 252 1 0.5897 -1.3968353699022513 14.283979902643322 9.030712154814653 0 0 0
425 142 1 0.5897 -3.8648529931313855 16.062770192772973 4.833296828484321 1 0 0
403 135 2 -1.1794 -2.2872366088655234 15.516103280714765 8.112582860706974 0 0 0
371 124 1 0.5897 0.4194602587074554 16.79948053058456 7.771028060061002 0 0 0
267 89 1 0.5897 -3.9413752844648027 12.607264372386854 8.686468713202832 1 0 0
279 93 1 0.5897 -5.217362262556982 14.151593421170563 7.541690898740952 1 0 0
690 230 1 0.5897 1.9358497873762595 12.994554605460285 9.41809708985255 0 0 0
226 76 2 -1.1794 2.3091240281228504 11.828702053631865 6.387725289745643 0 0 0
1004 335 1 0.5897 -5.068521429577562 16.67917254093709 9.120724892216286 1 0 0
233 78 1 0.5897 3.0814648821089525 14.269791513920895 7.760062864310363 0 0 0
372 124 1 0.5897 0.4775426129415896 16.460220399859217 6.296737129022581 0 0 0
177 59 1 0.5897 0.28583736028867923 14.118350664605352 5.175120451076665 0 0 0
325 109 2 -1.1794 -3.622934116899062 12.674854704946402 4.943925296815953 1 0 0
341 114 1 0.5897 3.20494963980099 15.631362396096575 5.104999977252518 0 0 0
176 59 1 0.5897 -1.0757162790307948 14.765192287216593 5.035216490673283 0 0 0
266 89 1 0.5897 -3.362715160364446 11.455028700517882 9.47955020198701 1 0 0
178 60 2 -1.1794 2.099154123573724 14.175662971437456 4.910706809681394 0 0 0
265 89 2 -1.1794 -3.811135208066165 12.294497483397821 9.581650000809386 1 0 0
754 252 2 -1.1794 -0.8228973653993372 13.727894283331546 9.557398440328747 0 0 0
688 230 2 -1.1794 2.0753068918256474 12.335637841134213 10.098151745066273 0 0 0
728 243 1 0.5897 -3.072652249872294 11.942485786373744 12.33211969201642 0 0 0
755 252 1 0.5897 -0.3579895787034064 14.337535127233899 10.130467925075568 0 0 0
718 240 2 -1.1794 -1.3107204908247603 12.204297753587856 12.009201288182647 0 0 0
912 304 1 0.5897 1.1493028078255962 15.234920020257576 11.582797173763518 0 0 0
720 240 1 0.5897 -1.109822861923817 12.92423113930044 12.607193579426706 0 0 0
872 291 1 0.5897 -1.991839483870618 16.951790525644512 11.483991411037437 0 0 0
871 291 2 -1.1794 -1.8310708632418127 16.36764167789488 12.224944637001284 0 0 0
831 277 1 0.5897 -7.346841129668062 12.059066487743104 13.963017573394007 1 0 0
784 262 2 -1.1794 -6.2440584196608775 13.90063471224014 11.938346707737981 1 0 0
729 243 1 0.5897 -4.03082830654926 12.622256358818937 13.28717202321202 0 0 0
911 304 1 0.5897 -0.17719152508982727 15.964169925374753 11.603696175956943 0 0 0
910 304 2 -1.1794 0.5107704435087106 15.660926863010923 11.011113991170458 0 0 0
1005 335 1 0.5897 -4.773941227110457 15.719566220328776 10.253804455513059 1 0 0
727 243 2 -1.1794 -3.9050856303333443 11.815546109222836 12.787469879374749 0 0 0
719 240 1 0.5897 -1.218244727854862 12.584856175789092 11.135808109509076 0 0 0
786 262 1 0.5897 -6.400422379953291 13.527408081959008 12.805805685414356 1 0 0
817 273 2 -1.1794 -3.6996670176327884 14.558520906047072 11.239692864921492 1 0 0
818 273 1 0.5897 -4.534397204628137 14.360418757702181 11.664407095115351 1 0 0
819 273 1 0.5897 -3.536391056948746 13.807437302399189 10.669144750841854 1 0 0
873 291 1 0.5897 -2.4030199103638408 15.616528731508206 12.066964627349249 0 0 0
680 227 1 0.5897 -2.867485322819306 14.256904682552367 14.321412004818821 0 0 0
785 262 1 0.5897 -6.916489689158341 14.575056998039427 11.842703068741377 1 0 0
773 258 1 0.5897 -6.520234535460858 12.614520648019957 10.712912720333371 1 0 0
774 258 1 0.5897 -5.648620783866537 11.93668167158478 9.676991224364869 1 0 0
682 228 2 -1.1794 -1.0959880546813343 14.075723904298323 14.019812816397604 0 0 0
1003 335 2 -1.1794 -5.441897461081773 16.321850579882117 9.926463095638159 1 0 0
925 309 2 -1.1794 -5.751686028886914 15.976354603638226 14.109131598973631 1 0 0
846 282 1 0.5897 0.3917841293341011 16.901761988980958 14.19343640899416 0 0 0
829 277 2 -1.1794 -6.748248037107495 12.687322208010608 14.366996713704237 1 0 0
684 228 1 0.5897 -0.5339517993453065 14.829004207773606 14.20130578154464 0 0 0
926 309 1 0.5897 -5.104064770970891 15.28139660930256 14.226472368779058 1 0 0
844 282 2 -1.1794 0.6051227729227264 16.17301039467356 14.776078632847947 0 0 0
683 228 1 0.5897 -0.9718134116729624 13.496868483148363 14.771885877748556 0 0 0
717 239 1 0.5897 -2.7039253400183005 12.596840799625337 16.772483121300198 0 0 0
783 261 1 0.5897 -8.444391604513854 14.17787760039499 16.80139612389187 1 0 0
806 269 1 0.5897 -5.7704045198245915 11.443792051668526 15.324266928919315 1 0 0
681 227 1 0.5897 -3.7969080518342713 13.675972737305036 15.365876847710366 0 0 0
830 277 1 0.5897 -7.2145652644761755 12.998182427904892 15.143087357295794 1 0 0
738 246 1 0.5897 -0.5052329265278042 14.156846346370656 17.243288547792723 0 0 0
715 239 2 -1.1794 -3.649384230657394 12.719263441570973 16.858488571485566 0 0 0
716 239 1 0.5897 -3.7671852822099314 13.065866229798216 17.74297010306374 0 0 0
874 292 2 -1.1794 -3.104135255439883 16.462362833803446 17.01167050755783 0 0 0
907 303 2 -1.1794 -5.66769971165865 15.644790333127075 17.867019619009184 0 0 0
875 292 1 0.5897 -3.026495514887114 16.64100480245657 16.07450531617976 0 0 0
876 292 1 0.5897 -2.5511323092534406 15.694604708502485 17.156070572891373 0 0 0
736 246 2 -1.1794 -1.2529815377140352 14.584978249419917 17.660350657387134 0 0 0
909 303 1 0.5897 -4.889444301703789 15.840236063957118 17.344982686602854 0 0 0
781 261 2 -1.1794 -7.557778130910216 13.840802010848716 16.67263298400028 1 0 0
782 261 1 0.5897 -7.345454421348212 13.403363806336408 17.49704753594819 1 0 0
730 244 2 -1.1794 -1.05160541098628 12.025004258750048 15.84461728200493 0 0 0
908 303 1 0.5897 -6.240087125141267 15.160170482808173 17.272292358319802 0 0 0
251 84 1 0.5897 -4.825757701781096 14.306244383496239 18.883914663123065 0 0 -1
185 62 1 0.5897 -1.4199719053953759 13.290255611901651 18.854964710269392 0 0 -1
737 246 1 0.5897 -0.8628007281411021 15.174702361562526 18.305488657663 0 0 0