LAMMPS data file via write_data, version 30 Jul 2021, timestep = 18750000

864 atoms
2 atom types
576 bonds
1 bond types
288 angles
1 angle types

0.5041561788327336 17.703416221167373 xlo xhi
1.68536065512518 21.943817144878103 ylo yhi
0.6150693606019892 21.59812643939103 zlo zhi

Masses

1 1.00794
2 15.9994

Pair Coeffs # lj/cut/tip4p/long/omp

1 0 0
2 0.21084 3.1668

Bond Coeffs # harmonic/omp

1 450 0.9572

Angle Coeffs # harmonic/omp

1 55 104.52

Atoms # full

129 1 1 0.5897 0.8489138109988228 3.6720951682028975 4.462946807788082 -3 1 -9
502 1 2 -1.1794 0.8255771271389517 1.9613098569215013 2.1598647957781623 -1 1 5
449 1 1 0.5897 7.799689608137277 4.436077913444516 2.359050393543895 7 0 -5
504 1 1 0.5897 1.1511072510375802 2.691054264937748 1.6327872786048383 -1 1 5
448 1 2 -1.1794 7.135839924996585 4.074003172786089 1.7720912067198722 7 0 -5
218 1 1 0.5897 3.777693776388533 2.3616588497054214 3.6343817407246024 4 -2 2
509 1 1 0.5897 9.008186145450006 4.269371492629834 4.364699927140222 2 0 6
127 1 2 -1.1794 0.6513969132316948 2.7612487181737393 4.68123302664089 -3 1 -9
472 1 2 -1.1794 3.224017638048327 2.3380098439454846 5.581287260682623 3 0 -5
278 1 1 0.5897 4.574377605527865 5.0815933068718255 4.039565208573498 3 -2 0
238 1 2 -1.1794 1.1923378678438146 5.3479821614031735 3.803440528370083 -8 -4 0
807 1 1 0.5897 7.0220261230459755 2.1237809823617946 2.268085025182584 4 -4 -4
111 1 1 0.5897 3.574335655837179 2.1585095364429954 1.0951397144197244 -1 3 -14
262 1 2 -1.1794 6.734387293195912 2.1949232570997674 5.0591322645638215 2 -1 1
277 1 2 -1.1794 4.304853153600437 5.404445132158992 3.179664983823009 3 -2 0
240 1 1 0.5897 2.0375320272800472 5.64035585836103 3.4621592495558566 -8 -4 0
217 1 2 -1.1794 4.038429068973707 2.5753571492207668 2.738435500160698 4 -2 2
503 1 1 0.5897 0.6728209921588928 2.3399693509935977 3.0256485386960574 -1 1 5
219 1 1 0.5897 4.308143326417979 3.4929064780005095 2.779369562173944 4 -2 2
80 1 1 0.5897 1.7697691605330101 5.078256129148501 0.623719668279306 7 4 -3
340 1 2 -1.1794 7.331838206366793 6.553409327423494 5.459932337996383 2 5 3
450 1 1 0.5897 7.576505281610532 4.004488912532189 0.9251555952601119 7 0 -5
264 1 1 0.5897 6.705952819952976 2.018458217218864 4.118721479221653 2 -1 1
715 1 2 -1.1794 5.240680411662843 4.575069320164067 5.486624319605003 -1 -9 -1
128 1 1 0.5897 1.4777460731139354 2.4091167841830847 5.012067581693317 -3 1 -9
508 1 2 -1.1794 9.063364013309869 4.940444058295352 3.684309478006065 2 0 6
717 1 1 0.5897 5.781498312343986 3.7907751554056865 5.393292345052905 -1 -9 -1
342 1 1 0.5897 6.664832674543513 5.992620185652699 5.8560788138028235 2 5 3
79 1 2 -1.1794 1.2511169009949854 4.40251474143348 1.0603880424255254 7 4 -3
576 1 1 0.5897 5.737710852205292 5.030657011939533 0.696412765651267 1 6 1
510 1 1 0.5897 8.738815191076183 5.736443461844789 4.105449937444237 2 0 6
279 1 1 0.5897 5.0833477625838706 5.839495089863003 2.8318284391512365 3 -2 0
81 1 1 0.5897 0.5184537881793704 4.877998994697466 1.4520727253280699 7 4 -3
444 1 1 0.5897 8.397411236328226 2.6575909195171334 5.704118967943171 3 0 0
435 1 1 0.5897 2.060340868815876 5.384180087473386 5.572014344492943 0 4 -5
239 1 1 0.5897 0.5819207530700474 6.044559899969636 3.561627166882974 -8 -4 0
596 1 1 0.5897 6.148548545212437 4.004534221039073 8.234144321836663 7 -5 5
433 1 2 -1.1794 2.4105242524414585 5.040578138472874 6.393968292111223 0 4 -5
716 1 1 0.5897 5.140199619562898 4.686193111941981 6.432066720212129 -1 -9 -1
597 1 1 0.5897 4.699949132453042 4.123577802140003 8.657877025640497 6 -5 5
256 1 2 -1.1794 1.2135455795434837 3.287118787174888 10.505891542485 6 0 3
787 1 2 -1.1794 7.768310315476229 1.7494513061659114 11.033174980322395 5 -2 4
614 1 1 0.5897 7.601656012253094 1.9779473831049161 7.921876973212786 -9 5 5
613 1 2 -1.1794 7.414984482017645 2.828409499191852 8.319594537910454 -9 5 6
748 1 2 -1.1794 3.2819930109744986 2.503837048676002 8.986652049625102 -2 6 0
761 1 1 0.5897 0.8316663732488685 4.781840281813136 7.3394676023795 0 3 1
474 1 1 0.5897 3.8791480367648092 1.9778374490293955 6.179101709854475 3 0 -5
434 1 1 0.5897 2.875097938082522 5.780612021009758 6.784892937629015 0 4 -5
595 1 2 -1.1794 5.410921053881162 4.6145328789562665 8.245752761869412 6 -5 5
615 1 1 0.5897 7.953453009659896 2.8467021072382086 9.110809703143481 -9 5 6
755 1 1 0.5897 7.801217194340671 5.94711830304649 9.15446543949432 -8 -5 -5
29 1 1 0.5897 4.018010502487311 6.183621350427294 9.22920195566855 -7 6 7
257 1 1 0.5897 1.8428834760069395 3.123593848826146 9.803397167374023 6 0 3
754 1 2 -1.1794 7.206176045909547 6.07748588080147 9.892868379724217 -8 -5 -5
750 1 1 0.5897 3.961142542206386 2.314756362535399 9.634187201571327 -2 6 0
443 1 1 0.5897 8.807996175507284 3.886670689574156 6.486959689682779 3 0 0
756 1 1 0.5897 6.398047273826981 5.63651205269181 9.630616127722105 -8 -5 -5
379 1 2 -1.1794 1.2120881194950086 6.022623687600421 10.799014290718628 3 -2 -1
28 1 2 -1.1794 3.9102650194619195 6.3385465652967214 10.167657248388688 -7 6 7
380 1 1 0.5897 2.1468812400816493 6.046911090290543 10.594308233832534 3 -2 -1
381 1 1 0.5897 0.9378069697622727 5.1362469436854425 10.563606186928592 3 -2 -1
473 1 1 0.5897 3.0509608198170226 3.2177212491160643 5.916654418657413 3 0 -5
388 1 2 -1.1794 8.855357743579894 5.721824219712401 7.725391722747692 1 5 8
389 1 1 0.5897 8.513144198014148 5.957659348098648 6.863085132287687 1 5 7
288 1 1 0.5897 4.126109351291994 3.5149718387898083 16.03756122771447 3 1 1
372 1 1 0.5897 6.688788350217836 5.650121207639901 15.014494564314623 7 4 -4
747 1 1 0.5897 7.2942272885773605 2.891803430554308 13.494557073026504 0 6 -8
665 1 1 0.5897 1.7887636319604299 3.916355667664234 15.025205021517499 2 2 6
666 1 1 0.5897 1.8022378748193597 3.1589403737808546 16.336017654028797 2 2 6
641 1 1 0.5897 3.289905619413062 2.2444228841568927 13.647267830932318 -1 6 -3
731 1 1 0.5897 8.363368991901936 3.8112206254594065 16.227877006565958 -1 -1 -8
287 1 1 0.5897 5.433148748343977 3.7751994184573134 15.31920003985002 3 1 1
286 1 2 -1.1794 5.071023537670494 3.5688059343255336 16.180934890467324 3 1 1
835 1 2 -1.1794 4.7848785481620855 3.8324578741028317 11.344665760945075 1 2 -5
522 1 1 0.5897 1.258291143091463 4.971383676120372 13.154666128482315 -6 -5 -3
745 1 2 -1.1794 7.0259124215708155 3.646870582345383 12.970917638194502 0 6 -8
423 1 1 0.5897 4.195052080997083 6.061515921009586 13.713371833170262 -1 2 4
258 1 1 0.5897 1.4963574491063931 2.715099854050451 11.219431455543889 6 0 3
746 1 1 0.5897 7.844066454833644 4.099242203453661 12.765258924579697 0 6 -8
664 1 2 -1.1794 2.3736920588548185 3.458302902673766 15.628818746276517 2 2 6
642 1 1 0.5897 3.842425059858193 2.765449927566941 12.337541028610415 -1 6 -3
836 1 1 0.5897 5.563435749719244 4.007996874962393 11.873232799186031 1 2 -5
712 1 2 -1.1794 2.2285696730858318 6.625651964879048 15.833549986703375 2 1 2
370 1 2 -1.1794 5.991590015381075 6.098888964308691 14.536088647352239 7 4 -4
713 1 1 0.5897 2.664976978806283 6.3188707395798485 15.038732942375542 2 1 2
788 1 1 0.5897 7.31104850417171 2.450547881900498 11.497584095480471 5 -2 4
421 1 2 -1.1794 3.294773665519842 6.019168205404573 13.390874100488514 -1 2 4
640 1 2 -1.1794 3.25597340237756 2.102063998576366 12.70126096862391 -1 6 -3
520 1 2 -1.1794 0.6496128267225492 4.348581745920297 13.552067860314532 -6 -5 -3
732 1 1 0.5897 9.084287192941296 5.098361853732472 15.887789883462041 -1 -1 -8
371 1 1 0.5897 6.448660543641656 6.603679215482764 13.863291937237337 7 4 -4
730 1 2 -1.1794 8.218203747781555 4.690739706534156 15.879020141163801 -1 -1 -8
837 1 1 0.5897 4.381235257508671 4.691332135662686 11.219353025911232 1 2 -5
687 1 1 0.5897 0.5770498998423698 6.739068651486533 15.162031294781592 6 -9 -9
693 1 1 0.5897 2.509338740457684 5.878192414832016 17.639497177906517 2 -1 1
551 1 1 0.5897 5.193508792434583 4.415030078435919 17.808682960879793 1 3 -5
740 1 1 0.5897 7.3495798909294665 2.4089328503988505 20.279577904928818 4 2 2
425 1 1 0.5897 1.5324509113951812 2.275581126570327 18.75019093249532 14 -1 0
691 1 2 -1.1794 2.388515463068594 5.574371123242805 18.539168162237903 2 -1 1
741 1 1 0.5897 8.312339886292314 3.4807394140840575 19.81440220375786 4 2 2
426 1 1 0.5897 2.7039543273270756 2.6043666690656284 19.651057955939955 14 -2 0
109 1 2 -1.1794 3.4891917533711063 2.061566187080808 21.129695250862476 -1 3 -15
739 1 2 -1.1794 8.191588581978534 2.8129608700493955 20.489531258411212 4 2 2
773 1 1 0.5897 5.795391035066947 6.51478070918083 17.44981765669404 2 1 3
574 1 2 -1.1794 5.404059532767349 5.759208459489445 21.155840225324802 1 6 0
692 1 1 0.5897 2.259160830089582 4.629387266980999 18.458024543008555 2 -1 1
550 1 2 -1.1794 5.113672278533629 4.953356977056207 18.596179750015626 1 3 -5
110 1 1 0.5897 4.389202436553553 2.0836691624326775 20.804435012468964 -1 3 -15
424 1 2 -1.1794 2.4087255189234646 2.660787634515777 18.7422331537542 14 -1 0
189 1 1 0.5897 5.594108587979277 1.7632167316889051 16.71405839952362 -1 4 6
166 1 2 -1.1794 2.83723105529702 6.214178174415966 21.109992360454015 1 0 3
552 1 1 0.5897 4.186775755518692 5.189732655969577 18.632359496644188 1 3 -5
575 1 1 0.5897 5.6397656617920235 5.535372637392866 20.255485898256243 1 6 0
229 1 2 -1.1794 8.267858019890237 4.772124651738271 18.68797268833286 -1 -1 1
676 1 2 -1.1794 8.721001792750364 2.1123855454133276 16.96684587409476 11 6 -2
231 1 1 0.5897 8.001790386579357 4.826403563721749 17.77006083866563 -1 -1 1
230 1 1 0.5897 8.636644984220409 5.633825563692289 18.882306049798608 -1 -1 1
168 1 1 0.5897 2.7399250225119918 6.204523600402299 20.15776270990819 1 0 3
167 1 1 0.5897 3.7707336962965305 6.06202194067665 21.257399608185427 1 0 3
677 1 1 0.5897 7.807669887376904 1.874261978011507 16.80734406324292 11 6 -2
707 1 1 0.5897 5.0950861676854835 9.98846614748963 5.335113884276113 -4 -1 -6
460 1 2 -1.1794 1.759232055235416 9.367977250388318 3.598733639535496 -3 2 -5
461 1 1 0.5897 2.3662930444620853 8.79927607967587 4.0724022433599405 -3 2 -5
125 1 1 0.5897 3.6976230288527394 7.729103650923277 5.600678456973776 4 -3 5
462 1 1 0.5897 2.2469688544517816 9.647169527116468 2.82383905762782 -3 2 -5
779 1 1 0.5897 5.379712365329825 9.87881538848662 1.9880923702255313 -2 2 2
766 1 2 -1.1794 8.700717363345618 11.409809688108723 3.8272368324661388 0 1 9
780 1 1 0.5897 4.717094798515587 10.779406624012994 3.0088510483670508 -2 2 2
154 1 2 -1.1794 2.90941400780866 10.012961513035501 1.0328703289423087 5 4 -5
778 1 2 -1.1794 5.5199028268321415 10.284988910531153 2.8434707690024044 -2 2 2
811 1 2 -1.1794 6.67263897792079 7.386038198954682 2.8014090687202717 -5 9 2
768 1 1 0.5897 8.304987829836197 10.738598257419266 4.3832703789461505 0 1 9
124 1 2 -1.1794 3.8742895480032513 8.164973923810708 4.766930764998295 4 -3 5
812 1 1 0.5897 7.45354791138554 7.388193756780661 2.2478088237982643 -5 9 2
178 1 2 -1.1794 8.17469031543532 9.346535065236331 5.787529775929453 -13 2 -4
126 1 1 0.5897 4.300323474866778 7.495441792134264 4.231628324379884 4 -3 5
813 1 1 0.5897 6.380641558652159 8.297637201984802 2.8080431488376854 -5 9 2
341 1 1 0.5897 6.937876336551607 6.852786260429538 4.640502574666321 2 5 3
848 1 1 0.5897 2.859572120895916 11.738750526796581 3.9820586149106236 4 2 2
181 1 2 -1.1794 9.033525047166583 7.555134277291569 1.4189961284421964 -6 3 -3
156 1 1 0.5897 3.501494704329772 9.284300697338512 0.8463495686451236 5 4 -5
318 1 1 0.5897 8.960608469492596 10.423475153045748 0.9627316339116962 -2 -2 -1
266 1 1 0.5897 4.716227110721204 7.618399612019374 7.575049666315814 -6 0 1
546 1 1 0.5897 1.4538548676065006 9.610056953827456 7.987351720909169 -4 7 5
629 1 1 0.5897 5.8071324703112035 10.13723856751734 10.48268392829473 -2 -2 3
403 1 2 -1.1794 3.879391388965632 11.353951060763015 8.210677961472262 9 -3 -4
116 1 1 0.5897 6.515317989382638 8.92185089881521 8.793304535107776 -8 2 3
117 1 1 0.5897 6.814879683826042 7.437831056380379 8.796270817104727 -8 2 3
628 1 2 -1.1794 6.0435638696845855 10.718348275721509 9.759664592228432 -2 -2 3
377 1 1 0.5897 8.43776000959974 8.280281891588922 8.40855320057053 7 8 -1
338 1 1 0.5897 1.7537190034444325 9.997449030245136 9.910245137454643 -4 -3 -2
404 1 1 0.5897 4.577810637638357 11.195848331348389 8.845917436152963 9 -3 -4
115 1 2 -1.1794 6.556287371321831 8.156725093580931 8.219536616793224 -8 2 3
30 1 1 0.5897 4.220715452719714 7.234294356077565 10.300223274563892 -7 6 7
267 1 1 0.5897 3.2713294868780327 7.981333748140893 7.84467123634879 -6 0 1
265 1 2 -1.1794 3.819516000643919 7.321467258329741 7.419931573172586 -6 0 1
545 1 1 0.5897 2.895389610765122 9.936066077833795 8.315631818230383 -4 7 5
405 1 1 0.5897 4.289724896349924 11.20019777213631 7.359613503960341 9 -3 -4
544 1 2 -1.1794 2.2275964512915287 9.259642646184828 8.428784591410547 -4 7 5
337 1 2 -1.1794 1.7546573936241996 10.571448903984162 10.676302873694414 -4 -3 -2
630 1 1 0.5897 6.495596663027542 11.450875746765488 10.178494669863808 -2 -2 3
708 1 1 0.5897 6.260060567749175 9.923213794399361 6.299811786815233 -4 -1 -6
378 1 1 0.5897 8.925372747309494 9.046418968872892 9.619888468786916 7 8 -1
706 1 2 -1.1794 5.500567806329981 10.456479516709459 6.065081168163383 -4 -1 -6
179 1 1 0.5897 7.81691021945092 8.469692955832272 5.926972732650597 -13 2 -4
413 1 1 0.5897 1.7142258709296052 11.73564964707895 6.557628545698075 3 1 4
797 1 1 0.5897 4.20396158292051 9.014519356178969 11.833222548917892 -1 -3 -4
135 1 1 0.5897 1.0619691547585706 11.440326061583987 12.23106813940568 -1 -8 0
796 1 2 -1.1794 4.988319083290385 8.740301144667963 11.35793538785802 -1 -3 -4
659 1 1 0.5897 8.182268053418658 10.887257566870758 15.47567045619932 -2 1 -1
658 1 2 -1.1794 8.048544551570995 9.940654100122995 15.524290367953451 -2 1 -1
391 1 2 -1.1794 7.193793945958566 7.383540988022336 12.434958111953485 5 -8 -4
3 1 1 0.5897 5.528479818580036 10.191783765567791 13.724534765239074 3 -10 5
339 1 1 0.5897 2.1375477056560825 10.03972202706406 11.374145057931973 -4 -3 -2
680 1 1 0.5897 8.430310848904192 10.539015890967262 11.588463496309219 5 -4 -4
714 1 1 0.5897 2.3704240134462307 7.572315614407299 15.835086140261767 2 1 2
609 1 1 0.5897 3.9953685798704472 9.0726140141993 15.117384690352639 5 -1 6
2 1 1 0.5897 6.479598368074518 9.33356903281003 14.531391025216081 3 -10 5
608 1 1 0.5897 3.1468587109436426 10.035622563169303 15.920317932326094 5 -1 6
393 1 1 0.5897 7.867609043364085 8.063032240962666 12.411085478912648 5 -8 -4
31 1 2 -1.1794 2.5285792856548115 8.636355819173094 12.799536099912839 2 7 3
1 1 2 -1.1794 5.599866272419169 9.339295882060785 14.15404607045178 3 -10 5
679 1 2 -1.1794 8.728577126957209 9.653284529286214 11.381506704631846 5 -4 -4
33 1 1 0.5897 2.6784069771932844 9.009215794163254 13.668342484087281 2 7 3
607 1 2 -1.1794 3.0960376014133772 9.230813930158057 15.404568806712943 5 -1 6
798 1 1 0.5897 5.598942453949163 8.464318748222873 12.041510881959079 -1 -3 -4
32 1 1 0.5897 1.6196722346731673 8.336745332823945 12.820441990387867 2 7 3
774 1 1 0.5897 5.747092765312213 6.970550859698494 16.006903896706504 2 1 3
392 1 1 0.5897 7.370700618489963 6.842975111520007 11.665021893601061 5 -8 -4
422 1 1 0.5897 3.1589512445315555 6.856693289221183 12.947702222900421 -1 2 4
711 1 1 0.5897 2.463684061300669 10.912708993883674 17.90556223316974 1 1 2
589 1 2 -1.1794 1.577242491599233 9.050518179002836 18.156401856376196 8 2 3
366 1 1 0.5897 3.3995857722204175 8.95185379542096 18.473671495995763 6 4 7
364 1 2 -1.1794 4.355900697892123 8.950739051327131 18.515915900114823 6 4 7
859 1 2 -1.1794 5.395815831717851 8.828957009074374 21.19210224050296 -4 -1 8
365 1 1 0.5897 4.627137505641453 8.377398200903748 17.798958434302914 6 4 7
590 1 1 0.5897 1.2352808516869158 9.398889404200528 18.97980742596715 8 2 3
772 1 2 -1.1794 5.769367271854435 7.3013556716467995 16.90489360180857 2 1 3
860 1 1 0.5897 5.125278165148424 8.774279129960153 20.275517451073377 -4 -1 8
10 1 2 -1.1794 7.624454330547377 9.087407738918657 18.122109068821484 -4 -3 2
46 1 2 -1.1794 5.661506212786904 11.493972919692252 18.536232406146997 4 -3 2
47 1 1 0.5897 5.244183834796958 10.638843589150499 18.431799499381405 4 -3 2
438 1 1 0.5897 6.775839375425996 10.29807195905313 20.74040198099045 -6 2 -2
11 1 1 0.5897 7.0880860448219565 8.407800255074461 17.713763329241186 -4 -3 2
709 1 2 -1.1794 2.540026818104295 11.538270632712845 17.185027715488154 1 1 2
12 1 1 0.5897 8.437117165835524 8.641048925295372 18.360117841270867 -4 -3 2
861 1 1 0.5897 5.744485654688199 7.960099664318058 21.391662430107512 -4 -1 8
436 1 2 -1.1794 7.69899738126264 10.36344420822592 20.495830676707826 -6 2 -2
270 1 1 0.5897 1.304081612372681 9.749466219229722 21.13016179542279 -1 1 1
437 1 1 0.5897 7.7890072942612285 9.781963952836808 19.74079294101909 -6 2 -2
710 1 1 0.5897 1.7095849620898154 11.465011953579564 16.714606616247035 1 1 2
155 1 1 0.5897 3.1740055428056086 10.69987574319685 21.40400317721941 5 4 -6
660 1 1 0.5897 7.94985057438145 9.759916204440605 16.459125517708124 -2 1 -1
591 1 1 0.5897 0.7989773607542929 8.783996480069352 17.666946289367807 8 2 3
695 1 1 0.5897 0.7888865592319897 16.522097357995534 5.581665974954873 0 -4 -2
763 1 2 -1.1794 1.4854818946950974 13.775754658659443 2.2406875109424025 -8 -1 -3
849 1 1 0.5897 2.7159724192498818 12.634162444032048 2.7697531081960176 4 2 2
568 1 2 -1.1794 6.548218313107064 13.158723094339305 2.744798129474418 5 4 1
764 1 1 0.5897 1.868335696144932 14.402443301385807 1.6266883909426735 -8 -1 -3
44 1 1 0.5897 8.12931130576273 15.773089444808964 4.086626958078497 -3 6 0
553 1 2 -1.1794 2.4678496303631285 16.350178457622434 4.445347406134163 -6 -7 4
45 1 1 0.5897 7.915601903972723 14.461202548130144 4.811432025254115 -3 6 0
164 1 1 0.5897 4.787256191480506 14.916107204484554 3.7166368402620997 -9 2 -1
8 1 1 0.5897 5.905394128875306 13.488896554337618 5.197664322979848 8 5 3
58 1 2 -1.1794 5.181244498343592 16.12662778223378 2.2793956496704295 8 3 0
9 1 1 0.5897 6.565554776923552 12.253886883306874 5.772996552871457 8 5 3
847 1 2 -1.1794 3.331178592406835 12.04598831901973 3.207791925064199 4 2 2
163 1 2 -1.1794 4.462131235474242 14.311512733941978 4.383766413990616 -9 2 -1
554 1 1 0.5897 3.0068276706111874 15.562841777591089 4.522166829910751 -6 -7 4
765 1 1 0.5897 1.0110786880891527 13.155998490362448 1.6864734389436749 -8 -1 -3
60 1 1 0.5897 4.4723170197448585 16.758168869208713 2.1574099999279834 8 3 0
59 1 1 0.5897 5.043031661535673 15.474951769892174 1.5919937062842553 8 3 0
43 1 2 -1.1794 8.596581908851949 15.005142580035406 4.415589084323756 -3 6 0
165 1 1 0.5897 4.061522373815675 13.598343229859514 3.886573534150341 -9 2 -1
570 1 1 0.5897 5.808270787529659 12.62186733403666 2.460940259280912 5 4 1
63 1 1 0.5897 7.684085535679363 13.773261764229812 1.2281806452276305 -1 1 4
569 1 1 0.5897 7.19373720070374 12.528109018716435 3.064067124242381 5 4 1
158 1 1 0.5897 6.7744024602279485 16.85034581651267 2.8145741873258854 3 3 -1
7 1 2 -1.1794 6.556088678542618 13.208630919441232 5.841364159176307 8 5 3
598 1 2 -1.1794 7.9392584982726655 16.359017588112863 8.043612958639105 2 -3 -3
207 1 1 0.5897 4.895269584019889 15.112420994696908 10.167539716062842 -6 6 -3
600 1 1 0.5897 7.805861831943676 16.692335175294758 8.930971134966473 2 -3 -3
206 1 1 0.5897 4.588332133276028 13.642402521528588 10.359647543071723 -6 6 -3
494 1 1 0.5897 6.555779594731026 13.889113931141766 8.832176592936785 4 -1 0
493 1 2 -1.1794 7.41265045747094 13.729008697797745 8.436610201839741 4 -1 0
205 1 2 -1.1794 5.097077703516733 14.244849496686648 9.816932729862701 -6 6 -3
412 1 2 -1.1794 2.059142532127697 12.306104703896132 5.870663188200724 3 1 4
414 1 1 0.5897 2.664634315433674 12.891146829748974 6.3260901612674525 3 1 4
123 1 1 0.5897 4.389286546518094 14.115933708581593 7.909335093176336 2 -4 1
121 1 2 -1.1794 3.8123017266274397 14.219806720860763 7.152618371062145 2 -4 1
122 1 1 0.5897 4.3538926356430565 14.658266583542161 6.496271463255421 2 -4 1
84 1 1 0.5897 2.039395106200641 12.730836612666728 8.738510720912583 -6 1 -6
82 1 2 -1.1794 1.3260597001440644 13.25382606589418 9.104483782149082 -6 1 -6
501 1 1 0.5897 2.4927116718681974 15.374848025156995 8.144005241258242 1 -5 -2
495 1 1 0.5897 7.2191952239238955 13.512106687158429 7.524558365064857 4 -1 0
792 1 1 0.5897 2.009703920492271 15.597317569281923 10.638844701414005 4 2 3
83 1 1 0.5897 1.755948137973623 14.03364047101731 9.455748543948838 -6 1 -6
599 1 1 0.5897 7.809140463683699 15.413752244855242 8.120219737798358 2 -3 -3
499 1 2 -1.1794 2.042694515319356 15.955704708072542 8.757526569502671 1 -5 -2
246 1 1 0.5897 6.568251839730846 16.627801627540535 6.754044969509579 -6 4 2
53 1 1 0.5897 8.636367852075935 12.23872961731869 8.98745929032421 -1 0 -1
817 1 2 -1.1794 4.50861564387658 16.70736164086142 11.017620945619129 -2 -3 1
500 1 1 0.5897 1.2730577843121398 16.261810337256737 8.277665426566415 1 -5 -2
41 1 1 0.5897 2.848102780107346 11.968969234306915 11.094883148428769 -4 0 4
20 1 1 0.5897 7.5230405949321915 16.133687888309876 11.002267305295922 -2 -5 2
775 1 2 -1.1794 8.147189786424804 12.661764861608225 15.281507535453967 -2 -7 -1
202 1 2 -1.1794 5.457099998023585 11.875559709053084 13.21632483187317 -1 3 1
662 1 1 0.5897 2.1283050471932623 13.334892947086407 14.27008074272732 -7 -6 1
71 1 1 0.5897 5.403625769539506 14.775220430417422 13.449506113990125 15 -4 0
862 1 2 -1.1794 7.206676858462881 14.808663790866278 13.764951220300103 4 2 -1
70 1 2 -1.1794 4.5595223649817465 15.199438898373455 13.295135571815102 15 -4 0
524 1 1 0.5897 5.4598184011055215 13.326829377650967 15.946725115005554 -2 2 4
190 1 2 -1.1794 8.857936154836413 14.807409199566132 11.407374783330972 2 3 -6
661 1 2 -1.1794 2.76294165274857 13.752914534382336 14.852156505379686 -7 -6 1
791 1 1 0.5897 1.5904262234112831 15.42977692332249 12.083915794208012 4 2 3
204 1 1 0.5897 4.64175342297029 12.183571299645314 12.820539232729676 -1 3 1
203 1 1 0.5897 5.361999321470383 12.074815674211518 14.147748562473277 -1 3 1
40 1 2 -1.1794 3.5376587769277217 12.56719108772763 11.382977062139307 -4 0 4
864 1 1 0.5897 7.245701833032711 15.56944444964465 14.344640395978958 4 2 -1
523 1 2 -1.1794 5.105073456867167 12.452093088114486 15.787698658429363 -2 2 4
297 1 1 0.5897 1.1049871329195489 16.663774703562055 14.675079507674814 4 2 -3
72 1 1 0.5897 3.935395158110286 14.685662779280928 13.807777883161377 15 -4 0
663 1 1 0.5897 2.2509704260098062 14.01366282119252 15.617803558529488 -7 -6 1
133 1 2 -1.1794 0.9922683989390977 11.982302093194757 13.017027655520188 -1 -8 0
777 1 1 0.5897 7.652533783376927 13.321248601412918 14.794946887832957 -2 -7 -1
863 1 1 0.5897 7.89969689052508 14.960738930227741 13.122372959239248 4 2 -1
818 1 1 0.5897 4.428879858467219 16.226117187968093 11.841239406534271 -2 -3 1
827 1 1 0.5897 7.044499599159644 12.38886807790996 12.323273174357935 -6 2 7
525 1 1 0.5897 4.1962585957393745 12.60506832603047 15.528950692403617 -2 2 4
295 1 2 -1.1794 1.4283106422680971 16.57302526522561 15.571529737981663 4 2 -3
828 1 1 0.5897 8.064523762994655 13.160535993862098 11.513233287949994 -6 2 7
42 1 1 0.5897 3.075999808439978 13.375040096365503 11.60784480794387 -4 0 4
195 1 1 0.5897 4.143579653815202 16.545703330534195 14.635076661214995 0 -7 -3
826 1 2 -1.1794 7.66606516613172 12.29464477071304 11.601412280531303 -6 2 7
790 1 2 -1.1794 2.047711520103616 14.982653174434333 11.371684186144307 4 2 3
776 1 1 0.5897 8.26914209447144 13.045558157472403 16.149917578232767 -2 -7 -1
296 1 1 0.5897 2.335508874059393 16.875788407847914 15.531253073968031 4 2 -3
75 1 1 0.5897 6.459694960039417 15.362278752340131 17.008381177091643 4 -3 2
17 1 1 0.5897 2.9172716929948272 14.667426479577182 18.263266407339547 -3 8 8
470 1 1 0.5897 1.0749867956138124 15.176474977231626 16.647845351617235 6 3 1
273 1 1 0.5897 4.580611608945994 14.845517792444314 20.608977336277647 -6 3 4
73 1 2 -1.1794 5.68650710145497 15.266965661039054 16.452147271950878 4 -3 2
170 1 1 0.5897 0.6627253750495681 15.534773607418968 21.266568505673746 -1 5 -3
16 1 2 -1.1794 3.5716237468603924 14.102765847524392 17.85182512524515 -3 8 8
18 1 1 0.5897 3.119588959218766 13.26968773875667 17.717865031973975 -3 8 8
588 1 1 0.5897 8.946097009431316 15.073878894995403 17.296410874515516 2 5 3
587 1 1 0.5897 8.099028429535707 14.122447348202076 18.114541067662635 2 5 3
61 1 2 -1.1794 7.485275206834094 14.0185952280523 21.30756735444599 -1 1 3
586 1 2 -1.1794 8.144056740059895 15.031215469341788 17.81719663164029 2 5 3
271 1 2 -1.1794 4.803543677363456 14.294230206991754 21.35909912838533 -6 3 4
623 1 1 0.5897 8.970914934690459 12.361935248652369 19.213460462196327 4 5 5
62 1 1 0.5897 8.33201047169332 14.261660808874963 20.933021874346082 -1 1 3
272 1 1 0.5897 5.759487091960153 14.321142232494353 21.401029214808066 -6 3 4
734 1 1 0.5897 3.8077461667755204 12.942957593128366 20.84143537448366 1 2 -2
74 1 1 0.5897 4.995840284429732 14.978114973484795 17.048676707468776 4 -3 2
171 1 1 0.5897 1.7673595713390622 15.991927223303724 20.33766813670927 -1 5 -3
169 1 2 -1.1794 1.588399927073081 15.778193150115662 21.25342212565228 -1 5 -3
653 1 1 0.5897 8.348594734448973 16.105722264958754 19.045406671834925 -2 -3 4
303 1 1 0.5897 1.5243993668908407 12.62068739201458 19.982325494677156 -2 5 3
301 1 2 -1.1794 0.7977308685974485 12.927278430513725 19.43986370614572 -2 5 3
733 1 2 -1.1794 3.6435783406075117 12.14996844766395 20.331022585869377 1 2 -2
648 1 1 0.5897 2.558557427473339 16.790562610941237 18.131257794543075 -8 0 3
622 1 2 -1.1794 8.434880211193892 12.190989773841585 18.439024870222788 4 5 5
201 1 1 0.5897 5.987357717289488 16.65151073815542 20.43410426610085 3 -10 -1
471 1 1 0.5897 0.9607277476066333 14.17971701508864 17.781647460688667 6 3 1
469 1 2 -1.1794 0.7770268189387347 14.289223274926224 16.84860065699721 6 3 1
646 1 2 -1.1794 1.890961675380704 16.419955542312284 18.708551386673545 -8 0 3
652 1 2 -1.1794 8.570311806517196 16.726691450155712 19.739363781602428 -2 -3 4
735 1 1 0.5897 4.336494257939517 12.141878669331948 19.670642023647705 1 2 -2
48 1 1 0.5897 5.377677887254919 11.99455074236408 17.771261906412107 4 -3 2
624 1 1 0.5897 7.610123133050342 11.852805477578913 18.787910590521324 4 5 5
573 1 1 0.5897 9.032954379426998 19.794100444679152 1.5333952431915558 3 1 -3
441 1 1 0.5897 2.304926942100945 18.19411927120951 1.9980130261257674 -4 3 -1
757 1 2 -1.1794 4.6704275903607115 19.80198592097973 3.276562968918581 0 3 4
477 1 1 0.5897 1.5789037702799131 20.65176554461067 2.7281414047455965 4 -5 -3
729 1 1 0.5897 1.214679892693932 16.947876172930464 3.2422846355501904 -5 -2 5
336 1 1 0.5897 5.301856400149518 19.501454613698037 1.4010292955611245 0 -3 6
585 1 1 0.5897 6.649978539505656 20.07806211752981 4.813635863128463 -2 -10 2
159 1 1 0.5897 7.9138945498675035 17.692335267849405 2.28096383545432 3 3 -1
440 1 1 0.5897 2.4858831270199317 17.20885575531525 0.8628504562702092 -4 3 -1
476 1 1 0.5897 1.4868507796856618 19.628877893726504 3.840477434811406 4 -5 -3
584 1 1 0.5897 7.351665694850735 18.931476020783506 4.1171404243042495 -2 -10 2
557 1 1 0.5897 8.73517333181661 21.00841045008349 3.0969846200967535 1 0 2
583 1 2 -1.1794 7.078615946403882 19.238761671521164 4.981615858791695 -2 -10 2
601 1 2 -1.1794 3.874077974999115 18.247755182819816 5.782773876990278 8 4 1
603 1 1 0.5897 4.712810296963086 17.79042292869166 5.8438756229231545 8 4 1
759 1 1 0.5897 3.7335894751102234 19.990682863698538 3.221447453814463 0 3 4
758 1 1 0.5897 4.764279976823529 19.284190670725994 4.07620860245358 0 3 4
806 1 1 0.5897 6.037538805539965 21.27333869524076 2.5733490560526837 4 -5 -4
439 1 2 -1.1794 2.9402837121619214 17.89942504847583 1.3454917900075198 -4 3 -1
475 1 2 -1.1794 1.9364187539336266 19.811527790237296 3.015349855395185 4 -5 -3
571 1 2 -1.1794 8.56901000421514 19.148068765970464 1.0007254266198717 3 1 -3
805 1 2 -1.1794 6.968796127396929 21.49114403224985 2.6136538601711665 4 -5 -4
157 1 2 -1.1794 7.553787795955398 17.332224523364516 3.0914902088115013 3 3 -1
555 1 1 0.5897 2.9759027619788294 17.032572347240333 4.8841355207535715 -6 -7 4
245 1 1 0.5897 6.536740178175102 17.58321543409449 5.580031709467774 -6 4 2
263 1 1 0.5897 6.2936633252710985 21.70284559248511 5.45758942143692 2 -2 1
335 1 1 0.5897 6.678862116565511 19.42578856279892 0.7763644540775126 0 -3 6
682 1 2 -1.1794 1.8600489714535646 20.495538677483832 9.01190336271179 2 1 -6
627 1 1 0.5897 6.301304841442452 21.590679814974507 9.930070582327698 -5 -5 4
367 1 2 -1.1794 3.403044834689087 18.324790239715348 8.429752691054922 3 9 -5
825 1 1 0.5897 4.896343202956878 21.395716570421015 7.793134726435831 -2 4 5
823 1 2 -1.1794 4.995065366446626 21.042776304017735 6.908828593477401 -2 4 5
384 1 1 0.5897 6.6225201599076 18.484109764641605 9.59240916128358 -8 -1 -5
683 1 1 0.5897 1.331607466417847 20.26384656979888 9.775689933053474 2 1 -6
602 1 1 0.5897 3.5498304752418117 18.275703895618033 6.682984433324815 8 4 0
244 1 2 -1.1794 6.038100943127114 16.88132033001439 5.998393401787669 -6 4 2
382 1 2 -1.1794 6.167257515250125 18.854618732705895 8.836230055545135 -8 -1 -5
620 1 1 0.5897 0.7501644476893539 20.2745694535289 6.204464287897506 0 -6 6
684 1 1 0.5897 2.3237225946916356 19.688804207413604 8.787198227649997 2 1 -6
824 1 1 0.5897 4.445074077303923 20.259355116265283 6.900309981202759 -2 4 5
383 1 1 0.5897 6.861525422530004 19.246804043976248 8.30662025699646 -8 -1 -5
369 1 1 0.5897 4.331256161447834 18.287871386847147 8.660774429093285 3 9 -6
841 1 2 -1.1794 7.9837197319762385 20.369526593030276 7.420401244934241 -7 2 -1
368 1 1 0.5897 3.0272432674763863 17.535172382362386 8.819077099944677 3 9 -5
625 1 2 -1.1794 5.409430401982097 21.26002555765537 9.822697984629508 -5 -5 4
843 1 1 0.5897 7.947865117052775 19.920699850947205 6.5756651083646736 -7 2 -1
626 1 1 0.5897 5.519691755127312 20.398553265720327 9.42017733572059 -5 -5 4
19 1 2 -1.1794 7.244565456169489 17.04142830739214 10.880650712102769 -2 -5 3
842 1 1 0.5897 8.749707477049132 19.99738868454064 7.8575697715830835 -7 2 -1