LAMMPS data file via write_data, version 30 Jul 2021, timestep = 19750000

864 atoms
2 atom types
576 bonds
1 bond types
288 angles
1 angle types

0.7527082394560498 17.454864160533994 xlo xhi
1.9781221514323448 21.651055648558604 ylo yhi
0.918302294004155 21.294893505993272 zlo zhi

Masses

1 1.00794
2 15.9994

Pair Coeffs # lj/cut/tip4p/long/omp

1 0 0
2 0.21084 3.1668

Bond Coeffs # harmonic/omp

1 450 0.9572

Angle Coeffs # harmonic/omp

1 55 104.52

Atoms # full

799 1 2 -1.1794 1.3496065793094325 4.023234608110149 1.4556489900800782 6 -5 3
209 1 1 0.5897 3.8409130482556875 2.56512278394899 2.032195781772331 5 4 0
373 1 2 -1.1794 2.8251972668022756 5.962077218425845 2.5785826185361884 3 10 1
801 1 1 0.5897 1.2261775823336245 3.754479656095684 2.366006404823035 6 -5 3
800 1 1 0.5897 1.804984107224643 4.863205246350163 1.5130347911996633 6 -5 3
374 1 1 0.5897 3.4496957586754577 6.467920494514267 2.0586255065261216 3 10 1
692 1 1 0.5897 3.7303606861394107 3.493173716064385 4.369072901439143 4 -4 8
693 1 1 0.5897 2.8985618301766856 4.277598232042168 5.361324578934544 4 -4 8
691 1 2 -1.1794 3.758312551871256 4.260218286828826 4.940962712662336 4 -4 8
375 1 1 0.5897 3.369907542133324 5.4486211124213115 3.175128584802233 3 10 1
208 1 2 -1.1794 3.6889876980827365 2.358609065497758 2.9544010100998745 5 4 0
500 1 1 0.5897 0.9202623676645159 6.222552724752718 4.0951896598890745 -1 2 -5
360 1 1 0.5897 1.8186960221133601 6.65564503364047 10.447297871549694 5 -1 2
266 1 1 0.5897 3.39691672556838 6.306844942452914 8.230175206637 -3 -3 2
349 1 2 -1.1794 2.1900714756811013 2.1053950049617236 7.766883015828023 -8 5 -6
402 1 1 0.5897 1.3555435197261418 4.435131727395389 6.866423173966942 3 1 3
400 1 2 -1.1794 1.5779995499393442 4.87151124292775 6.044064522592821 3 1 3
370 1 2 -1.1794 3.2424825578249536 3.7548344820151023 10.644564155647538 -1 9 1
267 1 1 0.5897 3.585250165168036 4.809029570809897 8.116822281490172 -3 -3 2
265 1 2 -1.1794 3.0493619386964648 5.47396930534711 8.549106969282652 -3 -3 2
552 1 1 0.5897 3.6971857644161776 3.0729353988363064 8.062263833785522 2 11 -3
372 1 1 0.5897 2.840072599676224 4.365080013765739 10.026582844493749 -1 9 1
550 1 2 -1.1794 4.5004662619356015 3.5449391779021022 7.842865649139682 2 11 -3
401 1 1 0.5897 2.1160197273572114 5.618370896668157 6.306598115132771 3 1 3
371 1 1 0.5897 4.0283645585863415 4.207131784029976 10.95119918716516 -1 9 1
726 1 1 0.5897 4.235094046225699 5.243638359469707 12.673605708825988 11 -1 6
381 1 1 0.5897 2.5721402608908 3.40599719647537 12.26841703198925 10 -1 -1
380 1 1 0.5897 1.5746190472913983 2.878151514892262 13.277421486158786 10 -1 -1
178 1 2 -1.1794 3.9184285017219667 3.5752721124923297 15.499095437377406 -4 6 -1
179 1 1 0.5897 3.414908933136927 3.5401442935338245 14.685800142688516 -4 6 -1
180 1 1 0.5897 4.5478139192924925 4.28319063613122 15.361352293297514 -4 6 -1
379 1 2 -1.1794 2.506826141338291 2.8722249804087165 13.06027056697814 10 -1 -1
615 1 1 0.5897 3.6765254995693333 6.760987170729879 14.236186879130283 -11 -5 2
613 1 2 -1.1794 3.048221814243364 6.205683597535862 13.774602209860662 -11 -5 2
845 1 1 0.5897 1.5938036615221094 5.2411310916388505 14.307036600375337 -1 -4 5
614 1 1 0.5897 2.459881026202445 6.821186915367333 13.337338652881606 -11 -5 1
787 1 2 -1.1794 1.0961076110205072 2.085129293619489 15.480440031237752 -3 -1 9
168 1 1 0.5897 4.204306136184416 2.1784586250887656 12.92289362949696 5 -3 7
788 1 1 0.5897 1.4084513831910002 2.9107604476117457 15.85054685107288 -3 -1 9
87 1 1 0.5897 4.805114183416404 2.1071261054634793 16.10902093644451 -4 1 -2
158 1 1 0.5897 2.3585328651857367 2.872835989768923 20.79957855089762 1 4 1
798 1 1 0.5897 2.316641661498628 3.782901188018025 18.56421905452536 4 -4 -2
742 1 2 -1.1794 3.1279043021899553 6.011265921025012 19.570993555590682 -1 -1 -4
243 1 1 0.5897 1.463782451162059 6.224448409543254 19.61258786791491 -2 -4 -1
743 1 1 0.5897 3.3740497182579086 6.1062347777958905 18.65090039433536 -1 -1 -4
796 1 2 -1.1794 2.016053825373506 3.748433231816551 17.6561242587241 4 -4 -2
797 1 1 0.5897 2.818448390225018 3.7906817342931145 17.13597230642675 4 -4 -2
157 1 2 -1.1794 2.9856807174019493 2.485380545133599 20.189050391563477 1 4 1
444 1 1 0.5897 4.586563639032379 5.19384244606184 17.566250146450486 -3 5 0
442 1 2 -1.1794 4.1624974341418195 5.962934668538271 17.185665573676154 -3 5 0
744 1 1 0.5897 3.5994277733382183 6.7133390119923 20.019252979672522 -1 -1 -4
559 1 2 -1.1794 4.8541929657801575 3.6747826048064844 18.232134116059875 0 6 3
443 1 1 0.5897 4.802193291683521 6.305418459232108 16.56142889206101 -3 5 0
122 1 1 0.5897 4.467351779047453 4.4775073868501 20.632392401614844 1 2 5
560 1 1 0.5897 4.2417154106803565 3.2163921136085074 18.807420897155517 0 6 3
817 1 2 -1.1794 1.7494854080965045 9.017275705946282 3.6270317638561878 6 1 3
565 1 2 -1.1794 4.11564666044114 10.4397751221124 3.107612010820643 1 4 -10
818 1 1 0.5897 1.3890136645896587 8.618047176932908 2.835283129230684 6 1 3
567 1 1 0.5897 3.811297953802614 11.341483495463983 3.0051461866615385 1 4 -10
819 1 1 0.5897 2.478042839351504 9.553881751253595 3.3148757234462467 6 0 3
749 1 1 0.5897 2.6610014293846804 7.972366400251599 4.905497554690919 9 3 1
864 1 1 0.5897 1.6082256372507073 9.938048701719882 5.220859630505108 9 2 2
305 1 1 0.5897 4.664273571646361 7.377323475262418 3.921109064271816 6 1 -4
361 1 2 -1.1794 4.645322144130337 7.602289826946265 1.0409206506234772 7 -5 0
272 1 1 0.5897 4.65780116052532 10.500720501463785 4.784587524967858 -2 -4 3
480 1 1 0.5897 0.9174315308810614 11.682498045070957 2.4198574207560632 -8 8 -2
748 1 2 -1.1794 3.171798423642714 7.276671953416179 5.319415609971915 9 3 1
566 1 1 0.5897 4.790173863116113 10.33642390147904 2.4364083243207375 1 4 -10
362 1 1 0.5897 4.091165128454639 8.375165599663308 0.9325110896403643 7 -5 0
359 1 1 0.5897 1.8774862128503065 8.057592797513493 11.015529479874129 5 -1 2
103 1 2 -1.1794 2.1186571396752183 9.489699259995952 9.509438241621675 4 -1 12
750 1 1 0.5897 3.6445149816276006 7.714631388175467 6.0271833595279745 9 3 1
805 1 2 -1.1794 4.905814321703961 6.985480907262895 10.215534414048276 3 -3 -5
130 1 2 -1.1794 4.652071953069967 11.28075261025658 9.540636429219028 2 1 3
104 1 1 0.5897 1.3004054069154107 9.864478880542624 9.183521010977053 4 -1 12
131 1 1 0.5897 3.7863270026017486 11.060352693358398 9.1969807510104 2 1 3
105 1 1 0.5897 2.6227853308919986 9.291166144452497 8.72035623527383 4 -1 12
328 1 2 -1.1794 4.031754169170082 8.498549746751209 7.612006186941891 4 8 -2
329 1 1 0.5897 4.854691168379192 8.638383104826826 8.080429478272855 4 8 -2
330 1 1 0.5897 4.016410498686035 9.18392234275226 6.944011469043029 4 8 -2
192 1 1 0.5897 4.208833300833267 11.777295751106767 6.494755957184383 2 4 -9
863 1 1 0.5897 1.3572248882979618 9.27234323489068 6.557128234109305 9 2 2
806 1 1 0.5897 3.966405105899085 7.025154029973887 10.394746065038406 3 -3 -5
191 1 1 0.5897 2.7366560238651405 11.430650027593778 6.560789427872958 2 4 -9
862 1 2 -1.1794 1.777532622490449 10.034094457016458 6.158033832177407 9 2 2
420 1 1 0.5897 3.338241454686525 10.211087991327153 14.424184424608484 -11 -1 4
114 1 1 0.5897 4.3125969824440915 8.765576956335844 15.493134299288458 4 -5 0
816 1 1 0.5897 3.1856280960020724 9.177994775651083 12.33519187782725 2 10 -4
418 1 2 -1.1794 3.717801075831866 10.660474186969857 15.179289826028336 -11 -1 4
814 1 2 -1.1794 2.712057267905018 9.862318285355993 12.808144120841929 2 10 -4
703 1 2 -1.1794 0.9227934620356282 8.161500815402807 13.868333800288864 1 -2 -7
112 1 2 -1.1794 4.716369851119262 8.036647599831767 15.022166955038275 4 -5 0
815 1 1 0.5897 3.0615402050032023 10.68175258145299 12.458012919564203 2 10 -4
704 1 1 0.5897 1.7279786192040398 8.607178430765675 13.605198325385425 1 -2 -7
358 1 2 -1.1794 2.2646294468803028 7.186976815478925 11.106853921891645 5 -1 2
705 1 1 0.5897 1.1530200387887506 7.709386388039274 14.679982831326434 1 -2 -7
419 1 1 0.5897 2.9792065000015273 11.115184581004517 15.584136577482296 -11 -1 4
237 1 1 0.5897 1.641961295575293 11.608206252287381 11.47972601763026 -1 -10 -4
510 1 1 0.5897 4.233449872051336 11.802855201184 11.244515784877086 -1 3 0
15 1 1 0.5897 2.07519784933674 8.273129916125955 17.000397289546186 1 -4 -9
365 1 1 0.5897 2.476972088555099 9.444874049010306 19.880089165137264 2 5 5
46 1 2 -1.1794 2.405797134443194 9.840931688129515 18.14425216782206 4 -4 -1
47 1 1 0.5897 1.7806341017847178 10.344890820259225 17.623288665401773 4 -4 -1
48 1 1 0.5897 3.264092944627873 10.147829022579675 17.85212581936989 4 -4 -1
13 1 2 -1.1794 1.88521886283506 7.53875781664907 16.416623538188528 1 -4 -9
364 1 2 -1.1794 2.4285080927582685 9.473406954429322 20.835615814719226 2 5 5
507 1 1 0.5897 3.6421311180697233 10.949042886541699 20.56986478814099 1 0 3
366 1 1 0.5897 1.4913395716109608 9.4518249887411 21.029122744303365 2 5 5
639 1 1 0.5897 4.879270019255373 11.46316516155596 17.56612191472692 -12 2 1
14 1 1 0.5897 2.6916392950158494 7.023180646314608 16.409283311968256 1 -4 -9
505 1 2 -1.1794 4.44196986317146 11.462759449108823 20.457802858327852 1 0 3
229 1 2 -1.1794 4.116629340050977 14.539028416764934 5.091975964671898 2 -1 0
530 1 1 0.5897 4.802586750892049 15.279816779785683 3.6003860796412277 0 0 -4
163 1 2 -1.1794 2.270911521496524 12.585911723263058 3.2171272869002396 0 5 -3
165 1 1 0.5897 1.617130129677998 13.25452857196653 3.4213772190649463 0 5 -3
164 1 1 0.5897 2.749702287619339 12.939512875987521 2.46751438799273 0 5 -3
133 1 2 -1.1794 0.8540493855750003 16.00906887233576 2.449614371402145 -11 -2 4
231 1 1 0.5897 3.974329838762509 13.5971104682475 4.998580008566476 2 -1 0
403 1 2 -1.1794 3.3967017940544633 13.938256272310985 0.9775862449931609 9 1 1
405 1 1 0.5897 3.987688886995177 14.380773001393061 1.5867638437851377 9 1 1
662 1 1 0.5897 2.617475805919109 15.164629854193741 5.790454273158354 2 -5 -4
230 1 1 0.5897 4.906553550771837 14.610426799405483 5.627794412829617 2 -1 0
135 1 1 0.5897 0.8622546606144823 15.17639876983661 2.9216414949484584 -11 -2 4
31 1 2 -1.1794 2.7984409792907856 14.071931478907748 8.568385493549176 6 4 5
190 1 2 -1.1794 3.358321146548978 12.132714231908297 6.752675319771847 2 4 -9
661 1 2 -1.1794 1.8002238724214326 15.566823999542471 6.084598182965263 2 -5 -4
663 1 1 0.5897 1.941605539949428 15.745294559782218 7.014303581855112 2 -5 -4
33 1 1 0.5897 3.7082650032848794 14.151050148136207 8.855048448539266 6 4 5
32 1 1 0.5897 2.7909206907899797 13.298573274644188 8.004425814407789 6 4 5
603 1 1 0.5897 1.2773906787452805 14.062870030850625 9.453103229814138 5 2 10
162 1 1 0.5897 0.7888123004938118 16.564739724853318 8.333705406347274 1 7 4
312 1 1 0.5897 3.6161376440401285 14.49515382818607 14.33712459433627 -5 -1 9
548 1 1 0.5897 2.990044891528729 13.880188256116313 11.773771164805304 8 -8 12
310 1 2 -1.1794 4.424801476176105 15.003207123222476 14.272695750722075 -5 -1 9
547 1 2 -1.1794 2.272884504277221 14.50885935295962 11.855249816565301 8 -8 12
508 1 2 -1.1794 3.735679767263509 12.155462940551562 11.982129812664503 -1 3 0
356 1 1 0.5897 1.2748708501739634 14.445379574138729 15.865968576307058 8 -6 7
311 1 1 0.5897 4.277341919368873 15.761695594073771 14.837623976511127 -5 -1 9
355 1 2 -1.1794 1.8891588232187522 13.86342718889743 15.418460554769378 8 -6 7
795 1 1 0.5897 2.9116030697645003 16.25992401525794 12.124634241499274 -3 -1 1
357 1 1 0.5897 2.2540866196359888 13.318082449614264 16.115318926511605 8 -6 7
509 1 1 0.5897 4.389191176849573 12.296532995934257 12.667118262049556 -1 3 0
549 1 1 0.5897 1.5664511816171105 14.136814983277596 11.327296557493709 8 -8 12
740 1 1 0.5897 0.9079283111294814 16.04752506664086 14.138057852163849 6 -2 4
643 1 2 -1.1794 3.4486419129890824 12.821297009861908 17.401550627331098 3 -6 -7
645 1 1 0.5897 2.994418099129303 12.70947736129074 18.23662779376118 3 -6 -7
404 1 1 0.5897 3.084338374936936 14.633466522361948 20.775122978051463 9 1 0
861 1 1 0.5897 1.91626756188492 15.535176218124583 18.718174538711438 0 -1 6
860 1 1 0.5897 3.4222830407356066 15.530881293005313 18.872520309562177 0 -1 6
67 1 2 -1.1794 1.1601663784981893 12.317439132782388 19.45049774749907 2 -9 -6
69 1 1 0.5897 0.8237262519414754 12.85476599774296 20.16763657468921 2 -9 -6
859 1 2 -1.1794 2.6183050867329696 15.824675513950353 19.3009201260898 0 -1 6
644 1 1 0.5897 4.14148505140352 13.454820361462932 17.588174707092264 3 -6 -7
506 1 1 0.5897 4.176140640486607 12.363813790006796 20.641165890963713 1 0 3
670 1 2 -1.1794 1.511746306651164 20.308492271707667 2.4298000773482515 9 2 1
427 1 2 -1.1794 2.8257803311192107 17.805575017585415 2.636421454849553 -1 5 -2
289 1 2 -1.1794 4.465777903728016 20.428258596062047 5.629380008088229 -3 -7 -9
428 1 1 0.5897 2.4684487792932286 18.66585312957499 2.4163787344894834 -1 5 -2
654 1 1 0.5897 4.019300581088896 18.57760189361689 5.3242071535133615 -5 1 2
804 1 1 0.5897 1.5690161915242873 20.00415606319181 5.308414218781146 9 -5 -5
802 1 2 -1.1794 1.7039357309538197 20.945894522746784 5.202987916513035 9 -5 -5
653 1 1 0.5897 3.8188473972737174 17.532919672869102 4.247056352671732 -5 1 2
429 1 1 0.5897 2.078545775084262 17.211126154013744 2.5697194703182444 -1 5 -2
803 1 1 0.5897 2.5878286982793792 21.02296063422868 4.843836441834711 9 -5 -5
672 1 1 0.5897 2.1812925700682015 20.924283393182698 2.7276307361017684 9 2 1
652 1 2 -1.1794 4.211369331464315 17.664677889293223 5.110051552943938 -5 1 2
210 1 1 0.5897 4.359729706545641 21.383202411589057 3.1688044600596177 5 3 0
205 1 2 -1.1794 1.3687024380261223 18.292485818245805 5.579782937401934 -4 4 -2
471 1 1 0.5897 4.725004563524001 18.86006879392831 2.4942385578118187 0 -11 1
576 1 1 0.5897 4.284667391865716 17.616331301811194 1.003273014803481 -5 4 -3
671 1 1 0.5897 0.7831750313585317 20.433580290585656 3.0379157358270534 9 2 1
206 1 1 0.5897 1.5832396177831027 17.364640451302527 5.483320419538034 -4 4 -2
621 1 1 0.5897 1.4533331999624046 18.604434021842145 8.877447570181003 1 -2 -1
619 1 2 -1.1794 1.3850449350426812 19.54505695639708 9.040990909578452 1 -2 -1
537 1 1 0.5897 2.795333280153814 19.69099520641938 10.286206923506624 0 5 4
160 1 2 -1.1794 1.5786798951127738 16.87742852709063 8.77475999945036 1 7 4
29 1 1 0.5897 4.142634102585857 17.353177615046018 6.967196725593296 -9 5 8
28 1 2 -1.1794 4.267980075233876 17.486367448691553 7.906750506796101 -9 5 8
351 1 1 0.5897 2.123189940840411 20.969431969949976 8.274221693879284 -8 4 -6
535 1 2 -1.1794 3.5512146563883213 19.627542419665307 10.869989155335427 0 5 4
30 1 1 0.5897 3.396553783540083 17.36723731880336 8.284389987926478 -9 5 8
350 1 1 0.5897 2.031583360888966 21.508127898731285 6.86241802036937 -8 4 -6
161 1 1 0.5897 1.3870374232363063 16.78045271003672 9.707523199433304 1 7 4
291 1 1 0.5897 4.556090249549342 20.298168083450143 6.573370617624359 -3 -7 -9
793 1 2 -1.1794 3.1650665412950474 17.157079703111478 12.34163210750418 -3 -1 1
167 1 1 0.5897 4.4821429637495775 20.650713351043297 12.043691280296358 5 -4 7
171 1 1 0.5897 1.5117980782217972 19.622763915484203 13.397700450342006 -2 0 -4
430 1 2 -1.1794 4.28339097187865 17.365871777386403 15.934030285578975 -19 -1 0
741 1 1 0.5897 2.074703681043083 17.00802637828201 14.04933904835842 6 -2 4
431 1 1 0.5897 3.824576744357664 18.056531151371228 15.455842633330834 -19 -1 0
141 1 1 0.5897 2.3084824270262425 20.596996770118743 14.864145637816055 -5 5 4
139 1 2 -1.1794 2.921559704217141 19.903864622429698 14.619422420286607 -5 5 4
739 1 2 -1.1794 1.306404087208972 16.797308701370028 14.579911189794036 6 -2 4
170 1 1 0.5897 1.7782911299867485 20.032737345625613 11.964951739797218 -2 0 -4
140 1 1 0.5897 3.736341673028575 20.364151750501343 14.418290810660679 -5 5 4
794 1 1 0.5897 4.119738098128925 17.128198483205054 12.404512954632233 -3 -1 1
166 1 2 -1.1794 4.897486273635973 21.240500376456723 12.672858941280886 5 -4 7
169 1 2 -1.1794 1.1563362201170493 19.552673160543144 12.51174787108104 -2 0 -4
771 1 1 0.5897 0.9586024386180512 17.74169553355064 11.868773713488189 7 -6 3
536 1 1 0.5897 3.3507587488882646 18.88714082151367 11.442567967763969 0 5 4
432 1 1 0.5897 4.5846968596765105 17.789791320318972 16.737582985396628 -19 -1 0
184 1 2 -1.1794 3.2155704426489913 19.18296186905528 20.527889514076897 -3 6 5
521 1 1 0.5897 2.3088082673698853 19.53251326261856 17.49102729907674 -6 0 -1
95 1 1 0.5897 2.1106197485176796 17.56075267291037 16.592458577039025 -4 -2 -9
86 1 1 0.5897 4.4339749753109885 20.80267428452842 17.203895067924392 -4 0 -2
96 1 1 0.5897 1.9074287115246478 17.137461798041386 18.031667633249725 -5 -2 -9
94 1 2 -1.1794 1.7343146599727324 17.854781212466442 17.42199144872893 -5 -2 -9
522 1 1 0.5897 2.2404306973961488 21.01858353961943 17.771540278186954 -6 0 -1
520 1 2 -1.1794 2.796096058587859 20.249378924049662 17.897040940938226 -6 0 -1
186 1 1 0.5897 3.3623477179396826 19.152984139001383 19.582513169265525 -3 6 5
185 1 1 0.5897 2.3164390988965984 18.87478413349214 20.641031296282023 -3 6 5
159 1 1 0.5897 2.7853129674795913 21.22241124050627 20.200925548209653 1 3 1
395 1 1 0.5897 5.832942069704304 4.4205987185503215 4.061720663489828 10 0 5
618 1 1 0.5897 8.392777290195141 3.1954756259972674 4.093471135231598 -1 1 -3
396 1 1 0.5897 5.884675046254146 4.794441617261933 2.59565143021276 10 0 4
257 1 1 0.5897 9.029780642728978 6.2214508614535085 4.822887624560539 6 -4 -1
394 1 2 -1.1794 6.339919899965164 4.927021852717196 3.4271299197669456 10 0 5
306 1 1 0.5897 6.004328092155669 6.673033189923021 3.9253993574057136 6 1 -4
842 1 1 0.5897 5.013931883841356 5.23142544706489 5.98323733138571 -12 1 -6
413 1 1 0.5897 8.6780060309708 5.794832946690121 8.291429827500355 -2 3 7
45 1 1 0.5897 7.0278726171803685 4.977397195917016 9.925211745986024 -2 14 -2
219 1 1 0.5897 8.23352516363136 2.6915615763198497 7.6228349646360645 4 0 -6
843 1 1 0.5897 5.500021673925793 5.317467561691473 7.414390879843042 -12 1 -6
117 1 1 0.5897 6.543060267331121 2.8069691136203714 10.260124994147334 2 0 1
43 1 2 -1.1794 6.765533561133006 5.3520988714878595 9.084399202710914 -2 14 -2
115 1 2 -1.1794 5.770284139956219 2.2656273420100197 10.099053246986898 2 0 1
467 1 1 0.5897 5.81180304018319 2.626140021135757 6.321773244077839 2 -2 8
44 1 1 0.5897 6.141846890008318 6.04129270914958 9.312962335541558 -2 14 -2
841 1 2 -1.1794 5.5542672716265145 5.762189851564003 6.568537143228177 -12 1 -6
628 1 2 -1.1794 8.292617160971162 5.410346462135651 6.118066139536373 -4 -1 -4
466 1 2 -1.1794 6.76734964019457 2.68129474626242 6.32987929922884 2 -2 8
217 1 2 -1.1794 8.7022469853321 2.967908880679018 8.410329737495655 4 0 -6
218 1 1 0.5897 8.10234014740633 3.5726909729529397 8.846864353029723 4 0 -6
116 1 1 0.5897 5.166163601209774 2.4934430057445334 10.805684621278289 2 0 1
551 1 1 0.5897 5.132254557162044 3.2640373550868755 8.504774081116354 2 11 -3
78 1 1 0.5897 8.396860199800553 6.56596756553977 10.312932124491875 2 1 -3
629 1 1 0.5897 8.668446581757257 4.536026529528805 6.015319842401643 -4 -1 -4
630 1 1 0.5897 7.362969091111403 5.2539731365870805 6.284006598366777 -4 -1 -4
625 1 2 -1.1794 6.026606322208935 5.463449668915098 15.206931426036695 4 -8 -3
655 1 2 -1.1794 8.622602332231793 4.377236607611483 15.810957908797564 -5 1 -2
527 1 1 0.5897 7.072287255927652 4.210194091707033 12.052431399537099 -3 -1 6
627 1 1 0.5897 6.342138601268327 5.750397486855581 14.35002094890583 4 -8 -3
626 1 1 0.5897 6.699977127471394 4.859939784350909 15.52087287697918 4 -8 -3
526 1 2 -1.1794 7.755843650654675 4.350090028464919 11.397165184923288 -3 -1 6
528 1 1 0.5897 8.561919802220341 4.436753785225944 11.90600031512414 -3 -1 6
724 1 2 -1.1794 5.0126305011372665 5.00922042972677 12.166958359997146 11 -1 6
558 1 1 0.5897 7.9335632473228825 6.62426269169475 12.615554565980894 4 4 3
657 1 1 0.5897 8.326310046238273 3.4959176039539726 16.038273286872872 -4 1 -2
725 1 1 0.5897 5.170430093821551 5.767674246198505 11.604780836967638 11 -1 6
556 1 2 -1.1794 7.486138612147517 6.8929832956729005 13.417926197297145 4 4 3
697 1 2 -1.1794 7.293317287684728 2.048522765719234 13.593146315838398 -3 3 -6
172 1 2 -1.1794 7.715872743580917 5.856972632718074 20.421161568016032 9 6 3
173 1 1 0.5897 8.220192728810728 5.406927060258619 21.098911985598775 9 6 3
174 1 1 0.5897 6.822971969221978 5.5295090306207 20.5292128741116 9 6 3
121 1 2 -1.1794 5.250019401924507 4.343708548134423 21.16692472220381 1 2 5
561 1 1 0.5897 5.684318764889074 3.664672931395699 18.708618268054387 0 6 3
656 1 1 0.5897 8.53043352886743 4.8779157811639395 16.62152694649685 -5 1 -2
124 1 2 -1.1794 8.042222995525663 3.2467361175544918 18.97959271957101 -9 -1 0
65 1 1 0.5897 8.395999906697746 5.640320023396779 18.8924218864586 1 5 -4
125 1 1 0.5897 8.652641239665446 3.469542414731853 18.276767543721242 -9 -1 0
66 1 1 0.5897 8.450460046962979 6.441515700880514 17.60910495008533 1 5 -4
123 1 1 0.5897 5.388868863191981 3.3967149333194087 21.156330200675896 1 2 5
126 1 1 0.5897 7.849241244802544 2.3189649955399467 18.844725409772572 -9 -1 0
64 1 2 -1.1794 8.860335437170134 5.701939539384497 18.057692877212787 1 5 -4
808 1 2 -1.1794 7.432573362838255 9.398325448004146 4.35665841527495 -2 1 1
783 1 1 0.5897 8.920651532206374 7.745954867594841 2.779964317680449 -7 -1 1
273 1 1 0.5897 5.918782480193601 10.55338656833793 5.620616454795912 -2 -4 3
809 1 1 0.5897 6.742375087192646 8.812857745793877 4.045153660609429 -2 1 1
304 1 2 -1.1794 5.578945288915584 7.489076323063123 3.662122639345371 6 1 -4
810 1 1 0.5897 7.865492421306034 9.70434503708544 3.5597046968425485 -2 1 1
145 1 2 -1.1794 6.47601017676895 10.57194326796066 1.5246257583024936 -2 -3 -2
363 1 1 0.5897 5.105363886723876 7.750807682142014 1.867065141983606 7 -5 0
782 1 1 0.5897 8.22652968670857 8.40662356454925 1.6080098881717086 -7 -1 1
781 1 2 -1.1794 9.055168133022413 8.392285808686244 2.086897664942528 -7 -1 1
146 1 1 0.5897 7.092772768040105 10.046311721155465 1.0152077030698583 -2 -3 -2
271 1 2 -1.1794 4.989247593962465 10.32948209305987 5.666067212543632 -2 -4 3
264 1 1 0.5897 7.6568799988003 8.681620132868758 5.889996223730335 -5 2 6
187 1 2 -1.1794 6.452872944541571 9.218804879268342 9.068477561243272 -8 6 3
262 1 2 -1.1794 7.5764951415996515 8.327729658999003 6.7757058732553785 -5 2 6
438 1 1 0.5897 7.966728229899384 11.523674531732393 6.13400470674739 -6 4 5
189 1 1 0.5897 6.817829336272519 8.64983544365699 9.746204270081304 -8 6 3
436 1 2 -1.1794 7.1592295091919365 11.745178267690502 6.597818619912978 -6 4 5
188 1 1 0.5897 6.904970094141484 8.957160800679398 8.266386877388559 -8 6 3
807 1 1 0.5897 5.2717366026035 7.734352043244143 10.686145837189812 3 -3 -5
76 1 2 -1.1794 8.446181335008536 7.457534757610308 10.657683946672021 2 1 -3
263 1 1 0.5897 7.2131297765137035 7.450926147027459 6.651739555328471 -5 2 6
279 1 1 0.5897 7.321317418470456 11.115074351010682 10.886461503608096 2 4 -4
132 1 1 0.5897 5.182140675623033 10.501461658528711 9.37351635890905 2 1 3
472 1 2 -1.1794 6.814995514010048 10.332015895417513 15.07919395342136 4 3 0
855 1 1 0.5897 8.678699544909247 10.295995701530847 12.314207579856255 -11 4 2
765 1 1 0.5897 6.336516883568277 7.982352985180441 12.586992193278896 -5 1 -10
764 1 1 0.5897 6.41685453457201 9.412252340897776 12.096328077601505 -5 1 -10
113 1 1 0.5897 5.3979532827613745 8.444294236852578 14.48784240656815 4 -5 0
524 1 1 0.5897 6.980760982643912 6.993293604367766 16.126731983333855 6 3 -1
277 1 2 -1.1794 7.0818145955945635 11.028804085058105 11.809175614498606 2 4 -4
473 1 1 0.5897 6.469786987784593 10.86558350776584 14.363420276322241 4 3 0
763 1 2 -1.1794 5.8066052836977216 8.68322562303593 12.207298491324261 -5 1 -10
474 1 1 0.5897 6.524843830017572 10.779830615804059 15.87385324942926 4 3 0
665 1 1 0.5897 8.628104855716426 11.121600185083203 15.728465151079668 1 -1 0
557 1 1 0.5897 8.150439593971605 7.370632280191063 13.914665910765128 4 4 3
545 1 1 0.5897 9.040427483196996 9.959910556406744 17.453430223205466 -3 5 6
389 1 1 0.5897 5.8381659329588915 8.063453117955962 18.120746046842378 5 9 1
544 1 2 -1.1794 9.040715755292918 9.198620746242625 18.033621581940984 -3 5 6
53 1 1 0.5897 8.059458632762825 8.723214438211663 19.506796749694765 -3 -4 3
523 1 2 -1.1794 7.126540123378229 7.413005123694875 16.974540623140705 6 3 -1
52 1 2 -1.1794 7.4415969759707945 8.60291862878306 20.2278843823444 -3 -4 3
390 1 1 0.5897 5.7055925619938 8.65558420040895 19.507673893478426 5 9 2
54 1 1 0.5897 7.3302019756706835 7.654458307050173 20.292781965272447 -3 -4 3
638 1 1 0.5897 5.655465704605112 10.215693123111917 17.93108094316254 -12 2 1
637 1 2 -1.1794 5.7396801160668955 11.053509821146763 17.475940931426514 -12 2 1
388 1 2 -1.1794 5.263720534436258 8.607013136513913 18.659960964378214 5 9 2
525 1 1 0.5897 7.5911214157654285 8.22310916497881 16.76456087031235 6 3 -1
147 1 1 0.5897 5.907218410044905 10.976384396039537 21.246167935178228 -2 -3 -3
494 1 1 0.5897 6.951695638515665 13.223174904342647 3.6111759416516405 -3 2 1
214 1 2 -1.1794 8.623366190376661 15.283515111972962 1.3182787590924139 1 -8 -3
215 1 1 0.5897 8.458964465333743 15.79218616616644 2.1122600886142884 1 -8 -3
216 1 1 0.5897 8.718665312257274 14.382206914212365 1.6261258363145148 1 -8 -3
689 1 1 0.5897 6.675220937910068 16.456599311438545 3.1673058455499086 -1 0 2
578 1 1 0.5897 8.835742421606197 13.73911769098956 5.109216864869895 5 3 -6
493 1 2 -1.1794 6.086308350932359 12.902076315390937 3.357821697169024 -3 2 1
531 1 1 0.5897 5.795284383985359 14.597093647459337 2.683740851774075 0 0 -4
577 1 2 -1.1794 8.700330294795698 13.455682437486136 4.205036342839377 5 3 -6
575 1 1 0.5897 5.213043278111555 16.529790252982963 1.502588212717295 -5 4 -3
495 1 1 0.5897 6.253787554747199 12.045576460823973 2.964670497404001 -3 2 1
529 1 2 -1.1794 5.388477895507234 15.445058421044052 2.8617262702631736 0 0 -4
252 1 1 0.5897 8.25202989339569 11.957619484829353 1.0287471753232893 3 -5 -3
732 1 1 0.5897 7.168215239192825 15.427805377279325 6.4845574658499405 1 4 -4
730 1 2 -1.1794 6.531241367741686 14.713480566342678 6.471100953961394 1 4 -4
195 1 1 0.5897 8.207830322357875 12.862240724216727 9.276064203085527 2 -2 -6
339 1 1 0.5897 8.172847256322331 15.16067320721718 9.24528929871295 1 2 2
337 1 2 -1.1794 8.788790482729006 14.576408810162352 9.687380194491354 1 2 2
193 1 2 -1.1794 8.040714483783576 11.931151683078793 9.129914421295494 2 -2 -6
731 1 1 0.5897 6.340979303327207 14.544193540799572 7.393774144061455 1 4 -4
600 1 1 0.5897 5.344868383865859 12.903777028089607 9.128168575349896 -1 -9 -5
541 1 2 -1.1794 6.620429359923774 16.62247722409832 8.7721588402961 -10 3 10
598 1 2 -1.1794 5.4373939819081025 13.85294901825711 9.04635598272518 -1 -9 -5
599 1 1 0.5897 5.501804373639729 14.166428170530306 9.948444576458293 -1 -9 -5
437 1 1 0.5897 6.981577877231242 12.652592005482596 6.350380025389667 -6 4 5
194 1 1 0.5897 7.691049857025846 11.88690015176046 8.239989099080638 2 -2 -6
648 1 1 0.5897 8.31485538348919 15.185520486998401 14.277959034498444 -7 3 -6
332 1 1 0.5897 6.701195074152877 14.464072965000359 11.901013713940241 -2 -2 1
227 1 1 0.5897 8.339188821713046 13.590482172961483 11.250813697411516 3 -3 1
331 1 2 -1.1794 5.888254663775321 14.954843396606757 11.780774714850116 -2 -2 1
228 1 1 0.5897 8.861508434767659 13.267513369106904 12.63451916671409 3 -3 1
646 1 2 -1.1794 8.375892408201496 16.07589643213794 13.932007170801999 -7 3 -6
226 1 2 -1.1794 8.06139514558128 13.497255367908274 12.16203779817694 3 -3 1
723 1 1 0.5897 6.113187429735227 13.129301000910063 14.392988857504635 6 -1 -2
582 1 1 0.5897 8.14557838353413 13.146017591372086 15.861562009075874 -1 -2 -4
580 1 2 -1.1794 7.3448814786461485 13.65513313300695 15.735562615065287 -1 -2 -4
632 1 1 0.5897 6.004289541171206 16.571529127017932 12.695547400363129 4 5 2
721 1 2 -1.1794 5.5874934926450806 12.49159668205699 13.91011217473389 6 -1 -2
581 1 1 0.5897 7.534323921817199 14.503434350623873 16.136417054436066 -1 -2 -4
647 1 1 0.5897 7.49758395813817 16.266048197990578 13.602467743253298 -7 3 -6
333 1 1 0.5897 5.363307685990304 14.742407841804065 12.552454731480497 -2 -2 1
722 1 1 0.5897 5.1027481637541845 12.018758664862283 14.586593733344131 6 -1 -2
278 1 1 0.5897 7.099986130716316 11.924380917003191 12.146579406342282 2 4 -4
736 1 2 -1.1794 8.916168556907985 16.528878912328473 19.06050622748603 4 0 0
59 1 1 0.5897 6.595662194125067 13.5671288411281 19.828316984490222 -1 -6 -4
60 1 1 0.5897 7.098777405496835 14.719150491329403 20.67182720060203 -1 -6 -4
682 1 2 -1.1794 7.402522938590011 12.195933040621538 19.124710578511547 5 -5 -6
181 1 2 -1.1794 7.429012878527267 16.263645956391308 16.793272931808357 -1 4 -6
182 1 1 0.5897 7.91984848240808 16.332322074770936 17.612162452576058 0 4 -6
58 1 2 -1.1794 6.309111356045646 14.37479716832576 20.254633899101243 -1 -6 -4
83 1 1 0.5897 5.683700875955554 15.07210778133177 17.28212749352921 -6 -2 -6
684 1 1 0.5897 8.082319696998939 12.760380681279285 18.75663213355775 5 -5 -6
84 1 1 0.5897 5.414021276613045 14.774955136592549 18.74183259460513 -6 -2 -6
683 1 1 0.5897 6.91789718794577 11.876399371363554 18.363578333372253 5 -5 -6
82 1 2 -1.1794 4.978903539914114 15.03037449060982 17.92842455510037 -6 -2 -6
290 1 1 0.5897 5.331407687488395 20.224748158921493 5.275177343014045 -3 -7 -9
470 1 1 0.5897 5.68114159738655 19.52761069274678 3.4597126167296492 0 -11 1
452 1 1 0.5897 7.455375341854868 17.8854450469441 1.0842381934927838 1 1 2
453 1 1 0.5897 8.797356124546623 18.550743317882574 1.303840267409014 1 1 2
198 1 1 0.5897 7.5177535023622974 20.582011381305517 3.711498050942777 -2 -1 5
196 1 2 -1.1794 7.168175551691695 20.24017786916666 4.534406235260644 -2 -1 5
197 1 1 0.5897 7.629212534911736 19.411596697412303 4.665218555362432 -2 -1 5
3 1 1 0.5897 7.105460362751901 21.369857344220083 1.6106057245206458 -3 -4 11
155 1 1 0.5897 8.437454399206393 17.98080267321596 5.845301223503985 5 -2 -4
1 1 2 -1.1794 7.850666428703373 21.290387638973716 2.2060449373418782 -3 -4 11
468 1 1 0.5897 7.054205045977601 21.63122653192434 5.772036085325273 2 -3 8