LAMMPS data file via write_data, version 30 Jul 2021, timestep = 3500000

864 atoms
2 atom types
576 bonds
1 bond types
288 angles
1 angle types

0.1791548174298505 18.028417582567755 xlo xhi
1.3025519806313177 22.326625819369973 ylo yhi
0.2185684588102479 21.994627341189393 zlo zhi

Masses

1 1.00794
2 15.9994

Pair Coeffs # lj/cut/tip4p/long/omp

1 0 0
2 0.21084 3.1668

Bond Coeffs # harmonic/omp

1 450 0.9572

Angle Coeffs # harmonic/omp

1 55 104.52

Atoms # full

112 1 2 -1.1794 4.154481777232487 2.0084536963633157 4.118567102845722 -4 -2 2
243 1 1 0.5897 2.4991141340734218 4.997474628228209 4.72296574497469 0 -2 2
114 1 1 0.5897 4.606746859693159 2.512291090280291 3.441906184051701 -4 -2 2
40 1 2 -1.1794 2.2287189829714054 4.6834878582173385 1.876447138958678 -1 0 5
674 1 1 0.5897 3.645768890192204 5.617806756203886 2.1196495705560463 -3 -2 -3
724 1 2 -1.1794 1.4082217170583913 3.593302908993925 4.427802032146825 2 -5 3
41 1 1 0.5897 1.7038811439411436 4.303504241344566 2.581037981127331 -1 0 5
42 1 1 0.5897 2.1239016970546283 4.07558990286324 1.1445213280633246 -1 0 5
241 1 2 -1.1794 2.9461731598625662 5.763476389970698 5.083004488009728 0 -2 2
673 1 2 -1.1794 4.548443170378618 5.916227149387343 2.231049482792012 -3 -2 -3
242 1 1 0.5897 3.8772737363005008 5.552569888291695 5.013613717814138 0 -2 2
113 1 1 0.5897 3.317153329817034 1.7699182687494424 3.720756332850286 -4 -2 2
725 1 1 0.5897 1.686973302401341 3.0349643347029813 5.153613219405862 2 -5 3
527 1 1 0.5897 1.4320125482976465 6.420338935172917 1.5869878744997972 -2 -4 1
726 1 1 0.5897 0.5339768963601794 3.275273084908185 4.20240745471177 2 -5 3
504 1 1 0.5897 0.66208243890184 3.0002750649082834 0.28988211740662706 -4 1 3
450 1 1 0.5897 4.450311848927904 6.545901826419871 0.4954153486977401 5 0 -2
480 1 1 0.5897 2.688162621080096 3.4371366079508188 10.765528399082056 -2 3 -4
53 1 1 0.5897 2.4438652875980953 2.761698989194058 7.013339838813985 -4 -1 3
307 1 2 -1.1794 4.059125971136746 4.4553195369927945 9.824453271724003 0 4 -1
260 1 1 0.5897 1.4636537345006202 4.935735019749494 7.75024902397165 1 -2 6
416 1 1 0.5897 0.9748900829617388 2.415479558443163 9.607525717823107 0 -2 0
259 1 2 -1.1794 2.320108523406042 4.559552273346634 7.547234465727696 1 -2 6
261 1 1 0.5897 2.6525095668238636 5.094622349320714 6.826504692535349 1 -2 6
52 1 2 -1.1794 2.427656867905762 2.057906244281475 6.3647601843028205 -4 -1 3
309 1 1 0.5897 3.5567659538147036 4.531133126035491 9.013202335019715 0 4 -1
54 1 1 0.5897 3.326530958456461 2.010925988208676 6.0390883903016315 -4 -1 3
515 1 1 0.5897 3.2065180362857117 6.063120498017681 10.821840543648804 -3 -3 0
415 1 2 -1.1794 0.23772096057848913 2.2503140303361024 9.019650595317604 0 -2 0
378 1 1 0.5897 0.2808475810863924 1.3319797439700345 6.5342355527380995 1 4 4
574 1 2 -1.1794 2.009209754050515 4.525531306259687 15.504867849400972 3 0 -1
479 1 1 0.5897 1.5155445591869565 3.6716555223547567 11.693982152250232 -2 3 -4
852 1 1 0.5897 4.136837345123437 1.5037697073833867 13.613880462381925 -5 1 -3
647 1 1 0.5897 3.0425516766371166 5.788595843148391 14.527544565804419 -6 0 0
244 1 2 -1.1794 0.47328092380319575 5.209087037705301 12.226344682144765 -3 4 -2
575 1 1 0.5897 1.102885384275622 4.419144703494197 15.21590564881973 3 0 -1
576 1 1 0.5897 2.2354102965833196 3.6836878768731984 15.900313970633686 3 0 -1
245 1 1 0.5897 1.209344388629598 5.81829324129937 12.168576332303573 -3 4 -2
356 1 1 0.5897 2.577133448161701 1.6843583062347531 12.139186024084884 1 -1 3
478 1 2 -1.1794 1.9482891183241884 2.991359641204352 11.178051640659223 -2 3 -4
648 1 1 0.5897 3.351455676146629 6.491924108530493 13.223001797111007 -6 0 0
646 1 2 -1.1794 3.766737624489889 6.143367249470384 14.01185608910686 -6 0 0
213 1 1 0.5897 3.9741220137892657 1.3690647586620315 16.232246149836605 2 3 2
211 1 2 -1.1794 3.85893809354513 2.298590546403193 16.429732126377253 2 3 2
452 1 1 0.5897 1.5728865563536962 1.4911224037369477 18.776942658102122 -1 0 4
399 1 1 0.5897 2.037096039141197 3.4394785480380414 18.525429108457566 6 3 -5
318 1 1 0.5897 2.0439155440357903 5.509600348862225 20.153737954604345 -4 -4 0
398 1 1 0.5897 1.9193904871377752 4.835190093821119 17.9508891233869 6 3 -5
212 1 1 0.5897 4.236864440092342 2.407139498398167 17.302447555024195 2 3 2
397 1 2 -1.1794 2.466296303616087 4.295072123100448 18.521335368724053 6 3 -5
317 1 1 0.5897 2.18302394305662 6.555472241992421 21.239423776003157 -4 -4 -1
503 1 1 0.5897 1.2804205941261104 4.096913826982373 21.225075006924342 -4 1 2
451 1 2 -1.1794 1.0655380931087002 1.905200848776814 18.07881800087933 -1 0 4
554 1 1 0.5897 4.55446793998531 2.6298208781788537 20.906943774211364 -4 -6 3
762 1 1 0.5897 4.081782303505804 4.74394911715405 17.3121854477586 1 -4 -1
316 1 2 -1.1794 1.598205667787751 5.867630229572399 20.921460275310267 -4 -4 0
453 1 1 0.5897 1.4892413626141916 1.6163719796085851 17.270542266990006 -1 0 4
502 1 2 -1.1794 1.435109418478632 3.2064553644516005 21.540406992447274 -4 1 2
127 1 2 -1.1794 0.35593047002697087 5.975309572652159 17.815287708773837 -1 1 -5
553 1 2 -1.1794 4.189366259243829 2.8168483784967986 21.771818488751215 -4 -6 3
555 1 1 0.5897 3.241953357416575 2.8257875792305196 21.63553069079373 -4 -6 3
800 1 1 0.5897 3.2986206858675358 1.318441426969148 19.892081239812562 0 -1 3
523 1 2 -1.1794 1.0405860663609823 7.744767864834816 4.353551136399045 3 0 4
221 1 1 0.5897 0.9734445752077728 11.718490264248604 5.2086689135022315 3 -3 3
322 1 2 -1.1794 2.9195729828485946 9.790362200764527 1.7510560740823473 7 -1 -1
524 1 1 0.5897 1.0922909765003457 8.421875922790965 5.028177001424184 3 0 4
528 1 1 0.5897 0.9331541758245094 7.469410297900606 2.557847267149058 -2 -4 1
525 1 1 0.5897 1.7127595426459337 7.109173541591662 4.599437415021931 3 0 4
9 1 1 0.5897 3.997341974619165 8.827916341727963 3.0900358777027312 4 -1 0
526 1 2 -1.1794 1.283176062980505 7.361948843976053 1.6734283485547508 -2 -4 1
324 1 1 0.5897 2.5201824606754104 8.923655950969774 1.676509754870795 7 -1 -1
323 1 1 0.5897 3.5480320848375024 9.827827542839364 1.03002983254668 7 -1 -1
7 1 2 -1.1794 4.591378490101348 8.440868908671437 3.7331719302029245 4 -1 0
824 1 1 0.5897 2.947158519726587 11.544619135533466 2.4835995421691504 -2 4 3
8 1 1 0.5897 4.584000791036067 7.504661135092236 3.5337537215731434 4 -1 0
198 1 1 0.5897 3.7001844460021367 9.607088018833048 7.73145556177956 -2 -2 1
286 1 2 -1.1794 0.7916922060300546 8.964213550746617 10.893583021004389 3 1 1
634 1 2 -1.1794 4.202383395810561 8.951320845594099 10.59016995932684 -8 0 1
636 1 1 0.5897 3.8809703900066377 9.488080729848422 9.865714012641503 -8 0 1
196 1 2 -1.1794 3.0104740028866956 10.015057718523549 8.255002787763202 -2 -2 1
197 1 1 0.5897 2.332884757161966 9.34260429175033 8.325133952945658 -2 -2 1
195 1 1 0.5897 2.4050065384709036 11.671597758055412 7.9175060820662155 1 -4 0
80 1 1 0.5897 0.579043696820659 8.46091743110646 9.118665165517035 1 0 -4
79 1 2 -1.1794 0.5504918980370159 8.38091827552745 8.165233757601598 1 0 -4
288 1 1 0.5897 1.035415855112955 9.888552850628441 10.943271627633889 3 1 1
774 1 1 0.5897 2.0273520228821122 9.569606961676262 14.51078580498015 2 -4 3
516 1 1 0.5897 3.1445331990517107 7.5471377832895445 11.114724823071688 -3 -3 0
514 1 2 -1.1794 2.780094055292655 6.705583567171535 11.388981499780614 -3 -3 0
722 1 1 0.5897 3.6548340042528964 11.301661287746443 14.644609930891281 1 0 -1
772 1 2 -1.1794 2.230066379027302 10.358978647571176 15.012842645857527 2 -4 3
773 1 1 0.5897 1.3920435662607282 10.624116380715824 15.391883858658499 2 -4 3
328 1 2 -1.1794 1.1449902593614865 8.104990518395661 13.815125157937898 4 6 0
401 1 1 0.5897 1.4436559181657982 8.074951630166087 15.84229038181395 -2 -2 2
330 1 1 0.5897 1.3014764279098636 8.263601480439796 12.884213959295595 4 6 0
329 1 1 0.5897 0.3462816152441811 7.577931765954587 13.837826901308418 4 6 0
430 1 2 -1.1794 1.537395233743955 11.808322729113218 11.403604131414395 -5 -2 -3
448 1 2 -1.1794 3.99919355088091 7.078087589014905 21.616099656935113 5 0 -3
616 1 2 -1.1794 0.40885581497199186 9.809522544755787 18.49993766707832 0 2 0
702 1 1 0.5897 3.7496734540816123 10.67928807656735 19.992161650440174 3 1 2
104 1 1 0.5897 3.5952576324324057 9.04770222592974 17.181283507263792 2 0 5
618 1 1 0.5897 0.9164873059778208 9.354123595045127 17.828250620566138 0 2 0
701 1 1 0.5897 4.085822835929228 10.84820089637763 18.525721023098072 3 1 2
700 1 2 -1.1794 3.689847029558984 11.303398057248781 19.268855141419145 3 1 2
653 1 1 0.5897 0.5358391899005591 10.705276259342694 19.98879122709927 -1 0 -1
652 1 2 -1.1794 0.3619481158883001 11.177074910277124 20.80329241030463 -1 0 -1
449 1 1 0.5897 4.232739789693234 6.676856280152046 20.779012878416815 5 0 -3
103 1 2 -1.1794 4.480980907147843 9.393204962588676 17.292466041427424 2 0 5
402 1 1 0.5897 1.3616926431623084 7.2296687033105815 17.095573663890413 -2 -2 2
400 1 2 -1.1794 1.667016705529652 8.077619216774867 16.773066195158066 -2 -2 2
222 1 1 0.5897 0.639066455724173 13.121434799528346 4.748366321066762 3 -3 3
507 1 1 0.5897 4.245349725405502 15.676488771893018 0.6041404337482688 3 1 -3
627 1 1 0.5897 2.075609291995187 15.573433382737038 1.8267560653772612 -5 -3 3
220 1 2 -1.1794 1.3417570819513227 12.598923250576801 5.134975868444913 3 -3 3
305 1 1 0.5897 0.38464317188003483 16.95517914982967 2.7932118679082847 5 -2 -5
825 1 1 0.5897 2.472276888342171 12.179439498467858 3.773334395139661 -2 4 3
823 1 2 -1.1794 3.163190758136763 12.2326852526987 3.112998673406119 -2 4 3
625 1 2 -1.1794 1.5715518172663543 16.290658583229167 1.4423349052306091 -5 -3 3
626 1 1 0.5897 1.1174631387455753 15.893488970957483 0.6991634648712097 -5 -3 3
676 1 2 -1.1794 3.745972685659598 14.784320713101513 2.222771278206569 2 0 -2
678 1 1 0.5897 3.4234654068605925 13.949673856028207 2.562783239528079 2 0 -2
677 1 1 0.5897 4.386200495652941 15.076469576855274 2.871637043503684 2 0 -2
306 1 1 0.5897 0.20552694178445208 16.15561988242156 4.066223117252073 5 -2 -5
193 1 2 -1.1794 2.310159927545612 12.590137282825149 7.66541551802345 1 -4 0
538 1 2 -1.1794 0.5571945276283237 13.799774809378816 9.567123887655443 -1 -3 1
203 1 1 0.5897 1.7196959397876472 14.720289101065648 10.655499633654552 -5 3 2
539 1 1 0.5897 1.1606303135827793 13.427290635381157 8.924187894318036 -1 -3 1
560 1 1 0.5897 4.387545221669074 15.452462410837642 5.903558116556101 5 0 2
432 1 1 0.5897 1.1637778997681163 12.505791043698219 10.864910235613397 -5 -2 -3
194 1 1 0.5897 1.913114991255717 12.560349017799107 6.794942081371723 1 -4 0
353 1 1 0.5897 2.7507777312431467 16.54476678674871 6.910416881599795 5 3 -2
255 1 1 0.5897 2.6934382498762433 16.6293237708312 10.457201566680958 2 7 -7
559 1 2 -1.1794 4.251900912742257 16.383667435513765 5.728308904476823 5 0 2
687 1 1 0.5897 3.9906516423074248 13.328060661724447 6.986815610592762 9 -6 -3
352 1 2 -1.1794 1.9427984385252064 16.740240158804188 7.384969361348928 5 3 -2
546 1 1 0.5897 4.615470573140487 12.272628377539457 10.946247481285754 -4 3 5
862 1 2 -1.1794 2.57954491611262 13.917060954323752 15.475086352266924 0 -2 1
863 1 1 0.5897 2.950059984995224 13.160504268085713 15.020563586562163 0 -2 1
141 1 1 0.5897 2.299296142673298 15.679797813562232 12.722430717944306 0 -1 0
864 1 1 0.5897 2.397888017744742 14.549416745823747 14.779835965492001 0 -2 1
544 1 2 -1.1794 4.052112314409941 12.765677018865702 11.542713011212701 -4 3 5
139 1 2 -1.1794 2.339568323252125 16.034764315938496 13.61047651814374 0 -1 0
140 1 1 0.5897 1.6094752074012244 16.652161228095753 13.65547719628629 0 -1 0
721 1 2 -1.1794 4.334062990834181 11.851958571366314 14.254660469824342 1 0 -1
545 1 1 0.5897 4.261256360097736 12.420530932850438 12.410684053007682 -4 3 5
117 1 1 0.5897 0.35423363406468555 11.920507969313581 12.823446732529874 -1 -3 4
204 1 1 0.5897 3.060759349420559 14.324319295619162 11.235802955794933 -5 3 2
431 1 1 0.5897 2.4807427045510653 11.969574544256801 11.384534837408461 -5 -2 -3
202 1 2 -1.1794 2.4603802767240692 15.06535682709664 11.154088365394513 -5 3 2
279 1 1 0.5897 2.188164987565603 13.308424415951414 17.090605131870262 0 0 1
277 1 2 -1.1794 1.8643421816936612 13.128260965445088 17.97317372471109 0 0 1
742 1 2 -1.1794 2.181968269459873 13.219323801577644 20.88750061061031 -2 -1 0
278 1 1 0.5897 2.3692319293260975 12.368681097264584 18.263651293960116 0 0 1
743 1 1 0.5897 2.350292260817198 13.580675175820039 20.017251742623912 -2 -1 0
744 1 1 0.5897 1.819491672474218 12.349360022169124 20.720125223992767 -2 -1 0
285 1 1 0.5897 0.5622584831641557 14.278424246572163 21.197900230090063 7 0 -4
122 1 1 0.5897 3.618161940185953 15.001317549645881 16.584577666862508 1 -2 -1
121 1 2 -1.1794 4.258339193664025 15.434697487968405 17.149026921513176 1 -2 -1
505 1 2 -1.1794 4.392631139929862 15.822329117495284 21.4457007743342 3 1 -4
360 1 1 0.5897 3.1037903944499834 16.25473513276151 20.01761319859647 3 0 -5
471 1 1 0.5897 1.5256768619830903 16.40120491880052 17.614700706713357 1 -3 2
123 1 1 0.5897 3.7322293972135694 15.859703398365955 17.826390099675884 1 -2 -1
358 1 2 -1.1794 2.6090547137916626 16.518603494036924 19.241814916366522 3 0 -5
469 1 2 -1.1794 1.2563725756860382 16.515021497455518 16.70322890587689 1 -3 2
816 1 1 0.5897 1.5313873634324942 18.178310132748905 4.17061371434009 -3 6 -3
364 1 2 -1.1794 3.55425922103308 18.44206245176899 0.8977637476695851 1 4 2
521 1 1 0.5897 1.5851545129424387 20.894020087378777 3.910421302437592 -3 -1 -2
814 1 2 -1.1794 1.9506309875290655 19.03388949188859 4.2626342164873305 -3 6 -3
522 1 1 0.5897 0.7770031885447266 22.104096039957195 3.492632480371778 -3 -1 -2
365 1 1 0.5897 2.843127625822214 17.82293756705067 1.0627664854227525 1 4 2
495 1 1 0.5897 1.9745692124167615 20.99277516607085 1.575070826579975 -2 -2 0
815 1 1 0.5897 2.8406927143909004 18.901340730352537 3.936333968240807 -3 6 -3
520 1 2 -1.1794 1.639163085018976 21.699579396343438 3.396216909242316 -3 -1 -2
366 1 1 0.5897 3.113172243436523 19.274278486520977 0.7271665478121684 1 4 2
494 1 1 0.5897 1.1903226274920635 20.52412755279826 0.3678772749941751 -2 -2 0
493 1 2 -1.1794 2.0716362030984308 20.769829949012365 0.6492515459627985 -2 -2 0
474 1 1 0.5897 4.599052551841214 17.692847566798665 4.583471290682116 0 0 -1
607 1 2 -1.1794 3.6447363262909223 20.833112404344575 7.55960786346974 4 3 2
782 1 1 0.5897 4.058086225700266 19.29495730307062 10.006563598607897 -2 -1 2
253 1 2 -1.1794 2.694346352356616 17.526424739696512 10.123348057202382 2 7 -7
354 1 1 0.5897 1.797336974642506 17.67460788847312 7.2365051996397165 5 3 -2
578 1 1 0.5897 0.9897836151214785 19.88275547317211 10.923359356342758 2 0 -2
608 1 1 0.5897 2.949610533966881 20.182707135419825 7.459543478847722 4 3 2
51 1 1 0.5897 0.7732734129555084 20.01895241954765 6.9346455887348215 7 1 -1
609 1 1 0.5897 3.2231358170635414 21.668135452657975 7.3564985488805155 4 3 2
49 1 2 -1.1794 1.4508828099205453 19.344187859141265 6.8921767669994995 7 1 -1
254 1 1 0.5897 2.575548707110115 17.430943973169104 9.178350829627675 2 7 -7
50 1 1 0.5897 1.646967439859234 19.259402827189085 5.959113340216218 7 1 -1
369 1 1 0.5897 1.0061605720703777 20.286423175301547 16.022230839846706 5 5 -3
357 1 1 0.5897 2.5174655709001774 21.20151511310624 12.271726886208212 1 -2 3
355 1 2 -1.1794 2.7305384657207186 21.99653137879131 12.760400198505465 1 -2 3
367 1 2 -1.1794 0.6963950886342357 19.394444051724914 16.179258214960857 5 5 -2
577 1 2 -1.1794 1.6902372577517912 19.69508167250834 11.548206061038544 2 0 -2
589 1 2 -1.1794 4.408086182353603 20.193994186482737 16.178908930806035 2 4 2
587 1 1 0.5897 0.38934202359835524 22.151870240231545 14.792394986880142 0 1 4
588 1 1 0.5897 1.8792989389021637 22.112476895669403 14.527057045091478 0 1 4
146 1 1 0.5897 3.7145544265270507 17.57388093118649 13.594055114886508 0 1 -4
368 1 1 0.5897 0.6800034963142151 18.989905148417336 15.311893069659224 5 5 -2
591 1 1 0.5897 4.215024025280221 19.618599946799637 15.438703349701724 2 4 2
586 1 2 -1.1794 1.2311659455200248 22.00247179484345 15.222831442984107 0 1 4
229 1 2 -1.1794 0.5194566352389087 18.193295082931648 13.515825942166426 2 3 0
231 1 1 0.5897 0.9359911987153323 18.821281519847048 12.92558937234674 2 3 0
145 1 2 -1.1794 4.069297293797204 18.380235248804713 13.968511471558529 0 1 -4
470 1 1 0.5897 1.4819860175661261 17.42229969990241 16.49782170152406 1 -3 2
579 1 1 0.5897 2.20993069661235 19.01007596808184 11.127541473099276 2 0 -2
801 1 1 0.5897 2.4395827779395254 21.57885172971372 20.877388459850636 0 -2 3
853 1 2 -1.1794 3.7022412251620835 19.10129618601505 18.610338362195996 -2 1 0
855 1 1 0.5897 3.327095418944675 19.8431530660848 19.08484493130731 -2 1 0
359 1 1 0.5897 2.8726999417101564 17.425503834604783 19.086040698004965 3 0 -5
39 1 1 0.5897 0.8563640670733635 17.215390930347354 20.441134964526164 -1 1 -3
854 1 1 0.5897 3.7851415110455666 19.410553275422558 17.70826634570352 -2 1 0
799 1 2 -1.1794 2.706278212368199 21.593493060987893 19.95820405258324 0 -2 3
185 1 1 0.5897 7.431808389835652 3.878963845158812 1.1003623243743554 0 5 4
344 1 1 0.5897 5.282283794979476 3.191074468879129 1.495037759750176 -2 1 -1
186 1 1 0.5897 8.720658655126591 4.652499248800913 1.2805436551300202 0 5 4
550 1 2 -1.1794 8.999856205679292 2.1652854626230944 4.341798855982088 -3 7 -4
184 1 2 -1.1794 8.309011758495007 3.9846747666139906 0.7320812854657321 0 5 4
343 1 2 -1.1794 5.768973575382534 3.415741921384341 2.288109499109548 -2 1 -1
846 1 1 0.5897 6.665452810858838 5.965086846585242 4.285745228231227 -2 0 4
345 1 1 0.5897 6.227291308382661 2.609449556314467 2.524939107598464 -2 1 -1
675 1 1 0.5897 5.06198316672664 5.1105815562029395 2.2902031677041528 -3 -2 -3
552 1 1 0.5897 8.485149054278475 1.653623555816867 3.7176822017755717 -3 7 -4
716 1 1 0.5897 7.213813275921177 2.4873474434848095 5.372612672819783 4 -7 -4
347 1 1 0.5897 5.621273142239137 3.966325205936932 5.169399226068233 -2 3 -2
372 1 1 0.5897 8.495027852001403 6.300886331115505 2.9790616142659014 3 7 0
346 1 2 -1.1794 5.5893842413785055 4.920079909625135 5.244108425456926 -2 3 -2
375 1 1 0.5897 6.518104985515768 2.7604698946822603 9.093090577814054 4 5 -1
373 1 2 -1.1794 6.468433206313477 3.4855506467543798 8.470162911925087 4 5 -1
733 1 2 -1.1794 9.017496089527253 4.788512503383518 9.5031992777637 -1 1 -2
374 1 1 0.5897 6.530300902326582 3.0683629612428778 7.610838604592548 4 5 -1
444 1 1 0.5897 8.267626247764298 6.406481112453037 6.368069620916761 5 5 -2
492 1 1 0.5897 8.248645027800217 2.038844325543505 10.747691963033802 0 4 3
735 1 1 0.5897 8.07563653570427 4.839798926387354 9.34031781901181 -1 1 -2
715 1 2 -1.1794 6.528098255417559 2.3150547382671274 6.017871020478301 4 -7 -4
308 1 1 0.5897 4.919614718232133 4.142273462842566 9.54550629491331 0 4 -1
348 1 1 0.5897 5.975827407762357 5.106843133137249 6.099692549456501 -2 3 -2
491 1 1 0.5897 9.031557194415992 3.333422858943995 10.692289673505304 0 4 3
490 1 2 -1.1794 9.072876979738936 2.4375517722039524 11.026879241138124 0 4 3
717 1 1 0.5897 6.11076960029718 1.50853205398016 5.715043292294031 4 -7 -4
745 1 2 -1.1794 6.7164423587104425 3.647371279296608 15.689167448767725 2 4 -7
818 1 1 0.5897 5.557690801630826 3.47483249247723 13.173512907936708 3 -1 1
747 1 1 0.5897 6.145082538147237 4.111451328823364 16.301083968454478 2 4 -7
817 1 2 -1.1794 5.883005877246491 4.3750632394879805 13.170280854224298 3 -1 1
10 1 2 -1.1794 8.510468541050521 1.7359877904391696 14.908761218965102 -4 1 5
28 1 2 -1.1794 7.539184592899386 6.429944157563111 12.129862117207033 -7 1 5
30 1 1 0.5897 7.1284216180006945 5.573562622744198 12.248733073735762 -7 1 5
746 1 1 0.5897 6.554531504860462 4.067100713519256 14.844268835825584 2 4 -7
11 1 1 0.5897 7.953600629083045 2.4353551226176444 15.250854280241231 -4 1 5
819 1 1 0.5897 5.146255144324013 4.8975969251939 13.487173389541736 3 -2 1
850 1 2 -1.1794 4.93124780761105 1.8853952144435238 13.987421130420651 -5 1 -3
83 1 1 0.5897 8.971562597185464 5.131929526390056 15.562195469909348 -1 -2 -7
29 1 1 0.5897 8.472685821346218 6.238018771274073 12.040416360490548 -7 1 5
851 1 1 0.5897 4.667988875807702 2.1828640865670086 14.858317011588365 -5 1 -3
461 1 1 0.5897 7.799111744481442 6.516144350440504 13.841337049546933 3 3 -1
761 1 1 0.5897 5.021214205942301 5.795166976409118 17.863922503768904 1 -4 -1
326 1 1 0.5897 7.755033614773211 2.239377638154291 18.373160823674986 0 -1 -2
760 1 2 -1.1794 5.009825730973628 4.96747621354289 17.383247242845577 1 -4 -1
780 1 1 0.5897 7.808656638410101 4.17106455989639 20.602529312891377 -2 0 -2
65 1 1 0.5897 4.971330205229005 3.3310229150043824 19.07671931548338 3 1 -4
778 1 2 -1.1794 7.447050547505842 4.453108109412094 19.762315423127767 -2 0 -2
66 1 1 0.5897 5.811449599431061 2.072567123548308 19.125768645476704 3 1 -4
779 1 1 0.5897 8.16571362317586 4.3372767551234155 19.140745540064493 -2 0 -2
858 1 1 0.5897 7.407278006110452 6.309264106675956 20.145870507264647 -1 0 -3
64 1 2 -1.1794 4.92789471204787 2.399902868108419 19.294385648735357 3 1 -4
325 1 2 -1.1794 7.325010509503819 1.4418739400449492 18.681920200257103 0 -1 -2
707 1 1 0.5897 6.756659999776513 8.366229806541401 2.832034227915556 0 -2 -6
708 1 1 0.5897 6.871744537922137 9.833522017995175 2.4774300253753565 0 -2 -6
67 1 2 -1.1794 8.7776701818342 7.966618177298008 0.5001456081123804 5 -2 -4
68 1 1 0.5897 8.165096613604536 8.338513712350576 1.1347362342788567 5 -2 -4
706 1 2 -1.1794 7.385864745100886 9.029161227523733 2.5476263551069387 0 -2 -6
596 1 1 0.5897 4.910916267370715 8.738245505395444 5.591832823426901 2 -3 1
844 1 2 -1.1794 7.230459635183939 6.69376526551722 4.0287174704 -2 0 4
845 1 1 0.5897 7.838673592439578 6.795658555184584 4.760796285655433 -2 0 4
639 1 1 0.5897 9.07443612779221 9.592944747407227 3.470040441259666 -7 0 3
710 1 1 0.5897 5.982568890620466 11.804651961216083 4.131751193607348 -5 -3 -1
597 1 1 0.5897 5.783378135652967 9.820601501453702 6.191202749371008 1 -3 1
629 1 1 0.5897 7.5088826031058025 8.661816650468563 9.64126144944457 -1 -3 4
628 1 2 -1.1794 6.921472008640928 7.941436850695424 9.869852630674211 -1 -3 4
595 1 2 -1.1794 5.181521958113094 9.11529571875584 6.429013800207776 1 -3 1
635 1 1 0.5897 5.0814561195809995 8.685472450925142 10.32024007443063 -8 0 1
655 1 2 -1.1794 8.095608520054155 10.12652859930427 8.822343388402748 0 2 0
612 1 1 0.5897 6.399250161391127 10.944380234291916 9.92742904391555 3 3 -1
656 1 1 0.5897 8.234473545048681 11.056963297765364 8.64552218858997 0 2 0
18 1 1 0.5897 6.137479088430468 7.348858617427048 6.895008747591854 -2 3 3
630 1 1 0.5897 7.314898701457968 7.54908288479092 10.649285131590485 -1 -3 4
17 1 1 0.5897 6.55626810120487 6.838998736843189 8.257574501802926 -2 3 3
657 1 1 0.5897 8.46823224854833 9.67958120936632 8.06231131449308 1 2 0
835 1 2 -1.1794 6.40655077831025 11.643003799077853 5.940134345323734 -1 1 -1
610 1 2 -1.1794 5.989230124520023 11.800323974839811 10.051896634798103 3 3 -1
16 1 2 -1.1794 6.507697834695982 6.584287471069648 7.336157119105004 -2 3 3
482 1 1 0.5897 7.777098861726883 10.167612628083681 12.650920889966882 0 3 -1
532 1 2 -1.1794 5.830088125359973 9.947768782286763 12.80094123213578 -6 -2 -1
533 1 1 0.5897 5.788401163497677 9.335488897258944 13.535538928044694 -6 -2 -1
795 1 1 0.5897 6.469789326169055 7.640013137822894 14.872369390802838 -4 0 5
534 1 1 0.5897 5.11520958330275 9.679203422655137 12.223824564855617 -6 -2 -1
481 1 2 -1.1794 8.681823307510667 10.4754026931917 12.596200616047264 0 3 -1
723 1 1 0.5897 4.997665212664212 11.233615219628122 13.948845240495512 1 0 -1
462 1 1 0.5897 8.551498729823104 7.489040544285692 14.724118941067008 3 3 -1
793 1 2 -1.1794 5.6539722624463336 8.134843108567138 14.795529850761254 -4 0 5
794 1 1 0.5897 5.024408925517305 7.5062089136313555 14.442137310478145 -4 0 5
460 1 2 -1.1794 7.994561406205719 6.711265514752038 14.757840181866538 3 3 -1
252 1 1 0.5897 5.818093034339236 7.284591598813405 19.21785263533637 4 -4 1
96 1 1 0.5897 5.7234323390260355 10.013351496612973 21.02577154311996 -3 0 -1
487 1 2 -1.1794 7.597079368917633 10.770446255855918 21.07113396177666 0 -4 2
489 1 1 0.5897 8.498442659817096 10.488408060016571 21.226838676209077 0 -4 2
857 1 1 0.5897 8.15901873663292 7.456598286319413 19.50518719538644 -1 0 -3
94 1 2 -1.1794 4.829065888910524 9.836927336556327 21.317796171223108 -3 0 -1
69 1 1 0.5897 8.240079174824764 7.774614941445689 21.507829800064023 5 -2 -5
842 1 1 0.5897 7.206673799405643 11.651352377406353 19.285098407952894 -2 1 0
95 1 1 0.5897 4.722105154042635 8.892281669933539 21.206174618786008 -2 0 -1
807 1 1 0.5897 8.281661785135405 10.603964562660696 17.206353699030913 1 -1 -4
856 1 2 -1.1794 7.390097240819051 7.260511672168145 20.04051696533803 -1 0 -3
250 1 2 -1.1794 5.001240647484991 7.076522264050996 18.76427083460098 4 -4 1
251 1 1 0.5897 4.721571495815768 7.907535119725467 18.380236708081483 4 -4 1
488 1 1 0.5897 7.475393677839554 11.518688643972476 21.655570357850415 0 -4 2
805 1 2 -1.1794 9.061560304414554 10.178893996889375 16.8495447284379 1 -1 -4
105 1 1 0.5897 4.98774225095329 8.984837525303403 16.590560953387296 2 0 5
119 1 1 0.5897 6.0391722583466425 13.851771879281074 3.418460728941973 3 -3 -1
692 1 1 0.5897 8.107122173534641 15.715223076767268 2.2054713749961676 2 0 4
601 1 2 -1.1794 8.370327680933555 15.250935014982758 5.53317866123405 4 3 -1
693 1 1 0.5897 7.277478787860436 14.853451531724637 1.277532420928643 2 0 4
118 1 2 -1.1794 6.190429822583991 14.655044929092409 3.9165749667407166 3 -3 -1
709 1 2 -1.1794 5.869296747414337 11.95065505376868 3.192535377644052 -5 -3 -1
691 1 2 -1.1794 7.365733256236027 15.750030624960083 1.6009871738893613 2 0 4
603 1 1 0.5897 7.440639542427754 15.244964543907535 5.305395818248372 4 3 -1
120 1 1 0.5897 6.498039186427601 15.286404907717156 3.266189093475739 3 -3 -1
109 1 2 -1.1794 7.293390712761711 13.04430199804425 1.010675915546107 -2 -1 -7
111 1 1 0.5897 6.826133627054067 12.649825406817845 1.7470893425468244 -2 -1 -7
711 1 1 0.5897 4.923770308525335 12.044443909458387 3.0765551174601455 -5 -3 -1
602 1 1 0.5897 8.793889111386413 15.69924847361195 4.801156313574521 4 3 -2
110 1 1 0.5897 6.620411869919565 13.177680490293238 0.34317938892895283 -2 -1 -7
176 1 1 0.5897 8.675158100451482 13.183334359549141 8.053923923932292 -1 -3 6
686 1 1 0.5897 5.161521577070261 14.142733179822715 7.494066647338318 9 -6 -3
611 1 1 0.5897 6.723107950033881 12.402141398065881 10.176483479103098 3 3 -1
44 1 1 0.5897 8.756013461171394 13.729883188117467 6.207649324628405 2 6 -2
226 1 2 -1.1794 6.02493268131277 15.144739226245877 8.905383723866276 2 -3 0
227 1 1 0.5897 6.865033125351273 14.688192851972937 8.950618933841533 2 -3 0
837 1 1 0.5897 5.794854537802805 12.34284886694615 6.168831248411197 -1 1 -1
561 1 1 0.5897 4.666609607954886 16.829738536148984 6.46675211097299 5 0 2
228 1 1 0.5897 6.2433770103354655 16.01748170807761 8.578491874431108 2 -3 0
500 1 1 0.5897 5.696910909117721 15.091926214833169 10.783348351014268 0 -1 -3
175 1 2 -1.1794 8.374356272857721 13.089049288571445 8.957769900806134 -1 -3 6
684 1 1 0.5897 9.017546203694376 16.97153511182006 10.586586806428357 5 0 -5
685 1 2 -1.1794 4.726880128928542 13.862229862721724 6.68868109584481 9 -6 -3
836 1 1 0.5897 7.272657985258268 12.031649147163924 6.062892901520573 -1 1 -1
43 1 2 -1.1794 9.055869937676448 12.883010772263422 6.538003707145354 2 6 -2
25 1 2 -1.1794 5.742362746130064 16.66247190750427 15.385402101660137 0 5 6
789 1 1 0.5897 7.127898690279305 15.00178766983849 12.78686781373547 3 -2 5
788 1 1 0.5897 7.354959727986152 15.674978655679356 14.12372077686592 3 -2 5
787 1 2 -1.1794 7.8165952504585725 15.36136266312053 13.34603960433278 3 -2 5
813 1 1 0.5897 9.024859905885275 12.471007181555056 13.227914472364676 -5 5 -4
74 1 1 0.5897 5.123994826921479 12.772556940409729 15.925630338947776 3 -1 2
294 1 1 0.5897 8.257127525108404 16.850893807823542 12.614224208601781 -3 -1 2
501 1 1 0.5897 5.396654335341207 13.841139383646354 11.581664685183005 0 -1 -3
499 1 2 -1.1794 5.992012104642334 14.589666920609465 11.542886093614964 0 -1 -3
26 1 1 0.5897 5.1497901328222255 16.291832987437886 16.039408778851836 0 5 6
217 1 2 -1.1794 5.504144614385591 13.476106375478185 20.578378689631577 4 -1 -2
89 1 1 0.5897 8.383912419187691 14.57304557218051 18.796510628951665 7 -1 3
75 1 1 0.5897 5.171190271290199 13.874893587368822 16.962237554568986 3 -1 2
90 1 1 0.5897 7.221517223641484 14.537147582363744 19.765769457791798 7 -1 3
88 1 2 -1.1794 7.930455370457879 15.099967731819524 19.45451448126275 7 -1 3
219 1 1 0.5897 4.852254460766513 14.100016649196299 20.897825670010775 4 -1 -2
73 1 2 -1.1794 5.275134364850167 12.929099163291227 16.857776235210174 3 -1 2
506 1 1 0.5897 4.943503106296561 16.604257715141788 21.408730285277272 3 1 -4
843 1 1 0.5897 6.5721021895649026 12.26143955111529 18.053421325244507 -2 1 0
192 1 1 0.5897 8.947194515092534 12.989387979945095 17.53758872459364 4 4 -5
218 1 1 0.5897 4.994172907086854 12.814206252517543 20.111358149585428 4 -1 -2
2 1 1 0.5897 8.192976567027081 17.014290757385304 19.488718027519987 2 -7 3
841 1 2 -1.1794 7.416750827436381 11.995799307845875 18.41707594857113 -2 1 0
697 1 2 -1.1794 7.1638946796416745 21.983231519129067 2.8463203001817705 -2 3 -3
334 1 2 -1.1794 8.260947291903586 19.761238196421175 4.130516096461909 6 -1 2
55 1 2 -1.1794 6.792442223064986 18.65054076438865 1.91586475696682 -3 0 1
335 1 1 0.5897 7.882312331897471 19.364819087146476 3.345825803978231 6 -1 2
698 1 1 0.5897 7.00524724712809 21.704408579583852 1.9444731042387775 -2 3 -3
56 1 1 0.5897 5.966817639870467 18.459738204057707 2.3610506848292085 -3 0 1
57 1 1 0.5897 7.133377891819372 17.792217849408573 1.66429413661493 -3 0 1
473 1 1 0.5897 5.219260316538891 19.070680205834826 4.489355665434389 0 0 -1
699 1 1 0.5897 7.402360306527309 21.179167275004403 3.307681084760393 -2 3 -3
568 1 2 -1.1794 5.264286577961774 20.80622937772232 5.387166707863078 2 0 0
621 1 1 0.5897 8.422650993390327 20.455664538310614 0.5444015341715689 1 -2 4