LAMMPS data file via write_data, version 30 Jul 2021, timestep = 16750000

864 atoms
2 atom types
576 bonds
1 bond types
288 angles
1 angle types

0.5098546278963045 17.6977177721042 xlo xhi
1.692072675415675 21.93710512458666 ylo yhi
0.622021455149735 21.591174344841217 zlo zhi

Masses

1 1.00794
2 15.9994

Pair Coeffs # lj/cut/tip4p/long/omp

1 0 0
2 0.21084 3.1668

Bond Coeffs # harmonic/omp

1 450 0.9572

Angle Coeffs # harmonic/omp

1 55 104.52

Atoms # full

291 1 1 0.5897 8.124289980116139 2.4165632576763088 4.565216594421886 -10 -2 -2
766 1 2 -1.1794 2.488108951532074 5.7809581359152915 0.7623166819705549 2 1 9
776 1 1 0.5897 2.452606318372064 1.8496442886135576 4.6311315765082055 0 -7 -1
768 1 1 0.5897 1.9835614028025181 5.194439551540405 1.3260669236999194 2 1 9
122 1 1 0.5897 5.320114308399267 2.4855591458425863 1.400038384918128 0 -4 1
578 1 1 0.5897 1.0305243719111798 3.2873522779799247 3.0097566627721477 2 -1 -2
798 1 1 0.5897 5.258541667307195 4.18931763530069 4.48025930783015 -1 -3 -3
797 1 1 0.5897 6.447106617634395 3.4501080112929627 5.057442263042314 -1 -3 -3
252 1 1 0.5897 6.785839918511811 5.489702665374451 4.734047280529757 -3 -9 4
289 1 2 -1.1794 8.087929372372157 2.7432510615253913 5.464290886990475 -10 -2 -2
121 1 2 -1.1794 5.602577870809889 1.9278793988783398 2.1250079699746047 0 -4 1
625 1 2 -1.1794 8.123093653800161 5.948200974191488 1.4318494101302437 -4 -4 3
251 1 1 0.5897 8.095708996763504 6.205086654236926 4.479631592777992 -3 -9 4
577 1 2 -1.1794 1.3520394998482075 4.16560208169852 2.80560464782477 2 -1 -2
250 1 2 -1.1794 7.2190272547900385 6.078995780917039 4.116426299576413 -3 -9 4
417 1 1 0.5897 4.012718759150675 5.791893996123566 3.5538933266750266 2 -3 -1
626 1 1 0.5897 7.815783581919368 5.906426410842818 2.337531855414003 -4 -4 3
423 1 1 0.5897 7.547616667975788 2.1560150283102084 2.3193667763301686 -1 1 3
777 1 1 0.5897 3.6345252621796105 2.521439900965101 3.9647915045827045 0 -7 -1
421 1 2 -1.1794 8.428628544831904 2.1533936101316247 2.693804885745654 -1 1 3
579 1 1 0.5897 1.0359260589268884 4.710479856312817 3.526405750107452 2 -1 -2
416 1 1 0.5897 3.1993633944512383 4.649565373902812 2.983112968412007 2 -3 -1
415 1 2 -1.1794 4.082975971169914 4.880343625125533 3.2700865943663624 2 -3 -1
796 1 2 -1.1794 5.699582606498363 3.99352137513486 5.307045351968061 -1 -3 -3
287 1 1 0.5897 0.627834321690524 6.539390201458728 5.283724876932004 2 1 1
361 1 2 -1.1794 0.8951697801951043 2.240771669168815 5.625767618019644 2 -1 0
315 1 1 0.5897 8.91442922157338 4.311620318866774 5.7334724545138025 1 -4 -1
743 1 1 0.5897 4.434383974705121 6.241730889008394 0.9381504746134678 1 0 2
836 1 1 0.5897 3.2087315678202137 2.7766108966340752 7.707736536688587 1 3 -5
523 1 2 -1.1794 2.992985936302141 4.138385616283193 10.658974812718265 -3 2 4
334 1 2 -1.1794 1.238343544678459 5.165548551740365 8.681470580695239 0 -1 5
547 1 2 -1.1794 3.8361983287933543 6.646713108142118 6.1976501168526585 9 1 0
570 1 1 0.5897 5.861552413778389 3.984170426959075 7.113507135213135 4 4 0
568 1 2 -1.1794 5.892479814530076 3.8554775952774527 8.061606415526644 4 4 0
543 1 1 0.5897 2.0483049909620568 4.652857177759797 7.235287460866866 -13 7 5
541 1 2 -1.1794 2.4561762233233955 4.181065152528085 6.509040014440011 -13 7 5
698 1 1 0.5897 5.093120088137744 5.315783104211503 8.65217139602665 -3 4 -3
542 1 1 0.5897 3.1185085276085482 4.784744306327841 6.172477311787494 -13 7 5
332 1 1 0.5897 8.046120706922215 2.2031839989542092 9.728988884950159 1 -4 -4
241 1 2 -1.1794 7.642023551304473 5.968602517731203 9.656973134757482 4 -3 4
525 1 1 0.5897 3.079511847384997 3.3538990038004797 10.117237822988386 -3 2 4
835 1 2 -1.1794 3.586592961026327 2.358335918036306 8.481470016038582 1 3 -5
333 1 1 0.5897 7.1790498072552715 2.70491663564327 8.593769581057785 1 -4 -4
548 1 1 0.5897 4.207029441432333 6.51700737979605 7.070596571131165 9 1 0
569 1 1 0.5897 5.41369009288592 3.039684389276532 8.208776335719772 4 4 0
738 1 1 0.5897 6.079808647504773 5.03766053753019 10.373971841062886 0 1 -2
697 1 2 -1.1794 4.707798717531293 6.177963409569147 8.808847011122813 -3 4 -3
290 1 1 0.5897 8.135635954141975 1.9565280947682608 6.007630044152824 -10 -2 -2
335 1 1 0.5897 0.596422206006175 4.472817876691984 8.837847779798684 0 -1 5
336 1 1 0.5897 1.9439581892332738 4.9834794179852775 9.302229168983027 0 -1 5
242 1 1 0.5897 8.334264036732382 6.36006895643201 9.12408209687089 4 -3 4
331 1 2 -1.1794 7.534038729655392 1.9031619947268699 8.97789522543364 1 -4 -4
243 1 1 0.5897 8.098017154194903 5.615473502781878 10.421014488047252 4 -3 4
524 1 1 0.5897 3.843251723988217 4.572727543383573 10.589916610481348 -3 2 4
737 1 1 0.5897 5.866842599440526 3.724588546509878 11.096982676527167 0 1 -2
362 1 1 0.5897 1.2717326243172162 3.065489499318602 5.933149819317515 2 -1 0
495 1 1 0.5897 3.274329058980433 6.748812053536455 9.747768920922029 3 0 -2
363 1 1 0.5897 0.5675178058912963 1.8163096376657464 6.418837139095145 2 -1 0
469 1 2 -1.1794 5.6515190670929245 1.7139018460653617 11.050805061668587 5 4 3
467 1 1 0.5897 8.936924258527789 2.8593968002825596 13.904673726640054 1 1 7
772 1 2 -1.1794 6.512457339218729 4.296402534111744 16.307029767965908 3 0 4
356 1 1 0.5897 3.345346177231361 5.969920906362121 13.838650651464674 7 2 1
774 1 1 0.5897 6.2037181809179085 4.088691932649893 15.425034518156187 3 0 4
203 1 1 0.5897 6.610355300048095 2.933376210484265 14.061424269182702 -1 4 0
195 1 1 0.5897 5.327139472839852 2.1740501402141814 15.594848342192725 0 -6 -2
764 1 1 0.5897 1.5567831733443527 3.2404469470918222 16.01375441312253 -7 1 -4
466 1 2 -1.1794 8.151437441713618 2.373317611309516 13.653405328787459 1 1 7
554 1 1 0.5897 5.699139121642088 6.44076118432403 13.772177005913273 -6 -7 3
202 1 2 -1.1794 5.689263633494193 3.174474409572854 13.962192049672602 -1 4 0
763 1 2 -1.1794 1.123820793016959 3.8770919937470705 15.444843049926888 -7 1 -4
555 1 1 0.5897 6.287142418524335 5.428369411319084 12.812158240270875 -6 -7 3
773 1 1 0.5897 6.74156114166482 5.225063259974386 16.268624396070223 3 0 4
170 1 1 0.5897 8.569935107527696 5.8105955782060645 12.522084433775035 0 4 -2
204 1 1 0.5897 5.288836637149289 2.4198374411672448 13.530271446247719 -1 4 0
765 1 1 0.5897 1.667647883620086 3.9041365362260816 14.657482572422765 -7 1 -4
317 1 1 0.5897 2.841073500872621 4.166104328522769 12.557373797388951 -1 -2 -3
318 1 1 0.5897 3.8631994492125723 3.741272028786371 13.590350483588162 -1 -2 -2
316 1 2 -1.1794 3.0135988939520133 4.172789272693986 13.498951959251317 -1 -2 -2
468 1 1 0.5897 8.218451863731932 2.283820463505352 12.702681387707198 1 1 7
553 1 2 -1.1794 6.5104499416707595 6.2082724887617875 13.320354810805133 -6 -7 3
703 1 2 -1.1794 0.6420296237570686 6.679632130066184 12.238830210493818 -2 2 -4
736 1 2 -1.1794 5.634860382182549 4.652792804471867 11.129162626954567 0 1 -2
357 1 1 0.5897 4.070282257412901 6.614679816744621 15.00097672393662 7 2 1
677 1 1 0.5897 0.5130567580709879 4.611006860415631 12.242647934831854 11 5 -3
643 1 2 -1.1794 0.5844395657594487 2.9442169381023318 19.42195702921039 7 -4 -1
348 1 1 0.5897 4.300660061520155 3.5674880284957275 20.303688512697423 -3 2 -6
662 1 1 0.5897 6.772449796642297 1.8493671871442525 20.22850506460427 -6 -4 2
153 1 1 0.5897 7.087600205764626 6.752508825770299 19.225694796580026 3 2 -2
43 1 2 -1.1794 4.059267964170097 6.276381403514524 16.88468727928015 -3 7 -1
793 1 2 -1.1794 7.437103563323329 3.811091814398289 20.158803382870563 -4 4 4
644 1 1 0.5897 0.9894678849361251 2.0796494057803443 19.352330460905737 7 -4 -1
151 1 2 -1.1794 6.220828735994731 6.356547358378057 19.13458928356217 3 2 -2
346 1 2 -1.1794 4.36507726629493 3.7148821360669824 21.247356344562768 -3 2 -6
639 1 1 0.5897 1.6008793865822666 4.307994709736478 18.65922853386553 -7 -6 5
329 1 1 0.5897 5.712827432065472 3.7361724358887693 17.750264745870677 1 4 -1
32 1 1 0.5897 3.069202124651535 3.005533431085606 17.266912654637963 1 7 2
638 1 1 0.5897 1.9822285232146264 5.765270915869144 18.81155749930908 -7 -6 5
152 1 1 0.5897 5.743773820741793 6.641215669235725 19.91418587281397 3 2 -3
328 1 2 -1.1794 5.155983019188615 3.328422656858147 18.413640679351094 1 4 -1
637 1 2 -1.1794 2.2284937968658296 4.962354304065132 18.3521463310062 -7 -6 5
424 1 2 -1.1794 8.091710736004716 1.8280889790061021 17.637553210923354 12 0 -1
44 1 1 0.5897 3.3763900034079115 5.742484270460232 17.290901393003786 -3 7 -1
347 1 1 0.5897 3.690564026398149 4.367775107899025 21.434870400349027 -3 2 -6
426 1 1 0.5897 7.527214394711184 2.515303917586696 17.283350476091325 12 -1 -1
45 1 1 0.5897 4.804250175032744 6.208303341692428 17.481985999853 -3 7 -1
31 1 2 -1.1794 2.703796865860615 2.2168802538248613 16.865803990771084 1 7 2
795 1 1 0.5897 7.664141793641478 4.220849495168952 20.993625612776125 -4 4 4
330 1 1 0.5897 5.036813889139989 2.4293423307782103 18.10732097809786 1 4 -1
767 1 1 0.5897 1.844012933612752 6.140068973783461 21.121087411761774 2 1 8
794 1 1 0.5897 6.666970656001167 4.292736264103244 19.856641938373553 -4 4 4
515 1 1 0.5897 0.5443227290615236 5.4019469633034705 16.391901723319975 -6 -5 3
687 1 1 0.5897 9.081659845675551 4.4927481547794095 19.41106119223195 5 -9 -8
477 1 1 0.5897 5.349990752272913 10.545400788536801 2.532972821329703 5 -5 -3
562 1 2 -1.1794 3.0096762147158964 10.977424674787486 0.7987470557772859 3 -3 2
475 1 2 -1.1794 5.488965585463632 9.598960996317164 2.496179207232171 5 -5 -3
845 1 1 0.5897 6.981334123539229 8.806613320803145 1.7197995553248728 -5 -4 5
861 1 1 0.5897 8.821929248634254 10.65839703910656 3.775426447809534 -3 -1 8
718 1 2 -1.1794 0.8888358843617145 9.643948446523204 1.7738757077052012 0 3 5
633 1 1 0.5897 8.222767619199315 10.866706700012072 5.814517303649954 12 11 3
211 1 2 -1.1794 3.2238468483357874 7.733275078260251 2.8704064959751445 2 -3 4
632 1 1 0.5897 6.947818982861145 10.158482624697397 5.408102334001737 12 11 3
213 1 1 0.5897 2.793557660214862 7.25094552110128 2.1642947369756897 2 -3 4
721 1 2 -1.1794 5.7300595816534 8.309364764905213 4.80483924911428 5 0 -2
846 1 1 0.5897 8.382273174203506 9.23212191019157 1.3341017105536466 -5 -4 5
720 1 1 0.5897 0.7326843380914613 8.703584537531718 1.8617244650856837 0 3 5
414 1 1 0.5897 2.8112795081066184 9.473555498638351 4.108739817461641 4 0 4
212 1 1 0.5897 3.8719308166404933 8.280711598464876 2.4269161962838943 2 -3 4
723 1 1 0.5897 6.230756433596982 7.543307039096945 4.524054393066539 5 0 -2
722 1 1 0.5897 4.973415025700612 7.946023943266486 5.265116122318141 5 0 -2
476 1 1 0.5897 5.568284313645437 9.332233715294304 3.41211665737537 5 -5 -3
412 1 2 -1.1794 2.550786816173883 10.19433553689357 4.682354883889764 4 0 4
413 1 1 0.5897 3.125262698105616 10.114632767343672 5.443939728421632 4 0 4
563 1 1 0.5897 2.240159741380708 10.563328336252551 1.1895915875963752 3 -3 2
631 1 2 -1.1794 7.54320078400479 10.858637474335724 5.140338994206538 12 11 3
844 1 2 -1.1794 7.703212025972584 8.588917084953192 1.1299836946241457 -5 -4 5
744 1 1 0.5897 5.756970442952212 6.953885115658283 1.1278431035982726 1 0 2
627 1 1 0.5897 8.023524457526428 6.868218546077349 1.1867621311243357 -4 -4 3
507 1 1 0.5897 4.148676354750609 11.792830474096597 2.04699368094922 5 0 -2
68 1 1 0.5897 6.924902676158937 8.791082136218389 8.650619257064672 6 -6 -1
549 1 1 0.5897 3.003620340578029 7.092392742136262 6.354366155097831 9 1 0
532 1 2 -1.1794 1.292305555024396 7.720998603370957 6.603630662524116 -3 -2 0
208 1 2 -1.1794 2.8718773878414914 9.94882615428672 9.449266299946315 -1 -6 7
534 1 1 0.5897 0.9955146557183602 8.624577621926452 6.712448450522657 -3 -2 0
210 1 1 0.5897 3.732179249540475 9.979514989251104 9.867985673374152 -1 -6 7
449 1 1 0.5897 1.759190886387593 11.342148081831935 9.327178320593177 7 -1 -6
439 1 2 -1.1794 8.37094239180744 9.461763486500171 9.612487322804748 -3 4 -2
265 1 2 -1.1794 0.5385409961067531 10.344449546450694 6.715601356945207 -5 -1 0
450 1 1 0.5897 0.9240182314885683 11.770980406038726 8.139384265014389 7 -1 -6
67 1 2 -1.1794 6.450300566986789 8.271987274075986 8.00123552977497 6 -6 -1
69 1 1 0.5897 7.106706579728434 8.059316952531251 7.337677110215085 6 -6 -1
493 1 2 -1.1794 2.6131180239792426 7.237083101179525 10.238453992211971 3 0 -2
707 1 1 0.5897 6.754450257494057 7.3598353413240245 10.59608895741119 -2 -1 -7
494 1 1 0.5897 2.7320748348539783 8.145983087767487 9.962525001821312 3 0 -2
699 1 1 0.5897 5.439033680393232 6.788452369444858 8.714109050031938 -3 4 -3
538 1 2 -1.1794 5.149997314237764 10.424771948308283 11.063702133487073 -10 -3 2
209 1 1 0.5897 3.062576288613168 9.890439010304592 8.51297566381676 -1 -6 7
440 1 1 0.5897 8.502893828809583 10.408105843402154 9.553972877849969 -3 4 -2
648 1 1 0.5897 0.6533447968077134 9.524536183476133 8.770213653119203 -6 -1 4
267 1 1 0.5897 1.0558133313968698 10.426236242752054 5.91427249899663 -5 -1 0
187 1 2 -1.1794 8.732188399235106 7.816947398635598 6.570751298643983 -2 4 5
409 1 2 -1.1794 4.226147973783214 9.866300169246792 6.9782032530415945 5 -1 -5
410 1 1 0.5897 4.948907868395542 9.312441044350479 7.273552054484171 5 -1 -5
411 1 1 0.5897 4.552337199464121 10.76060979903967 7.079149702591916 5 -1 -5
647 1 1 0.5897 0.5892324829187892 8.192210243735616 9.486491203602148 -6 -1 4
533 1 1 0.5897 0.742864258236053 7.214238690387795 7.201701155020301 -3 -2 0
189 1 1 0.5897 8.976896413042216 6.95308835961101 6.238711168068916 -2 4 5
539 1 1 0.5897 5.732483432974799 9.66688461467504 11.011723150790914 -10 -3 2
864 1 1 0.5897 7.889015131168754 8.58194285556521 12.256342267014848 5 2 0
165 1 1 0.5897 4.028754368152956 8.502040100644336 13.549915882875863 -8 2 -2
369 1 1 0.5897 8.587261131529598 10.643138490415073 15.924610908578073 3 9 -6
670 1 2 -1.1794 2.0490401250107126 11.370271565944282 13.529785525594983 6 -5 -1
672 1 1 0.5897 1.2117092855930487 11.029787748198613 13.214564872707724 6 -5 -1
374 1 1 0.5897 6.573488480076241 10.129258080759818 15.22853686691094 5 2 -2
375 1 1 0.5897 5.2367011347197625 9.436854938385558 15.067823884921296 5 2 -2
706 1 2 -1.1794 6.333216107716428 7.951735657430403 11.21946174484422 -2 -1 -7
705 1 1 0.5897 0.726954826357946 7.194189593504802 13.04158047865813 -2 2 -4
671 1 1 0.5897 2.6728599647647364 10.663000113215226 13.365477647749834 6 -5 -1
817 1 2 -1.1794 1.3329117442533684 8.035334594320501 14.677466203984585 -3 -3 0
615 1 1 0.5897 8.763437909430772 6.7844383492172 15.342752028493617 -9 5 7
367 1 2 -1.1794 8.315979810004563 10.939605532920586 15.055763266645943 3 9 -5
11 1 1 0.5897 1.2003567503132382 11.212595339781728 15.120927438636125 -3 -3 3
373 1 2 -1.1794 6.017856374519384 9.455652413759747 15.620849898387183 5 2 -2
540 1 1 0.5897 5.621995921358999 11.053201901000401 11.610214103299493 -10 -3 2
163 1 2 -1.1794 4.301335820545614 9.419132887908228 13.581817300632967 -8 2 -2
819 1 1 0.5897 0.7892332354925338 7.486763586365109 15.243068410904455 -3 -4 0
10 1 2 -1.1794 0.6779227991274039 11.24294920711423 15.922505345230576 -3 -3 3
164 1 1 0.5897 4.663897908188912 9.592118687846366 12.712904412461047 -8 2 -2
708 1 1 0.5897 6.149472360566492 7.404701888927926 11.983258557970899 -2 -1 -7
355 1 2 -1.1794 3.7344922737585287 6.796931061103234 14.123245691212698 7 2 1
863 1 1 0.5897 8.628531663747001 8.221254424424622 13.527326934014912 5 2 0
818 1 1 0.5897 2.091555312747916 7.48926350820763 14.470896504250042 -3 -3 0
862 1 2 -1.1794 8.571262323799546 8.895511237633091 12.850212363231286 5 2 0
704 1 1 0.5897 1.2891446031732086 7.056562060232754 11.642548659790725 -2 2 -4
83 1 1 0.5897 7.4808635933476495 11.46010874349317 13.500298403148442 -6 1 -6
434 1 1 0.5897 6.839636481117312 7.73737463539545 15.9977030480355 0 4 -5
702 1 1 0.5897 2.409294135208532 9.137242179924264 15.993594756476984 6 -2 -1
368 1 1 0.5897 9.073530330304163 10.768011490733386 14.4962274263972 3 9 -5
340 1 2 -1.1794 1.3537299844153892 7.306907845674989 19.54051311091072 3 5 3
700 1 2 -1.1794 2.9840415266520397 9.386018551596592 16.71757842940911 6 -2 -1
120 1 1 0.5897 6.018599847179728 9.435161936871294 17.68146672382063 5 -4 -1
119 1 1 0.5897 6.086728553442392 8.079574783202933 18.352284506503974 5 -4 -1
118 1 2 -1.1794 6.073018977405597 9.017901419248918 18.541302514701357 5 -4 -1
380 1 1 0.5897 1.5977241800908728 10.419385588350769 17.78372897517467 2 -3 -1
753 1 1 0.5897 3.090799191935654 11.747571162355241 19.430902152674907 1 -3 -1
21 1 1 0.5897 4.5836871194117625 9.17797165099405 19.61692834237099 -3 -4 2
341 1 1 0.5897 2.080435810578529 7.915709648584521 19.67330587118748 3 5 3
20 1 1 0.5897 4.1088510477335625 8.1909343959623 20.662192277724 -3 -4 1
1 1 2 -1.1794 8.807946371041513 7.412109730314124 19.034848736945882 3 -10 2
342 1 1 0.5897 0.5897337754973826 7.869357316235273 19.412706100952995 3 5 3
379 1 2 -1.1794 1.3335874618446244 10.855772173154527 18.59377560738423 2 -3 -1
168 1 1 0.5897 8.957269205678386 11.18821597324128 20.645176847446916 0 0 3
56 1 1 0.5897 6.727935346238841 10.0760795409786 20.128128636082305 -3 1 -2
701 1 1 0.5897 3.3756412058854193 8.561923606309058 17.007226073212554 6 -2 -1
57 1 1 0.5897 6.999317747187231 11.379540720926064 19.40729654941973 -3 1 -2
435 1 1 0.5897 7.82031720235611 7.475149741669549 17.12099201566621 0 4 -5
19 1 2 -1.1794 3.7939348128118446 8.86095999728658 20.055334195119396 -3 -4 2
55 1 2 -1.1794 7.099622268261417 10.948886186745533 20.256326463061484 -3 1 -2
381 1 1 0.5897 0.8497815889590462 10.187691743250086 19.079556042452023 2 -3 -1
564 1 1 0.5897 3.302792694016793 10.35730150256904 21.100136880665953 3 -3 1
433 1 2 -1.1794 7.24781275089729 7.029541639478888 16.496441695018902 0 4 -5
742 1 2 -1.1794 4.947310603046044 6.983898485226582 21.58713306588696 1 0 1
803 1 1 0.5897 4.410960994945196 11.026126265395064 16.41434771972625 7 3 0
709 1 2 -1.1794 4.617142598877399 14.712640085990431 3.8929319368518023 -1 0 1
841 1 2 -1.1794 2.272349435143056 16.336593093342742 3.7644623426043413 -7 2 0
429 1 1 0.5897 7.0820396036703865 12.07053407265639 0.7740639777770348 3 -2 -2
815 1 1 0.5897 8.273803274627777 14.239139136657634 3.222273541480189 -3 9 -5
393 1 1 0.5897 6.920281329932887 12.44790952460185 5.263140471785464 4 -8 -3
58 1 2 -1.1794 2.0373154940020806 12.92095974317683 3.938197524858016 9 2 -1
59 1 1 0.5897 2.422724754086002 12.050939360165463 4.0426612205474 9 2 -1
814 1 2 -1.1794 8.942232995887604 13.572680502753338 3.0627998927397524 -3 9 -5
711 1 1 0.5897 5.241015258466748 14.673244713102347 4.617920284345898 -1 0 1
506 1 1 0.5897 5.4127772429274925 12.582439725705765 2.3131218905443744 5 0 -2
427 1 2 -1.1794 6.920387755537821 12.899470947359319 1.224744401127292 3 -2 -2
39 1 1 0.5897 2.9859224135675837 16.833244943788362 5.56632628504973 -3 -3 -4
456 1 1 0.5897 2.5563874467764793 13.608541141530115 5.52586536914124 3 -1 -1
60 1 1 0.5897 2.3054938949487362 13.198661635511213 3.062215186997666 9 2 -1
391 1 2 -1.1794 6.708628658035766 13.358604873486021 5.468608781695436 4 -8 -3
206 1 1 0.5897 5.618584083857095 15.637687405542868 2.481813340918537 -5 5 -3
428 1 1 0.5897 7.681812495942412 13.01611050206718 1.7930891064493057 3 -2 -2
224 1 1 0.5897 6.696887645169076 16.816035216741795 5.231659751456392 4 -1 -7
710 1 1 0.5897 4.495986622907309 13.799989048795826 3.6306913383521393 -1 0 1
842 1 1 0.5897 3.037607773154792 15.76204706110646 3.7389255353353423 -7 2 0
248 1 1 0.5897 2.5734621454571287 12.909949433273747 0.9423555332594367 -4 2 -3
505 1 2 -1.1794 4.6535818029393745 12.198442012179461 2.751922279207577 5 0 -2
247 1 2 -1.1794 2.3235524114254726 13.799562168827237 1.1923874244292532 -4 2 -3
205 1 2 -1.1794 5.850036343666459 16.354030893540955 1.8904537643741712 -5 5 -3
249 1 1 0.5897 3.110342275239532 14.322382392225533 1.0374714345831733 -4 2 -3
207 1 1 0.5897 5.170533773590827 16.337798426062268 1.2163597070843202 -5 5 -3
293 1 1 0.5897 2.0180370692374368 16.392831085262102 0.7605938427160589 -1 -5 1
605 1 1 0.5897 3.447314663417465 15.699255488443727 10.246427101237792 -5 1 -2
713 1 1 0.5897 5.487397251791066 12.801156201608816 6.424219272669374 1 0 3
666 1 1 0.5897 5.065259630370918 12.88801099911393 8.926097290941746 2 2 6
695 1 1 0.5897 8.423844502279461 12.653302817362698 10.254997202863146 1 -2 -2
696 1 1 0.5897 7.03037501627912 12.321595113109185 9.76462780087344 1 -2 -2
527 1 1 0.5897 8.451332990278456 13.196457303780875 8.070945542590396 -4 -5 -3
526 1 2 -1.1794 8.752556845704282 13.587938484392398 7.250947842072825 -4 -5 -3
712 1 2 -1.1794 4.818988731672135 12.492259179451798 7.035965052440437 1 0 3
392 1 1 0.5897 7.378032757098529 13.624175316654707 6.099281519482663 4 -8 -3
664 1 2 -1.1794 5.301507611566713 12.885639957331872 9.853757796304958 2 2 6
665 1 1 0.5897 4.96431973322405 12.053249852866099 10.185164727570687 2 2 6
262 1 2 -1.1794 8.986092666234654 16.022643987831387 9.369775792877265 2 -3 1
319 1 2 -1.1794 1.9475983938817407 14.541945454326617 9.848552885297277 4 0 4
714 1 1 0.5897 4.044138344824264 13.014827677971692 6.828805392700275 1 0 3
62 1 1 0.5897 1.1843480578337249 16.00897017007037 9.171054974018128 0 0 3
604 1 2 -1.1794 3.656926090628928 16.565626602443658 10.595481203904702 -5 1 -2
37 1 2 -1.1794 3.2961853842478495 16.61482786543892 6.445193629687939 -3 -3 -4
690 1 1 0.5897 6.045074211339396 14.465897462214445 10.630640220331312 -2 -3 4
694 1 2 -1.1794 7.952310414619687 12.279832393478621 9.510315347309998 1 -2 -2
263 1 1 0.5897 8.332078431632901 15.452351268834201 9.774027458182255 2 -3 1
320 1 1 0.5897 1.7712778072509912 13.764759093887069 9.318197846589715 4 0 4
264 1 1 0.5897 8.475394780919032 16.638988710912372 8.844698232942147 2 -3 1
455 1 1 0.5897 2.7970539654236486 14.868624519520377 6.329929407365236 3 -1 -1
321 1 1 0.5897 2.0304706255271308 14.20893384739402 10.742201784941178 4 0 4
454 1 2 -1.1794 2.63542643919693 13.929805573555322 6.424161419997495 3 -1 -1
222 1 1 0.5897 1.0748500971111379 14.064950734423592 6.915458411332804 0 -6 2
688 1 2 -1.1794 6.820906219159885 14.947988437086549 10.917101424290944 -2 -3 4
448 1 2 -1.1794 1.0126598350209313 11.890279016997974 9.085055244193036 7 -1 -6
61 1 2 -1.1794 1.0683896802510469 16.735869229431728 8.559050042920122 0 0 3
38 1 1 0.5897 4.249009961172107 16.576896047298078 6.360819553684482 -3 -3 -4
63 1 1 0.5897 1.7951872204741275 16.648466317869868 7.942154304344886 0 0 3
84 1 1 0.5897 6.353774125098754 12.463400137138397 13.376272557358611 -6 1 -6
126 1 1 0.5897 7.822638115226239 14.351256843337902 14.709638705392518 4 -1 4
312 1 1 0.5897 0.628345732537293 12.921446418192737 15.993528824608093 0 4 3
227 1 1 0.5897 4.540504156116459 16.723511109094275 14.006598844433459 7 -3 -2
689 1 1 0.5897 6.472725937899758 15.726634633301956 11.351769292803878 -2 -3 4
602 1 1 0.5897 2.174602244998236 14.441876642588051 12.844128314627804 10 5 -1
311 1 1 0.5897 0.7297888748861749 14.292237380112859 15.358782402021712 0 4 3
343 1 2 -1.1794 1.2689313777543498 15.66370468987133 14.121010274391047 -2 1 0
345 1 1 0.5897 2.0138115745119176 16.142287231305666 14.48507729273883 -2 1 0
154 1 2 -1.1794 5.0557495551031355 13.289597275570229 14.230964869751505 3 3 -5
601 1 2 -1.1794 2.886833102660667 13.869967268549008 12.557652486887612 10 5 0
603 1 1 0.5897 2.6036891639551265 12.990375614318788 12.807712235388284 10 5 0
226 1 2 -1.1794 3.8358240499445193 16.64485825201949 14.649730867779427 7 -3 -2
731 1 1 0.5897 8.481528615322082 13.861834261224697 11.771976549668032 -1 -1 -6
124 1 2 -1.1794 7.217764048653263 14.973245484046545 14.30507227883613 4 -1 4
125 1 1 0.5897 7.061413013348635 15.631210767711897 14.982591901262293 4 -1 4
156 1 1 0.5897 4.380423940032106 13.581237595317928 13.618381707474654 3 3 -5
155 1 1 0.5897 5.684772411421048 14.010768575042555 14.255913743611444 3 3 -5
82 1 2 -1.1794 6.8509184992488175 11.817440081119623 12.87429377728198 -6 1 -6
228 1 1 0.5897 4.120864212866912 15.94157225838128 15.23326988096953 7 -3 -2
482 1 1 0.5897 8.52464575300989 15.836058248417292 13.434931226833838 -2 -3 -5
804 1 1 0.5897 4.597215539370127 12.364993427514982 15.73243322143651 7 3 0
344 1 1 0.5897 1.1246685446902869 16.061418899437243 13.262294183725814 -2 1 0
281 1 1 0.5897 8.935626525869539 12.536629209315635 15.32600207839757 -6 -3 1
66 1 1 0.5897 5.0304027634660615 16.84606542540145 11.74075822344552 4 1 -1
503 1 1 0.5897 7.891689436821641 16.799653560072112 16.2984226957539 -3 0 5
606 1 1 0.5897 2.901811045240395 16.79526058050569 11.137184153102043 -5 1 -2
786 1 1 0.5897 4.693357473103029 13.518391579548032 20.247213195571714 6 7 3
608 1 1 0.5897 3.8288907984994185 15.4056757604577 17.31911438940406 3 -2 6
74 1 1 0.5897 1.275280884739801 14.41465353682596 17.82192895605281 3 -3 1
30 1 1 0.5897 2.606839769812558 16.125874130432024 18.737700288911004 -8 4 6
788 1 1 0.5897 6.06601213252372 12.430961013118981 17.60257575924165 5 -1 4
75 1 1 0.5897 2.401601893218394 13.583422370688274 18.398751445222178 3 -3 1
784 1 2 -1.1794 5.036173626935895 14.285423852112935 20.706032692221743 6 7 3
789 1 1 0.5897 6.810025404052404 13.442589633225701 18.448364058271007 5 -1 4
401 1 1 0.5897 5.908205713896447 15.2805720501882 17.94600722873871 0 1 0
400 1 2 -1.1794 6.620476586024141 15.250605917193262 18.58488943253271 0 1 0
73 1 2 -1.1794 2.028696031997764 14.46500104955599 18.410329331879765 3 -3 1
802 1 2 -1.1794 4.651587378850012 11.93649900949097 16.58672953504596 7 3 0
557 1 1 0.5897 8.832181995566746 13.24821863477185 18.13335892870907 2 2 3
787 1 2 -1.1794 6.861581299596415 12.543816413688205 18.122886986390945 5 -1 4
402 1 1 0.5897 6.200743884745508 14.973743283965026 19.39949833783953 0 1 0
196 1 2 -1.1794 0.5107037126596701 15.60183054943811 21.105684785769412 -2 -3 -3
785 1 1 0.5897 5.683468361698901 13.93095062313043 21.315742988745587 6 7 3
607 1 2 -1.1794 4.540222700502771 15.124551353061047 16.743483684614297 3 -2 6
751 1 2 -1.1794 3.7670415419088306 12.373519860358265 19.1715490847477 1 -3 -1
197 1 1 0.5897 1.1209764730707208 14.871012079547627 21.205087531404345 -2 -3 -3
752 1 1 0.5897 4.082017829525671 12.050468569453255 18.327274246755056 1 -3 -1
609 1 1 0.5897 4.557276942045946 14.171429342874536 16.830917984174736 3 -2 6
278 1 1 0.5897 7.394376644945706 17.24520852616665 1.4455938681661964 2 -2 2
92 1 1 0.5897 5.614373443989417 19.944275620422324 4.782155196216279 1 -5 -3
769 1 2 -1.1794 2.7044275606085675 18.97086596277633 2.570069795305561 4 0 1
757 1 2 -1.1794 2.397133674974257 21.28734924335747 1.3460885308344224 -1 2 3
519 1 1 0.5897 1.8435323749041164 18.80063454063687 4.229992134180639 1 -1 -4
93 1 1 0.5897 4.69787494502688 21.114629711904463 5.069472619973114 1 -5 -3
496 1 2 -1.1794 8.848569661767021 20.572501203552434 0.7386916336380434 6 -1 1
91 1 2 -1.1794 5.354568889443128 20.549603367550368 5.476744687857623 1 -5 -3
277 1 2 -1.1794 8.117314112764696 17.7605070519066 1.0875262787914528 2 -2 2
175 1 2 -1.1794 8.894402684917516 17.038143104618616 4.750238100365134 -4 -4 6
498 1 1 0.5897 8.677676879633857 19.662172810637415 0.9805355010711028 6 -1 0
191 1 1 0.5897 7.587646406693097 19.848577733733123 3.5433123355080434 0 3 -5
236 1 1 0.5897 4.268325182836584 19.314951563933725 1.6337339551795746 -4 -5 -1
770 1 1 0.5897 2.3703958985736033 19.854956993226025 2.4177418670588677 4 0 1
190 1 2 -1.1794 6.806892748405527 19.29579576298427 3.578389134163406 0 3 -5
771 1 1 0.5897 2.518088334072632 18.500561491304893 1.7573799559489054 4 0 1
843 1 1 0.5897 2.5189191443425147 17.088817545335054 3.2261920005352605 -7 2 0
235 1 2 -1.1794 5.1539834676395895 19.474502978674707 1.307305687903198 -4 -5 -1
237 1 1 0.5897 5.725588982645929 19.23209696585218 2.035937112336156 -4 -5 -1
192 1 1 0.5897 7.146090302422176 18.408701270975975 3.6984933207205315 0 3 -5
517 1 2 -1.1794 1.3306890741782649 18.883584540661694 5.034062633155363 1 -1 -4
123 1 1 0.5897 5.547545363555151 21.282330159406037 1.778282965670894 0 -5 1
759 1 1 0.5897 3.1125284787727536 21.631757033449937 1.8808483024962406 -1 2 3
758 1 1 0.5897 1.6027785650568138 21.614580074319946 1.768392376911111 -1 2 3
518 1 1 0.5897 0.5714989962574739 19.40911303525035 4.781395409300108 1 -1 -4
422 1 1 0.5897 8.944013975483989 21.862371109143638 2.0909776275538574 -1 0 3
775 1 2 -1.1794 3.2845936792055483 21.90618557407857 4.196802790998958 0 -8 -1
292 1 2 -1.1794 2.7601854878526573 16.9974573693803 0.7649800164687452 -1 -5 1
253 1 2 -1.1794 7.357439526724482 17.764543279825944 8.042838357201237 0 5 -5
657 1 1 0.5897 4.674821465408505 18.79230445935695 8.377336977430751 -5 4 2
127 1 2 -1.1794 7.677235709744393 20.352897430985927 6.908932358858705 -4 0 -8
113 1 1 0.5897 2.7075966245865475 19.762807056528608 6.905571342090132 -3 1 3
114 1 1 0.5897 4.177207717592768 20.11058135621444 6.798024214796913 -3 1 3
255 1 1 0.5897 6.63780346128085 17.92767690207549 8.652668051751883 0 5 -5
16 1 2 -1.1794 1.0865861497919749 21.147393394674616 10.738427968715248 -2 6 6
470 1 1 0.5897 6.175797186410172 21.768939331352094 10.272721400030163 5 3 3
128 1 1 0.5897 6.794888217793118 20.45296268876539 6.551381144118655 -4 0 -8
837 1 1 0.5897 3.53045963583082 21.665373583512384 8.298746355782066 1 2 -5
112 1 2 -1.1794 3.463722977894745 20.02557198236977 7.430557656950884 -3 1 3
655 1 2 -1.1794 5.056582906938241 18.519510463933585 9.211777657666914 -6 4 2
656 1 1 0.5897 4.649371089668434 17.673128831568604 9.396695857698907 -6 4 2
471 1 1 0.5897 4.847378836159605 21.45443918212728 10.927430494767973 5 3 3
254 1 1 0.5897 7.596000447193152 18.63193456639152 7.715580532239278 0 5 -5
458 1 1 0.5897 3.8419474174715256 19.425765437944747 10.43684308822466 -3 2 -2
459 1 1 0.5897 2.625045483364249 20.2705046057102 10.749651767210782 -3 2 -2
457 1 2 -1.1794 3.485476751328049 20.026748970978502 11.091158178763873 -3 2 -2
129 1 1 0.5897 7.684610553302666 20.908131971989654 7.688711060170529 -4 0 -8
18 1 1 0.5897 0.6164490832058048 20.33604790977708 10.545882555571168 -2 6 6
223 1 2 -1.1794 6.012246941118719 16.90953197671552 5.89418230752638 4 -1 -7
225 1 1 0.5897 6.485946609186533 17.103549091548704 6.703117787717392 4 -1 -7