LAMMPS data file via write_data, version 30 Jul 2021, timestep = 11500000

864 atoms
2 atom types
576 bonds
1 bond types
288 angles
1 angle types

-0.06644190638872871 18.27401430638615 xlo xhi
-0.33148726099866543 23.960665061007887 ylo yhi
-0.024604847358107307 22.237800647356558 zlo zhi

Masses

1 1.00794
2 15.9994

Atoms # full

707 1 1 0.5897 2.75014265882445 1.863270837755754 3.5511787084198243 0 0 0
706 1 2 -1.1794 2.84196928190942 1.7936123549950596 2.6010803772802897 0 0 0
708 1 1 0.5897 2.0763234799119252 2.249810258582158 2.2519645915043025 0 0 0
493 1 2 -1.1794 7.386346238105574 1.5986720363977296 2.9159459198850515 0 0 0
494 1 1 0.5897 6.565927411190867 2.0858468045170193 2.839651800906532 0 0 0
30 1 1 0.5897 5.27084886447165 3.9137794921290183 2.4894039100676864 0 0 0
28 1 2 -1.1794 5.284623522635696 2.994620287030248 2.2227206104230905 0 0 0
29 1 1 0.5897 4.4213026096822725 2.6609420068671388 2.466805192400051 0 0 0
846 1 1 0.5897 7.4183041902852285 1.1216948193122442 4.783634195237482 0 0 0
495 1 1 0.5897 8.067827721859999 2.246778390451353 2.737734766886797 0 0 0
1 1 2 -1.1794 0.347163290176521 3.025780225346464 1.7963901283971895 0 0 0
3 1 1 0.5897 0.27316807439843954 3.82267173305316 2.3214116811118903 0 0 0
20 1 1 0.5897 0.45584088429089786 3.0596180452371615 -0.01420300117153039 0 0 0
595 1 2 -1.1794 0.30185387873867253 5.3825937354082285 3.0139071300320595 0 0 0
597 1 1 0.5897 0.43306799354243014 5.568448504385095 3.9435442014334483 0 0 0
668 1 1 0.5897 5.248247047429947 2.9181732857118057 0.2902071612129334 0 0 0
188 1 1 0.5897 2.6720732622142087 0.029114285302011933 2.206425589184688 0 1 0
488 1 1 0.5897 2.137809085127664 2.0839997106535106 6.048185781030067 0 0 0
112 1 2 -1.1794 0.6014961242397454 5.184991475805113 10.623553504789434 0 0 0
674 1 1 0.5897 3.7541264656007023 1.8965389379418234 9.750429957276255 0 0 0
419 1 1 0.5897 8.978376024413226 2.246676656424437 5.959120827536878 0 0 0
785 1 1 0.5897 0.5901949286343432 2.7653178262601092 7.301427951133686 0 0 0
276 1 1 0.5897 6.22965871201216 2.1640165439642325 9.38651754517953 0 0 0
355 1 2 -1.1794 7.93708309604221 1.7475793417420644 10.259636355299648 0 0 0
844 1 2 -1.1794 7.453225278885351 1.2228014397339706 5.7347115934043815 0 0 0
784 1 2 -1.1794 0.5610768894296897 2.8241610913915682 6.346610600006175 0 0 0
487 1 2 -1.1794 2.9500982982463513 1.674980785120288 5.749660488639312 0 0 0
183 1 1 0.5897 0.28152571151981576 4.520704554096207 5.930940640711734 0 0 0
181 1 2 -1.1794 0.347890941229145 5.457168609892265 5.744269514249305 0 0 0
274 1 2 -1.1794 5.362089317531287 2.47290620510641 9.125460441163373 0 0 0
34 1 2 -1.1794 0.5342449864653684 2.8321984706234495 9.228084026395464 0 0 0
489 1 1 0.5897 2.9743171780546827 0.8315780611829473 6.201577731071578 0 0 0
35 1 1 0.5897 0.4693983714848311 3.5938565816247166 9.804095130593787 0 0 0
275 1 1 0.5897 5.396946892395135 2.5063998036669326 8.169619495058745 0 0 0
673 1 2 -1.1794 2.886300586183224 1.5458606932618724 9.950833157358828 0 0 0
356 1 1 0.5897 8.007585332534275 0.8143896053647808 10.058746997539306 0 0 0
84 1 1 0.5897 6.041771037135562 2.371624200062353 6.078088603830385 0 0 0
83 1 1 0.5897 4.527817953262311 2.3734788379618883 6.082629781196031 0 0 0
686 1 1 0.5897 4.952157467035365 4.96392174209474 5.776454347752751 0 0 0
675 1 1 0.5897 2.993153601874832 0.5961250649906049 9.897700046142507 0 0 0
845 1 1 0.5897 7.103314217361036 0.4000308158510538 6.076462065513842 0 0 0
678 1 1 0.5897 5.18751779165638 4.572542868011723 9.913942416773367 0 0 0
36 1 1 0.5897 1.4290907963971342 2.51482596410434 9.349673696664764 0 0 0
82 1 2 -1.1794 5.2859660675394835 2.9354970990251177 6.242659544389847 0 0 0
676 1 2 -1.1794 5.013430154532835 5.449339430843637 10.256117844047147 0 0 0
166 1 2 -1.1794 3.0265007907186527 1.378585539317629 12.813885631197968 0 0 0
167 1 1 0.5897 3.118364044160734 1.5236303647060998 11.87234787018881 0 0 0
168 1 1 0.5897 2.314687778980701 1.9614344584278363 13.078130110260933 0 0 0
458 1 1 0.5897 5.938102543616443 2.5688157730877235 13.63575201367676 0 0 0
457 1 2 -1.1794 5.095661954782291 2.880912045813991 13.966092156556407 0 0 0
459 1 1 0.5897 4.447730425697503 2.3213513879618293 13.538006449745478 0 0 0
592 1 2 -1.1794 7.608207844358374 1.7687257914391652 13.11755650568712 0 0 0
762 1 1 0.5897 5.110915918486799 4.786887755860677 13.25035060516308 0 0 0
71 1 1 0.5897 4.878139709399288 2.8197170225687165 16.060487506563987 0 0 0
593 1 1 0.5897 7.854291372205123 0.9940944654620356 13.62307974883112 0 0 0
594 1 1 0.5897 8.165155330726149 2.46692188703516 13.461828837974789 0 0 0
365 1 1 0.5897 0.5045156519928131 4.911910269947007 13.457694466783785 0 0 0
466 1 2 -1.1794 0.612044438524621 3.12751565010341 13.75095834180097 0 0 0
737 1 1 0.5897 3.1036437353674127 -0.18953792949410656 13.962738590102527 0 1 0
468 1 1 0.5897 0.7080829069673242 2.8706854226515413 14.667914875470823 0 0 0
467 1 1 0.5897 0.0957749955797925 2.4240214781856793 13.357578625336693 0 0 0
357 1 1 0.5897 7.772088141395949 1.7783717980555878 11.201878582524854 0 0 0
760 1 2 -1.1794 5.628144649127994 5.553996634317062 13.004943378428143 0 0 0
133 1 2 -1.1794 0.9419377493037502 2.4694507965857384 16.52641657986493 0 0 0
113 1 1 0.5897 0.5166842372678694 5.423034470917282 11.546662112348953 0 0 0
761 1 1 0.5897 5.493324469569396 5.642454171956345 12.061554130597681 0 0 0
21 1 1 0.5897 0.4000458982609648 3.9763482092689113 21.044886599114015 0 0 0
323 1 1 0.5897 7.719124762935299 0.20544662123852853 17.101673384647036 0 1 0
81 1 1 0.5897 3.069638740949953 -0.3216091411820991 20.95334144475968 0 1 0
143 1 1 0.5897 5.252714865254145 4.722071759245792 21.16846818166904 0 0 0
277 1 2 -1.1794 5.091859984330111 5.495471054457577 18.221459619444026 0 0 0
70 1 2 -1.1794 5.0559418190931025 2.861789693270734 16.99996303344581 0 0 0
72 1 1 0.5897 4.365018206754239 2.332876642472137 17.398829350372097 0 0 0
41 1 1 0.5897 6.8231186368703325 2.130823131660993 20.956050013218174 0 0 0
290 1 1 0.5897 3.06534592165332 0.3914552090796778 17.603079902382298 0 0 0
754 1 2 -1.1794 7.586307933644478 2.1142422951844746 17.654574954756733 0 0 0
669 1 1 0.5897 4.61245118543142 2.673172801270613 21.200887978389716 0 0 0
19 1 2 -1.1794 0.4909727729291917 3.056051268016859 21.29177569554968 0 0 0
570 1 1 0.5897 2.7650536745179672 1.615631712079853 19.681782204893835 0 0 0
755 1 1 0.5897 7.609600464341428 1.9339038998842182 18.59423226785767 0 0 0
667 1 2 -1.1794 5.405720920088598 3.0147538317854474 21.613543719691087 0 0 0
291 1 1 0.5897 2.311661708479051 1.6425239997931906 17.20487070619332 0 0 0
278 1 1 0.5897 5.037238194570706 4.653226703912483 17.770044539390433 0 0 0
568 1 2 -1.1794 2.8652533399220776 1.8080282823489768 20.61393951752533 0 0 0
289 1 2 -1.1794 2.8986733649132366 1.2937428064306093 17.87559658338506 0 0 0
756 1 1 0.5897 6.679112555927723 2.3653952443435635 17.480844453726704 0 0 0
569 1 1 0.5897 2.012366547376941 2.1506084602492725 20.881256333882035 0 0 0
134 1 1 0.5897 0.9645475200499836 3.3436827873064296 16.915458361132465 0 0 0
40 1 2 -1.1794 7.597307851111395 1.6797798053611595 20.61929296412557 0 0 0
42 1 1 0.5897 7.438632519051862 0.7554146535033741 20.81046362678225 0 0 0
572 1 1 0.5897 1.5173763482463476 5.648152418891642 17.5991467595679 0 0 0
144 1 1 0.5897 5.036630990159304 5.560411977994965 19.92672249486632 0 0 0
142 1 2 -1.1794 5.109454697647927 5.623084707984956 20.878956890975324 0 0 0
571 1 2 -1.1794 0.6934460687996877 5.1863150980875234 17.75437970076078 0 0 0
648 1 1 0.5897 0.6070372273935143 5.340170129546476 19.552359083131513 0 0 0
360 1 1 0.5897 9.04412325917099 2.652898321839626 21.296324980211352 0 0 0
135 1 1 0.5897 0.30935543893572515 1.9864033470251887 17.058089507654103 0 0 0
646 1 2 -1.1794 0.490950429344011 5.718880139258077 20.423633527050676 0 0 0
123 1 1 0.5897 2.873382092771854 8.523632187369591 2.686063673226102 0 0 0
121 1 2 -1.1794 2.9293893696890128 9.448566789694906 2.9259449632543353 0 0 0
122 1 1 0.5897 2.9941711048548574 9.445249240179855 3.8808256247536015 0 0 0
44 1 1 0.5897 1.380422407906676 10.444111260386563 2.1729464108557344 0 0 0
218 1 1 0.5897 5.850707473398606 10.394760478383892 2.2873641329789187 0 0 0
66 1 1 0.5897 7.436875187001267 9.916704458834376 3.916152441415515 0 0 0
65 1 1 0.5897 7.844309992059809 8.953986173539496 2.8212980388668556 0 0 0
64 1 2 -1.1794 7.674338778684626 9.88078604216586 2.989701315203821 0 0 0
219 1 1 0.5897 4.343357446097117 10.523118764095553 2.22889829673505 0 0 0
217 1 2 -1.1794 5.1514836972248625 10.971276043837124 1.9792643347120333 0 0 0
415 1 2 -1.1794 7.400689010338086 7.297631432486267 2.1932324888328765 0 0 0
43 1 2 -1.1794 0.6598431140765951 11.02617165762101 1.9316614734216262 0 0 0
254 1 1 0.5897 2.5170095577991654 6.834286207815032 0.8965344908503103 0 0 0
253 1 2 -1.1794 2.752359868827914 6.759420388040538 1.8211877879078684 0 0 0
255 1 1 0.5897 2.0523856321208918 6.231216352667948 2.204895060338127 0 0 0
416 1 1 0.5897 6.683916168947043 6.769646389505746 2.544975905611938 0 0 0
417 1 1 0.5897 8.193192441466378 6.819176723030125 2.4366731977043004 0 0 0
773 1 1 0.5897 8.964166076248192 11.040834767839558 2.4652736440578784 0 0 0
363 1 1 0.5897 5.27464092328402 10.887496470139753 0.1564197518280146 0 0 1
138 1 1 0.5897 4.362655214390704 5.917369958597209 2.3485468876324984 0 0 0
45 1 1 0.5897 0.7004656964408642 11.736545275978562 2.571822503429991 0 0 0
136 1 2 -1.1794 5.208641022277866 5.803157404948277 2.7815349305795576 0 0 0
137 1 1 0.5897 5.0649746969738905 6.1152467225149945 3.6748196268903928 0 0 0
162 1 1 0.5897 7.311844155777965 7.185594517063913 0.27920231940292134 0 0 1
165 1 1 0.5897 8.66641659668457 6.291161181420718 6.001504460838228 0 0 0
677 1 1 0.5897 5.818673059175533 5.937861320911398 10.085318777126185 0 0 0
793 1 2 -1.1794 2.610940520788372 9.346420186730938 5.866632416403584 0 0 0
795 1 1 0.5897 3.372820408307138 9.792783910919631 6.236100400115754 0 0 0
714 1 1 0.5897 7.575008943579715 9.191864995782801 5.9331423339638745 0 0 0
794 1 1 0.5897 1.8667565730472753 9.89301976846072 6.118916255812944 0 0 0
712 1 2 -1.1794 7.514060746192732 10.117998061436685 5.699173687236448 0 0 0
651 1 1 0.5897 3.446302002531712 6.410980442779883 9.763072206601324 0 0 0
11 1 1 0.5897 1.8516651102412205 6.5476501708808135 6.406887825319281 0 0 0
145 1 2 -1.1794 7.348767325886113 7.431340546234806 6.332323337596093 0 0 0
578 1 1 0.5897 5.802278293172034 10.478989982872472 6.451174299830802 0 0 0
650 1 1 0.5897 2.512926879957444 6.730966122835054 8.615039900224739 0 0 0
820 1 2 -1.1794 7.492156321274499 9.888342888807184 10.356118736695898 0 0 0
114 1 1 0.5897 1.1839894557420128 5.850108767433817 10.256792607278156 0 0 0
12 1 1 0.5897 2.6972582660436877 7.802941092313452 6.441690681713655 0 0 0
577 1 2 -1.1794 4.998995065170594 10.77216539261258 6.881276537913617 0 0 0
526 1 2 -1.1794 7.256847497435694 7.4227596845009565 9.148935764874683 0 0 0
582 1 1 0.5897 4.918702399361854 11.056379874602863 8.793667538366668 0 0 0
258 1 1 0.5897 3.6072170442788725 9.746653459365083 10.194221698232239 0 0 0
256 1 2 -1.1794 2.988483300114639 9.243442892705387 10.723481283222887 0 0 0
527 1 1 0.5897 7.329763438317022 8.26720329006272 9.593618572465763 0 0 0
822 1 1 0.5897 8.185873342752268 10.446963287427552 10.005528839172644 0 0 0
257 1 1 0.5897 2.76141819304668 8.49116773077952 10.176973940833541 0 0 0
649 1 2 -1.1794 2.6185033353930947 6.846241032255874 9.559262196278613 0 0 0
13 1 2 -1.1794 0.9419978120744115 10.606237190007548 9.743679926894131 0 0 0
15 1 1 0.5897 1.6740037416269578 10.224335341468565 10.227931401493077 0 0 0
580 1 2 -1.1794 5.014585364269739 11.062438730259819 9.745901519244601 0 0 0
581 1 1 0.5897 5.843061854127159 10.610675699066626 9.90656440329797 0 0 0
10 1 2 -1.1794 2.6613273145123806 6.905082507454109 6.771519961982744 0 0 0
687 1 1 0.5897 4.348413337539519 6.321540064303537 6.066637292292481 0 0 0
713 1 1 0.5897 8.354790676895076 10.489042947526656 5.967029117630319 0 0 0
550 1 2 -1.1794 0.6093966621234982 10.688431593409382 7.066164918373308 0 0 0
551 1 1 0.5897 0.9028312668473444 10.473550506641883 7.951458806693496 0 0 0
147 1 1 0.5897 7.327714307856767 7.510844046224392 7.285846531428233 0 0 0
146 1 1 0.5897 6.583178304021789 6.897826869855835 6.119070970467666 0 0 0
528 1 1 0.5897 8.07905661032146 6.974897211380299 9.348013845754277 0 0 0
14 1 1 0.5897 0.9812683228525947 11.54075247932632 9.946941880516139 0 0 0
552 1 1 0.5897 0.4980416002131579 11.639076010792504 7.0743597510744225 0 0 0
579 1 1 0.5897 4.902647555267307 11.685810499758963 6.6127025010464235 0 0 0
685 1 2 -1.1794 5.101386715652274 5.901082102799303 5.651315218987758 0 0 0
332 1 1 0.5897 3.0714368569318187 7.567620078931711 13.988634698228665 0 0 0
797 1 1 0.5897 2.7166393049611086 9.427820064228309 12.5764431113331 0 0 0
796 1 2 -1.1794 2.5850836435946936 9.53395877654119 13.518481894327296 0 0 0
798 1 1 0.5897 1.9067124639955026 10.205261033902126 13.591925236402057 0 0 0
331 1 2 -1.1794 3.223867420042946 6.679733358776382 14.312039865488765 0 0 0
475 1 2 -1.1794 7.497012146920502 9.596175784375193 13.205688255345502 0 0 0
476 1 1 0.5897 6.607406649310432 9.779396614648846 13.507808146545349 0 0 0
477 1 1 0.5897 7.664499753193933 8.695920715542451 13.484375685288517 0 0 0
722 1 1 0.5897 4.08167708009913 10.24200429526952 13.930035726748848 0 0 0
225 1 1 0.5897 2.8462105552953036 6.59789930923216 16.084004038868677 0 0 0
828 1 1 0.5897 7.696893481942415 6.816499655466324 14.983673967464023 0 0 0
721 1 2 -1.1794 4.981428362465119 10.517978441162395 14.10490931676989 0 0 0
723 1 1 0.5897 5.110574287019733 10.339127980156329 15.036229901561557 0 0 0
826 1 2 -1.1794 7.6991947069053985 6.962710360175009 14.03784133307356 0 0 0
333 1 1 0.5897 4.004150751470557 6.384106026929867 13.843051338371323 0 0 0
827 1 1 0.5897 6.990020118623877 6.41085341388264 13.708055635882866 0 0 0
259 1 2 -1.1794 0.6132052039584789 11.166789565271573 14.323858746359491 0 0 0
261 1 1 0.5897 0.5026471940128266 11.23618514837729 15.271977504122134 0 0 0
821 1 1 0.5897 7.56876131145533 9.978214118052543 11.305868872719559 0 0 0
104 1 1 0.5897 9.048873528651072 10.643009515715514 13.517885340231192 0 0 0
366 1 1 0.5897 1.6086352287298533 5.941382220524982 13.57189624871467 0 0 0
364 1 2 -1.1794 0.6772484657588301 5.8493806635273256 13.371038424323803 0 0 0
520 1 2 -1.1794 7.44211525164758 6.4613415560358245 16.762769920820354 0 0 0
246 1 1 0.5897 9.074785619068209 10.515574018934148 16.75569373634768 0 0 0
445 1 2 -1.1794 0.32416593203973537 11.03223639861911 17.137566220468933 0 0 0
279 1 1 0.5897 4.354390622330516 6.000009680413922 17.878260941599905 0 0 0
462 1 1 0.5897 8.763615062666696 6.212161563281224 20.967578423073554 0 0 0
141 1 1 0.5897 7.186269279826164 8.764035566555727 20.854273237585517 0 0 0
6 1 1 0.5897 2.732216399379441 7.754868213377765 20.829986105698396 0 0 0
679 1 2 -1.1794 5.211375773706793 10.621647805556274 16.79803936573404 0 0 0
287 1 1 0.5897 8.817003574497843 10.306033719719723 21.098766987392203 0 0 0
647 1 1 0.5897 1.3448067508872177 6.094996514633461 20.63750673871511 0 0 0
626 1 1 0.5897 2.771702621162162 9.567452697071069 18.584999486875077 0 0 0
160 1 2 -1.1794 7.3159639168204285 7.138500959447766 21.585718762897734 0 0 0
688 1 2 -1.1794 2.889862831655308 9.598574778113429 20.317522573899645 0 0 0
394 1 2 -1.1794 0.5275189293605694 11.033822654230873 21.03540552983315 0 0 0
522 1 1 0.5897 7.705211311121359 7.322679457339284 17.086881162022948 0 0 0
689 1 1 0.5897 3.661296811805247 10.006484977004751 20.710856531597557 0 0 0
521 1 1 0.5897 6.555015847178747 6.338412151084449 17.10072984448543 0 0 0
690 1 1 0.5897 2.1511790800947153 10.101422119159302 20.6606066285224 0 0 0
625 1 2 -1.1794 2.5283899660539326 9.520229870360158 17.660573786157826 0 0 0
139 1 2 -1.1794 7.402814761513596 9.547709325797815 20.349210917983555 0 0 0
7 1 2 -1.1794 7.572829347595749 9.580545181416298 17.602093990342397 0 0 0
4 1 2 -1.1794 2.62230443034972 6.980593160222492 21.381825195901932 0 0 0
680 1 1 0.5897 4.452932279779481 10.150463238909033 17.142955026823664 0 0 0
627 1 1 0.5897 1.8222513821475508 10.159385085649577 17.565305817192367 0 0 0
5 1 1 0.5897 3.462542594598108 6.525352659889165 21.32670365144277 0 0 0
8 1 1 0.5897 6.725483438645648 9.98656417272911 17.419339475686733 0 0 0
224 1 1 0.5897 2.360669920694814 7.4767526636724755 17.216854505072476 0 0 0
9 1 1 0.5897 7.72194479227616 9.7451600232776 18.533088987781845 0 0 0
140 1 1 0.5897 6.709651632467662 10.171518636858389 20.565110536842617 0 0 0
223 1 2 -1.1794 2.7784012877493094 6.634313289078859 17.037967291521163 0 0 0
361 1 2 -1.1794 5.297529242318257 10.947036772513059 21.463895548549722 0 0 0
161 1 1 0.5897 6.5404568641681236 6.621548768053621 21.367596544296866 0 0 0
681 1 1 0.5897 5.007637979600043 11.54516246327574 16.945678104166902 0 0 0
396 1 1 0.5897 0.5199899551679752 11.377587576391651 21.92859544315192 0 0 -1
711 1 1 0.5897 8.970856281335154 5.767982938365683 17.57285822734608 0 0 0
573 1 1 0.5897 0.01673015714345638 5.800172265570553 17.468995817840877 0 0 0
557 1 1 0.5897 1.9354305148710869 14.547590251974938 2.0246543487550275 0 0 0
556 1 2 -1.1794 2.596897205772662 15.148316270244996 1.681428888048134 0 0 0
173 1 1 0.5897 4.270638641166993 13.94930521800849 2.661316098690002 0 0 0
480 1 1 0.5897 6.864463093281406 14.743651874231336 2.7160171513122955 0 0 0
478 1 2 -1.1794 7.62880773162648 15.176458979163659 2.335658983763486 0 0 0
172 1 2 -1.1794 5.016458783118639 13.575775504608224 3.130817408691789 0 0 0
558 1 1 0.5897 2.646808658589612 14.942317378431332 0.7481011114773816 0 0 0
293 1 1 0.5897 2.6128608825835684 16.71386959477394 2.224623105249228 0 0 0
174 1 1 0.5897 5.317518912734994 12.8593666544765 2.5719411189275974 0 0 0
449 1 1 0.5897 7.37085260619391 17.08781337470751 2.6997345735804363 0 0 0
200 1 1 0.5897 4.803265096160218 13.46239511146526 4.913209500929352 0 0 0
479 1 1 0.5897 8.377925364023845 14.707701150583059 2.703525379483556 0 0 0
374 1 1 0.5897 0.3141340926343174 13.516571359340967 4.362587483818431 0 0 0
373 1 2 -1.1794 0.47409806029889157 13.582794616376123 3.421302854484827 0 0 0
238 1 2 -1.1794 2.5012823918393434 17.385838374563853 5.290383497872799 0 0 0
294 1 1 0.5897 2.400675019725735 17.540759708276553 3.474688596894343 0 0 0
292 1 2 -1.1794 2.5899792555439425 17.617415103332867 2.539663435208152 0 0 0
317 1 1 0.5897 7.335619277018508 14.602745168575604 0.30899759399856497 0 0 0
240 1 1 0.5897 3.4284128857319844 17.45578048131226 5.5179845759224735 0 0 0
308 1 1 0.5897 7.6695019892464 17.46781482775988 4.602213233679802 0 0 0
768 1 1 0.5897 -0.01732843063088914 13.969868124811864 10.06906886557448 0 0 0
16 1 2 -1.1794 2.508758276841352 15.033268907246336 6.74790119948391 0 0 0
199 1 2 -1.1794 4.671974735018299 13.39078546452366 5.858514902507135 0 0 0
59 1 1 0.5897 9.087916613616326 14.005443688973445 9.573329243503334 0 0 0
184 1 2 -1.1794 7.49596350795805 17.656434818975725 10.4329561766345 0 0 0
518 1 1 0.5897 7.0668350596294305 15.645497818742662 6.222421093125204 0 0 0
376 1 2 -1.1794 7.362883893446047 14.810723475416852 9.405533380511061 0 0 0
454 1 2 -1.1794 5.198604276003011 13.556430857714222 11.023122180551239 0 0 0
812 1 1 0.5897 3.7554268931422246 14.435174339278648 10.107889623193708 0 0 0
655 1 2 -1.1794 0.3234830949263464 13.405466425225594 6.367286409108786 0 0 0
456 1 1 0.5897 4.987596362710899 12.682240290211544 10.695314059758907 0 0 0
811 1 2 -1.1794 3.0205902520391428 14.781064185603194 9.601372335573894 0 0 0
18 1 1 0.5897 3.1719597523013943 14.532083426937364 6.273405925114166 0 0 0
239 1 1 0.5897 2.230664062783999 16.538443351215598 5.643719818617823 0 0 0
517 1 2 -1.1794 6.847705622425359 14.81141350044009 6.637684304158228 0 0 0
377 1 1 0.5897 6.693923948352544 14.332754780378632 9.895643263554092 0 0 0
813 1 1 0.5897 2.2699673465229115 14.255220156024324 9.877567926353422 0 0 0
384 1 1 0.5897 2.851357134323327 16.568637920424756 9.871264171864947 0 0 0
186 1 1 0.5897 7.542345835006504 16.77378051775255 10.06562764140578 0 0 0
766 1 2 -1.1794 0.6407820472752824 13.314450023287032 10.300463434317255 0 0 0
201 1 1 0.5897 5.300426414562783 14.006606365626538 6.235344386404962 0 0 0
17 1 1 0.5897 2.88322195491357 15.161911091726163 7.619247974200611 0 0 0
378 1 1 0.5897 6.949420945198204 15.008042063741811 8.565205182228404 0 0 0
519 1 1 0.5897 7.673576743826951 14.327778703076573 6.655163073183232 0 0 0
656 1 1 0.5897 1.067695884313465 13.972474929429842 6.56947207615395 0 0 0
382 1 2 -1.1794 2.9016831703256694 17.443099742850187 10.257196507395776 0 0 0
307 1 2 -1.1794 7.631951721337362 17.491349875250336 5.558276409905112 0 0 0
383 1 1 0.5897 3.7658098636378248 17.767817621038482 10.0040287438439 0 0 0
232 1 2 -1.1794 2.4842243542364293 14.894754831297838 14.303816986238308 0 0 0
234 1 1 0.5897 2.4747295555055913 15.15296728900087 15.225344011703896 0 0 0
606 1 1 0.5897 2.815932779006694 16.603249665865185 13.258666769427286 0 0 0
639 1 1 0.5897 1.2506301632697985 13.991272572344458 13.261812019087925 0 0 0
233 1 1 0.5897 3.3555321377064264 14.522413530574562 14.167897398523165 0 0 0
295 1 2 -1.1794 7.459771754809413 14.779136636062582 13.898357612697787 0 0 0
270 1 1 0.5897 7.700232509046645 16.7492031729765 13.620386386673212 0 0 0
296 1 1 0.5897 7.5366805476142025 14.584365324172166 14.832235748332803 0 0 0
429 1 1 0.5897 5.873190003011225 13.66101397251885 14.111498603508505 0 0 0
427 1 2 -1.1794 4.981950447159895 13.420094389109403 13.858650512446935 0 0 0
297 1 1 0.5897 8.171254140325805 14.285221026754751 13.49088974322298 0 0 0
428 1 1 0.5897 4.944065140775922 12.472284753178599 13.986720413856158 0 0 0
637 1 2 -1.1794 0.5359344379991468 13.46376334201851 12.9052310263764 0 0 0
638 1 1 0.5897 0.5208428745098426 12.678698728223692 13.45254582260368 0 0 0
269 1 1 0.5897 7.446833543516782 17.542000892997635 12.355991539664434 0 0 0
767 1 1 0.5897 0.6363699123971907 13.297456965929308 11.25736161063924 0 0 0
49 1 2 -1.1794 7.559642334339349 14.378607098396635 16.655567715717666 0 0 0
604 1 2 -1.1794 2.742117056288118 17.531590862601178 13.037514333823044 0 0 0
455 1 1 0.5897 5.147938946677023 13.474304817091978 11.975312455822083 0 0 0
605 1 1 0.5897 2.8011277775686283 17.556177319123265 12.082590337689567 0 0 0
268 1 2 -1.1794 7.407511315711169 17.606084509575773 13.310092340755798 0 0 0
117 1 1 0.5897 8.627164678276507 13.659783797858351 21.222654405852587 0 0 0
157 1 2 -1.1794 7.456847879669148 17.129616670163948 20.52083287738248 0 0 0
126 1 1 0.5897 5.829988113702485 13.294730542852454 17.456257751573453 0 0 0
318 1 1 0.5897 7.306760826894481 15.446060604796987 21.31466200226027 0 0 0
610 1 2 -1.1794 7.38954487167159 17.236324596913583 17.636671203080596 0 0 0
683 1 1 0.5897 5.535213230704548 13.76081188102267 20.868492051796203 0 0 0
684 1 1 0.5897 4.022602445001379 13.81896796681818 20.843473502304292 0 0 0
823 1 2 -1.1794 2.5796211578048727 15.173649043998676 16.907709329934143 0 0 0
825 1 1 0.5897 1.8789868862964691 14.737293762650644 17.392371109832403 0 0 0
584 1 1 0.5897 3.137244291632088 16.8713818382844 17.368828809123336 0 0 0
51 1 1 0.5897 8.358380838851907 13.99265286572105 17.01514367746642 0 0 0
52 1 2 -1.1794 0.35752137740043993 13.747288946480412 17.692037604583497 0 0 0
665 1 1 0.5897 1.8060754567147832 14.797053459068843 20.9389262249426 0 0 0
125 1 1 0.5897 4.748104263636784 13.292636422302035 18.515103714813748 0 0 0
53 1 1 0.5897 0.32186034999977725 13.519626018077332 18.62095023585635 0 0 0
451 1 2 -1.1794 0.3982622699657165 13.605026671518411 20.57192163464167 0 0 0
50 1 1 0.5897 7.573906411247248 15.28623964504046 16.95918165495074 0 0 0
666 1 1 0.5897 2.8790216018652584 15.865096311743253 20.93975109532154 0 0 0
452 1 1 0.5897 0.48256966144156876 12.651753175832921 20.590540823651764 0 0 0
824 1 1 0.5897 3.3527174309792875 14.630895100258115 17.06257740249295 0 0 0
682 1 2 -1.1794 4.7673683879900235 13.332362951413996 20.49027213065566 0 0 0
664 1 2 -1.1794 2.6952209686667215 14.976598453842712 21.244631703311903 0 0 0
124 1 2 -1.1794 4.879381782386577 13.27641923066228 17.56722342161597 0 0 0
316 1 2 -1.1794 7.159779157770512 14.55501669791537 21.631827077646285 0 0 0
715 1 2 -1.1794 2.9328168010457896 17.580085085208395 20.361133270432347 0 0 0
716 1 1 0.5897 2.978333526976346 17.573055532653598 19.4051618269253 0 0 0
159 1 1 0.5897 7.464952135367777 17.119222330103966 19.563857567252782 0 0 0
612 1 1 0.5897 8.228888277416198 17.667915672905956 17.477055947504383 0 0 0
446 1 1 0.5897 0.12909350637450503 11.968732476012777 17.170876011080544 0 0 0
158 1 1 0.5897 8.027590048852158 17.860621225377606 20.757714645827022 0 0 0
611 1 1 0.5897 6.754308552350108 17.757914559955317 17.146106512988993 0 0 0
583 1 2 -1.1794 3.1914034861551235 17.78065397943842 17.66285179555706 0 0 0
362 1 1 0.5897 5.036723039406835 11.848059753725906 21.273327751602864 0 0 0
696 1 1 0.5897 1.0696879672866237 22.43900451528671 2.7134466470258287 0 0 0
266 1 1 0.5897 4.321607178177089 22.610825234649916 2.512896488177569 0 0 0
267 1 1 0.5897 5.783305694477849 22.238669629833865 2.3827602413815203 0 0 0
265 1 2 -1.1794 4.923093122786879 21.86949619632201 2.5827349894784453 0 0 0
228 1 1 0.5897 4.888345300169674 20.03514717937643 2.3250079797789556 0 0 0
226 1 2 -1.1794 4.957435087429208 19.121456463423087 2.048277535220232 0 0 0
818 1 1 0.5897 8.080773868658824 22.378811022475887 2.26418648105907 0 0 0
187 1 2 -1.1794 2.603198364396158 23.382887143083906 2.030621330724979 0 0 0
189 1 1 0.5897 2.908921571332206 23.284634098593394 1.129016929318432 0 0 0
817 1 2 -1.1794 7.345863148729667 22.857253210101014 1.8805159980390882 0 0 0
249 1 1 0.5897 4.928409032641604 21.54921436202752 4.45753918438655 0 0 0
343 1 2 -1.1794 0.6010451638859134 19.279726929364017 1.7472223904811084 0 0 0
413 1 1 0.5897 0.44550081623430315 21.57898797111607 4.842809761117391 0 0 0
695 1 1 0.5897 0.38531727253982156 21.09760021650837 2.5582491993034155 0 0 0
345 1 1 0.5897 0.5938201127427655 19.14122542662701 0.8002083737101103 0 0 0
227 1 1 0.5897 4.127046140947717 18.726631263636953 2.31442967240354 0 0 0
344 1 1 0.5897 1.2874069031693898 18.695762711710678 2.069861773518323 0 0 0
694 1 2 -1.1794 0.32072342545573285 21.930800677822546 3.0248852924316774 0 0 0
247 1 2 -1.1794 4.75854293309122 21.32499250216997 5.37234361816605 0 0 0
498 1 1 0.5897 7.1972786179204205 23.18763732727313 0.0388226735492011 0 0 0
819 1 1 0.5897 7.549268299830067 23.778659417413813 2.0412036535671843 0 -1 0
450 1 1 0.5897 6.971389219596882 18.535178390077483 2.5064801048838765 0 0 0
448 1 2 -1.1794 7.655411677968459 17.98277174626441 2.88483509853101 0 0 0
342 1 1 0.5897 0.7576145543893089 18.956938814168126 7.371569549968214 0 0 0
102 1 1 0.5897 5.198496550038335 18.659351563113063 8.468425806610169 0 0 0
404 1 1 0.5897 1.400463489374949 18.557457052111317 9.778336683477095 0 0 0
309 1 1 0.5897 8.304812890957326 18.12423434352376 5.809253897515274 0 0 0
700 1 2 -1.1794 2.9570158125480015 23.148857021224927 6.4794532178821305 0 0 0
85 1 2 -1.1794 7.848655083037087 23.195037508644546 9.692753486655407 0 0 0
96 1 1 0.5897 0.8405912425415922 21.245468018437037 11.018867146734367 0 0 0
101 1 1 0.5897 5.937331464664835 18.45521815202457 9.773803501136102 0 0 0
554 1 1 0.5897 6.258296637263673 22.003933935962884 10.25028976622081 0 0 0
87 1 1 0.5897 8.410486522045344 22.495391427230196 10.025990478160951 0 0 0
341 1 1 0.5897 1.3124945124469416 18.36063530129867 6.09565627385496 0 0 0
702 1 1 0.5897 2.0772626351406744 22.82892710566314 6.279612919989474 0 0 0
701 1 1 0.5897 3.0059639940599476 23.135104778613233 7.435168467926761 0 0 0
94 1 2 -1.1794 0.7611736968869793 21.469061440022358 10.091667323200127 0 0 0
38 1 1 0.5897 2.2063996739464558 22.399552339367737 9.554345821744551 0 0 0
32 1 1 0.5897 7.629418350722751 22.540997720821224 6.0492117310594775 0 0 0
405 1 1 0.5897 0.6044718583853178 19.78740973596048 9.396984059574454 0 0 0
386 1 1 0.5897 5.987160208571456 18.363751771395243 6.481811945945789 0 0 0
555 1 1 0.5897 5.395259835465609 20.79086761376586 9.97550323581754 0 0 0
248 1 1 0.5897 3.984569141049911 21.837755817096507 5.605385111736861 0 0 0
553 1 2 -1.1794 5.346547778541536 21.71342551620124 10.225923894323573 0 0 0
412 1 2 -1.1794 0.5810105186377187 21.6360181589283 5.788523453584063 0 0 0
86 1 1 0.5897 7.549272882847849 22.87720999542465 8.841064259161666 0 0 0
385 1 2 -1.1794 5.096668836678549 18.514168844483578 6.799164497560272 0 0 0
37 1 2 -1.1794 2.8887828056258265 22.99928367429284 9.252866245912418 0 0 0
403 1 2 -1.1794 0.7047968369186819 18.8575115128845 9.193384553573871 0 0 0
340 1 2 -1.1794 0.683736910019405 19.006044786267374 6.418627102800832 0 0 0
387 1 1 0.5897 4.908694467741957 19.42298455042902 6.5648727154864295 0 0 0
39 1 1 0.5897 3.6956296705332234 22.65850119722463 9.639014838698575 0 0 0
31 1 2 -1.1794 6.944671206527396 22.72113975849976 6.693284294268967 0 0 0
100 1 2 -1.1794 5.204516835036397 18.933185196320174 9.385493914045265 0 0 0
414 1 1 0.5897 0.5095432581225036 20.732416050706647 6.096059848826127 0 0 0
33 1 1 0.5897 6.167055775374238 22.284588694019988 6.34547238769962 0 0 0
185 1 1 0.5897 8.200290401015565 18.135444377005022 9.996295228013812 0 0 0
95 1 1 0.5897 0.050002280705621543 22.108946902569407 10.059128635828394 1 0 0
381 1 1 0.5897 1.6502769771659498 22.23958651454447 13.361252333187862 0 0 0
738 1 1 0.5897 4.093293099729122 22.966208222165008 14.107912237975457 0 0 0
789 1 1 0.5897 7.112595759684413 23.299033457092897 13.754366798586402 0 0 0
90 1 1 0.5897 5.396395593719766 20.86218764556024 13.515357065359531 0 0 0
89 1 1 0.5897 5.435893185146436 21.57376101655018 12.179852546535729 0 0 0
88 1 2 -1.1794 5.614243220467707 21.702147799933456 13.111369720352007 0 0 0
763 1 2 -1.1794 4.936259792668525 19.090171679710487 13.573486507392976 0 0 0