LAMMPS (30 Jul 2021)
  using 1 OpenMP thread(s) per MPI task
package omp 0
using multi-threaded neighbor list subroutines
echo both

include		in.partitions
variable        pid world 0
include		in.temp
variable        temperature equal 261.47
variable	tempDamp equal 100.0
include		in.pressure
variable        pressure equal 7875.0
variable        pressureDamp equal 1000.0 # This is 1 ps
include		in.seed
variable        seed world 745823

units		real
atom_style	full
read_restart	restart.lmp.${pid}
read_restart	restart.lmp.0
Reading restart file ...
  restart file = 30 Jul 2021, LAMMPS = 30 Jul 2021
  restoring atom style full from restart
  orthogonal box = (0.55134999 1.7409487 0.67264570) to (17.656222 21.888229 21.540550)
  4 by 4 by 4 MPI processor grid
  restoring pair style lj/cut/tip4p/long/omp from restart
  restoring bond style harmonic/omp from restart
  restoring angle style harmonic/omp from restart
  864 atoms
  576 bonds
  288 angles
Finding 1-2 1-3 1-4 neighbors ...
  special bond factors lj:    0        0        0       
  special bond factors coul:  0        0        0       
     2 = max # of 1-2 neighbors
     1 = max # of 1-3 neighbors
     1 = max # of 1-4 neighbors
     2 = max # of special neighbors
  special bonds CPU = 0.511 seconds
  read_restart CPU = 0.761 seconds
include 	in.setup
variable	out_freq equal 1000
variable	out_freq2 equal 10000
variable	out_freq3 equal 1000

timestep	2.0

neigh_modify    delay 7 every 1

include		in.tip4p
# This is TIP4P/Ice

# create groups ###
group ox type 2
288 atoms in group ox
group hy type 1
576 atoms in group hy

# set charges - beside manually ###
set group ox charge -1.1794
Setting atom values ...
  288 settings made for charge
set group hy charge 0.5897
Setting atom values ...
  576 settings made for charge

# ### TIP3P Potential Parameters ###
pair_style lj/cut/tip4p/long/omp 2 1 1 1 0.1577 8.5
pair_coeff 1 1*2 0.000 0.000
pair_coeff 2 2 0.21084 3.1668
bond_style  harmonic
bond_coeff  1 450 0.9572
angle_style harmonic
angle_coeff 1 55 104.52
kspace_style pppm/tip4p/omp 1.0e-5
pair_modify tail yes

thermo          ${out_freq}
thermo          1000
thermo_style    custom step temp pe etotal epair emol press lx ly lz vol pxx pyy pzz pxy pxz pyz enthalpy

restart 	${out_freq3} restart.lmp.${pid} restart2.lmp.${pid}
restart 	1000 restart.lmp.${pid} restart2.lmp.${pid}
restart 	1000 restart.lmp.0 restart2.lmp.${pid}
restart 	1000 restart.lmp.0 restart2.lmp.0


include         in.dump
dump            myDump all atom ${out_freq2} dump.water.${pid}
dump            myDump all atom 10000 dump.water.${pid}
dump            myDump all atom 10000 dump.water.0
dump            myDump2 all dcd ${out_freq2} dump.dcd
dump            myDump2 all dcd 10000 dump.dcd
dump_modify     myDump append yes
dump_modify     myDump2 append yes


variable natoms 	equal  "count(all)"                        # NUMBER ATOMS
variable H      	equal  "enthalpy/v_natoms"                 # ENTHALPY-per-atom
variable Vol      	equal  "vol/v_natoms"                 # volume-per-atom
fix AVG all 		ave/time ${out_freq} 1 ${out_freq} v_Vol v_H file vol_enthalpy.dat
fix AVG all 		ave/time 1000 1 ${out_freq} v_Vol v_H file vol_enthalpy.dat
fix AVG all 		ave/time 1000 1 1000 v_Vol v_H file vol_enthalpy.dat


timer           timeout 23:50:00 every 1000
New timer settings: style=normal  mode=nosync  timeout=23:50:00

fix 		1 all shake 1e-6 200 0 b 1 a 1
       0 = # of size 2 clusters
       0 = # of size 3 clusters
       0 = # of size 4 clusters
     288 = # of frozen angles
  find clusters CPU = 0.030 seconds
fix             2 all nph iso ${pressure} ${pressure} ${pressureDamp}
fix             2 all nph iso 7875 ${pressure} ${pressureDamp}
fix             2 all nph iso 7875 7875 ${pressureDamp}
fix             2 all nph iso 7875 7875 1000
fix             3 all temp/csvr ${temperature} ${temperature} ${tempDamp} ${seed}
fix             3 all temp/csvr 261.47 ${temperature} ${tempDamp} ${seed}
fix             3 all temp/csvr 261.47 261.47 ${tempDamp} ${seed}
fix             3 all temp/csvr 261.47 261.47 100 ${seed}
fix             3 all temp/csvr 261.47 261.47 100 745823

run             250000
PPPM initialization ...
  extracting TIP4P info from pair style
  using 12-bit tables for long-range coulomb (../kspace.cpp:340)
  G vector (1/distance) = 0.37363197
  grid = 24 24 24
  stencil order = 5
  estimated absolute RMS force accuracy = 0.0032335907
  estimated relative force accuracy = 9.7378622e-06
  using double precision FFTW3
  3d grid and FFT values/proc = 2535 216
Last active /omp style is kspace_style pppm/tip4p/omp
Neighbor list info ...
  update every 1 steps, delay 7 steps, check yes
  max neighbors/atom: 2000, page size: 100000
  master list distance cutoff = 10.8154
  ghost atom cutoff = 10.8154
  binsize = 5.4077, bins = 4 4 4
  1 neighbor lists, perpetual/occasional/extra = 1 0 0
  (1) pair lj/cut/tip4p/long/omp, perpetual
      attributes: half, newton on, omp
      pair build: half/bin/newton/omp
      stencil: half/bin/3d
      bin: standard
Per MPI rank memory allocation (min/avg/max) = 9.234 | 9.238 | 9.241 Mbytes
Step Temp PotEng TotEng E_pair E_mol Press Lx Ly Lz Volume Pxx Pyy Pzz Pxy Pxz Pyz Enthalpy 
15750000    263.98097   -3843.4956   -3391.0412   -3843.4956            0    6665.5087    17.104872     20.14728    20.867904    7191.4275    5399.8974    6377.6163    8219.0124    -1178.541    131.84292    1015.0626   -2691.9654 
15751000    261.38177   -3898.5448   -3450.5454   -3898.5448            0    5944.5804    17.115602    20.159919    20.880995    7204.9693    5679.4563    5637.0636    6517.2214   -431.26006   -990.31549   -498.51269   -2825.9062 
15752000    261.13525   -3878.8457   -3431.2688   -3878.8457            0     8292.803     17.02918    20.058125     20.77556    7096.3793    8676.8449    8805.7987    7395.7655   -1415.1277   -880.72919   -1809.4594   -2573.0184 
15753000      267.481   -3849.4148   -3390.9615   -3849.4148            0    8379.2498    16.988249    20.009914    20.725625    7045.3321     7221.869    8102.5387    9813.3418    123.43143   -968.33837    -214.8671   -2530.0025 
15754000    247.51499   -3885.1452    -3460.913   -3885.1452            0    7199.5767    17.024388     20.05248    20.769713    7090.3897    8478.4346    7916.2947    5204.0009    320.64436   -699.66317    1205.6152   -2716.4331 
15755000    260.53651   -3850.5677    -3404.017   -3850.5677            0    8148.4194    17.056646    20.090476    20.809068    7130.7708    8481.5026    9526.6639    6437.0917   -858.15346    1224.9039    447.81919   -2556.6223 
15756000    257.70013   -3834.8734   -3393.1842   -3834.8734            0    8086.7524    17.045402    20.077232    20.795351    7116.6783    8490.1856    10164.801    5605.2701    1425.8557    2581.7744    -1076.458   -2553.8646 
15757000    264.18701   -3864.4394   -3411.6319   -3864.4394            0    7948.2489    17.060971    20.095571    20.814345    7136.1973    9050.8637    8428.9469    6364.9361   -811.57556    833.38381    1005.3172   -2584.4249 
15758000    261.41978   -3856.0566    -3407.992   -3856.0566            0    7246.6108    17.043553    20.075055    20.793095    7114.3631    6118.6563    8722.9633     6898.213   -178.17352    1131.7371    -365.4079   -2656.1149 
15759000    272.14472   -3858.8692   -3392.4224   -3858.8692            0    9306.8123    16.977756    19.997555    20.712823    7032.2854    10422.558    8502.1238     8995.755     450.9295    -443.9036   -322.13877   -2437.9281 
15760000    268.71789    -3871.379   -3410.8057    -3871.379            0    8508.6799    16.995478    20.018428    20.734444    7054.3297    7944.7697     10303.58    7277.6903    676.70867   -328.22782     178.1363   -2535.4314 
15761000    259.36683   -3866.8671   -3422.3212   -3866.8671            0    7101.9183    17.064627    20.099877    20.818806     7140.786    5076.7194    8550.5147    7678.5207   -202.96858    1240.5711   -150.21727   -2682.7201 
15762000    267.68819   -3816.6371   -3357.8287   -3816.6371            0    8837.4061    16.988249    20.009914    20.725624     7045.332    8607.6507    10284.507    7620.0608    1806.9501   -181.09647   -1048.1442   -2449.7945 
15763000    275.76178   -3817.8387   -3345.1925   -3817.8387            0    8764.5438    16.996485    20.019614    20.735672    7055.5836    9421.8691    7738.9368    9132.8254   -422.63962   -1127.3496   -1358.6868   -2443.3345 
15764000    257.42486    -3858.084   -3416.8666    -3858.084            0    6348.6475    17.085098    20.123988    20.843779    7166.5145    5410.3736    6959.0224    6676.5465    55.562235    405.24408   -1122.3999   -2753.3297 
15765000    264.00099   -3858.4493   -3405.9606   -3858.4493            0    9636.9798    16.996521    20.019657    20.735716    7055.6288    9018.3736    10874.544    9018.0219    970.43531   -282.86956   -953.25852    -2414.324 
15766000    271.93548   -3867.3762   -3401.2881   -3867.3762            0    8472.5637    16.959013    19.975477    20.689956    7009.0198    9638.0621    9284.0437    6495.5852    2362.3225    661.50964   -233.97602   -2535.2281 
15767000    263.55206   -3844.4103   -3392.6911   -3844.4103            0     8040.145     17.01381     20.04002    20.756808    7077.1809    8848.2468    7140.3109    8131.8772   -1381.4797    499.89833   -798.10154   -2562.8402 
15768000    250.43351    -3879.731   -3450.4966    -3879.731            0    7920.0294    17.021847    20.049487    20.766613    7087.2153    10383.366    7607.8786    5768.8436    -1992.981    898.67102    602.17423   -2631.8842 
15769000    263.53812    -3860.256   -3408.5607    -3860.256            0    7831.9559    17.018849    20.045956    20.762955    7083.4708    9603.9863    7273.3395     6618.542     1657.778   -697.41915   -339.31483   -2599.4793 
15770000    249.62148   -3867.7743   -3439.9317   -3867.7743            0    8813.5464    17.004294    20.028812    20.745198    7065.3124    8322.3336    9954.2481    8164.0574    1378.1089   -65.274411   -1095.7384   -2531.7809 
15771000    258.06507   -3873.2265   -3430.9118   -3873.2265            0    8011.6844    16.998279    20.021728    20.737861    7057.8183    8826.5673    6863.6129     8344.873    98.335209   -773.41149   -353.34828   -2606.2608 
15772000    275.75669   -3887.3878   -3414.7503   -3887.3878            0    7462.8412    17.028956    20.057861    20.775287    7096.0994    8710.5755    7357.0413     6320.907    1893.8924    1344.9648    739.64577   -2642.4259 
15773000    253.65294   -3896.1008   -3461.3484   -3896.1008            0    8288.6711    17.059033    20.093288    20.811981    7133.7657     8081.387    7921.7025    8862.9239   -1877.9524    502.86806    -1444.585   -2599.0062 
15774000    274.44017   -3844.9582   -3374.5772   -3844.9582            0     8613.362    17.094299    20.134827    20.855005       7178.1    9725.3645    7031.2492    9083.4724   -500.13544   -460.08915   -1351.2981   -2472.8854 
15775000    268.40315   -3881.6532   -3421.6193   -3881.6532            0    7890.2564    17.103313    20.145443    20.866002    7189.4606    10921.639    4922.5486    7826.5811   -1976.4042   -479.16491   -949.21411   -2594.3188 
15776000    260.27251   -3846.5852    -3400.487   -3846.5852            0    7159.9474    17.131398    20.178523    20.900265    7224.9355     8560.303    6616.5202    6303.0191   -865.40425    655.51999    1883.4437   -2646.0557 
15777000    273.05717   -3863.8773   -3395.8666   -3863.8773            0    7652.9395    17.016663    20.043382    20.760289    7080.7425    5454.9127    7087.5865    10416.319    980.23059    1665.2184    1696.8881    -2605.583 
15778000    258.47268   -3871.5245   -3428.5112   -3871.5245            0    8755.6654    16.955807    19.971701    20.686045    7005.0464    9615.3044    7577.7013    9073.9905    1104.4569   -601.87789   -632.25029     -2534.02 
15779000    264.43225   -3901.3239   -3448.0961   -3901.3239            0    7252.4452    16.985519    20.006698    20.722294     7041.936    7214.8215    6675.7344    7866.7798   -1001.0164    818.22461   -998.16602   -2703.2742 
15780000    263.94798   -3832.4919    -3380.094   -3832.4919            0    6997.3666    16.999139     20.02274    20.738909    7058.8887    6656.1372    6164.1467    8171.8158    1586.0784    32.380804    328.27915   -2659.7386 
15781000    264.65004   -3841.8061    -3388.205   -3841.8061            0    6594.2488    17.122613    20.168177    20.889548    7213.8271    8286.8356    7083.7181    4412.1928    439.81916    954.72346   -379.49305   -2694.4487 
15782000    261.82114   -3824.6091   -3375.8566   -3824.6091            0    7559.0998     17.09907    20.140446    20.860826    7184.1118     9987.672    6463.7373    6225.8902   -1614.0852   -1501.2286    582.56929   -2583.8678 
15783000    258.29106   -3837.3341   -3394.6321   -3837.3341            0    7014.9384    17.118815    20.163703    20.884914    7209.0277    7150.4173    4946.4228    8947.9752    129.44027    501.62464   -1145.0132   -2657.1076 
15784000    251.98418   -3838.0603    -3406.168   -3838.0603            0    9670.9634     17.03457    20.064473    20.782135    7103.1191    7515.9733    11938.532    9558.3848    510.47489   -2836.4978   -702.66204   -2404.3364 
15785000    249.51591   -3886.5064   -3458.8447   -3886.5064            0    8242.6688    17.070245    20.106494    20.825659    7147.8403    8610.2551    7179.5074     8938.244    93.947307   -761.10798    198.62476   -2599.5966 
15786000    252.77975   -3878.8246   -3445.5688   -3878.8246            0    7346.7481    17.091154    20.131122    20.851168    7174.1384    6691.0985    7446.4074    7902.7382    1010.3591    933.23846   -438.19731   -2676.8973 
15787000    261.19718   -3854.8077   -3407.1246   -3854.8077            0     8804.875    17.019475    20.046693    20.763719    7084.2528    8817.4616    9563.1133      8034.05    284.34379   -1301.0294   -932.74147   -2497.4352 
15788000     259.7251   -3870.6374   -3425.4775   -3870.6374            0    8181.2966    16.977728    19.997521    20.712788    7032.2497    6080.7655    8983.2846    9479.8397   -1385.3126     924.5739    11.058897   -2586.4188 
15789000    263.99739   -3885.0741   -3432.5916   -3885.0741            0    8248.1208    17.005544    20.030285    20.746724    7066.8714    6214.1048    9499.2705     9030.987    868.35882    517.05047   -1330.7166    -2582.515 
15790000    265.02545   -3892.0957   -3437.8512   -3892.0957            0    9619.5685     17.00393    20.028384    20.744755    7064.8595    8205.9527    9383.6438    11269.109    1815.0315    344.72384   -403.50641   -2446.7112 
15791000    261.64178   -3883.7526   -3435.3075   -3883.7526            0    8738.8171     17.03328    20.062954    20.780561    7101.5054     9097.878    6821.8827    10296.691    129.58224   -1234.1251    268.66716   -2530.2442 
15792000    267.54377   -3905.5463   -3446.9854   -3905.5463            0    7092.1314    17.005289    20.029985    20.746413    7066.5539    5349.3645    8267.6975    7659.3321   -312.57228   -926.01821     394.1348   -2716.0815 
15793000    263.57743   -3891.4918   -3439.7291   -3891.4918            0    9132.0317    16.998829    20.022375    20.738532    7058.5031    7714.2759    10688.807    8993.0119   -459.77111    823.63703   -667.08934   -2499.6684 
15794000    276.23119   -3910.6704   -3437.2196   -3910.6704            0    7096.5455    17.047657    20.079888    20.798102    7119.5032     4656.489    9027.5678    7605.5795   -669.85367    394.70425    402.76744   -2700.3807 
15795000    256.93332   -3916.0153   -3475.6404   -3916.0153            0    7212.1503    16.987982    20.009599    20.725298    7044.9993    7410.5897      8380.42    5845.4414    370.68681    384.70111    216.44168   -2734.6346 
15796000    261.61388   -3884.5388   -3436.1415   -3884.5388            0    6837.6471    17.059548    20.093894    20.812609    7134.4113    5405.5455    7771.8751    7335.5208    700.13332   -119.62623    381.86145   -2724.6975 
15797000    255.79968   -3901.8568   -3463.4249   -3901.8568            0    7412.3003    17.033488    20.063199    20.780816    7101.7661    5547.0296    8704.3061    7985.5652     944.5835   -484.08526    451.38318   -2695.7183 
15798000     273.6821   -3890.9061   -3421.8244   -3890.9061            0    7487.8707     16.97457    19.993802    20.708936     7028.327    8272.8667    6695.5349    7495.2104    438.88037   -2974.2046   -75.423307   -2654.3106 
15799000     262.2531   -3858.3869   -3408.8941   -3858.3869            0    7726.9703    17.063726    20.098815    20.817706    7139.6546    8872.3249    7151.6728    7156.9131   -1488.9316   -1118.2721    1870.9048   -2604.3269 
15800000    249.04057    -3880.921    -3454.074    -3880.921            0     6967.376     16.95491    19.970644     20.68495    7003.9337    6231.5309    6839.7631    7830.8341     1141.003    2271.3557    1444.1429   -2742.3901 
15801000    270.52551   -3896.2196   -3432.5482   -3896.2196            0     6953.598    17.000342    20.024158    20.740378    7060.3883    4812.6389    8708.5163    7339.6389   -157.22861    663.36548    2096.4659   -2716.5464 
15802000     260.9859   -3906.3316   -3459.0107   -3906.3316            0    9086.6891    16.970583    19.989105    20.704072    7023.3755    8663.5239    10537.585    8058.9585   -740.80763   -1082.2478    484.03517   -2528.2727 
15803000    259.74599   -3901.2538   -3456.0581   -3901.2538            0    7726.5835     16.96283    19.979973    20.694613    7013.7536    6980.0074     8630.665     7569.078    1251.4239    1441.8255   -1276.3571   -2665.7182 
15804000    266.73377   -3871.9788   -3414.8063   -3871.9788            0    7903.4485    17.010085    20.035634    20.752264    7072.5342    8618.1563    8459.4117    6632.7776    73.825603   -545.65893   -1323.3118   -2599.5999 
15805000    265.06861   -3886.6508   -3432.3323   -3886.6508            0    5671.1091     17.09462    20.135204    20.855396    7178.5036    4266.6065    6220.2594    6526.4615    573.30025   -445.54148     259.0227   -2838.6176 
15806000    279.37373   -3865.0165   -3386.1795   -3865.0165            0    9496.2885     17.07891    20.116701    20.836231    7158.7316    9350.8627    9948.0314    9189.9714    796.26214    515.72675    1628.6501   -2394.7408 
15807000     271.4786   -3881.9189   -3416.6138   -3881.9189            0    8341.6672    17.048162    20.080483    20.798718    7120.1359    9965.9114    8607.6089    6451.4812    162.78687    817.58041   -60.624776   -2550.4161 
15808000    239.99819    -3819.686   -3408.3373    -3819.686            0    9169.4942    17.048474    20.080851    20.799099    7120.5272    8842.1626     9867.325    8798.9949   -233.08122   -586.29411    420.72024   -2456.1259 
15809000    261.78642   -3838.2902   -3389.5972   -3838.2902            0    9005.6077    17.055931    20.089634    20.808196    7129.8746    8482.5074    9702.2559    8832.0598    29.159359   -887.86547    528.87851   -2453.1769 
15810000    248.94972   -3873.2805   -3446.5892   -3873.2805            0    8443.1669    16.998976    20.022548    20.738711    7058.6861    10606.285    6293.0922     8430.124    1004.2846    328.19984    149.79962   -2577.4184 
15811000    266.12188   -3884.0275   -3427.9037   -3884.0275            0    8881.0148    16.971501    19.990186    20.705191    7024.5148    9852.4806    8396.7415    8393.8222    107.18564    -1086.765   -545.33183   -2518.0851 
15812000    259.10272   -3838.5784   -3394.4852   -3838.5784            0    6635.8703    17.056742    20.090589    20.809185    7130.8914    5941.7979    8375.1124    5590.7006    898.41749   -170.43122   -202.64671   -2704.3764 
15813000    263.54583   -3817.4076    -3365.699   -3817.4076            0     8019.051    16.995578    20.018546    20.734566    7054.4543    7100.5181    8819.6118    8137.0233     1110.778    446.29289   -279.18606   -2540.6832 
15814000    266.64881   -3845.7663   -3388.7393   -3845.7663            0    8821.2208    16.974987    19.994293    20.709445    7028.8449    8443.1913    9152.4438    8868.0272    428.43817    158.54322    97.740553   -2484.4893 
15815000    255.30772   -3884.0467    -3446.458   -3884.0467            0     7295.978    16.970315    19.988789    20.703744     7023.042     5936.343    7496.3624    8455.2285    375.99964   -1298.7297   -908.69714   -2699.1757 
15816000    267.91327   -3838.6058   -3379.4116   -3838.6058            0    8097.5751    16.999027    20.022608    20.738773    7058.7491    7448.8089    6304.9053    10539.011    190.98007   -847.51304    964.38215   -2545.8098 
15817000    254.96228   -3890.0795   -3453.0829   -3890.0795            0    8788.0213    16.964753    19.982238    20.696959    7016.1398    8719.1662    8181.7252    9463.1726   -29.187108   -1585.9734     316.0473   -2553.8644 
15818000    258.37075   -3829.5428   -3386.7042   -3829.5428            0    9719.8116    16.916423    19.925312    20.637997    6956.3469    9620.8084    8967.8327    10570.794   -878.37609    1090.0227   -35.632686   -2400.6178 
15819000    252.38053    -3878.306   -3445.7344    -3878.306            0    7409.1108    16.964212    19.981601    20.696299    7015.4679    9492.0725    6082.9357    6652.3242   -287.50175   -410.00159    1138.1939   -2687.6831 
15820000    251.07193   -3851.5466   -3421.2179   -3851.5466            0    7863.3856     17.04177    20.072954     20.79092    7112.1305    6277.4016    9209.5105    8103.2446    572.23591   -890.34008   -698.40283   -2605.6029 
15821000    251.84009   -3847.3319   -3415.6866   -3847.3319            0    9002.2813    17.020087    20.047414    20.764466    7085.0174    11091.652     9004.959    6910.2332   -1242.3649   -1089.2528    -604.5123   -2485.5015 
15822000    271.32152   -3827.6189   -3362.5831   -3827.6189            0     8412.192    17.036291      20.0665    20.784235    7105.2721    8985.3008    8850.4491    7400.8263   -1149.5865   -1282.7866   -1052.8272   -2490.8857 
15823000    243.71106   -3860.8536   -3443.1412   -3860.8536            0    8780.9841    16.939508    19.952503     20.66616    6984.8638    8622.1397    9247.9574    8472.8552     197.6124     609.6052    8.0397634   -2548.6481 
15824000    254.44165    -3854.206   -3418.1018    -3854.206            0    6663.7394     17.01198    20.037866    20.754576    7074.8985    6769.4088    6269.7976    6952.0119   -1145.2717    451.92969    645.71647   -2730.5362 
15825000    260.78378   -3881.7461   -3434.7717   -3881.7461            0    6829.5758    17.043014     20.07442    20.792438     7113.688     7919.766    5553.0174     7015.944   -1146.3011      1684.36    685.92846   -2726.2316 
15826000    246.13456   -3851.8451   -3429.9789   -3851.8451            0    7002.2311    17.045539    20.077393    20.795517    7116.8493    7210.5241    8159.6991    5636.4701    1774.5598   -295.89759    960.00064   -2703.2037 
15827000    269.43276   -3906.7545   -3444.9559   -3906.7545            0    8866.5526    16.990877    20.013009     20.72883    7048.6019    8699.8227    9300.6704    8599.1648   -547.72618     911.0162   -265.39672   -2533.5042 
15828000    280.57497   -3872.9545   -3392.0586   -3872.9545            0    6599.2228    17.078883    20.116668    20.836198    7158.6972     3906.399     8157.199    7734.0702   -1919.3059    290.97535    865.89396   -2703.0849 
15829000    268.50191   -3906.6356   -3446.4326   -3906.6356            0    7935.3876     17.03713    20.067488    20.785258    7106.3217    5819.1418    9705.0648     8281.956   -867.40022    988.94068   -712.71082   -2624.0216 
15830000    269.54724   -3843.4586   -3381.4638   -3843.4586            0    8952.1284    17.081352    20.119577     20.83921    7161.8023    8062.3658     8296.518    10497.502   -1645.9126    238.64967    1401.6898    -2446.436 
15831000     241.7628   -3816.2019   -3401.8288   -3816.2019            0    8901.0459    17.041216    20.072302    20.790244    7111.4369     9386.695    9169.6866     8146.756    27.518904    428.66207    555.96678   -2478.6745 
15832000    255.23944   -3868.0872   -3430.6156   -3868.0872            0    7794.9967     17.06831    20.104215    20.823298      7145.41    8075.8789    7801.2524     7507.859    -1497.671   -446.00002    13.177069   -2618.3108 
15833000    250.21415   -3855.7544    -3426.896   -3855.7544            0    6205.9703    17.047173    20.079318    20.797511     7118.897    7172.6589    5540.0877    5905.1643   -1250.9795   -2003.1454    490.87166   -2782.5809 
15834000    263.53483   -3805.5264   -3353.8367   -3805.5264            0    7496.4341    16.982228    20.002822    20.718279    7037.8435    7101.7535    8614.7346    6772.8143     -1512.89    -851.1068    614.22984   -2584.4047 
15835000    267.54104    -3894.891   -3436.3348    -3894.891            0    8398.1195     16.95727    19.973424     20.68783    7006.8596    7584.3422    10445.997    7164.0194    -62.46696   -461.22285   -798.46109    -2578.149 
15836000    255.31855     -3866.01   -3428.4027     -3866.01            0    8189.6621    16.993635    20.016257    20.732194    7052.0342    7258.3342     9217.593    8093.0591   -210.98216    309.58131   -1026.8748   -2586.1231 
15837000    255.38421   -3871.4877   -3433.7679   -3871.4877            0     8182.689    16.990789    20.012905    20.728722    7048.4918    8228.5705    6269.7238    10049.773    1127.7204   -536.44412   -127.34638   -2592.6282 
15838000    272.03334   -3877.3679   -3411.1121   -3877.3679            0    6753.4356    17.051661    20.084604    20.802986    7124.5203    5848.8885    6995.9758    7415.4426   -809.45356    -953.8184    -332.6693   -2709.4043 
15839000     252.4068   -3879.6213   -3447.0047   -3879.6213            0    8436.6997    16.956558    19.972586    20.686962    7005.9771    7731.1671      9154.84    8424.0922    1012.7937    286.68056    247.39118    -2584.985 
15840000     270.3411   -3876.8029   -3413.4475   -3876.8029            0     10813.18     16.86122     19.86029    20.570649     6888.467    10654.025    12330.981    9454.5352    1263.5353    227.99957    208.73096   -2327.1421 
15841000    250.11096   -3889.5866    -3460.905   -3889.5866            0    8880.9516    16.916964    19.925949    20.638656    6957.0133     9354.745     7778.479    9509.6309   -855.74179   -1601.1059    1098.9379   -2559.8356 
15842000    267.56958   -3886.2643   -3427.6592   -3886.2643            0    6846.8905    16.982791    20.003485    20.718965    7038.5433    6413.5501    5786.3422    8340.7793    2063.8513   -772.43665   -1195.8069   -2724.8264 
15843000    243.76874   -3882.0179   -3464.2066   -3882.0179            0    9549.5681    16.902914    19.909401    20.621516    6939.6948     9459.629    9441.9267    9747.1487    427.05169   -1274.8314   -687.10939   -2497.7107 
15844000      266.155   -3913.9266    -3457.746   -3913.9266            0    7484.2487    16.998604     20.02211    20.738257    7058.2222    7444.5364    7320.8811    7687.3285    431.68302   -348.55457   -54.506352   -2687.3405 
15845000    241.00226   -3873.1966    -3460.127   -3873.1966            0    7452.2273    17.011418    20.037204    20.753891    7074.1972    7479.6834    8942.1687    5934.8296   -377.18261   -530.85508    2408.8764   -2691.2814 
15846000    269.82896   -3881.5838   -3419.1062   -3881.5838            0    7288.7092     17.06591    20.101387     20.82037    7142.3958    5188.0962    8933.4828    7744.5485    873.20871   -609.55904   -922.56596   -2659.8814 
15847000    271.29653   -3876.9276   -3411.9346   -3876.9276            0    6904.1519    16.997993    20.021391    20.737512    7057.4619    6249.8363    5248.9255    9213.6938   -69.572492    600.66759    68.934117   -2701.3189 
15848000    258.72991   -3888.4168   -3444.9626   -3888.4168            0    9743.0707    16.981009    20.001385    20.716791    7036.3273    10339.094    9176.6691    9713.4488   -1472.0266     1060.592   -337.91042   -2445.1519 
15849000    275.51987   -3892.2945   -3420.0629   -3892.2945            0    7611.1505    17.060706    20.095259    20.814022     7135.865     7598.932    7837.9696      7396.55    71.893191    964.06036    133.47663    -2627.976 
15850000    257.33745    -3876.805   -3435.7374    -3876.805            0    8718.8583    16.997035    20.020262    20.736343    7056.2682    8700.2948    10314.096    7142.1847   -1510.4529    776.03075    925.93736   -2538.4934 
15851000    263.18787   -3926.8066   -3475.7116   -3926.8066            0    7007.1923    17.030789     20.06002    20.777523    7098.3904    6880.2906    8084.5889    6056.6975    814.94249    620.06563    893.29822   -2750.3078 
15852000    261.80318   -3861.0716   -3412.3499   -3861.0716            0    8899.3516    17.027723    20.056409    20.773783    7094.5582    9490.8232    8561.7252    8645.5065    990.25707    11.349411     820.9378    -2491.562 
15853000    256.58929   -3860.6551   -3420.8699   -3860.6551            0    7279.8926    17.055348    20.088947    20.807485    7129.1432    7451.0857    4654.2395    9734.3526    370.35856   -511.54353   -762.61344   -2663.9704 
15854000    262.92284   -3899.2077   -3448.5669   -3899.2077            0    7809.3844    17.058764     20.09297    20.811652    7133.4273    8927.3169    7694.2851    6806.5512    77.150644   -169.90854    515.46197   -2636.1276 
15855000     270.4583   -3872.1105   -3408.5542   -3872.1105            0    4692.0934    17.106376    20.149051    20.869739    7193.3239    3697.3492    6188.8705    4190.0606   -1154.4527   -386.67188   -519.93231   -2916.3196 
15856000    250.74701   -3877.8249   -3448.0531   -3877.8249            0    8177.5801    17.040159    20.071057    20.788954    7110.1136    8502.8601    8482.0746    7547.8055    1.7071027   -174.61515    1367.4961   -2600.0894 
15857000    257.41874   -3881.0392   -3439.8323   -3881.0392            0    8002.9693    17.017672    20.044569     20.76152    7082.0014    7028.3064    7899.6832    9080.9184   -166.52809    707.37093    468.19547   -2613.2558 
15858000    267.36853   -3867.7371   -3409.4766   -3867.7371            0    6367.0624    17.034949     20.06492    20.782598    7103.5936    7013.0843    6063.2615    6024.8413   -2125.3086    44.314172    -535.5954   -2749.8577 
15859000    260.19849   -3868.6245   -3422.6532   -3868.6245            0    8131.4686    16.967167    19.985082    20.699905    7019.1354    10400.479    5761.7294    8232.1971    82.774914   -1046.4975    1447.0016   -2590.2601 
15860000    255.86267   -3868.2053   -3429.6655   -3868.2053            0     8175.528     16.98971    20.011634    20.727407    7047.1495    9111.3441    6585.0684    8830.1714   -119.38781   -1316.4099   -799.10973   -2589.4219 
15861000    262.14215   -3846.4298   -3397.1272   -3846.4298            0    6762.9695    17.032435    20.061958    20.779531    7100.4487    6783.2719    6375.3625    7130.2742   -778.99679    396.27939    -354.1854    -2696.803 
15862000    263.24407   -3843.2249   -3392.0336   -3843.2249            0    7154.8057    17.003709    20.028123    20.744485    7064.5838    7335.7087    6684.8341    7443.8744    1471.3186    -1382.134   -296.60545   -2654.8761 
15863000    255.07697     -3890.81   -3453.6168     -3890.81            0    6455.6326    17.028125    20.056882    20.774272    7095.0596    7286.4283     5497.424    6583.0454   -137.83893   -9.7320254   -1686.7833   -2785.6256 
15864000    270.79382   -3869.6388   -3405.5074   -3869.6388            0    7301.0661    17.082457    20.120878    20.840558    7163.1922     8765.666    5775.1444    7362.3881    1198.8729    412.24435   -660.50538    -2642.781 
15865000    263.96105    -3839.189   -3386.7688    -3839.189            0    6728.7375    17.001345    20.025339    20.741602    7061.6382    8017.1239    6306.2378    5862.8507    2013.1506     313.6988    1103.5731    -2693.798 
15866000    251.06837   -3847.6626     -3417.34   -3847.6626            0    8681.3076    16.981663    20.002156    20.717589    7037.1405     10164.61    7900.0281    7979.2847     1459.704   -1604.6267    -51.02829    -2526.382 
15867000    253.33149   -3878.0387   -3443.8372   -3878.0387            0    6736.8546    17.118346    20.163151    20.884342    7208.4353     7890.873    5873.8573    6445.8335   -607.44755    734.02951    770.20036   -2735.6076 
15868000    253.84483   -3837.0781   -3401.9967   -3837.0781            0    8680.4792    16.983173    20.003935    20.719432    7039.0185    7581.3293    10518.897    7941.2113    182.04427    1736.1312   -89.234722   -2510.8859 
15869000    262.21795    -3848.011   -3398.5785    -3848.011            0    9236.0076    17.052254    20.085303     20.80371    7125.2641    11278.712    7837.0847     8592.226    162.42828    493.23472   -716.76202   -2438.8218 
15870000    261.81941   -3884.7179   -3435.9684   -3884.7179            0    8602.4522    17.029813     20.05887    20.776332    7097.1698    7354.0094    9321.2729    9132.0742   -198.35524    2034.7462   -1517.6522   -2545.5721 
15871000    248.19776   -3846.3263   -3420.9238   -3846.3263            0    7919.8498    17.008145    20.033348    20.749897    7070.1141    8242.0762    8671.1876    6846.2857    1048.1106    275.83032   -459.78751   -2604.3052 
15872000    282.89275   -3856.7778   -3371.9093   -3856.7778            0    6044.4746    17.086615    20.125776     20.84563    7168.4242    4451.8233    6810.3737    6871.2267    424.94629   -952.24518    116.78517   -2739.9951 
15873000    253.99208   -3865.9993   -3430.6656   -3865.9993            0    7720.9064    16.991281    20.013485    20.729324    7049.1052     9499.494    6299.9586    7363.2667     236.9666    -510.7821   -3009.6609   -2636.9258 
15874000    268.59873   -3838.0896   -3377.7206   -3838.0896            0    8832.6168    16.968621    19.986795    20.701679    7020.9402    10387.411    9550.7133    6559.7264    390.04925   -537.19352   -441.07701   -2473.3206 
15875000    276.30165   -3835.9042   -3362.3327   -3835.9042            0    9151.0268    17.001502    20.025524    20.741793    7061.8336    8479.0966    9253.7984    9720.1854    146.51179   -136.12279   -2087.3376   -2419.8721 
15876000     258.6117   -3848.6897   -3405.4381   -3848.6897            0    9603.2617    16.972365    19.991204    20.706245    7025.5876    8090.0563    10053.785    10665.943    49.379533   -44.284878    207.18987   -2421.4784 
15877000    267.30505   -3864.8699   -3406.7182   -3864.8699            0    9237.8916    16.935587    19.947884    20.661376    6980.0143    8257.4131    11066.899    8389.3629    1165.1945   -213.05465   -1049.4165   -2466.3345 
15878000    266.73015   -3852.9892   -3395.8228   -3852.9892            0    8451.9973    16.945635     19.95972    20.673635     6992.446    9108.9679    8173.5322    8073.4919   -1366.8425   -291.15398    1182.3928    -2533.908 
15879000    253.11194   -3813.8137   -3379.9885   -3813.8137            0    8365.1919    17.003863    20.028305    20.744673     7064.776    8972.7479    7620.0715    8502.7563   -281.56341   -434.22404   -396.50569   -2518.1017 
15880000    265.62141   -3894.0802   -3438.8142   -3894.0802            0    9272.7713    16.991147    20.013327     20.72916    7048.9384    11295.761    5679.8258    10842.727    920.43485    339.12216   -798.66271   -2485.5591 
15881000    255.94035    -3894.209    -3455.536    -3894.209            0    7905.9085    17.015799    20.042364    20.759235    7079.6641    7744.2823     8148.221    7825.2222   -707.58581     602.1106    343.70254   -2639.2538 
15882000    264.75442   -3839.7219   -3385.9419   -3839.7219            0    9522.6532    16.958313    19.974653    20.689102    7008.1524    11418.642    8088.9369    9060.3806    -1013.733   -535.33253   -483.17773   -2412.6628 
15883000    262.65367   -3884.4722   -3434.2928   -3884.4722            0    9140.1362    16.945017    19.958992    20.672881    6991.6813    8378.9985    8730.2467    10311.163    430.70382   -781.61441   -702.58766   -2502.3051 
15884000    257.73767   -3900.0068   -3458.2533   -3900.0068            0    7046.1411    17.026862    20.055395    20.772732    7093.4817    9306.1523    6798.0544    5034.2166    970.27526    811.48283    260.51203   -2729.3218 
15885000    249.12046   -3909.3328   -3482.3489   -3909.3328            0    5680.8493    17.027445    20.056081    20.773443    7094.2099    7721.6781    3618.1073    5702.7624    947.52281    146.33172   -351.04949   -2894.5981 
15886000    251.62952   -3840.7284    -3409.444   -3840.7284            0    7959.3218    16.967591    19.985581    20.700422    7019.6615    8255.7666    7412.1489      8210.05    1194.0015     442.7614     99.69521   -2594.6119 
15887000     252.6467   -3896.0114   -3462.9836   -3896.0114            0    7098.6546    17.041511    20.072649    20.790604    7111.8062    6290.9775    7774.4401    7230.5461   -476.99752    103.14062    534.56555   -2726.7225 
15888000    254.12968   -3883.1255   -3447.5559   -3883.1255            0    6566.9948        17.11     20.15332     20.87416    7197.8968    6024.9028    6771.0958    6904.9856    1424.1163   -597.25585   -361.45935   -2758.1926 
15889000    239.45111   -3902.4894   -3492.0784   -3902.4894            0    8598.9346    17.022162    20.049859    20.766998    7087.6092    7872.7082    7517.9533    10406.142   -918.76421   -166.08433   -760.94288   -2603.2452 
15890000    256.24025    -3886.064    -3446.877    -3886.064            0    5921.8035    17.113755    20.157743    20.878742    7202.6374    5979.5712    7065.9134    4719.9258   -1073.6853   -429.69388    226.21093   -2824.8325 
15891000    250.48796   -3901.2712   -3471.9434   -3901.2712            0    6869.4887    17.086066    20.125129    20.844961    7167.7332    6970.7028    7486.1182    6151.6452    703.89922    890.12174    659.36797   -2753.8481 
15892000    239.19921   -3859.7484   -3449.7691   -3859.7484            0    6240.5748    17.083457    20.122055    20.841777    7164.4496    7060.3543    5465.9279    6195.4421     1126.464    813.69775    325.37994   -2797.7155 
15893000    257.53066   -3887.4608   -3446.0621   -3887.4608            0    7459.6174     17.03969    20.070504    20.788382    7109.5265    6957.2365    9317.9619    6103.6537   -1125.8549    645.05404   -499.00108   -2672.6105 
15894000    256.59618   -3838.7149   -3398.9178   -3838.7149            0    9757.0377     16.89797    19.903576    20.615483     6933.606    9873.0109    10450.604    8947.4978     436.6406    272.16946    505.65657   -2412.2907 
15895000    285.36989    -3866.039   -3376.9247    -3866.039            0    6941.1554    17.047006    20.079122    20.797308    7118.6881    5435.1157    9897.5673    5490.7831    1536.3559   -119.62732   -1132.2288   -2656.3026 
15896000    272.62947   -3889.0207   -3421.7431   -3889.0207            0    6874.7645    17.066798    20.102434    20.821454    7143.5118    5319.5588    6095.1034    9209.6311    597.18842    780.18327   -1023.4295   -2705.5247 
15897000    247.28766   -3865.1465   -3441.3039   -3865.1465            0    5245.5924    17.117611    20.162285    20.883446    7207.5067    5294.5751    5434.5374    5007.6647    352.89651    47.128184   -633.29429   -2889.9183 
15898000    245.44465   -3893.8193   -3473.1356   -3893.8193            0    8543.6276    17.079563    20.117469    20.837027    7159.5523    9846.8228    7310.0356    8474.0244    864.24519    -252.7521    170.00333   -2581.0551 
15899000    281.14246   -3857.5112   -3375.6427   -3857.5112            0    9826.7442    16.997125    20.020368    20.736453    7056.3804    11005.759     9062.894    9411.5799    1256.8611    -2394.906    356.65107   -2364.3717 
15900000    260.40529   -3898.2648   -3451.9391   -3898.2648            0    7103.2257     17.05091    20.083719     20.80207    7123.5791    7116.2182    7047.2043    7146.2545   -612.35595    1171.1872   -326.50788   -2713.9843 
15901000    256.77911   -3828.5608   -3388.4502   -3828.5608            0      6341.99    17.113802    20.157798    20.878798    7202.6957     5613.592    7636.5222    5775.8559   -208.52272   -463.99674   -878.06569   -2722.2627 
15902000    236.88733   -3857.9277   -3451.9109   -3857.9277            0    7338.5208    17.045332     20.07715    20.795265    7116.5906      7084.25    6747.3599    8183.9525   -199.03441   -1642.4222    1649.7018   -2690.2592 
15903000      254.069   -3855.2361   -3419.7705   -3855.2361            0    7640.6015    17.039786    20.070617    20.788499    7109.6467    7749.8959    8567.8472    6604.0615    276.50845    -621.3363     1499.399   -2627.5402 
15904000    247.98958   -3881.1215   -3456.0758   -3881.1215            0    7770.8466    17.091366    20.131371    20.851427    7174.4053    8812.5509    8405.9117    6094.0772    455.24559    770.11294    363.33168   -2643.0017 
15905000    260.52504   -3878.7793   -3432.2482   -3878.7793            0    10578.418    16.919543    19.928987    20.641803    6960.1961    10060.519    10268.199    11406.536    -176.7445   -375.19262   -227.50569   -2358.4614 
15906000     232.3695   -3877.5549   -3479.2816   -3877.5549            0    9276.2466    16.984131    20.005063      20.7206    7040.2095    10034.239    8892.8302    8901.6704    455.50746   -457.23221   -425.04019     -2526.85 
15907000    261.06339   -3884.8037     -3437.35   -3884.8037            0    8017.2547    16.978342    19.998244    20.713537    7033.0125    7486.2295     7745.016    8820.5187   -1026.9436    1426.8413    2622.6363    -2615.026 
15908000    257.96318   -3893.0518   -3450.9117   -3893.0518            0    7269.2457    17.045126    20.076907    20.795014    7116.3325     5493.839    8677.2108    7636.6873   -1543.1306   -96.383083   -195.13194   -2696.4774 
15909000    263.65688   -3888.5056   -3436.6067   -3888.5056            0    7779.7696    17.080165    20.118178    20.837761    7160.3089    7011.5606    7617.4865    8710.2618   -340.69811    1588.8821     1209.399   -2624.1984 
15910000    268.07675   -3843.0167   -3383.5424   -3843.0167            0     8224.206    17.025438    20.053717    20.770994    7091.7015    7227.3809    9635.4421    7809.7949   -124.98348    322.07554    1832.1196   -2532.9523 
15911000    261.26462   -3886.6567   -3438.8581   -3886.6567            0     8843.541    16.998241    20.021683    20.737815    7057.7712    8270.8299    9322.6885    8937.1046   -1385.8093    2087.1311   -160.19121   -2528.5893 
15912000     256.9798   -3899.0196    -3458.565   -3899.0196            0    6534.3871    17.096249    20.137123    20.857383    7180.5559    7125.5162      6695.72    5781.9251   -1087.7296  -0.20070543   -148.77741   -2774.2772 
15913000    253.46575   -3862.0251   -3427.5935   -3862.0251            0    9534.7478    17.004097    20.028581    20.744959    7065.0679    8967.7737    10154.367     9482.103    767.50824   -958.16977    724.89992   -2445.1639 
15914000    255.38597   -3866.5322   -3428.8093   -3866.5322            0    7514.6369    17.002689    20.026922    20.743241    7063.3129    7019.4971    7373.6539    8150.7598    155.24948    1681.6512   -193.62889   -2654.7178 
15915000    251.62512   -3864.9874   -3433.7105   -3864.9874            0    9263.5786     17.00739    20.032459    20.748976    7069.1733    8431.1507     11024.41    8335.1755    1063.3989    1131.7041   -1553.6423   -2478.6667 
15916000    254.63411   -3841.3173   -3404.8832   -3841.3173            0    8330.4043    16.977418    19.997156     20.71241    7031.8646      9720.31    5593.4709    9677.4318    -1627.218    1953.8016    1791.8904   -2550.5791 
15917000    255.61004   -3889.8418   -3451.7349   -3889.8418            0    5686.0418    16.987319    20.008817    20.724489    7044.1741    4213.7172    7303.9824    5540.4259   -553.74297    703.88606     137.3939   -2867.5961 
15918000    261.91232   -3816.9268    -3368.018   -3816.9268            0    10212.747    16.886272    19.889798    20.601212    6919.2167    8985.0024    9811.0498    11842.189   -634.26764    747.30552   -1718.1566    -2337.453 
15919000    270.31891   -3837.9521   -3374.6348   -3837.9521            0    6776.0229    17.041799    20.072988    20.790955    7112.1667    6934.7777    7197.1013    6196.1896   -347.60332    593.55927   -802.01135   -2671.8009 
15920000    268.90369   -3854.6371   -3393.7454   -3854.6371            0    7045.8424     17.01053    20.036157    20.752807    7073.0887    7341.1595    8016.8438    5779.5238   -728.30722   -194.39888    744.89453   -2666.9404 
15921000    263.80921   -3877.7279   -3425.5679   -3877.7279            0    8625.5166    16.982399    20.003022    20.718487    7038.0553    6961.6301     8285.294    10629.626    576.11776    439.20437   -995.04655   -2540.2206 
15922000    267.40564   -3864.2349   -3405.9108   -3864.2349            0    8430.7967    17.047846    20.080111    20.798333    7119.7403     8947.773    5927.8346    10416.782     762.2578    1018.9559    276.39958   -2530.5065 
15923000    264.30999   -3881.4737   -3428.4554   -3881.4737            0    7766.8893    17.049884    20.082511    20.800819    7122.2936    6933.4359     7708.131    8659.1011    121.05692   -168.85841    543.51743   -2621.6981 
15924000    263.34083   -3882.3591    -3431.002   -3882.3591            0    8800.0015    16.955086    19.970851    20.685165    7004.1517    7793.8737    9995.7326    8610.3981   -8.9555299   -1215.6198   -91.220538   -2532.0962 
15925000     273.0814    -3848.456   -3380.4038    -3848.456            0    9503.1419    16.997787    20.021148    20.737261    7057.2054    9816.9613    8851.1474     9841.317    563.43626    295.90782   -733.81659   -2402.3205 
15926000    264.46495   -3872.1864   -3418.9025   -3872.1864            0    8916.6001    16.980256    20.000499    20.715873    7035.3917       8306.9    8595.8761    9847.0241    1435.9782   -489.99548   -639.97052   -2504.0239 
15927000    266.70462   -3857.5549   -3400.4323   -3857.5549            0    8297.0481    17.047572    20.079788    20.797998    7119.3964     5926.943    8447.3918    10516.809   -64.000436    1621.3988    -2104.479   -2538.9573 
15928000    264.06028   -3859.8499   -3407.2596   -3859.8499            0    9120.0951    16.977557     19.99732     20.71258    7032.0375    7974.3407    9198.7401    10187.205    -42.84102   -860.47348    927.89379   -2471.9477 
15929000     262.3626   -3892.5068   -3442.8263   -3892.5068            0    6655.2399    17.088868    20.128429    20.848379      7171.26    5375.2316    5710.8527    8879.6353   -220.66206   -733.28431    238.58314   -2746.7849 
15930000    270.78992   -3899.6223   -3435.4976   -3899.6223            0    7258.2354    17.002831    20.027089    20.743414    7063.4896    6716.8433    6264.0581    8793.8048   -123.73725    546.27661    379.40785   -2687.7996 
15931000    255.13139   -3856.2392   -3418.9527   -3856.2392            0    8489.4077    17.018797    20.045895    20.762893    7083.4068    6330.4462    10633.147    8504.6302   -616.07414   -1467.5401     -383.624    -2541.961 
15932000    276.01311    -3854.137   -3381.0599    -3854.137            0    7080.2717    17.021268    20.048806    20.765908    7086.4927    5218.7162    9349.7508     6672.348   -21.118828    254.12129     -284.703   -2649.3193 
15933000    257.57644   -3857.1506   -3415.6734   -3857.1506            0    7597.6431    16.958758    19.975177    20.689645    7008.7036    7709.5954    8158.5195    6924.8144    2394.5412     348.2731   -408.61731   -2639.0821 
15934000    262.89111   -3890.4947   -3439.9083   -3890.4947            0     7444.499    16.987597    20.009146    20.724829    7044.5208    8806.0759    7342.0004    6185.4206    635.07204   -1812.1324   -1472.5411    -2675.082 
15935000    257.23936   -3855.4452   -3414.5458   -3855.4452            0    7665.8829    16.984874    20.005938    20.721507    7041.1338    8089.7851    7777.0365    7130.8272   -847.95525   -1447.8482   -471.05939   -2627.3538 
15936000    260.82281   -3835.8903   -3388.8489   -3835.8903            0    8026.1413    16.978385    19.998294     20.71359     7033.066     7023.174    9178.8316    7876.4183   -77.217981    1804.5089   -232.90347   -2565.6071 
15937000    246.31455   -3860.9984   -3438.8237   -3860.9984            0    8453.1248    16.977962    19.997796    20.713074    7032.5403    8258.2372    9291.5624    7809.5749    1574.5163    1916.8966    1954.9976    -2571.851 
15938000    267.29872   -3848.8823   -3390.7414   -3848.8823            0    9770.1755    16.945396    19.959438    20.673343      6992.15    8116.3789    11884.523    9309.6244   -469.06439    -705.1948    -1871.138   -2394.4441 
15939000    259.09057   -3908.7313   -3464.6589   -3908.7313            0    7559.0842    16.955239    19.971032    20.685352    7004.3421    9269.2442    6878.3575    6529.6508    1951.2459    973.66238    64.914321   -2692.4898 
15940000    269.71865   -3821.8048   -3359.5162   -3821.8048            0     9878.113    16.957098    19.973222     20.68762    7006.6463    9753.8575    7421.7935    12458.688    1138.3501    -731.9182   -552.60806   -2350.1237 
15941000    264.99505   -3858.7215   -3404.5291   -3858.7215            0    8535.1855    17.021419    20.048983    20.766091    7086.6804     7513.568    9045.1623    9046.8261   -321.38481     1262.794   -59.530065   -2522.4009 
15942000    254.43637   -3855.7611   -3419.6658   -3855.7611            0    7348.9325    17.058724    20.092923    20.811603    7133.3774    8260.8214    6367.4586    7418.5175    1145.8268   -64.441269    388.57245   -2655.1344 
15943000    259.53621   -3842.4372    -3397.601   -3842.4372            0    8554.8447    17.004467    20.029016     20.74541    7065.5289    8846.1969     8496.435    8321.9021    492.33462   -518.18836    60.262149   -2516.0799 
15944000    279.18391    -3852.195   -3373.6833    -3852.195            0    9906.0779     16.94108    19.954354    20.668078    6986.8089     8974.722    10443.432     10300.08    127.35729    737.66344    334.49326   -2364.2991 
15945000    255.20631   -3866.8283   -3429.4134   -3866.8283            0    8309.3881    17.014526    20.040864    20.757682    7078.0751    9893.4897    7798.4201    7236.2545   -406.47617    881.42946    523.99894   -2571.6646 
15946000    258.30338    -3862.662   -3419.9388    -3862.662            0    8427.1198    17.123771     20.16954    20.890961    7215.2906    8874.3044     8858.441     7548.614    720.43876    53.689684    863.71038   -2533.1731 
15947000    254.88718   -3833.1981   -3396.3302   -3833.1981            0    7862.9517    17.007032    20.032038     20.74854    7068.7269    5970.9661    6840.9294     10776.96   -209.01606     449.2311   -1210.4024   -2585.7375 
15948000    260.21705   -3842.1473   -3396.1442   -3842.1473            0    8234.9546    17.052347    20.085412    20.803824    7125.3809    8976.4033    7937.1263     7791.334   -1405.8367    246.98174    710.92462   -2540.3976 
15949000    272.95658   -3866.5302   -3398.6919   -3866.5302            0    7155.7617    17.053269    20.086498    20.804948    7126.5361    8945.5386    7250.2238    5271.5228    1825.8024    422.70878    1792.0678   -2654.9706 
15950000    247.77647   -3852.4488   -3427.7685   -3852.4488            0    7015.8705    17.157614    20.209403    20.932249    7258.1556    7235.5731    6628.0938    7183.9446   -944.61363    -1030.401    288.53942   -2685.1192 
15951000    260.45041   -3846.7835   -3400.3804   -3846.7835            0    8571.3051    17.031199    20.060502    20.778022    7098.9027    10229.513    8092.5935     7391.809    1872.2329   -381.87134    1513.6988   -2512.9913 
15952000     252.1517   -3833.5602   -3401.3808   -3833.5602            0    7623.1068    17.083736    20.122385    20.842118    7164.8017    9399.5024    6895.2953    6574.5228    273.09706   -421.84085    265.66962   -2604.8326 
15953000    266.19757   -3918.5201   -3462.2666   -3918.5201            0    7578.0157    17.035269    20.065297    20.782988     7103.994    7104.1937    8599.1713    7030.6821   -468.76595   -314.21967    143.06039   -2677.1503 
15954000    248.69069   -3865.3056   -3439.0582   -3865.3056            0     8168.218    17.028508    20.057333     20.77474    7095.5389    9413.9042    7769.3427     7321.407    904.97874   -901.19405    -482.9535   -2593.8016 
15955000    247.67367   -3887.8678   -3463.3637   -3887.8678            0    7489.0305    17.042292    20.073569    20.791557    7112.7841    8608.7648    6766.9059    7091.4209   -516.42635    678.78278   -365.41857   -2686.5066 
15956000    258.33738   -3901.0581   -3458.2766   -3901.0581            0     8760.069    17.032892    20.062497    20.780089    7101.0207    8629.7025    8533.2942    9117.2103     1869.265   -408.34815   -591.30917   -2551.0742 
15957000    263.28765   -3880.9501   -3429.6841   -3880.9501            0    8190.3242    17.023743    20.051721    20.768927    7089.5839    6985.3911    8871.3385     8714.243    83.827646    40.240167    346.00164   -2582.8512 
15958000    252.15854   -3821.2936   -3389.1025   -3821.2936            0    7386.6719    17.037862    20.068351    20.786152    7107.2384    7657.8203    8140.5618    6361.6336   -489.48224    526.96669   -438.48614   -2623.4608 
15959000    263.89187   -3880.5369   -3428.2352   -3880.5369            0    8368.5414    16.985628    20.006826    20.722426    7042.0708    8981.5749    9062.5501    7061.4992    222.55368   -298.73424   -972.79904   -2568.7745 
15960000    276.40448   -3863.0918   -3389.3439   -3863.0918            0    8497.1047    17.002529    20.026734    20.743046    7063.1136    8169.5154    7010.3124    10311.486    1398.2207   -782.34526    -822.5578   -2514.0719 
15961000    264.19227   -3901.2047   -3448.3882   -3901.2047            0    7003.8722    17.030539    20.059725    20.777217    7098.0776    5586.5811    8595.1363    6829.8993    425.60426   -897.33992    542.81456   -2723.3601 
15962000    264.30175   -3861.1588   -3408.1547   -3861.1588            0    9883.2457    17.008198     20.03341    20.749961    7070.1799    10278.852    8681.5473    10689.337    720.52913    1089.5128    556.49782   -2389.0801 
15963000    262.86699   -3844.3715   -3393.8265   -3844.3715            0    7100.8268      17.1095    20.152731     20.87355    7197.2663     7707.311    7296.4828    6298.6866   -792.97212    1235.9352    1453.5832     -2648.49 
15964000     248.6373   -3836.7894   -3410.6336   -3836.7894            0    6952.1392    17.066412    20.101979    20.820983    7143.0263    7208.1736    5619.8779     8028.366   -212.18963   -1823.4424   -858.63461   -2686.4034 
15965000     247.9599    -3894.691   -3469.6962    -3894.691            0    7764.6889    16.978864     19.99886    20.714175    7033.6622    9552.8967    7536.5709    6204.5992   -766.98928    2458.4907    1181.9971   -2673.2041 
15966000    263.30634   -3873.0544   -3421.7563   -3873.0544            0    6463.0882    17.048843    20.081285    20.799549    7120.9891    5962.6345    7104.9313    6321.6987    351.54567    755.69592    -468.1736   -2750.5496 
15967000    245.75671   -3847.3897   -3426.1711   -3847.3897            0    8285.3355    16.959413    19.975948    20.690444    7009.5159    8094.5772    8122.4003    8639.0289   -1209.9415     991.5279    182.58893   -2579.1895 
15968000    264.58848   -3856.3011   -3402.8055   -3856.3011            0    5763.7891    17.064255    20.099438    20.818351    7140.3184     5611.377    5154.8837    6525.1066   -722.28458   -934.97516   -1187.1816   -2802.5978 
15969000    270.53073   -3853.9352   -3390.2548   -3853.9352            0    7368.6442    17.028248    20.057027    20.774423    7095.2141    9294.7806    7675.5493    5135.6025   -1043.4985     842.2773    175.75268   -2627.7739 
15970000    252.09708   -3882.7928    -3450.707   -3882.7928            0    7248.2691    17.035594    20.065679    20.783384    7104.3999    5550.1724    6549.8724    9644.7623   -872.50194   -1713.0239    50.501187    -2699.711 
15971000    260.84508   -3865.4237   -3418.3442   -3865.4237            0     5774.527    17.048734    20.081157    20.799416    7120.8528    5467.1741    6202.2024    5654.2044    555.83381   -772.10447    753.10065   -2818.6576 
15972000     256.0535   -3897.1663   -3458.2994   -3897.1663            0    6757.2714    17.044415     20.07607    20.794147    7115.4423    6563.5467    6762.3888    6945.8787   -644.94272   -1063.6375   -859.45301   -2757.0877 
15973000    257.44855   -3904.6633   -3463.4053   -3904.6633            0    6127.6307    17.086649    20.125815    20.845671    7168.4663    7813.8993    5706.8201    4862.1727   -2251.6741   -397.16434    -889.4654   -2822.7938 
15974000    265.62564   -3899.7365   -3444.4632   -3899.7365            0    9011.7436    17.005943    20.030754     20.74721    7067.3683    9476.4822    7970.4708    9588.2779    1148.0203    417.30709    957.90417   -2515.6199 
15975000    258.46045   -3926.3003   -3483.3079   -3926.3003            0    7694.4433    17.079291    20.117149    20.836695    7159.2103     8324.298     7277.031    7482.0009   -456.64734   -1695.8503   -170.54519   -2679.9331 
15976000    261.50591    -3889.418   -3441.2058    -3889.418            0    8267.2414    17.046669    20.078725    20.796897    7118.2659     7870.889    9240.2124    7690.6229    148.05839    665.21965    1386.6622    -2582.962 
15977000    272.71359   -3843.4077    -3375.986   -3843.4077            0    7685.2212    17.030513    20.059695    20.777186    7098.0459    8696.4708    6896.6298     7462.563    493.22256   0.54651451   -1079.8226   -2580.4294 
15978000    274.55193   -3900.2139   -3429.6413   -3900.2139            0    7952.9997    17.057092    20.091001    20.809612    7131.3305     7490.372    7535.1341    8833.4931    1064.0561    542.63577   -530.04671   -2602.5044 
15979000    264.48479   -3894.9021   -3441.5842   -3894.9021            0    9682.3017    17.021767    20.049393    20.766516    7087.1152    9669.4587     8678.695    10698.751    1949.2424    1024.4872   -475.23127   -2440.8379 
15980000    261.56835   -3857.2081   -3408.8889   -3857.2081            0    6543.9458    17.100909    20.142612    20.863069    7186.4298    6006.0759    6348.2921    7277.4694   -124.79529    2.0665582    512.48589   -2723.0395 
15981000    275.77595   -3898.4415   -3425.7709   -3898.4415            0    8468.0113    17.063709    20.098795    20.817685    7139.6332     9461.579    7988.3596    7954.0952    140.08103    780.98799    155.40483   -2544.0458 
15982000    253.26049    -3863.513   -3429.4332    -3863.513            0    8580.1305    17.055922    20.089623    20.808185    7129.8629    6938.7681    9394.0989    9407.5245    2372.0963     1579.727   -193.63085   -2537.2564 
15983000    267.23504   -3879.9553   -3421.9236   -3879.9553            0    6133.6841    17.060216    20.094681    20.813423    7135.2493     6180.702    5957.3453    6263.0051    322.41464    989.69792   -1116.2287   -2783.6507 
15984000    276.42883   -3874.2247   -3400.4352   -3874.2247            0    6314.8763    17.093597       20.134    20.854149    7177.2154    6176.8284    6605.6039    6162.1966    1033.1463    1409.2902    283.32343   -2739.4424 
15985000    264.25937    -3890.405   -3437.4735    -3890.405            0    8298.1162    17.060182    20.094641    20.813383    7135.2074    7869.9281    8752.4216    8271.9988   -2236.1721    1427.9587   -430.07712   -2573.9742 
15986000     261.3923   -3871.9179   -3423.9004   -3871.9179            0     8103.012    17.009657    20.035129    20.751742    7072.0004    6828.6349    11374.928    6105.4727    87.453849   -189.89118    71.386089    -2588.173 
15987000    268.10002   -3887.9625   -3428.4482   -3887.9625            0    5621.1315    17.059901     20.09431     20.81304    7134.8547    5491.8545    6354.7654    5016.7745    574.98896    272.41424    1121.7217    -2843.544 
15988000    261.20771   -3875.2514   -3427.5504   -3875.2514            0    5881.3192     17.03119    20.060492    20.778012    7098.8921    5966.8972    5099.5201    6577.5402   -265.07947    1513.9502   -1044.9918   -2818.6571 
15989000    266.45314   -3902.6084   -3445.9168   -3902.6084            0    5886.8392    17.028582    20.057421    20.774831    7095.6316    5711.7238    6517.2054    5431.5883    528.86956    913.17377   -1116.6218   -2836.7319 
15990000    257.09552   -3846.3398   -3405.6869   -3846.3398            0    7927.8441    16.969979    19.988393    20.703334    7022.6249    7929.1272    9236.5126    6617.8926   -1437.6755   -16.581874     591.5419   -2593.7347 
15991000    249.47824   -3849.1041    -3421.507   -3849.1041            0     6604.246    16.958337    19.974681    20.689132    7008.1824    7168.9418    7057.2249    5586.5712   -308.20882   -1675.6799    -747.9843   -2746.5058 
15992000    261.87152   -3859.7966   -3410.9578   -3859.7966            0    7207.0329     17.01814    20.045121    20.762091    7082.5865    6693.6677    5981.2522    8946.1788   -770.61941    181.09571    185.93169   -2666.5271 
15993000     261.6088   -3835.4118   -3387.0232   -3835.4118            0    9340.2193    16.994312    20.017055    20.733021    7052.8779      10007.8    7876.0139    10136.843    37.176433    2344.0957    455.46779   -2426.2977 
15994000    267.10411   -3851.1953    -3393.388   -3851.1953            0    8578.3713    16.994852     20.01769    20.733679    7053.5495    8120.7025    8702.1728    8912.2388    107.41714    26.867576    977.68465   -2510.9414 
15995000    283.23014   -3871.6979   -3386.2511   -3871.6979            0    9862.5368    17.007487    20.032573    20.749095     7069.294    10177.325    9702.7644    9707.5213    -1306.922   -1266.4652   -1771.2376   -2369.4393 
15996000     262.1192   -3882.5487   -3433.2853   -3882.5487            0     8582.367    17.002614    20.026833    20.743149    7063.2185    8259.3276    9336.5859    8151.1874   -520.39592    298.98417   -652.00024   -2549.2175 
15997000    263.30187   -3877.5394    -3426.249   -3877.5394            0    7576.8882     16.93943    19.952411    20.666065    6984.7674    9176.2142    7738.3987    5816.0517    1612.3737   -416.47697    1535.6095   -2654.4242 
15998000    277.24273   -3876.5765   -3401.3919   -3876.5765            0    8270.4286    16.962457    19.979533    20.694157    7013.2906    8815.0624    9202.2527    6793.9706    1058.3814   -1372.9645   -1055.5822   -2555.4789 
15999000    251.05458   -3891.1192   -3460.8203   -3891.1192            0    5688.2168    17.083698    20.122339    20.842071    7164.7532    5419.2417    5761.7905    5883.6181    532.11924    882.17329   -530.98179   -2866.4552 
16000000    264.59388   -3843.3424   -3389.8375   -3843.3424            0    7923.4047    17.101316    20.143091    20.863565    7186.9424    8111.7968    8001.8195    7656.5979   -344.20417   -807.05704   -295.27455   -2559.3523 
Loop time of 438.655 on 64 procs for 250000 steps with 864 atoms

Performance: 98.483 ns/day, 0.244 hours/ns, 569.924 timesteps/s
99.1% CPU use with 64 MPI tasks x 1 OpenMP threads

MPI task timing breakdown:
Section |  min time  |  avg time  |  max time  |%varavg| %total
---------------------------------------------------------------
Pair    | 21.912     | 26.754     | 31.121     |  47.3 |  6.10
Bond    | 0.27494    | 0.2833     | 0.29363    |   0.9 |  0.06
Kspace  | 183.52     | 193.33     | 203.35     |  36.7 | 44.07
Neigh   | 5.222      | 6.1089     | 7.1681     |  21.8 |  1.39
Comm    | 93.473     | 102.2      | 110.55     |  45.1 | 23.30
Output  | 1.201      | 1.2024     | 1.208      |   0.1 |  0.27
Modify  | 102.52     | 104.26     | 106.22     |  10.1 | 23.77
Other   |            | 4.52       |            |       |  1.03

Nlocal:        13.5000 ave          17 max           9 min
Histogram: 1 4 6 7 0 11 16 8 9 2
Nghost:        2217.09 ave        2259 max        2180 min
Histogram: 2 2 6 19 10 11 5 3 5 1
Neighs:        4294.50 ave        6099 max        2703 min
Histogram: 4 5 5 11 11 9 11 4 3 1

Total # of neighbors = 274848
Ave neighs/atom = 318.11111
Ave special neighs/atom = 2.0000000
Neighbor list builds = 14034
Dangerous builds = 0

unfix		3
unfix		2
unfix		1

write_data	data.final.${pid}
write_data	data.final.0
System init for write_data ...
PPPM initialization ...
  extracting TIP4P info from pair style
  using 12-bit tables for long-range coulomb (../kspace.cpp:340)
  G vector (1/distance) = 0.37364917
  grid = 24 24 24
  stencil order = 5
  estimated absolute RMS force accuracy = 0.0032315874
  estimated relative force accuracy = 9.7318296e-06
  using double precision FFTW3
  3d grid and FFT values/proc = 2535 216
Last active /omp style is kspace_style pppm/tip4p/omp
WARNING: Not all mixed pair coeffs generated from mixing. Use write_data with 'pair ij' option to store all pair coeffs. (../write_data.cpp:312)

write_restart   restart.lmp.${pid}
write_restart   restart.lmp.0
System init for write_restart ...
PPPM initialization ...
  extracting TIP4P info from pair style
  using 12-bit tables for long-range coulomb (../kspace.cpp:340)
  G vector (1/distance) = 0.37364917
  grid = 24 24 24
  stencil order = 5
  estimated absolute RMS force accuracy = 0.0032315874
  estimated relative force accuracy = 9.7318296e-06
  using double precision FFTW3
  3d grid and FFT values/proc = 2535 216
Last active /omp style is kspace_style pppm/tip4p/omp
Total wall time: 0:07:20
