LAMMPS data file via write_data, version 30 Jul 2021, timestep = 17250000

864 atoms
2 atom types
576 bonds
1 bond types
288 angles
1 angle types

0.5085602608535069 17.69901213914378 xlo xhi
1.690548082005769 21.938629717993017 ylo yhi
0.6204423303778768 21.59275346963568 zlo zhi

Masses

1 1.00794
2 15.9994

Pair Coeffs # lj/cut/tip4p/long/omp

1 0 0
2 0.21084 3.1668

Bond Coeffs # harmonic/omp

1 450 0.9572

Angle Coeffs # harmonic/omp

1 55 104.52

Atoms # full

417 1 1 0.5897 4.122835078830709 3.606078696383306 2.402519349806697 -2 -2 -1
92 1 1 0.5897 2.653801502043995 5.052701050959689 3.7396497564910063 3 -7 1
761 1 1 0.5897 0.6594020498904722 5.782732835698349 2.0711232629373177 1 -4 1
345 1 1 0.5897 1.905347496437364 1.9506419598717377 4.6892747505385355 -3 2 2
91 1 2 -1.1794 3.5637059572385303 4.7637515362337375 3.6702911334625523 3 -7 1
101 1 1 0.5897 2.198863831214401 3.672941525038561 0.9960469865159685 5 -4 0
760 1 2 -1.1794 1.0658628445473828 6.472868104005636 1.5469830810929752 1 -4 1
93 1 1 0.5897 4.007822846210642 5.477284723588204 3.2121782815400683 3 -7 1
719 1 1 0.5897 4.608824482344481 1.8817504457542986 4.208280055652276 8 4 1
193 1 2 -1.1794 1.823414226614783 6.696340964729749 4.766866028280321 -1 -4 5
415 1 2 -1.1794 3.9985334320045838 3.314201385874112 1.4994243945204302 -2 -2 -1
573 1 1 0.5897 3.568947165062371 3.920645613465907 5.535849472058405 2 -1 -4
571 1 2 -1.1794 3.636949434791014 3.814372943506 6.484694029762929 2 -1 -4
199 1 2 -1.1794 1.0053970181106182 2.7298290128272313 9.700507172132724 4 -4 -3
200 1 1 0.5897 1.8128533649147793 3.2403027738591295 9.639186042555595 4 -4 -3
572 1 1 0.5897 2.8244497248234737 4.187255419464565 6.826781177740485 2 -1 -4
794 1 1 0.5897 0.9234309122302531 5.467236008219906 6.941179774997619 -3 1 6
795 1 1 0.5897 2.070668119668735 5.7827468745524895 7.877208785186203 -3 1 6
793 1 2 -1.1794 1.6026319167027465 5.052233381777228 7.472849250133178 -3 1 6
708 1 1 0.5897 4.785004149354287 4.644433004817902 9.132766421676289 -2 -4 -4
682 1 2 -1.1794 3.4336366353844667 3.788839591499841 10.309431789605508 4 -1 -7
683 1 1 0.5897 3.813375780530371 2.9894621345370176 10.67413560424539 4 -1 -7
707 1 1 0.5897 4.790958960391191 4.448665117783648 7.631590568299359 -2 -4 -4
201 1 1 0.5897 0.6146110535231226 2.7932456440874422 8.829022549365503 4 -4 -3
690 1 1 0.5897 3.943220908954639 1.8128803574659642 7.175013114919175 4 -1 3
684 1 1 0.5897 2.9685313543347656 4.190158509798492 11.04349162859879 4 -1 -7
131 1 1 0.5897 4.093294521573098 3.2099185452769494 15.184895074816058 -5 4 1
641 1 1 0.5897 1.409840777524853 3.4645639492353517 12.687881214447078 4 2 -4
171 1 1 0.5897 2.579303309430879 5.608571528978736 13.423819215458298 -3 4 -3
642 1 1 0.5897 2.778264913850078 3.4246670141582065 13.334192733025562 4 2 -4
169 1 2 -1.1794 2.5527179977893226 6.565213045552757 13.442691451800881 -3 4 -3
640 1 2 -1.1794 2.2231960988516697 3.9625803533477177 12.769579289453628 4 2 -4
130 1 2 -1.1794 4.15248601009876 2.33612465560301 14.798625794979321 -5 4 1
460 1 2 -1.1794 1.2183975918181265 5.3193399359321845 16.265288804457274 3 3 -2
430 1 2 -1.1794 4.12320858540133 4.758033135403875 15.944255614476159 -4 -1 -5
431 1 1 0.5897 3.1872866575020913 4.865657641739714 16.11361733196052 -4 -1 -5
464 1 1 0.5897 4.3382988235056095 6.410681365649453 15.626762066412232 3 2 -2
278 1 1 0.5897 2.2239887256589093 6.3792243029341975 19.614751778442017 0 2 2
119 1 1 0.5897 1.1903846104557938 3.901413857182106 18.52884231504455 -1 -4 -3
432 1 1 0.5897 4.517808509887783 4.687346404986621 16.813456599597167 -4 -1 -5
120 1 1 0.5897 2.114969711257533 2.7054104596401105 18.4476787566447 -1 -4 -3
118 1 2 -1.1794 2.115323478789402 3.6564920403702836 18.555674192290983 -1 -4 -3
638 1 1 0.5897 3.928670362865791 3.990374985696357 18.75147454001976 -7 1 2
102 1 1 0.5897 1.7481030282864733 3.878173911893211 20.53778318904521 5 -4 -1
286 1 2 -1.1794 4.099809888348455 6.486439021331763 19.9052432742107 3 1 1
461 1 1 0.5897 0.7682421837758282 4.9729042995282935 17.035716336051042 3 3 -2
279 1 1 0.5897 1.1665790225857386 6.470708408530684 20.694315414342046 0 2 2
100 1 2 -1.1794 1.42667504817597 3.6294246086625064 21.404402118158515 5 -4 -1
393 1 1 0.5897 0.5838563761851281 2.224597890406838 20.75395012779282 2 -3 -3
277 1 2 -1.1794 1.3015914821495018 6.593332091543264 19.7546436015869 0 2 2
462 1 1 0.5897 1.5337834237931136 6.180720101422093 16.538738918967532 3 3 -2
145 1 2 -1.1794 3.6460642625656168 8.76777620273933 2.965827009787543 -2 3 -6
355 1 2 -1.1794 1.3110097105781726 11.709771340134775 2.2602297984477584 3 0 -1
147 1 1 0.5897 3.8089479191869655 9.703419632452116 3.0853267750518336 -2 3 -6
448 1 2 -1.1794 1.079606831579682 9.007397942453778 4.068630456572714 5 2 -2
449 1 1 0.5897 1.2493013977097835 8.14634284284189 4.450787143131379 5 2 -2
270 1 1 0.5897 3.9695338771031174 8.749941033885305 1.185595226139293 -2 3 7
146 1 1 0.5897 2.7792165837912366 8.624666896423282 3.3457148910304984 -2 3 -6
357 1 1 0.5897 0.5177466227850438 11.289059775045152 2.591840759129277 3 0 -1
691 1 2 -1.1794 4.053686904340573 11.368060188731029 2.721033773379552 2 2 4
78 1 1 0.5897 4.667428260843459 7.2757480093685345 2.7370000238719463 -4 -6 -1
692 1 1 0.5897 3.1654170995864432 11.531731975190073 2.404149693639546 2 2 4
566 1 1 0.5897 0.5547203925339004 10.11376135377435 5.389282055953876 -1 7 -5
450 1 1 0.5897 0.5247993370002639 8.827952224508689 3.3095342082112573 5 2 -2
194 1 1 0.5897 2.6339177992781426 6.948193154393602 5.209451465005882 -1 -4 5
195 1 1 0.5897 1.1472163576836307 6.778551016206403 5.4393475319158 -1 -4 5
815 1 1 0.5897 3.4690636188998583 11.035682099818604 6.521048558328581 -4 5 -6
501 1 1 0.5897 1.3387506123020785 10.953822363121162 10.148714070565639 1 0 -2
205 1 2 -1.1794 1.4938816929282428 10.074515070301526 8.37400846225273 -2 1 0
500 1 1 0.5897 2.5791065929267853 11.42959627910383 10.874680792311583 1 0 -2
436 1 2 -1.1794 4.473518111270946 10.951326703302643 10.044018944217397 -4 7 2
97 1 2 -1.1794 2.4537285732953826 7.360192960462185 10.595218370752884 3 -4 7
732 1 1 0.5897 4.670859611432122 7.774217280373811 8.168074137940142 0 4 -3
731 1 1 0.5897 3.975408954826762 7.744987338538345 9.512456830617365 0 4 -3
206 1 1 0.5897 0.976806278563009 10.399689484905329 7.637044910741465 -2 1 0
207 1 1 0.5897 2.403109226982026 10.175232806149038 8.092223533118915 -2 1 0
777 1 1 0.5897 3.873398823889224 8.460101370735776 6.574464388227984 4 -3 3
324 1 1 0.5897 0.8051776760118652 8.273839431990371 7.399286856479722 5 -1 -4
775 1 2 -1.1794 4.01215347471114 7.527340543576663 6.410257615696485 4 -3 3
99 1 1 0.5897 1.592707380497237 7.776765719161433 10.55828072330019 3 -4 7
814 1 2 -1.1794 3.8419579205189645 10.232776103338452 6.88508040048107 -4 5 -6
499 1 2 -1.1794 1.6371023328515362 11.303326911245225 10.988387669710303 1 0 -2
816 1 1 0.5897 4.779997932267611 10.411851875349065 6.950161003445577 -4 5 -6
730 1 2 -1.1794 4.768406753903357 8.057812637935921 9.077100640699026 0 4 -3
438 1 1 0.5897 4.574439378330999 10.014387329913205 9.87613501813268 -4 7 2
463 1 2 -1.1794 4.2288587271174185 7.350993667114561 15.485162582407904 3 2 -2
35 1 1 0.5897 4.152571181821188 10.829325863828135 13.132805974934321 -2 1 -1
105 1 1 0.5897 3.501730668327489 8.84084577831394 12.444947850456904 -3 -1 8
66 1 1 0.5897 0.9237767482776671 9.103296689648833 15.322564421816738 5 1 -4
104 1 1 0.5897 2.347381055224286 9.638333169407622 11.87629906210025 -3 -1 8
65 1 1 0.5897 1.4151362301758945 9.387464325527889 13.919099526667807 5 1 -4
103 1 2 -1.1794 2.9056762409365504 9.561200212329961 12.649995482548313 -3 -1 8
98 1 1 0.5897 2.453783563364448 6.882416366106601 11.42465177776628 3 -4 7
311 1 1 0.5897 0.9697402458416153 11.538138608075487 13.855049890073795 -4 2 1
64 1 2 -1.1794 0.8544844744970275 9.739286452781819 14.610569025188978 5 1 -4
34 1 2 -1.1794 4.787646974086499 11.515097397102704 13.339267600089475 -2 1 -1
534 1 1 0.5897 0.8881837904436505 11.074074192716914 16.15750762608917 -7 -1 -2
651 1 1 0.5897 0.7849244630558854 6.875325089479194 13.627897727913913 0 0 -2
170 1 1 0.5897 3.1514028394071443 6.8080436680181 14.1489749411571 -3 4 -3
697 1 2 -1.1794 1.384299913524889 9.259681228350733 20.45173809310553 -3 0 -3
370 1 2 -1.1794 3.8267364123272714 8.50618329446042 17.97800075473413 3 8 -1
532 1 2 -1.1794 0.8705771325700218 11.359847441792121 17.070877751663986 -7 -1 -2
371 1 1 0.5897 4.083239651157406 7.937260148591543 18.70377650824675 3 8 -1
287 1 1 0.5897 4.093419135795202 7.269601944505022 20.45556020856268 3 1 1
699 1 1 0.5897 2.304558678016564 9.477161548626317 20.60021173152079 -3 0 -3
48 1 1 0.5897 3.8270731808915337 10.24026150626521 17.792436759810368 2 -3 -3
47 1 1 0.5897 2.784069145871731 11.173427792609807 17.21519384970222 2 -3 -3
261 1 1 0.5897 0.6931147874392112 10.91343812798786 20.577849116697404 4 -2 2
698 1 1 0.5897 1.4006965645810618 8.363516518315073 20.115742548537597 -3 0 -3
46 1 2 -1.1794 3.6785200306062795 11.15571395927434 17.555574443433777 2 -3 -3
445 1 2 -1.1794 1.3537010213848109 8.07833018205266 16.851059219922735 0 -1 0
446 1 1 0.5897 2.15702967821506 8.072378366287339 17.371561080736182 0 -1 0
268 1 2 -1.1794 4.064461887958095 8.858036860244638 21.211575258948358 -2 3 6
372 1 1 0.5897 4.098978362591682 8.031114608361777 17.19288255929123 3 8 -1
87 1 1 0.5897 3.853096684450663 11.800404679804453 21.280621022100675 -2 3 2
447 1 1 0.5897 0.6485176298711766 8.052251809487663 17.497791741312234 1 -1 0
269 1 1 0.5897 4.731751760304919 9.537243503262351 21.113357201158742 -2 3 6
167 1 1 0.5897 2.684559247335409 14.969469844234602 0.7712385147930201 -2 2 4
591 1 1 0.5897 1.875461756943701 13.131647580133203 3.0714946992495147 3 4 2
744 1 1 0.5897 2.8157645110734455 13.299157020738729 5.164812811099887 -1 1 2
589 1 2 -1.1794 2.1908295409379273 13.94743662802389 3.4604054081279245 3 4 2
590 1 1 0.5897 2.6591488193560555 14.386463016366275 2.7503642915534616 3 4 2
709 1 2 -1.1794 4.683674002681513 15.920012030760853 4.164197073929233 -5 -2 -4
375 1 1 0.5897 2.9617228074947035 16.36324937710883 4.529989614574164 4 6 -2
166 1 2 -1.1794 3.5703815150556477 15.038996538006534 1.127205552022518 -2 2 4
356 1 1 0.5897 1.1001371905789772 11.940229105377496 1.355444321360567 3 0 -1
693 1 1 0.5897 4.360242521850109 12.221505742507166 3.0274320087698903 2 2 4
742 1 2 -1.1794 2.9778297071926403 12.642495828891068 5.842123254555467 -1 1 2
711 1 1 0.5897 4.7893391517948185 16.484907269058418 3.398726243706233 -5 -2 -4
373 1 2 -1.1794 2.1666065658142437 16.862901303401742 4.715354789429216 4 6 -2
374 1 1 0.5897 1.6661183677785931 16.8286287692164 3.900146857722902 4 6 -2
737 1 1 0.5897 1.0645042176471189 16.23466278497234 0.8935579004960026 -1 -1 3
610 1 2 -1.1794 3.326746042776684 13.897108225330046 8.91666598292713 3 5 -1
612 1 1 0.5897 2.58360200913916 13.935850687070062 8.314616432385925 3 5 -1
743 1 1 0.5897 2.1995950909058894 12.67447028263645 6.39849364762331 -1 1 2
611 1 1 0.5897 2.98966833765059 13.435737587222796 9.684649445787786 3 5 -1
274 1 2 -1.1794 1.0639934848790544 16.213210571621417 8.879346812592672 -4 3 -2
276 1 1 0.5897 1.2610279140788485 15.679462331629669 9.649114514314597 -4 3 -2
271 1 2 -1.1794 0.6647824484213325 12.893206439945228 7.408307606062042 -1 2 3
459 1 1 0.5897 1.0540026749928333 15.971819579228828 6.013359874679463 1 1 -2
805 1 2 -1.1794 1.583153194998113 16.85145839292682 13.101031376872351 1 2 -4
444 1 1 0.5897 3.8277712639895074 12.791701376900559 12.455303843220578 6 6 -3
312 1 1 0.5897 1.2226412147107368 12.357104980262019 12.607174592437605 -4 2 1
442 1 2 -1.1794 3.3429552147067536 13.589228289393096 12.24288785093616 6 6 -3
285 1 1 0.5897 1.8943117544595338 14.035039310143526 11.442015317570313 3 3 -2
388 1 2 -1.1794 4.053173200190804 14.763066574217627 14.7912982292693 2 5 3
443 1 1 0.5897 3.2309239243501486 14.03305541385596 13.083533254882317 6 6 -3
283 1 2 -1.1794 1.1813319948582106 14.658160953047453 11.301828732830653 3 3 -2
284 1 1 0.5897 1.2855524920952783 15.30344260930983 12.001145111398204 3 3 -2
390 1 1 0.5897 3.3452713297292576 14.720902944655702 15.434194233445313 2 5 3
389 1 1 0.5897 4.6632795668353975 14.076480214828173 15.060746266341235 2 5 2
310 1 2 -1.1794 0.8471440297859536 12.41272545945856 13.485879786624059 -4 2 1
791 1 1 0.5897 1.5855689766136165 16.673371938366195 15.076263190928044 3 4 1
21 1 1 0.5897 4.7544183087743415 16.337344185910723 14.133820438779455 -3 -4 1
157 1 2 -1.1794 1.7802771972040714 13.958822455681785 16.718341564378736 1 0 -1
259 1 2 -1.1794 0.6156127029179419 11.867456202753507 20.585849058760854 4 -2 2
260 1 1 0.5897 1.51399616903539 12.182058493624682 20.485047849258883 4 -2 2
86 1 1 0.5897 3.617215636500189 13.292375787068469 21.38182926836563 -2 3 2
85 1 2 -1.1794 3.276148216919126 12.49830305590577 20.970322023168656 -2 3 2
477 1 1 0.5897 3.2772723744781325 13.996381618848224 19.19416966612265 8 -2 -3
159 1 1 0.5897 2.4885969072032648 14.302723316422089 17.262621630848475 1 0 -1
475 1 2 -1.1794 3.6216681679622567 14.634767994966342 18.569593664966238 8 -2 -3
476 1 1 0.5897 3.0847950049740134 15.415746103335024 18.7040151083323 8 -2 -3
533 1 1 0.5897 1.214146133156142 12.253000397205652 17.04954807454918 -7 -1 -2
158 1 1 0.5897 0.9825820242348127 14.158220645020734 17.208397425207174 1 0 -1
738 1 1 0.5897 1.2280003061651792 15.986487999069945 20.381409548515993 -1 -1 2
61 1 2 -1.1794 1.7956134975790474 16.6742802852498 18.72115655133583 0 4 3
736 1 2 -1.1794 1.0634775206656042 15.537096584470916 21.21041292893392 -1 -1 2
63 1 1 0.5897 1.4863404304612335 16.6535127487202 17.81552913372325 0 4 3
210 1 1 0.5897 4.511778704578188 12.27759597383423 16.644842565199536 -1 -1 1
168 1 1 0.5897 4.007554696853838 15.674522794219625 21.532717418708526 -2 2 3
539 1 1 0.5897 3.0678121290167337 20.561149427636586 3.3425262352768548 1 -4 2
538 1 2 -1.1794 3.0528647721339603 19.87300229197011 2.677356481787413 1 -4 2
344 1 1 0.5897 2.6336337260581484 20.942555828855852 5.117678438203223 -3 1 2
615 1 1 0.5897 2.1743437664372114 18.670447023208144 5.39800082510014 -5 -1 5
647 1 1 0.5897 4.3827200288265065 18.676131528556795 2.6939764585401718 -9 -2 2
343 1 2 -1.1794 2.7689467291154224 21.78592752905365 4.685641209514365 -3 1 2
25 1 2 -1.1794 0.8240652817557232 17.71377225757883 2.038872034611807 5 4 6
540 1 1 0.5897 3.041750625216843 20.344531818563716 1.8444338156285793 1 -4 2
26 1 1 0.5897 1.3491472164587257 18.493787524006272 2.218001855123635 5 4 6
108 1 1 0.5897 3.316085138437322 21.92703946811847 0.6307190759200836 -3 0 5
440 1 1 0.5897 4.504176889375553 17.76169598306197 0.6687828510434457 -1 -3 -1
352 1 2 -1.1794 2.434806665784946 20.48598574923003 9.701615943332289 7 5 -5
353 1 1 0.5897 3.1551169828863226 20.79115246730003 10.253226313424058 7 5 -5
614 1 1 0.5897 2.629868249150191 18.937580263088073 6.816825881168893 -5 -1 4
503 1 1 0.5897 4.020452664636361 18.066561130862947 9.175998431061405 -4 2 4
382 1 2 -1.1794 0.6406698659826756 18.580153958917794 9.757728038350132 -7 -6 -3
504 1 1 0.5897 3.042100464128691 17.168615694579874 8.449101918607479 -4 2 4
354 1 1 0.5897 1.827424693748467 21.22508346291338 9.669434179888126 7 5 -5
502 1 2 -1.1794 3.6217939073216137 17.919001536484878 8.318373233721946 -4 2 4
613 1 2 -1.1794 2.192898580173485 19.350111468181986 6.071780097635896 -5 -1 5
383 1 1 0.5897 1.4048723638113283 19.126916125756868 9.940124055443095 -7 -6 -3
689 1 1 0.5897 3.4368076793424622 20.8717389420188 7.9631692757571155 4 -2 3
688 1 2 -1.1794 4.227833807683086 21.234009766413465 7.564085839060749 4 -2 3
275 1 1 0.5897 0.6933160047528165 17.0206054883285 9.235626988998517 -4 3 -2
422 1 1 0.5897 4.210262191855476 18.226140221041167 15.28686753976465 -3 1 5
575 1 1 0.5897 3.079245603867496 19.250238426627195 12.320635455072205 4 -1 -1
727 1 2 -1.1794 2.5318772292423586 20.742128388205874 13.427417630137347 0 5 1
729 1 1 0.5897 3.23102184604837 21.291610568233434 13.781663871361438 0 5 1
604 1 2 -1.1794 0.5981558736152868 21.27684970177726 15.365001851198704 -5 -2 0
728 1 1 0.5897 2.0516720536232276 21.318437583619176 12.832829759615073 0 5 1
606 1 1 0.5897 1.2666506081510551 21.09441690322727 14.704647452392791 -5 -2 0
574 1 2 -1.1794 3.475520126176292 18.434105985773936 12.015493866817279 4 -1 -1
576 1 1 0.5897 3.9952257449824766 18.127218181235765 12.758441899062948 4 -1 -1
792 1 1 0.5897 0.759428856366662 17.56635701954732 15.977330305260214 3 4 1
806 1 1 0.5897 0.8147685671026716 17.42219247820133 13.110366845066164 1 2 -4
807 1 1 0.5897 2.2834626199740935 17.397619914908155 12.743943136067584 1 2 -4
423 1 1 0.5897 3.0033832447027393 17.91465653113984 16.146098037649317 -3 1 5
790 1 2 -1.1794 1.428765921617864 16.882378279691153 15.997109098350014 3 4 1
421 1 2 -1.1794 3.7375707106392397 18.52334169885651 16.06433495549708 -3 1 5
853 1 2 -1.1794 4.651630095693934 21.670297016300907 11.136722886346176 -2 3 -1
55 1 2 -1.1794 2.221915200117677 21.29821692484105 17.66977079535247 1 1 3
701 1 1 0.5897 2.255149654800025 19.92592218480035 20.260535748246305 3 -1 3
106 1 2 -1.1794 3.4657040441053084 21.07644886636524 21.19026799271826 -3 0 4
702 1 1 0.5897 0.9224595496230295 19.28897137798035 19.9287185825023 3 -1 3
62 1 1 0.5897 1.9121416672914702 17.604651328258207 18.913655602093723 0 4 3
56 1 1 0.5897 1.7459260230911722 21.14170121927494 16.854196952093332 1 1 3
107 1 1 0.5897 4.413967291151195 20.95276534033396 21.232323295747445 -3 0 4
700 1 2 -1.1794 1.8410067873535967 19.306189587769577 19.65999852922356 3 -1 3
57 1 1 0.5897 1.982819434212336 20.561615613692936 18.232332146024874 1 1 3
386 1 1 0.5897 4.250134368346428 21.384381440905134 17.89553183500259 -3 -3 0
191 1 1 0.5897 4.7256835601483695 18.56493816603798 17.69031752471355 6 5 -5
439 1 2 -1.1794 4.3935254295268145 17.304329911017625 20.807555299355084 -1 -3 -2
750 1 1 0.5897 8.776553557612623 4.446865257191435 2.770639135196427 4 3 -1
852 1 1 0.5897 8.149896469137046 5.571607347110047 0.8532256470760079 -5 -2 -4
76 1 2 -1.1794 5.340252329582054 6.594978948286409 2.745893180401219 -4 -6 -1
748 1 2 -1.1794 8.031302644034092 4.314898165597391 2.184614833130854 4 3 -1
248 1 1 0.5897 7.078054431367062 4.357882474881579 3.857873020674499 -7 3 -1
247 1 2 -1.1794 6.760863279834921 4.508938751540425 4.748266050009219 -7 3 -1
249 1 1 0.5897 6.183257537747859 5.2683662053868865 4.6716512097283145 -7 3 -1
749 1 1 0.5897 7.955585971619483 3.364189460213426 2.1029981309268364 4 3 -1
718 1 2 -1.1794 5.5596354729390445 1.8342328923914708 4.108475898564555 8 4 1
720 1 1 0.5897 5.871542892369328 2.70198865410479 4.365255471597397 8 4 1
416 1 1 0.5897 4.858289962973375 3.4205931195030805 1.0923450041963894 -2 -2 -1
835 1 2 -1.1794 8.244491034764465 3.374379722549132 6.864815673982381 -1 4 0
836 1 1 0.5897 7.57233551624663 3.7433656181309654 6.291841449351892 -1 4 0
837 1 1 0.5897 8.00284421124215 3.6731028104291883 7.741539969641211 -1 4 0
763 1 2 -1.1794 7.828745587339091 4.358320265974994 9.416763721875641 -5 0 -3
764 1 1 0.5897 8.220716184699246 5.171173163084546 9.097548808552176 -5 0 -3
765 1 1 0.5897 6.901020252125559 4.435544660045302 9.19398972472682 -5 0 -3
480 1 1 0.5897 6.346126904251114 6.114762051512156 7.2703961814500975 -3 3 -3
706 1 2 -1.1794 5.311181879211491 4.80825126863126 8.350121151915413 -2 -4 -4
479 1 1 0.5897 7.532951212002915 6.389898336496816 6.371727467741579 -3 3 -3
717 1 1 0.5897 8.21708724677794 1.7303976647747916 6.331516210115805 7 -6 -2
328 1 2 -1.1794 7.305647429763552 3.173427670785734 11.863303426265505 2 7 1
329 1 1 0.5897 6.784317243061239 3.822900148211494 12.335125222342452 2 7 1
121 1 2 -1.1794 5.82225193956511 5.360873450254237 12.962979362537387 0 1 -2
466 1 2 -1.1794 8.077926193827418 6.211601871279537 11.847673541863836 3 -4 7
122 1 1 0.5897 6.56756028091137 5.67699079430098 12.452289506296184 0 1 -2
123 1 1 0.5897 6.032415953428667 5.597980495042873 13.866237954656942 0 1 -2
132 1 1 0.5897 4.936919286516337 1.9528847049297766 15.191097115726803 -5 4 1
427 1 2 -1.1794 7.2007152767072204 5.823968026334273 15.40540997491586 2 2 -5
428 1 1 0.5897 7.237412309423921 5.116598272850235 16.049250020933993 2 2 -5
23 1 1 0.5897 8.7518826431104 2.4722680315268475 12.782077942909686 -6 4 0
429 1 1 0.5897 7.518332795199303 6.594185333249683 15.876707356927499 2 2 -5
678 1 1 0.5897 8.361522148366085 3.0115817834036287 16.061123055494832 0 -1 -2
330 1 1 0.5897 7.719220290165196 3.6664738442327938 11.154725703552776 2 7 1
799 1 2 -1.1794 8.435716740895643 3.6010376194549534 19.80147582460931 -2 -2 6
288 1 1 0.5897 4.984855288045154 6.455628762285919 19.54197168018233 3 1 1
637 1 2 -1.1794 4.856720867871601 4.084253292519617 18.536647933449956 -7 1 2
800 1 1 0.5897 7.615738954258843 3.920169973410422 20.17831733649739 -2 -2 6
695 1 1 0.5897 7.890341428101592 4.041834382593823 18.091866808985312 -1 0 -4
264 1 1 0.5897 5.3278699148837845 4.1646195014241005 20.28928662966404 -1 -3 6
696 1 1 0.5897 6.425025665785345 4.168171827405956 17.733028884915853 -1 0 -4
694 1 2 -1.1794 7.280437792928214 3.956894388730333 17.359051432014027 -1 0 -4
608 1 1 0.5897 7.252824181930292 6.452141151546342 19.802719433094975 1 7 2
262 1 2 -1.1794 5.964647933024842 4.20096291864819 21.003017848400365 -1 -3 6
801 1 1 0.5897 9.040185493540358 4.338818167762283 19.88239430677129 -2 -2 6
850 1 2 -1.1794 8.471852689542633 6.29235357384528 21.28413280570955 -5 -2 -5
263 1 1 0.5897 5.766646173778017 5.0184433890084215 21.4598970568119 -1 -3 6
747 1 1 0.5897 8.929119459288799 1.9324822844560297 19.65283078111807 0 6 -8
639 1 1 0.5897 5.176377535071464 3.1856512914742776 18.45556385296666 -7 1 2
143 1 1 0.5897 8.321243193831627 8.30828763121597 2.7503717054803425 -1 5 2
30 1 1 0.5897 6.535247944348762 9.639611974618344 3.774738944075003 -9 2 7
142 1 2 -1.1794 7.548308695078708 8.265156773755285 2.187410246888782 -1 5 2
29 1 1 0.5897 5.7243201159910715 10.892242069588447 4.030079747823904 -9 2 7
28 1 2 -1.1794 6.503795803257753 10.421795286034035 4.3255817338631015 -9 2 7
77 1 1 0.5897 6.165294596640386 7.07178222548673 2.6554344600236517 -4 -6 -1
144 1 1 0.5897 7.867246753794527 7.880632284452224 1.3709341606773442 -1 5 2
469 1 2 -1.1794 9.065327613777052 11.12634109320361 3.554337960947551 -1 -5 0
470 1 1 0.5897 8.199513087542543 11.199897368760519 3.9558158369494505 -1 -5 0
524 1 1 0.5897 7.823200120685964 8.16510171811364 7.077599777021341 0 0 6
452 1 1 0.5897 5.705380866152451 11.336059612412969 8.188537520130676 -2 -2 6
453 1 1 0.5897 6.475401676764726 11.754910451696828 6.954242115476283 -2 -2 6
437 1 1 0.5897 5.357853229687566 11.255072445392592 10.248741881846831 -4 7 2
511 1 2 -1.1794 7.486264104441975 8.292000016841799 9.987227085308236 0 1 -3
512 1 1 0.5897 8.03433441864874 8.663681026231444 9.296077097494848 0 1 -3
523 1 2 -1.1794 8.225830260089676 9.029530940035249 7.160563437901068 0 0 6
525 1 1 0.5897 7.4898287991519625 9.640840000991702 7.131883845831592 0 0 6
451 1 2 -1.1794 6.335126120166916 11.013894570655511 7.543677177683893 -2 -2 6
513 1 1 0.5897 6.656112788706544 8.092980979649035 9.554260266563443 0 1 -3
478 1 2 -1.1794 6.698395910197305 6.7608633016893025 6.658287783328386 -3 3 -3
776 1 1 0.5897 4.866437988783103 7.483758969478209 5.980679804840431 4 -3 3
467 1 1 0.5897 7.87312022772329 6.762436459373244 11.092118842910658 3 -4 7
36 1 1 0.5897 5.601483959433704 11.219182603920027 12.93144234968742 -2 1 -1
630 1 1 0.5897 7.310278500354752 8.412803457368149 14.472283753828455 -2 -3 4
629 1 1 0.5897 6.0092726864955095 8.657672588266665 13.737878216520283 -2 -3 4
554 1 1 0.5897 7.19382564491665 11.140799688810926 11.613031209202436 -7 -7 4
468 1 1 0.5897 8.489295226647318 6.806947692420522 12.47421827448775 3 -4 7
628 1 2 -1.1794 6.39568130738841 8.657324183950418 14.613635153677158 -2 -3 4
555 1 1 0.5897 7.6253672802506305 9.725503085395298 11.933287130718252 -7 -7 4
517 1 2 -1.1794 5.0805816994602955 7.891581485577425 12.243765836975635 -1 -2 -7
79 1 2 -1.1794 9.020116020837097 8.314000499688758 13.931516867579663 1 0 -2
255 1 1 0.5897 7.108552288373996 9.96807667152645 15.78100474757987 4 5 -9
519 1 1 0.5897 5.665173449435833 8.074344708430417 11.508154731044998 -1 -2 -7
465 1 1 0.5897 5.105203984923387 7.663373246310261 15.260027825665153 3 2 -2
553 1 2 -1.1794 7.145488030321872 10.470653179603772 12.294785365502868 -7 -7 4
518 1 1 0.5897 5.309978381304392 7.003580374592787 12.517710864274893 -1 -2 -7
803 1 1 0.5897 8.135407585820516 11.746662937300718 13.615302675802269 7 0 -2
253 1 2 -1.1794 7.422577551196572 10.681425686381544 16.336656244857878 4 5 -9
83 1 1 0.5897 7.665688443279905 9.794694683894173 17.80494663887656 -1 -2 -7
82 1 2 -1.1794 7.878175621050863 9.203864706007437 18.52744929508503 -1 -2 -7
594 1 1 0.5897 6.197711612559165 11.145969106392064 20.415143994029943 -4 -2 -2
254 1 1 0.5897 6.653716960066196 11.234755184996745 16.474205919359854 4 5 -9
84 1 1 0.5897 8.181710679096422 9.78108194052272 19.22811896393432 -1 -2 -7
609 1 1 0.5897 7.194057773548898 7.591504729156746 18.80759759207642 1 7 2
585 1 1 0.5897 8.833851486079917 8.12082899057763 17.291248920582845 4 0 4
607 1 2 -1.1794 6.751805770237906 6.779688197266388 19.055785725491127 1 7 2
592 1 2 -1.1794 6.119723495367683 10.633423363882772 21.219799120853043 -4 -2 -2
397 1 2 -1.1794 8.880309166684407 10.436692068975756 20.737740830620783 4 5 -9
593 1 1 0.5897 6.9851344720652495 10.242513544103966 21.340159550708726 -4 -2 -2
633 1 1 0.5897 7.271659085058411 15.578251253572033 1.6370226702756807 4 5 5
845 1 1 0.5897 6.298068782406957 13.771902808820883 1.7823917623637617 -4 0 2
631 1 2 -1.1794 7.926343383708899 16.257978784526316 1.7970039181911703 4 5 5
846 1 1 0.5897 7.510845282065262 13.234968601807356 1.0525118684527432 -4 0 2
863 1 1 0.5897 6.294039123739156 13.419640365276985 4.5007820118989965 1 -1 0
138 1 1 0.5897 8.992219569875424 15.871743806227478 5.440017425145603 6 -9 3
864 1 1 0.5897 5.253748863858319 14.37686738637425 3.9591359466991145 1 -1 0
844 1 2 -1.1794 6.758696139272422 13.817058640275652 0.9445378250448964 -4 0 2
632 1 1 0.5897 7.574406577092892 16.762239221431162 2.5305575337728667 4 5 5
862 1 2 -1.1794 5.629838943729787 13.508169555773716 3.8172178065331765 1 -1 0
710 1 1 0.5897 5.093034569739471 16.40643346506996 4.879768923255946 -5 -2 -4
33 1 1 0.5897 8.506039927571834 13.607666687052944 8.689537180033117 5 8 0
472 1 2 -1.1794 8.361399882144699 15.262875785508575 9.59195103824465 1 1 0
474 1 1 0.5897 7.465846558801055 15.296289629138608 9.255671511282511 1 1 0
578 1 1 0.5897 6.562607124163139 13.23610385131979 10.615874948567265 3 0 -1
577 1 2 -1.1794 6.870863966155081 12.348631283571464 10.43261058341921 3 0 -1
45 1 1 0.5897 5.71708434360193 16.475582219364462 10.606103992600131 -1 7 -2
358 1 2 -1.1794 6.014157280797474 14.892492574204176 8.195212309533442 4 0 -3
359 1 1 0.5897 5.113496180668243 14.631634258947132 8.38750348703302 4 0 -3
360 1 1 0.5897 5.9451981852762215 15.80555626275701 7.916266218269063 4 0 -3
231 1 1 0.5897 6.6418881851695275 13.952369038927447 6.844656808772167 3 7 0
579 1 1 0.5897 7.41725372920113 12.44075562499366 9.652105891178064 3 0 -1
473 1 1 0.5897 8.272185350787046 14.911102676756109 10.477681649917095 1 1 0
229 1 2 -1.1794 7.028572580895745 13.413171058328953 6.154734437485331 3 7 0
32 1 1 0.5897 8.436458660263078 12.627309258118842 7.538049695870395 5 8 0
31 1 2 -1.1794 8.771271609810771 12.725509701589472 8.4293815916515 5 8 0
230 1 1 0.5897 7.81984720728151 13.885623317216627 5.896043287718892 3 7 0
514 1 2 -1.1794 6.995721966913089 15.062268318413112 13.878538413723673 1 -4 -1
203 1 1 0.5897 6.26898922460933 14.643650363668074 12.241828816128923 -3 3 2
208 1 2 -1.1794 5.105995425022978 12.660314656682672 15.999360978888602 -1 -1 1
516 1 1 0.5897 7.3282630392511905 15.864197574877808 14.281723954882192 1 -4 -1
531 1 1 0.5897 7.610675829792058 14.05378246874109 15.760058529133207 -4 1 -7
515 1 1 0.5897 7.774362607924661 14.62818924388291 13.529933118409373 1 -4 -1
204 1 1 0.5897 4.943926924889204 14.331649456053844 11.579467631957508 -3 3 2
802 1 2 -1.1794 8.535683960079155 12.275197735355208 14.305698491793846 7 0 -2
209 1 1 0.5897 4.847739953260934 12.26069987706127 15.168802170814933 -1 -1 1
202 1 2 -1.1794 5.826713644111231 14.651218352280878 11.392975575652683 -3 3 2
670 1 2 -1.1794 9.08007188384175 14.28677158196037 11.998144286525973 4 2 0
804 1 1 0.5897 8.265881642938913 11.850466760848901 15.11998747176698 7 0 -2
227 1 1 0.5897 5.097475499032195 16.318774653305457 16.192893258796364 4 -3 0
211 1 2 -1.1794 6.3158859261855325 14.630533804710106 19.301241026825846 3 1 2
498 1 1 0.5897 6.2558293566862595 12.979112951427782 18.926453931010958 0 1 0
497 1 1 0.5897 5.459279753002831 11.861037307431415 18.288254762052112 0 1 1
258 1 1 0.5897 8.502696894113821 12.284111988236178 18.696424468629395 2 -4 -1
213 1 1 0.5897 6.343934532657024 14.335955642823302 20.211549381407536 3 1 2
8 1 1 0.5897 7.402501436222459 16.265050381151234 18.989247504076914 3 1 0
530 1 1 0.5897 7.21278252619636 15.005041424028843 16.86850589684792 -4 1 -7
257 1 1 0.5897 9.034062289540968 13.42969358346401 17.861452973418608 2 -4 -1
529 1 2 -1.1794 7.956084716272719 14.506140538890886 16.529664191674115 -4 1 -7
212 1 1 0.5897 5.382654068329624 14.702664551138204 19.10099300834051 3 1 2
226 1 2 -1.1794 5.822374121677958 16.200719306526132 16.806754640081596 4 -3 0
496 1 2 -1.1794 6.227880979887289 12.026789735344758 18.834171246622894 0 1 1
7 1 2 -1.1794 8.196780039563503 16.798379971429146 19.019423130999705 3 1 0
526 1 2 -1.1794 7.595131685557484 18.48708635708915 3.699948148096121 -4 -6 3
527 1 1 0.5897 7.57240598630292 18.12765963613686 4.586811204919013 -4 -6 3
528 1 1 0.5897 8.511849274702445 18.413360440194985 3.434560123533195 -4 -6 3
648 1 1 0.5897 5.891567986715873 18.566642851828117 2.6368797875590166 -9 -2 2
218 1 1 0.5897 7.024887825665007 21.553136214338473 1.1197124768057667 4 1 0