LAMMPS data file via write_data, version 30 Jul 2021, timestep = 4500000

864 atoms
2 atom types
576 bonds
1 bond types
288 angles
1 angle types

0.12040532253439729 18.08716707746163 xlo xhi
0.06718708927398254 23.56199071073585 ylo yhi
0.0330647317128161 22.180131068290528 zlo zhi

Masses

1 1.00794
2 15.9994

Atoms # full

707 1 1 0.5897 2.957296028208458 2.0916074318421067 4.196863805167305 0 0 0
706 1 2 -1.1794 3.180357152101419 2.200718058912781 3.272372851647625 0 0 0
137 1 1 0.5897 5.104647833943203 5.837934035433515 4.081036939338306 0 0 0
846 1 1 0.5897 7.373479265320586 1.9339591355561148 5.411987297821637 0 0 0
1 1 2 -1.1794 0.988845841608973 3.119904272145247 2.1190455878498735 0 0 0
708 1 1 0.5897 2.3623355475122056 2.4770775230330027 2.859114319139019 0 0 0
29 1 1 0.5897 4.693529758422245 2.915098644630622 2.7914098771327156 0 0 0
28 1 2 -1.1794 5.4579866899789256 3.338129497751002 2.400300799057282 0 0 0
495 1 1 0.5897 8.43892396915497 2.130694754898342 2.9522372206099763 0 0 0
494 1 1 0.5897 6.925131166778084 2.120369835896519 2.974886312448953 0 0 0
30 1 1 0.5897 5.39226142944315 4.252908552309349 2.6740943922895055 0 0 0
493 1 2 -1.1794 7.690980045740416 1.7029308731761468 3.369250413204288 0 0 0
3 1 1 0.5897 1.091424176094606 3.9969222885314277 2.4884127950342094 0 0 0
2 1 1 0.5897 0.22315035436889688 2.7592804409059197 2.566209688774962 0 0 0
20 1 1 0.5897 0.8945269362900812 3.3432435076756866 0.26088833317002447 0 0 0
597 1 1 0.5897 1.2724757625068959 5.655558743085731 4.16622048330943 0 0 0
819 1 1 0.5897 7.348628463889112 0.12787155979640955 2.271499935864173 0 0 0
188 1 1 0.5897 3.132329052695447 0.43236310474186834 2.808206979103191 0 1 0
668 1 1 0.5897 5.569143908487215 3.237641674214999 0.4312206971399348 0 0 0
595 1 2 -1.1794 1.263602117035851 5.67694622505295 3.2092497625709613 0 0 0
844 1 2 -1.1794 7.298340710687741 1.750525346284814 6.348487197849573 0 0 0
784 1 2 -1.1794 0.9091427995218373 3.1967865286869914 6.854140316434076 0 0 0
36 1 1 0.5897 1.4494687841406015 2.837312305695342 10.008816409068247 0 0 0
487 1 2 -1.1794 3.1176920924185736 1.6561884009737695 6.0182094792992284 0 0 0
355 1 2 -1.1794 7.298226260901311 1.7786971231965474 10.778333229164387 0 0 0
678 1 1 0.5897 5.380423608738893 5.246710081112736 10.365291759391614 0 0 0
674 1 1 0.5897 3.8080418746159164 2.596654103181647 10.28300964445868 0 0 0
675 1 1 0.5897 3.106198115653676 1.2615529936845944 10.154200527506124 0 0 0
84 1 1 0.5897 5.903247601224645 2.6523969684392545 7.220481094363443 0 0 0
34 1 2 -1.1794 0.7265284258069977 3.3389888568157273 9.632054546051513 0 0 0
274 1 2 -1.1794 5.2924805495282845 3.4956345611209794 10.0288886087382 0 0 0
356 1 1 0.5897 7.215171589634609 0.8833276175895011 10.450424359004199 0 0 0
181 1 2 -1.1794 0.9496071916638755 5.860598552926686 6.1120306711380525 0 0 0
489 1 1 0.5897 3.150774855012409 0.7520349619842644 6.330523042035792 0 0 0
488 1 1 0.5897 2.3171977349540365 2.01367095628767 6.402550928058878 0 0 0
183 1 1 0.5897 0.8692354463628804 4.9363912261454725 6.347570969005391 0 0 0
276 1 1 0.5897 5.977983785329526 2.895366396996782 10.322133358579505 0 0 0
82 1 2 -1.1794 5.048303308657404 3.0644409591578365 7.34541464617894 0 0 0
275 1 1 0.5897 5.253167442308118 3.370282301894487 9.08067650932882 0 0 0
785 1 1 0.5897 1.0019072508023226 3.257523780139388 7.804948588266378 0 0 0
112 1 2 -1.1794 0.8289371851749427 5.92485021022654 10.418988426094753 0 0 0
845 1 1 0.5897 7.367509477647777 0.7980756499738701 6.412740752303491 0 0 0
83 1 1 0.5897 4.454082803933538 2.556751372330972 6.7927739455613105 0 0 0
35 1 1 0.5897 0.8321854533864389 4.21945185288652 9.992245250533724 0 0 0
686 1 1 0.5897 4.804595922008259 4.622415853059393 6.4286376877847795 0 0 0
419 1 1 0.5897 8.938560422759334 2.632027991917157 6.569080771800658 0 0 0
685 1 2 -1.1794 4.766195974216089 5.360376121221224 5.820257923384464 0 0 0
176 1 1 0.5897 8.914134205915541 2.506841917047342 9.65568032357809 0 0 0
673 1 2 -1.1794 3.07765916473134 2.088302147307621 10.635684368964474 0 0 0
166 1 2 -1.1794 3.444183345907027 2.016391240076329 13.317937952735814 0 0 0
167 1 1 0.5897 3.2585219847066007 2.0398642430648337 12.379152927042144 0 0 0
762 1 1 0.5897 5.504775960262983 4.951385866922092 13.511308783074787 0 0 0
459 1 1 0.5897 4.8025057089202665 2.9885754470499784 13.999793743289072 0 0 0
168 1 1 0.5897 2.6223831733906082 2.2803654723803923 13.731793460293817 0 0 0
466 1 2 -1.1794 1.02870970203344 2.8451541410353287 14.067027000872281 0 0 0
71 1 1 0.5897 5.863433412994152 3.3048302288925986 16.25815866685783 0 0 0
592 1 2 -1.1794 7.708139858388502 1.6552792907107203 13.524362161409178 0 0 0
458 1 1 0.5897 6.259232691103869 2.6044818991974292 14.149870314922962 0 0 0
468 1 1 0.5897 0.8551331411149719 3.055390175202927 14.984634111523093 0 0 0
457 1 2 -1.1794 5.6200689269484165 3.2667145103246793 14.412785531800022 0 0 0
365 1 1 0.5897 1.0484037101700514 4.478245299581136 13.304691757637869 0 0 0
593 1 1 0.5897 8.027946141523485 0.7619213510644273 13.649833487061267 0 0 0
594 1 1 0.5897 8.500926457581713 2.1898847162610457 13.4802154097629 0 0 0
760 1 2 -1.1794 5.073247346096533 5.78824864092038 13.339300349020153 0 0 0
737 1 1 0.5897 2.9738788547688255 0.3268672282506276 13.858811053594529 0 1 0
113 1 1 0.5897 0.9395677768439507 5.703952736962518 11.343803866143611 0 0 0
364 1 2 -1.1794 0.9755681042561714 5.378067740247011 12.986698616270752 0 0 0
357 1 1 0.5897 7.368763106591578 1.6809843764580867 11.727974508040798 0 0 0
467 1 1 0.5897 0.31855775373823386 2.2536492677690028 13.817878761176432 0 0 0
366 1 1 0.5897 1.4632767320647362 5.898361933061245 13.625216145091255 0 0 0
761 1 1 0.5897 5.075784621850411 5.867980953108823 12.385368521799744 0 0 0
133 1 2 -1.1794 0.912137146720516 3.2477440145856247 16.79027897574183 0 0 0
134 1 1 0.5897 0.8584493297449647 3.999422042521083 17.380420462509186 0 0 0
278 1 1 0.5897 5.703790159829159 4.994539733171153 17.746152427288866 0 0 0
42 1 1 0.5897 7.794841377715523 0.9482766747919047 21.00032569586001 0 0 0
41 1 1 0.5897 7.239470792226549 2.338418944365826 21.22539086420043 0 0 0
569 1 1 0.5897 2.6357736814604418 2.525665224760865 20.999564657602562 0 0 0
570 1 1 0.5897 3.4254346644715192 2.033736265117815 19.80519415747851 0 0 0
568 1 2 -1.1794 3.478213891979018 2.1427024295860093 20.754758932274658 0 0 0
648 1 1 0.5897 0.47408901280532717 5.7490630629217305 19.833501026011902 0 0 0
70 1 2 -1.1794 5.830151850383084 3.254711175386617 17.21352416507445 0 0 0
290 1 1 0.5897 3.455434577446817 1.2279004656423238 17.62942309624244 0 0 0
669 1 1 0.5897 4.993684020064654 2.972547869715358 21.20324100081609 0 0 0
289 1 2 -1.1794 3.3051672371947114 2.1017605746067343 17.98988496404712 0 0 0
21 1 1 0.5897 1.0229505478033667 4.284295438014902 21.229035532210755 0 0 0
143 1 1 0.5897 5.139838556554003 4.9265593434480355 21.1932281332524 0 0 0
144 1 1 0.5897 5.046621603830377 5.716842065106908 19.905310847707632 0 0 0
756 1 1 0.5897 7.31458471857658 2.249349681442299 17.769042312940698 0 0 0
291 1 1 0.5897 2.5587008524079686 2.4401921549365473 17.495364356204913 0 0 0
754 1 2 -1.1794 7.971709313197177 1.6283273423691476 18.08332352393827 0 0 0
40 1 2 -1.1794 7.992123267893012 1.8741289862042287 20.85903534244824 0 0 0
755 1 1 0.5897 7.92057038702735 1.6870592121164965 19.037409540658068 0 0 0
667 1 2 -1.1794 5.76296646740197 3.331533053102102 21.64556515211268 0 0 0
277 1 2 -1.1794 5.6281138946361535 5.882687643681356 18.094842902769816 0 0 0
19 1 2 -1.1794 1.0332349003449455 3.355728223377641 21.46088610066677 0 0 0
571 1 2 -1.1794 0.8389589973581628 5.590758094118679 18.06135014954204 0 0 0
72 1 1 0.5897 4.985507607294371 2.8461298229806844 17.40311274660059 0 0 0
135 1 1 0.5897 0.19645983414380197 2.674889803052324 17.06574085288123 0 0 0
142 1 2 -1.1794 4.865270716291458 5.774156327314871 20.84347831625039 0 0 0
81 1 1 0.5897 3.0984045479414806 0.5372983929385455 21.588415777004734 0 1 0
253 1 2 -1.1794 3.2614825581876388 7.128209061700006 1.8640587771697499 0 0 0
123 1 1 0.5897 3.025506884437816 8.92455252806183 2.6599976982047857 0 0 0
121 1 2 -1.1794 2.777464143398499 9.828396695357938 2.8540205983123976 0 0 0
122 1 1 0.5897 2.6785117253918065 9.851086052017449 3.805876247200772 0 0 0
416 1 1 0.5897 6.767452813359835 6.577291303048001 1.9894252491124282 0 0 0
417 1 1 0.5897 8.262152985845411 6.670294602650302 1.7672597772396315 0 0 0
415 1 2 -1.1794 7.433382228838681 7.0819576350306 1.5224065603098573 0 0 0
44 1 1 0.5897 1.3857458108562375 10.658193098906558 2.205701863873051 0 0 0
219 1 1 0.5897 4.2090854588905025 11.064881545115709 2.162644469865015 0 0 0
217 1 2 -1.1794 4.90513341120056 11.468645961215664 1.6441924186515255 0 0 0
218 1 1 0.5897 5.700910835844535 11.008263944941655 1.9107833236086635 0 0 0
136 1 2 -1.1794 5.41899996938096 5.9507957800823785 3.1839138678526546 0 0 0
66 1 1 0.5897 7.118590139586788 9.712731393857425 3.3350844233524026 0 0 0
65 1 1 0.5897 7.185213410809449 8.925541070611812 2.0436244588202164 0 0 0
64 1 2 -1.1794 6.953792815321524 9.785293386919868 2.3949201703523477 0 0 0
712 1 2 -1.1794 7.124587109543115 9.576592858518536 5.117165118559833 0 0 0
254 1 1 0.5897 3.14313276091815 7.1878934995392205 0.9160243071749639 0 0 0
596 1 1 0.5897 0.39409599527956496 6.008327283325902 2.984650165543675 1 0 0
255 1 1 0.5897 2.5012701594545734 6.633591698618563 2.1701489056989014 0 0 0
43 1 2 -1.1794 0.5889963303569079 11.024494613301668 1.821810199809944 0 0 0
773 1 1 0.5897 8.691029051729018 10.691818115917213 2.259233031279632 0 0 0
138 1 1 0.5897 4.729067415905985 6.452014331949079 2.7491247547358797 0 0 0
793 1 2 -1.1794 2.7141331847348473 9.8400055484556 5.495918549396148 0 0 0
714 1 1 0.5897 7.165106138339717 8.648607447829916 5.3480023870082745 0 0 0
257 1 1 0.5897 2.9130165132821904 9.081723020686423 10.326836613029304 0 0 0
165 1 1 0.5897 8.793795762771285 6.065066056919512 5.611912837916943 0 0 0
650 1 1 0.5897 3.1399653201392566 7.420653587348184 8.836758285737988 0 0 0
15 1 1 0.5897 1.0840138080899977 10.496671527224853 10.184005267805729 0 0 0
577 1 2 -1.1794 5.305635728745087 10.658639562956013 6.783359487397525 0 0 0
10 1 2 -1.1794 3.1733938648670286 7.191738813306167 7.017729276297355 0 0 0
258 1 1 0.5897 3.6699804476501083 10.392076498565316 10.286456642889355 0 0 0
11 1 1 0.5897 2.3559405644205005 6.770255948939409 6.752395481210845 0 0 0
12 1 1 0.5897 3.1642426596850757 8.036992086052276 6.568725466488424 0 0 0
145 1 2 -1.1794 7.172391180583159 6.873194961722527 6.096958204204667 0 0 0
526 1 2 -1.1794 7.5094299074618585 7.071233873568271 8.90270368205176 0 0 0
649 1 2 -1.1794 2.9953251723005336 7.438232063116471 9.782860497291544 0 0 0
551 1 1 0.5897 0.39109377199739254 10.966121143252398 7.818663809010276 0 0 0
578 1 1 0.5897 5.921854174470853 10.296773700245684 6.146474684303505 0 0 0
581 1 1 0.5897 6.017447828249802 10.395620876259725 9.783868746421438 0 0 0
550 1 2 -1.1794 0.36649305168947843 10.921916659891533 6.862745402454125 0 0 0
147 1 1 0.5897 7.3144483616695455 6.962302744167073 7.039427976957081 0 0 0
146 1 1 0.5897 6.416191271911568 6.291118376763423 6.022227802775871 0 0 0
580 1 2 -1.1794 5.187638399375901 10.84188842602144 9.614834229961808 0 0 0
822 1 1 0.5897 8.154314920892928 10.147016226433063 9.779134800025124 0 0 0
13 1 2 -1.1794 0.38206470138291004 10.896551217771728 9.670513877498257 0 0 0
676 1 2 -1.1794 5.418053829473366 6.164225649396303 10.635183840108553 0 0 0
582 1 1 0.5897 5.204159466076568 11.032106263048156 8.676811187892175 0 0 0
677 1 1 0.5897 6.183582735489655 6.51664966432345 10.181242339504275 0 0 0
820 1 2 -1.1794 7.442635037471409 9.556025598041241 10.025061292500059 0 0 0
687 1 1 0.5897 4.165297941740592 5.980628255987971 6.233121373965323 0 0 0
527 1 1 0.5897 7.433995347500297 7.980215535467748 9.192835481333127 0 0 0
795 1 1 0.5897 3.4363255362586074 10.321852842355492 5.899087761774424 0 0 0
713 1 1 0.5897 7.8041034895452706 9.986806325839051 5.652212705649989 0 0 0
256 1 2 -1.1794 2.941465494552691 9.95192271061157 10.724411562680444 0 0 0
651 1 1 0.5897 3.7990127164956218 7.075356882684673 10.155302140988951 0 0 0
528 1 1 0.5897 8.251194949767589 6.7223683232970375 9.397096016640866 0 0 0
794 1 1 0.5897 1.9256307344960932 10.223853055918891 5.879615270974373 0 0 0
114 1 1 0.5897 1.650836273925877 6.349875898357861 10.173802993183424 0 0 0
579 1 1 0.5897 5.268194470611168 11.592541673773848 6.5770934870701065 0 0 0
821 1 1 0.5897 7.537487111537526 9.446871114569213 10.971326350376495 0 0 0
476 1 1 0.5897 6.677637279761063 10.283957910340288 13.043454336167274 0 0 0
332 1 1 0.5897 2.827675833549084 7.631448855524844 14.24562916242756 0 0 0
797 1 1 0.5897 2.714448593424642 9.531371642303476 12.209808046845442 0 0 0
796 1 2 -1.1794 2.6440803334662717 9.47940945217845 13.16306868072463 0 0 0
798 1 1 0.5897 1.815570461682527 9.913498110804579 13.366575390246782 0 0 0
826 1 2 -1.1794 7.381850133397222 7.3461013398442505 14.134999223049784 0 0 0
828 1 1 0.5897 7.438856239980663 7.140200016915123 15.06810767369274 0 0 0
331 1 2 -1.1794 2.884662752554367 6.69944477596823 14.455880344441997 0 0 0
477 1 1 0.5897 7.382305809595929 8.97746972318651 13.340496362612377 0 0 0
259 1 2 -1.1794 0.42231016376782243 10.899679170253757 13.33110968202819 0 0 0
261 1 1 0.5897 0.16748842057967356 10.88299367262479 14.253670927840465 0 0 0
723 1 1 0.5897 5.147439038936725 11.08166994647613 14.76237334920448 0 0 0
722 1 1 0.5897 4.279412656817867 10.36075530914607 13.75300983599308 0 0 0
827 1 1 0.5897 6.562652714735489 6.941480440150465 13.849518430814035 0 0 0
721 1 2 -1.1794 5.067160543442052 10.899612555568211 13.826026527373816 0 0 0
225 1 1 0.5897 3.1002237570458164 6.556763147738454 16.254638893945426 0 0 0
475 1 2 -1.1794 7.489131271213882 9.805774367028256 12.872876563784128 0 0 0
333 1 1 0.5897 3.7120623885186483 6.415862012961861 14.066898084107674 0 0 0
679 1 2 -1.1794 5.384973334327429 11.341622242838573 16.431858879769223 0 0 0
851 1 1 0.5897 8.78005676165412 6.1125213349405545 13.349052429636087 0 0 0
445 1 2 -1.1794 0.7315250258843927 10.844547377611402 16.321769244114797 0 0 0
104 1 1 0.5897 8.992598465312117 10.441893656018685 13.841415672776728 0 0 0
446 1 1 0.5897 0.704147932047886 11.746375251231381 16.64125083762427 0 0 0
689 1 1 0.5897 3.249329214244347 10.252312169770594 20.009706574643335 0 0 0
627 1 1 0.5897 2.4447898351745727 9.88828350086335 16.699284464593344 0 0 0
626 1 1 0.5897 3.021035028057492 9.68877101483199 18.085024717286412 0 0 0
6 1 1 0.5897 2.7949539178003353 8.306746036600527 20.853669613614837 0 0 0
287 1 1 0.5897 8.742089436348456 10.833899415275015 21.12265212305869 0 0 0
223 1 2 -1.1794 3.271529822645403 6.809001229736244 17.1620382488924 0 0 0
160 1 2 -1.1794 7.354234037094457 7.26798938061557 20.99719668035057 0 0 0
690 1 1 0.5897 1.7988513156561106 9.905353833395363 20.270286249825947 0 0 0
9 1 1 0.5897 6.729524832813524 10.45167811991009 17.394208635216735 0 0 0
688 1 2 -1.1794 2.5544725065399376 9.651655942455115 19.74018779527608 0 0 0
7 1 2 -1.1794 7.382712377686968 9.899759146310267 17.824297732007718 0 0 0
246 1 1 0.5897 8.82381902965922 10.808085589097693 17.078336058831116 0 0 0
224 1 1 0.5897 3.3819475281646323 7.759200787719548 17.130160718831725 0 0 0
140 1 1 0.5897 6.312778866864318 10.453741657508115 20.812407145699304 0 0 0
161 1 1 0.5897 6.473735117388409 7.012948664513303 20.721389329121582 0 0 0
522 1 1 0.5897 7.70433451997182 8.00838811293728 17.087294832367544 0 0 0
394 1 2 -1.1794 0.43070664801184316 10.813315696263903 21.197595962776656 0 0 0
361 1 2 -1.1794 4.590515556462784 10.921712752960767 21.043228408957344 0 0 0
462 1 1 0.5897 8.754587195318559 6.221920283612367 20.608811977518965 0 0 0
625 1 2 -1.1794 3.2171377691345606 9.556781708611297 17.157419694155553 0 0 0
521 1 1 0.5897 7.181837335880682 6.647457506635859 17.495311968818697 0 0 0
4 1 2 -1.1794 2.730745517825654 7.501092633881639 21.366450930002244 0 0 0
141 1 1 0.5897 7.09803326379547 9.159695204519082 20.835064802846794 0 0 0
8 1 1 0.5897 7.341513705154287 10.153267317284717 18.74644723170655 0 0 0
139 1 2 -1.1794 7.184876325172811 10.094531530524193 20.64892306730792 0 0 0
5 1 1 0.5897 3.49248635947127 6.98603069726395 21.100410811183618 0 0 0
520 1 2 -1.1794 7.658038817902876 7.097388535986133 16.79741069632039 0 0 0
647 1 1 0.5897 1.207886644401473 6.594738427705628 20.85248792317115 0 0 0
680 1 1 0.5897 4.6370749036463055 10.831234767819907 16.74235768152345 0 0 0
279 1 1 0.5897 4.814340536638386 6.219246576558249 17.719598806425292 0 0 0
162 1 1 0.5897 7.354169349635279 7.142902404752641 21.946253564052135 0 0 0
573 1 1 0.5897 0.1693175438894201 6.1457723994025875 17.661557208978813 0 0 0
362 1 1 0.5897 4.757782230054173 11.808957311030499 20.72545723870748 0 0 0
646 1 2 -1.1794 0.4861632780846961 5.972192374699773 20.764303050102743 0 0 0
572 1 1 0.5897 1.6681381656990013 5.948249159665293 17.74356509206594 0 0 0
363 1 1 0.5897 4.391164037211859 11.033257975889871 21.972821562462777 0 0 0
396 1 1 0.5897 0.48235416310004464 10.746331714162121 22.151106731757796 0 0 -1
557 1 1 0.5897 2.153711253264339 14.694017934614202 2.0449401038951525 0 0 0
174 1 1 0.5897 4.957942987013763 13.211152293513043 2.534062796578002 0 0 0
293 1 1 0.5897 2.9267466886769644 17.06101068068191 2.3877460256833922 0 0 0
558 1 1 0.5897 2.929546117499087 15.042491007331195 0.792420809408158 0 0 0
556 1 2 -1.1794 2.836300687732821 15.278592671279927 1.7154075800775856 0 0 0
373 1 2 -1.1794 0.8155207840697114 13.377366666974869 2.88891893759136 0 0 0
173 1 1 0.5897 4.1033035475008175 14.430802761821521 2.80568218413317 0 0 0
374 1 1 0.5897 0.7893551717716667 13.152943856596217 3.819119123112825 0 0 0
479 1 1 0.5897 7.618122941760523 14.663605049143468 2.34486943031685 0 0 0
480 1 1 0.5897 6.230734712920226 15.183170248695337 2.6569494977362758 0 0 0
172 1 2 -1.1794 4.868344357317327 13.955240884813385 3.1294454864436316 0 0 0
478 1 2 -1.1794 7.021002980187181 15.387769163138481 2.1569907813003275 0 0 0
449 1 1 0.5897 7.221122122973648 17.02659464741642 2.6873563172925516 0 0 0
200 1 1 0.5897 4.785432742762257 13.300881756797844 4.916676532773264 0 0 0
308 1 1 0.5897 7.3980866849349045 17.48614928494499 5.0235726690613625 0 0 0
238 1 2 -1.1794 3.334583030213247 17.394216029115295 5.398980338422652 0 0 0
317 1 1 0.5897 7.233885475292109 15.333979182126503 0.4341932175557942 0 0 0
156 1 1 0.5897 9.099895336236521 12.732500527241552 2.406963403861346 0 0 0
154 1 2 -1.1794 9.03004167567611 13.585872788379264 2.834749103198463 0 0 0
45 1 1 0.5897 0.6168335051201665 11.953154027559687 2.051904633116992 0 0 0
519 1 1 0.5897 7.885810145370876 14.27227265899985 6.104865703164545 0 0 0
811 1 2 -1.1794 3.258465665690076 15.146208165443895 9.252339175261827 0 0 0
812 1 1 0.5897 4.108713818347162 14.763530346189704 9.469050049012338 0 0 0
813 1 1 0.5897 2.619551803791037 14.533248766362442 9.616095001587611 0 0 0
17 1 1 0.5897 3.1802252969067766 14.962976743531463 7.4679388272662175 0 0 0
307 1 2 -1.1794 7.449660614110287 17.22571994310494 5.94326409475088 0 0 0
656 1 1 0.5897 1.0913622773924692 14.081054071136087 6.108034391406449 0 0 0
14 1 1 0.5897 0.5167279272608416 11.838608538136448 9.772848506427216 0 0 0
16 1 2 -1.1794 3.126703911687383 14.917807978705994 6.513246729034228 0 0 0
517 1 2 -1.1794 7.2546102265787304 14.649019885655292 6.718013560537712 0 0 0
766 1 2 -1.1794 0.792092911017067 13.775121837891687 10.049346651010762 0 0 0
382 1 2 -1.1794 3.4385228829771637 17.49490124995006 10.677089678812711 0 0 0
384 1 1 0.5897 3.3772605837088294 16.689366186149353 10.16376249329418 0 0 0
186 1 1 0.5897 7.4781468874663455 16.070677932831483 9.71861604784602 0 0 0
456 1 1 0.5897 4.976548988911777 12.514586407188323 10.061965248553571 0 0 0
376 1 2 -1.1794 7.558291067290225 14.277145225101547 9.404173671232776 0 0 0
378 1 1 0.5897 7.5218174372186715 14.399515697490664 8.455478804233055 0 0 0
377 1 1 0.5897 6.679314864860173 13.981963487110384 9.642047832260621 0 0 0
454 1 2 -1.1794 5.085547983571234 13.444160717163701 10.26223923018077 0 0 0
18 1 1 0.5897 3.8599375102724625 14.357913426479628 6.257989054306876 0 0 0
655 1 2 -1.1794 0.34482217383209723 13.58073563531612 5.778425696946911 0 0 0
518 1 1 0.5897 7.111255895761124 15.539544160640652 6.397784787247707 0 0 0
239 1 1 0.5897 3.1030250762755167 16.575126230141777 5.836748752716389 0 0 0
199 1 2 -1.1794 4.970046910187544 13.172822232788688 5.847184713917021 0 0 0
201 1 1 0.5897 5.822611272198801 13.586665520604704 5.98190365172195 0 0 0
184 1 2 -1.1794 7.459661966653632 17.017571435679038 9.856978183137524 0 0 0
767 1 1 0.5897 0.5624731246226261 13.710006104938207 10.976387776283188 0 0 0
552 1 1 0.5897 0.48828587517307936 11.82736749588628 6.577382102496396 0 0 0
309 1 1 0.5897 8.281748242812105 17.58711062180589 6.248766562469386 0 0 0
185 1 1 0.5897 8.38118752891215 17.276373511323786 9.868789156372907 0 0 0
232 1 2 -1.1794 2.4728379902812754 14.719795700994391 14.022625042840962 0 0 0
234 1 1 0.5897 2.6903328730470157 14.713084634193663 14.954821391023582 0 0 0
606 1 1 0.5897 2.714031057494291 16.61289973409551 13.64179673191813 0 0 0
297 1 1 0.5897 7.837931764043539 14.26834155773896 13.812301042740344 0 0 0
639 1 1 0.5897 1.2176889513109168 13.898750625761615 12.987193364538046 0 0 0
233 1 1 0.5897 3.2520373924682984 14.368221703816866 13.591855671114482 0 0 0
427 1 2 -1.1794 4.716915479580119 13.58640615591995 12.858984016592752 0 0 0
605 1 1 0.5897 3.1497216214778505 17.30137216332804 12.36576642230761 0 0 0
429 1 1 0.5897 5.441408164651293 14.02566132254549 13.30446467659455 0 0 0
637 1 2 -1.1794 0.3604479709816099 13.624927787210725 12.66089707256483 0 0 0
295 1 2 -1.1794 7.120922214630222 14.902376438618225 13.823063820768006 0 0 0
270 1 1 0.5897 7.33602203156512 16.337544415409873 12.788752583123609 0 0 0
296 1 1 0.5897 7.127054980918173 15.25643757255602 14.712412043487431 0 0 0
428 1 1 0.5897 4.764534714384525 12.679260757857605 13.160524432820129 0 0 0
638 1 1 0.5897 0.3063207536836561 12.69475092761188 12.879819744706921 0 0 0
269 1 1 0.5897 7.394813147173463 17.3057464928203 11.626406613773822 0 0 0
604 1 2 -1.1794 3.001604895691161 17.45876767085516 13.298295473917086 0 0 0
268 1 2 -1.1794 7.488747568348335 17.258583194115364 12.577872666040541 0 0 0
455 1 1 0.5897 4.9671042233917095 13.500898049115506 11.21044366561928 0 0 0
49 1 2 -1.1794 7.213042437962001 15.076738620454316 16.621090887451594 0 0 0
316 1 2 -1.1794 7.290081261043551 15.36046337834473 21.626016418620594 0 0 0
683 1 1 0.5897 6.088711710966103 14.093832457426604 20.572038446219917 0 0 0
451 1 2 -1.1794 0.5081764823064543 13.458125397524771 20.222997980239075 0 0 0
318 1 1 0.5897 7.372673488426977 16.290638757390948 21.41616371996204 0 0 0
51 1 1 0.5897 7.858366961293907 14.412342758920031 16.862622416516643 0 0 0
681 1 1 0.5897 5.209355004674636 12.232664176578156 16.734029515440014 0 0 0
666 1 1 0.5897 2.8234823239483737 15.578602305620263 21.008192865149702 0 0 0
584 1 1 0.5897 2.9431422394279205 16.764240390590533 17.53380866581542 0 0 0
665 1 1 0.5897 2.1321699567050527 14.278143547304195 20.658079710939077 0 0 0
452 1 1 0.5897 0.32020115649656433 12.58024325519829 20.554814261347072 0 0 0
610 1 2 -1.1794 7.673151864946357 17.36204529378624 18.17903661028051 0 0 0
824 1 1 0.5897 3.5366165841508854 14.719433902866122 17.23078344009652 0 0 0
50 1 1 0.5897 7.433648209475505 15.833815169719342 17.16363448915854 0 0 0
664 1 2 -1.1794 2.8836704862452853 14.631702006009364 21.134053820472044 0 0 0
825 1 1 0.5897 2.0265213478048265 14.610614683336685 17.237453836000427 0 0 0
684 1 1 0.5897 4.578012528971145 14.053011080019214 20.66296594129423 0 0 0
715 1 2 -1.1794 3.0172824343882407 17.36889408261693 20.80780403419151 0 0 0
124 1 2 -1.1794 4.985394950129734 13.8747995378154 17.625642927452503 0 0 0
125 1 1 0.5897 5.0375306097003065 13.777013622270674 18.576461148095817 0 0 0
682 1 2 -1.1794 5.328392597850512 13.57429356965239 20.3107944995333 0 0 0
52 1 2 -1.1794 0.6925254241802458 13.340278577172409 17.510586338431665 0 0 0
126 1 1 0.5897 5.818817598927593 14.276265313391017 17.379613545969963 0 0 0
53 1 1 0.5897 0.5711195442491339 13.243966012173692 18.45520987629854 0 0 0
117 1 1 0.5897 8.987704057051497 14.219919226392955 21.005726213811 0 0 0
823 1 2 -1.1794 2.7469478142213632 15.122988261712006 16.8703756615987 0 0 0
716 1 1 0.5897 3.0439532052904066 17.60484487949509 19.880477845960762 0 0 0
696 1 1 0.5897 1.623867472810464 22.22166143678879 3.2468475693043253 0 0 0
344 1 1 0.5897 1.4804110486687703 18.899241089491852 2.188489269138679 0 0 0
343 1 2 -1.1794 0.6471121015601128 19.27259845962882 1.9012438112437542 0 0 0
227 1 1 0.5897 4.290229195265862 19.022826366553215 2.198165734476257 0 0 0
321 1 1 0.5897 9.063290208433186 18.476313555294826 2.9427218820339665 0 0 0
266 1 1 0.5897 4.73393573153059 22.32937948324922 2.9858158764192178 0 0 0
226 1 2 -1.1794 5.096577693943048 19.459558102011915 1.9236791403521012 0 0 0
187 1 2 -1.1794 2.921868653988392 23.01987115634747 2.5876833852603887 0 0 0
228 1 1 0.5897 5.106307699956641 20.278620201015368 2.4188551195352552 0 0 0
189 1 1 0.5897 2.9357177580588125 22.996011376136035 1.6308267187042516 0 0 0
249 1 1 0.5897 5.375056462593187 21.59488861134535 4.99822519228075 0 0 0
695 1 1 0.5897 0.8622797952746282 20.91691894479865 3.1503977807763706 0 0 0
818 1 1 0.5897 8.308345239551857 22.46701429698911 2.083963020015228 0 0 0
265 1 2 -1.1794 5.457341352016814 21.803160788463725 3.3264587599897517 0 0 0
267 1 1 0.5897 6.176797775196173 21.959577067175683 2.714707659452617 0 0 0
345 1 1 0.5897 0.6980845666962943 19.26629389315738 0.9453694020360556 0 0 0
694 1 2 -1.1794 0.8040346794526743 21.802573023365753 3.5086329393058335 0 0 0
817 1 2 -1.1794 7.500499764632322 22.844273953517593 1.7356004067254693 0 0 0
413 1 1 0.5897 0.8384481327021521 21.221761444916265 5.102856002424091 0 0 0
448 1 2 -1.1794 7.21441028110825 17.865212004759414 3.148678834699868 0 0 0
450 1 1 0.5897 6.431168502163746 18.310570575878913 2.8254714883946694 0 0 0
294 1 1 0.5897 3.285592438534445 17.82268373378397 3.645950109841297 0 0 0
602 1 1 0.5897 4.990006388619092 19.364022755965646 0.23569614717255488 0 0 0
292 1 2 -1.1794 3.016810706853501 17.94806126918758 2.735799727915146 0 0 0
39 1 1 0.5897 3.612068796123264 22.845711845477354 10.106283673722928 0 0 0
33 1 1 0.5897 6.742468793933133 21.948045793458427 6.7098623689580155 0 0 0
554 1 1 0.5897 5.76161546292176 21.815524549368558 10.501322870693889 0 0 0
85 1 2 -1.1794 7.210418004504835 22.63595015471199 9.715610491447228 0 0 0
96 1 1 0.5897 0.8109278923740726 21.71926778568206 10.912082194071187 0 0 0
340 1 2 -1.1794 0.8829006597439927 18.40767248075778 6.381690934205836 0 0 0
387 1 1 0.5897 5.294904851285793 19.254496396663612 6.379515735003429 0 0 0
240 1 1 0.5897 4.083308071039479 17.727346352315337 5.8936929262606235 0 0 0
553 1 2 -1.1794 4.946364542563068 21.595057735813352 10.95197330701239 0 0 0
38 1 1 0.5897 2.150418190021617 22.617198754931966 9.784568909250844 0 0 0
31 1 2 -1.1794 7.407939840331874 22.563004811053414 7.018399119008211 0 0 0
87 1 1 0.5897 7.874296684505135 21.970480930877365 9.896273908063643 0 0 0
700 1 2 -1.1794 3.0945962398504214 22.457717561628925 6.8510957049003975 0 0 0
32 1 1 0.5897 8.22275819423475 22.25344072910052 6.622737896104286 0 0 0
341 1 1 0.5897 1.7103860520170258 18.167550172844287 5.964647167769586 0 0 0
95 1 1 0.5897 0.14700641245115154 22.046294433433825 9.591327211619022 1 0 0
86 1 1 0.5897 7.077446504168304 22.59148783748515 8.768677425346926 0 0 0
555 1 1 0.5897 4.793160957419737 20.675598733572862 10.734681265036818 0 0 0
386 1 1 0.5897 6.006964848474174 17.971646290816732 6.752436287011906 0 0 0
701 1 1 0.5897 2.9713813280671513 22.728826767998072 7.760847271124945 0 0 0
414 1 1 0.5897 0.3658840755897744 20.29805792280958 6.2052916582773205 0 0 0
342 1 1 0.5897 1.0744584216267152 18.39577780438266 7.319508449095313 0 0 0
385 1 2 -1.1794 5.240865888431752 18.502876377574818 6.969706705928895 0 0 0
102 1 1 0.5897 5.465850776766262 19.090311137115442 8.751191815523393 0 0 0
405 1 1 0.5897 1.1607656268518687 19.70295654657638 9.498032785653244 0 0 0
100 1 2 -1.1794 5.664926132197456 19.06881367269311 9.687273250767506 0 0 0
37 1 2 -1.1794 2.8838165169679026 23.203456261099703 9.598374045615879 0 0 0
702 1 1 0.5897 2.2830465600207854 22.003743187127036 6.623966441475251 0 0 0
94 1 2 -1.1794 0.9081322337513252 21.603603999575355 9.966830846076347 0 0 0
404 1 1 0.5897 1.8247173325797448 18.403101807451765 9.899579078843214 0 0 0
101 1 1 0.5897 6.376766442445504 18.433835408428234 9.766734021321524 0 0 0
403 1 2 -1.1794 1.1727322331433838 18.766554163076457 9.30030998910868 0 0 0
248 1 1 0.5897 4.483291893101885 21.579724608414942 6.221623516254838 0 0 0
247 1 2 -1.1794 5.308615537687508 21.23347688062017 5.882140050322137 0 0 0
383 1 1 0.5897 4.176854480902356 17.968226600129157 10.293555161439151 0 0 0
412 1 2 -1.1794 0.62553950952787 21.203600923494314 6.035958028767478 0 0 0
765 1 1 0.5897 6.118017350140657 18.53173997217231 13.956369786535642 0 0 0
381 1 1 0.5897 1.351922610825704 22.25239099575557 13.35023991713018 0 0 0
787 1 2 -1.1794 7.6520998062758405 22.48806360096308 14.158233905295095 0 0 0
736 1 2 -1.1794 2.8463778881386217 22.956301033373496 14.247404758579698 0 0 0
738 1 1 0.5897 3.6098609616606043 22.45211668615636 13.966035184481825 0 0 0
788 1 1 0.5897 7.7619646953404535 22.612704538197253 15.100953062789973 0 0 0
502 1 2 -1.1794 0.7081193114771516 19.18361996046772 13.922340819573977 0 0 0
379 1 2 -1.1794 0.8028697239841727 21.680323635939143 12.813999234878958 0 0 0
88 1 2 -1.1794 5.050000711309484 21.4856120981554 13.884689831900939 0 0 0
380 1 1 0.5897 1.0013974697778338 20.797086939364917 13.124819975075093 0 0 0
763 1 2 -1.1794 5.278986976204469 18.756251833464336 14.358797880603081 0 0 0
89 1 1 0.5897 5.045525046159329 21.5211349791618 12.928099898074995 0 0 0