LAMMPS data file via write_data, version 30 Jul 2021, timestep = 21000000

864 atoms
2 atom types
576 bonds
1 bond types
288 angles
1 angle types

0.5986831767598293 17.608889223243093 xlo xhi
1.796700972672495 21.83247682733185 ylo yhi
0.730392077290535 21.482803722702183 zlo zhi

Masses

1 1.00794
2 15.9994

Pair Coeffs # lj/cut/tip4p/long/omp

1 0 0
2 0.21084 3.1668

Bond Coeffs # harmonic/omp

1 450 0.9572

Angle Coeffs # harmonic/omp

1 55 104.52

Atoms # full

823 1 2 -1.1794 4.555399239232185 5.953270372505176 3.8936149177215444 2 7 4
706 1 2 -1.1794 1.8253004430432402 4.017154344423675 5.344154714576129 -4 -3 -4
824 1 1 0.5897 4.838551180493583 6.1599044541922785 4.784364823175451 2 7 4
708 1 1 0.5897 2.083990937336347 3.09970031171418 5.256055536773682 -4 -3 -4
725 1 1 0.5897 3.9171623884501523 2.8463299334536463 3.641079993453055 3 -8 2
220 1 2 -1.1794 2.6199141606741576 1.9385050923002716 2.6111781091464157 -3 -1 3
550 1 2 -1.1794 0.6301225012433677 5.80921532288449 1.6167195210581604 3 7 -6
825 1 1 0.5897 4.427047553833843 5.004674749849917 3.896558590753634 2 7 4
221 1 1 0.5897 2.815327755690434 2.339109352912108 1.7640425584853268 -3 -1 3
724 1 2 -1.1794 4.757054344937283 3.2749068713516283 3.8060446828650494 3 -8 2
551 1 1 0.5897 0.6598285965406063 5.485736929614927 2.5171566220268167 3 7 -6
374 1 1 0.5897 3.418172519613136 5.508885558979717 7.374692295099674 8 10 4
698 1 1 0.5897 0.9698489176836925 2.960464561977603 8.19899073339785 6 -1 -9
143 1 1 0.5897 3.4631263906175143 6.100042584080537 10.640326906154565 1 5 4
54 1 1 0.5897 1.9307743036542173 2.478466213763557 10.259108481437623 -5 1 4
375 1 1 0.5897 3.461311518597361 4.164606948818928 8.06977901983932 8 10 4
142 1 2 -1.1794 3.792958479777378 5.227078377845991 10.853517694958793 1 5 4
144 1 1 0.5897 4.494636819674394 5.074446407748473 10.220515907718257 1 5 4
218 1 1 0.5897 1.2009645200839187 5.666109233679977 8.255724004070611 7 1 -7
373 1 2 -1.1794 2.8602330089327492 4.860997351511063 7.805113439037893 8 10 4
52 1 2 -1.1794 1.6144946053050462 3.366209481908612 10.091217487036491 -5 1 4
53 1 1 0.5897 2.392388798678624 3.9178400785214262 10.174244426314456 -5 1 4
707 1 1 0.5897 2.1074058186004816 4.262496009339089 6.225371167255866 -4 -3 -4
255 1 1 0.5897 4.708710099166424 2.686885227719343 9.247416850529712 2 11 -5
634 1 2 -1.1794 4.616986662895291 2.316401091220622 11.0084577200224 -5 3 1
612 1 1 0.5897 3.0007858691030274 4.456932574529201 13.751459385612053 1 3 -2
148 1 2 -1.1794 3.863541714486315 4.248259087455768 15.369549861939934 -9 -1 3
863 1 1 0.5897 1.3014305761947558 2.997070615864355 13.160677205060697 4 -7 4
610 1 2 -1.1794 2.5212582720814423 4.117360465962539 12.995779274019442 1 3 -2
345 1 1 0.5897 1.0932516495671818 5.769042669747085 15.658223791360648 3 1 0
611 1 1 0.5897 3.0906367786643374 4.300176543306493 12.248289735773419 1 3 -2
149 1 1 0.5897 4.516334312819451 4.933973590647279 15.510875089536524 -9 -1 3
168 1 1 0.5897 1.0438282286684983 5.394192871954944 12.700756138039397 -2 -3 -1
864 1 1 0.5897 0.8349150833054892 1.8266528221905796 14.000072956869385 4 -7 4
343 1 2 -1.1794 1.7097637526045895 6.4935893967156355 15.764504044475977 3 1 0
150 1 1 0.5897 3.2611878320190884 4.334367249057756 16.108525704534472 -9 -1 3
635 1 1 0.5897 4.200430341333909 1.9779949982893088 11.801101468125415 -5 3 1
108 1 1 0.5897 3.9197171008783562 6.7975326539774725 13.504000595242662 0 0 4
862 1 2 -1.1794 0.6582141212789452 2.288417080944244 13.180391005223287 4 -7 4
180 1 1 0.5897 3.1031029356880335 4.0705838800593135 18.1780591499071 -5 6 2
178 1 2 -1.1794 2.3821723056361996 3.654788288442578 17.705111466177293 -5 6 2
123 1 1 0.5897 4.0165650877433094 5.970903318029934 19.346632569996444 2 -1 1
820 1 2 -1.1794 3.158035011508134 6.511581631482669 21.008461276985926 2 -4 5
179 1 1 0.5897 1.592765898624867 3.9714689392207174 18.144267269951076 -5 6 2
549 1 1 0.5897 3.252404016238209 2.0474393395118606 19.807878229659206 9 3 2
121 1 2 -1.1794 4.4330904386550625 5.306135272791906 18.7980916284675 2 -1 1
439 1 2 -1.1794 2.4579040613994763 3.347074262688677 20.787678021319586 0 1 2
441 1 1 0.5897 1.5105522252866501 3.464523794347765 20.858792113030102 0 1 2
440 1 1 0.5897 2.807590498792236 4.237157077456182 20.745481716384496 0 1 2
845 1 1 0.5897 0.6637958390663262 6.581117205601316 18.602110865950053 4 3 3
822 1 1 0.5897 2.2046291497352852 6.497353992325743 21.09309202850863 2 -4 5
377 1 1 0.5897 3.6030390925503792 10.066257866738011 5.795318220060498 1 5 3
826 1 2 -1.1794 3.084502320290377 10.649046866956613 3.1102845229280818 1 0 1
445 1 2 -1.1794 2.21170226500858 7.468021923519947 4.26383366402748 3 1 0
446 1 1 0.5897 2.6694939386815726 8.165279115563628 4.733545776552823 3 1 0
828 1 1 0.5897 3.047608946483661 11.418198453508468 2.5416418389413975 1 0 1
827 1 1 0.5897 2.543124712572884 10.882051116939374 3.8645717452841755 1 0 1
77 1 1 0.5897 1.8153501134404941 9.217359361952557 2.544082999223293 -8 -3 -6
692 1 1 0.5897 4.0531569167959836 9.197053642885631 2.453721889532227 2 1 2
76 1 2 -1.1794 1.1676132330393372 8.905551970158562 1.9119705351412657 -8 -3 -6
78 1 1 0.5897 1.0562761267659067 7.97785290613804 2.1201932260435887 -8 -3 -6
691 1 2 -1.1794 4.358170984239023 8.391355114284448 2.0364421244956876 2 1 2
601 1 2 -1.1794 1.1155780005068965 10.766134115899623 5.335287380840005 4 4 -1
693 1 1 0.5897 4.407848469132123 7.755384018505158 2.7501510108633225 2 1 2
821 1 1 0.5897 3.44778800764328 7.1451568899337 0.9125101588656275 2 -4 6
378 1 1 0.5897 4.497508698991471 8.999303020397821 5.200604567928157 1 5 3
376 1 2 -1.1794 3.676642106220768 9.11903257241211 5.678275487396448 1 5 3
447 1 1 0.5897 2.892940723799626 6.825952738192791 4.06391003376004 4 1 0
546 1 1 0.5897 2.29683153794018 10.137113514495518 9.178911201355312 -7 7 2
481 1 2 -1.1794 4.722924767510861 8.404813860640818 8.276599336841606 3 3 -4
545 1 1 0.5897 2.1812440798705826 10.925794023424002 10.46609500685109 -7 7 2
170 1 1 0.5897 2.255924583168832 7.813688702227434 10.741401506954194 -6 6 -6
544 1 2 -1.1794 2.700856199677331 10.85591126534198 9.66518807213972 -7 7 2
169 1 2 -1.1794 3.1608620315042795 7.782977631878744 10.430838227113687 -6 6 -6
483 1 1 0.5897 4.083789037009386 8.239039356879086 8.969676866193458 3 3 -4
16 1 2 -1.1794 1.1174182980284368 9.125987825286007 7.851383260923515 -1 5 1
17 1 1 0.5897 0.8678599377843981 8.243654970288933 8.12630326567227 -1 5 1
482 1 1 0.5897 4.193557150540718 8.566689030655198 7.495639011533222 3 3 -4
602 1 1 0.5897 1.0470361068710505 10.51215001555707 6.2556853378508865 4 4 -2
171 1 1 0.5897 3.6120297781151156 8.457095369607485 10.93908586440188 -6 6 -6
739 1 2 -1.1794 3.2211765882068932 11.010136369633846 13.243068124125418 1 -2 -3
266 1 1 0.5897 2.061575330803026 8.803145415930995 15.48957452656112 -2 3 -3
741 1 1 0.5897 3.974548491921676 10.652068764323529 12.773468470088714 1 -2 -3
802 1 2 -1.1794 1.0335158327473974 10.330023184987011 11.893554599685148 3 2 -4
267 1 1 0.5897 2.231879984101178 9.932370442249981 14.495608813812547 -2 3 -3
804 1 1 0.5897 0.962246194410751 9.392533456963482 11.713580476008392 3 2 -4
265 1 2 -1.1794 1.6455384246849314 9.607322241969158 15.178900895527061 -2 3 -3
107 1 1 0.5897 2.7361964043499043 7.13253839585433 14.38671031809961 0 0 4
674 1 1 0.5897 4.398276112584101 8.460934796501748 14.250697258193759 -2 -8 -2
803 1 1 0.5897 1.8388276260084109 10.4158949565925 12.403861262214253 3 2 -4
106 1 2 -1.1794 3.1527379225471828 7.367817790366558 13.55758405032344 0 0 4
740 1 1 0.5897 3.592829048562193 11.678269016464398 13.819067826935074 1 -2 -3
163 1 2 -1.1794 1.6318968199682597 9.323860205786044 20.04998783881697 -1 0 4
498 1 1 0.5897 1.955461695517991 10.946219253522129 16.803936374045584 -1 3 0
165 1 1 0.5897 1.548658741329119 9.328764902608754 21.0036002394128 -1 0 4
846 1 1 0.5897 1.245486611615736 7.955747837117103 18.855435145974763 4 3 3
164 1 1 0.5897 1.3026549871897584 10.179905820186109 19.775907627906054 -1 0 4
590 1 1 0.5897 4.316579279509826 8.394594231676084 18.114326851082915 4 1 1
605 1 1 0.5897 3.002848594778401 10.252656803689675 19.989116933892575 -2 0 1
496 1 2 -1.1794 2.669929837262295 11.079476912537158 17.42691553638995 -1 3 1
589 1 2 -1.1794 3.714205589236519 8.450316407287843 17.3724733526469 4 1 1
497 1 1 0.5897 3.4031423284163647 11.380821245165938 16.890332809355307 -1 3 1
591 1 1 0.5897 3.378958523883704 9.346436122900437 17.402321985751453 4 1 1
844 1 2 -1.1794 0.760674037191114 7.446967561631832 18.205504054479494 4 3 3
604 1 2 -1.1794 3.867557606228618 10.650619604895315 20.090387867994632 -2 0 1
606 1 1 0.5897 4.481480648083096 9.929527135136329 19.95087750314065 -2 0 1
321 1 1 0.5897 1.2762384187142595 11.803968557169867 18.691021559341785 4 0 -2
344 1 1 0.5897 1.5580049139773702 6.809090825165469 16.6554299255019 3 1 0
243 1 1 0.5897 2.543798477632156 13.582558616365436 1.1187500813511038 -4 -3 -3
242 1 1 0.5897 1.4239991882962046 13.502546105265647 2.134513848918364 -4 -3 -3
285 1 1 0.5897 1.6337297737770637 14.701607518456907 4.560479397432619 5 -2 1
733 1 2 -1.1794 3.2721458355085487 16.01900340843254 2.1126999537706763 -4 -2 -3
284 1 1 0.5897 2.01923720012178 15.64871255930259 3.444024004782962 5 -2 1
858 1 1 0.5897 1.7598458688137413 16.287295569596623 5.77540886205116 1 -2 -4
283 1 2 -1.1794 1.3222952878412602 15.46488913118172 4.073938220938942 5 -2 1
241 1 2 -1.1794 2.303224351235535 13.172278214051051 1.9494712519269792 -4 -3 -3
859 1 2 -1.1794 0.679301385601966 16.389838083601553 1.0365407842041283 -7 -5 2
126 1 1 0.5897 3.9488291318486612 13.606320207537042 2.749377385651008 2 5 3
734 1 1 0.5897 3.882990935798313 15.973076092841806 1.377125637368744 -4 -2 -3
124 1 2 -1.1794 4.773624925071332 13.345688460092651 3.1593869180887237 2 5 3
735 1 1 0.5897 3.6971588033616327 16.60231107240154 2.741531860339802 -4 -2 -3
668 1 1 0.5897 1.600720658267791 12.413355636869614 5.496114743051034 -5 -5 -3
861 1 1 0.5897 1.5516427511255468 16.14528128172143 1.3456328378258233 -7 -5 2
401 1 1 0.5897 4.763161041760028 12.071885526060464 4.765454561837354 -4 -6 4
400 1 2 -1.1794 4.42194887852486 11.89820714086492 5.642789635709297 -4 -6 4
669 1 1 0.5897 2.7892305836512117 13.256775471057646 5.906242683546262 -5 -5 -2
94 1 2 -1.1794 4.798577552219075 15.094325552375 5.291310390914678 -8 3 5
667 1 2 -1.1794 1.8413063413589394 13.295697349967037 5.778786040902467 -5 -5 -2
95 1 1 0.5897 4.7813691616803204 14.48201992922144 4.555711761486443 -7 3 5
857 1 1 0.5897 2.384172595546519 15.962889369445348 7.115963366344558 1 -2 -4
856 1 2 -1.1794 1.9008423238004808 16.6462703769163 6.651529749869403 1 -2 -4
775 1 2 -1.1794 1.056714921369362 12.582117210660948 8.503043304651557 12 -1 4
744 1 1 0.5897 3.8038112949838463 14.101548406979788 8.532865740870557 -2 0 3
246 1 1 0.5897 3.1971058288123984 13.329675282590893 10.954769066434416 -7 2 1
742 1 2 -1.1794 3.4739459186538855 14.69339043488439 7.856681836041404 -2 0 3
743 1 1 0.5897 4.196085365268533 14.771749696650877 7.233212793529043 -2 0 3
777 1 1 0.5897 1.7680201093965047 12.179065365810741 9.000948011049463 12 -1 4
484 1 2 -1.1794 4.575826953585583 13.134275823519243 9.804714209942452 4 -1 -4
486 1 1 0.5897 4.506532458951829 12.183612646529708 9.892729752678557 4 -1 -4
776 1 1 0.5897 1.467623183860705 12.870270254679928 7.68789222740198 12 -1 4
464 1 1 0.5897 2.282294967945879 16.603348952043994 10.830662296787448 7 3 -6
30 1 1 0.5897 0.6755485262605723 15.420180605681587 10.042928266112668 -10 5 6
365 1 1 0.5897 2.7113772877144457 14.071644970105773 14.056225177575657 1 6 3
654 1 1 0.5897 1.0675964645884315 15.77085210637217 15.529523298649051 3 -2 -5
364 1 2 -1.1794 3.6093978666448745 13.74006047023248 14.052601731468979 1 6 3
366 1 1 0.5897 4.088572098778566 14.351060945438666 13.492804133527786 1 6 3
176 1 1 0.5897 3.9568623823105735 13.935233961660026 15.80054163557626 -9 0 6
730 1 2 -1.1794 0.8357341217694507 14.392432342573029 14.192188842736186 -1 7 -8
245 1 1 0.5897 2.619061799571927 13.291776439587718 12.353550000138185 -7 2 1
501 1 1 0.5897 4.695228872066065 16.539454584225417 12.459203817904257 0 -1 -4
244 1 2 -1.1794 2.4182075355418977 13.565903535016881 11.458643666891067 -7 2 1
463 1 2 -1.1794 1.6865757926888643 16.153770359433786 11.430099245960971 7 3 -6
465 1 1 0.5897 1.9894356137037874 15.245697525031298 11.43328348423264 7 3 -6
290 1 1 0.5897 4.137611462620228 16.14681468359007 15.783349582788968 -8 -9 -8
652 1 2 -1.1794 1.392535786906668 16.655851456817338 15.69542455764151 3 -2 -5
653 1 1 0.5897 2.25730259203739 16.67480388661786 15.285356692681688 3 -2 -5
680 1 1 0.5897 3.76822092117269 14.380761851878487 20.20192624127458 -7 -6 -3
679 1 2 -1.1794 2.812111119297411 14.413932451447405 20.234673791705944 -7 -6 -3
288 1 1 0.5897 3.4224614003608327 16.262921638423528 19.665626331669355 6 -3 5
308 1 1 0.5897 2.2007738387302407 14.173210640107548 17.3187927014516 5 10 -4
681 1 1 0.5897 2.534577864835444 14.225346428920139 19.33816304303336 -7 -6 -3
309 1 1 0.5897 0.7032909352318413 13.987345048401615 17.19599174217404 5 10 -4
175 1 2 -1.1794 3.7509715336508145 14.475338476241285 16.56356497100672 -9 0 6
307 1 2 -1.1794 1.4145612119190398 13.999592364979101 17.836512960866866 5 10 -4
177 1 1 0.5897 4.240181309245838 14.07313921026109 17.281348229988453 -9 0 6
207 1 1 0.5897 4.40808474736259 12.179848670780627 18.887265148514565 -6 3 -3
412 1 2 -1.1794 0.9785063535506395 19.057859412100385 1.4668551238907814 -2 -2 3
65 1 1 0.5897 3.129610760842759 17.890087371018318 4.261289006931044 3 -3 -7
133 1 2 -1.1794 4.781740786819762 20.154757555689407 2.7952768465883886 3 -6 -3
414 1 1 0.5897 0.894426868823484 18.11933253027582 1.2983127309276579 -2 -2 3
765 1 1 0.5897 1.3405419241229377 19.16974575382767 3.274929208661969 -11 -1 -2
135 1 1 0.5897 4.473149061282232 19.72588134638052 1.9970558330845103 3 -6 -3
764 1 1 0.5897 0.8317862952617605 18.15240662035191 4.274064707767383 -11 -1 -2
64 1 2 -1.1794 4.059769069362815 17.721353509087095 4.11079614856858 3 -3 -7
222 1 1 0.5897 3.3806448750311215 21.423957631226095 2.7975942270632754 -3 -2 3
763 1 2 -1.1794 1.5161433996631914 18.808958323109437 4.144010398699714 -11 -1 -2
66 1 1 0.5897 4.33300365982878 17.1954668032089 4.8625440293595386 3 -3 -7
192 1 1 0.5897 2.0456263955046046 20.401646602413273 5.264917562085824 5 5 -7
467 1 1 0.5897 0.9839777752383629 21.772282498812842 3.0903952278168423 3 -6 1
134 1 1 0.5897 4.692547574987962 19.48768129688716 3.4759808395564207 3 -6 -3
190 1 2 -1.1794 2.493941201944832 21.106409897149895 5.732494782515957 5 5 -7
300 1 1 0.5897 2.692321784599314 19.08823424013238 0.8058471608577986 -5 -3 6
3 1 1 0.5897 1.3611664971090083 18.086677675594856 7.410903289847302 -3 -9 4
25 1 2 -1.1794 3.9327098564513028 19.011615666209188 7.593679178078921 -4 4 8
1 1 2 -1.1794 1.1249154619484347 18.982488276182572 7.651763275522661 -3 -9 4
201 1 1 0.5897 3.629659077935213 18.252290853125764 10.589313839070742 6 -4 -1
384 1 1 0.5897 1.927161165539027 20.33260621164751 10.460897990284563 -5 -2 0
191 1 1 0.5897 1.8991340929385272 21.337312386614464 6.446127716567337 5 5 -7
382 1 2 -1.1794 2.4184659442778496 20.5333940723076 9.66424565772761 -5 -2 0
383 1 1 0.5897 1.8153299741481839 20.323598176620997 8.951099799639955 -5 -2 0
26 1 1 0.5897 3.050992320402828 19.29047076190436 7.346456319707572 -4 4 8
200 1 1 0.5897 4.166337568660827 17.062740278309782 9.82182677006153 6 -4 -1
27 1 1 0.5897 3.7989768412966156 18.424993815485742 8.338194048697037 -4 4 8
199 1 2 -1.1794 3.429188196585858 17.672544013654907 9.854452782964762 6 -4 -1
56 1 1 0.5897 4.6048352173386045 21.117177064917577 6.03507031426528 -1 -7 2
709 1 2 -1.1794 1.0002214140228027 20.583990962467645 15.153014916066045 -6 -5 -1
277 1 2 -1.1794 4.2643215757379185 18.40153114829085 12.369600529983819 1 2 1
372 1 1 0.5897 3.2847197058516517 21.654880179435416 13.827781772796447 2 9 -2
278 1 1 0.5897 3.705167124762199 19.02864255592995 12.82828681500575 1 2 1
710 1 1 0.5897 1.8451922013630413 20.631653876232363 15.600303548579642 -6 -5 -1
581 1 1 0.5897 0.8375979459152655 20.652766121957605 12.45967760163588 -3 -5 -2
370 1 2 -1.1794 4.069884874400614 21.22075683305357 13.4940666135824 2 9 -2
580 1 2 -1.1794 1.0604883493809205 19.82488220078092 12.03396057982558 -3 -5 -2
582 1 1 0.5897 0.9679228881891038 19.16772910503395 12.723807190176874 -3 -5 -2
291 1 1 0.5897 4.528329407717655 17.587434449231594 15.530271707953657 -8 -9 -8
289 1 2 -1.1794 4.1011836326486755 16.83561656141243 15.119618350391903 -8 -9 -8
371 1 1 0.5897 4.787638887686922 21.59941991493845 14.001793684386575 2 9 -2
61 1 2 -1.1794 3.3928927264043813 20.66911561058427 16.607418368151432 2 -5 11
298 1 2 -1.1794 3.585200365084593 19.266418034956722 21.262716388009103 -5 -3 5
547 1 2 -1.1794 3.653397473830547 21.294609806021256 19.442345184297825 9 2 2
299 1 1 0.5897 3.823063387005104 18.499477318473183 20.741616794976647 -5 -3 5
548 1 1 0.5897 3.5921204470733668 20.646746768650708 20.144365343355254 9 2 2
419 1 1 0.5897 1.6047846228196494 17.545002910659058 17.030757487404994 -7 -2 4
418 1 2 -1.1794 1.7267012759605336 18.094266611169573 17.805209780576675 -7 -2 4
762 1 1 0.5897 1.7748592115555537 21.04906110418787 18.67698784176821 4 -2 0
760 1 2 -1.1794 0.936255476956344 20.663126958841985 18.42378094632062 4 -2 0
420 1 1 0.5897 2.4972123881928887 17.72862138094393 18.239867532644162 -7 -2 4
714 1 1 0.5897 4.799454531258312 19.57806252211519 16.319349480733926 -7 -2 3
761 1 1 0.5897 1.1676683954799931 19.818101968005543 18.038096839255488 4 -2 0
286 1 2 -1.1794 3.574462201966219 17.187298386507923 19.46875503911627 6 -3 5
62 1 1 0.5897 3.0504624249099854 20.261369422908558 17.402907306022062 2 -5 11
63 1 1 0.5897 3.5197947887471503 21.587896841689044 16.844186187001498 2 -5 11
287 1 1 0.5897 4.452777638152065 17.21049071181052 19.08881245282072 6 -3 5
718 1 2 -1.1794 7.371753192021506 5.891800705993742 3.342272271314368 9 5 -3
202 1 2 -1.1794 7.914416892081286 3.860684978252272 1.5188294042790416 -7 5 11
203 1 1 0.5897 7.106872441080192 3.346744992708829 1.5118303828027646 -7 5 11
87 1 1 0.5897 7.784249160830831 2.4524390592380123 4.054835265384721 -5 6 3
204 1 1 0.5897 7.735365601503625 4.580816243709743 2.1235350893081737 -7 5 11
720 1 1 0.5897 7.849405482321412 5.671426792764205 4.142038211248471 9 5 -3
748 1 2 -1.1794 5.604954376270202 2.4254573852001666 1.0641333926213659 -3 4 2
719 1 1 0.5897 6.450601945444543 5.766858208203018 3.5707572238073384 9 5 -3
726 1 1 0.5897 5.278848479040153 3.0888545886117713 3.025377649498711 3 -8 2
85 1 2 -1.1794 8.20043060119501 3.1111344093337854 4.610909201947136 -5 6 3
86 1 1 0.5897 8.967468798244981 3.395103332233159 4.113597124698753 -5 6 3
57 1 1 0.5897 5.328883352530248 2.2782254594592395 5.45582431539875 -1 -6 2
745 1 2 -1.1794 9.020880892990089 6.663575331003075 5.511333797594613 4 4 -8
363 1 1 0.5897 5.842122764720257 5.645682893533445 6.844895591003407 -2 -4 -2
251 1 1 0.5897 8.979344337831078 3.1272325823472733 9.636159295093568 2 -4 5
584 1 1 0.5897 6.780219101929935 5.672137497108801 9.023763467586159 2 -6 4
583 1 2 -1.1794 6.303561297346284 5.667488222496798 9.853892175033891 2 -6 4
385 1 2 -1.1794 7.050943479148598 4.383321176205532 7.109759371629905 -6 1 1
585 1 1 0.5897 6.409590061562602 6.555020168917127 10.196469682014197 2 -6 4
216 1 1 0.5897 8.560276197141567 1.8082211860987736 8.369350660225415 -2 2 1
253 1 2 -1.1794 4.987325428066933 3.090772528011512 8.425492565335727 2 11 -5
386 1 1 0.5897 6.447834297891527 3.827563655907234 7.603465361455734 -6 1 1
387 1 1 0.5897 7.217660111958546 3.8979767699369527 6.301692021725528 -6 1 1
361 1 2 -1.1794 5.011452003437167 6.113856157881464 6.760504047785576 -2 -4 -2
747 1 1 0.5897 9.072676531805643 6.122826360417203 6.29951135853967 4 4 -8
417 1 1 0.5897 9.006060521962153 2.827859840459966 6.401491833432928 -2 2 -2
639 1 1 0.5897 6.647140286652871 4.547087406863712 11.089274126206076 -8 6 7
254 1 1 0.5897 4.8838338598705215 2.3996658120722083 7.771297168634886 2 11 -5
487 1 2 -1.1794 9.085250482735916 6.357323314161308 8.423907361439802 4 -7 3
579 1 1 0.5897 5.87460780714247 6.597855504221391 12.809666014286208 0 4 -5
831 1 1 0.5897 7.176479970020166 3.797906936643033 14.653239350240964 1 7 1
773 1 1 0.5897 8.568810953526018 2.337611871603057 15.78455723937348 -1 -8 0
829 1 2 -1.1794 8.063564493369402 4.157572814440426 14.646310688376298 1 7 1
578 1 1 0.5897 5.75565795962434 6.251249185243545 14.278608194145036 0 4 -5
577 1 2 -1.1794 5.534278556897279 5.9296343289535525 13.40461538115538 0 4 -5
637 1 2 -1.1794 6.787544415651492 3.8218880302131644 11.698110753708324 -8 6 7
830 1 1 0.5897 8.13033672283272 4.64743500337887 15.466013371316684 1 7 1
638 1 1 0.5897 6.768855993635437 4.2287490088010795 12.564385741113066 -8 6 7
195 1 1 0.5897 5.912545483564652 1.9996881891726375 15.844680521680564 6 0 4
193 1 2 -1.1794 5.876259187837013 2.5702312248523036 15.0768953214928 6 0 4
7 1 2 -1.1794 5.453105933164457 6.369499148891853 16.22576013564705 3 0 1
683 1 1 0.5897 7.706480539109164 2.065111044356298 12.095283413334295 10 1 -6
636 1 1 0.5897 5.175991237166316 3.0296226791437117 11.316906498824519 -5 3 1
194 1 1 0.5897 5.067218981091567 3.069837446117169 15.187188734314944 6 0 4
774 1 1 0.5897 8.924470625116722 2.2093481723787267 17.250572455827857 -1 -8 0
632 1 1 0.5897 7.883969070037925 3.5844227574642344 19.13352362014569 5 10 6
351 1 1 0.5897 7.399255014534763 4.580139405501481 20.72696275620647 -12 -2 -1
338 1 1 0.5897 8.029878975447243 6.641301907995123 17.556408371070702 2 5 -1
349 1 2 -1.1794 7.07138597034291 4.928053573806781 19.897645880055144 -12 -2 -1
337 1 2 -1.1794 8.315647665910184 5.842594931371105 17.112868674001113 2 5 -1
122 1 1 0.5897 5.296234014514873 5.176930579329562 19.19129055599174 2 -1 1
8 1 1 0.5897 5.680578391134832 5.99720571126648 17.077794199723513 3 0 1
350 1 1 0.5897 7.473601253428583 5.793623082965995 19.82473869062147 -12 -2 -1
410 1 1 0.5897 6.658601585673526 1.931756978134647 18.49378773942492 10 5 -4
749 1 1 0.5897 5.436076107888063 2.9706338514155295 21.048046465378373 -3 4 1
631 1 2 -1.1794 8.382992584474827 2.792994467091653 18.931196179502187 5 10 6
212 1 1 0.5897 6.6076832771314615 8.504375542021986 5.621994422573005 6 2 1
430 1 2 -1.1794 6.465201724576012 10.67808926715456 3.6007345206425514 -6 0 -2
518 1 1 0.5897 8.539735985945438 8.601227121438868 4.095786110714215 0 3 -1
852 1 1 0.5897 7.225212117115224 7.37328901567333 2.132851799623274 -7 -3 -1
850 1 2 -1.1794 7.049571339484084 8.151310014702506 1.6035538868714445 -7 -3 -1
851 1 1 0.5897 6.180821290524309 8.440457854854731 1.882815199965335 -7 -3 -1
213 1 1 0.5897 6.298139862020293 9.170903295366832 4.298362613615054 6 2 1
211 1 2 -1.1794 6.217738688482627 8.338257915451155 4.763705702787852 6 2 1
431 1 1 0.5897 6.404400537909585 11.044444910723216 2.7184417094833204 -6 0 -2
432 1 1 0.5897 6.973754247938088 11.322170319896765 4.093530190726899 -6 0 -2
519 1 1 0.5897 8.444201552714661 9.000555546879474 2.6385347225915776 0 3 -1
517 1 2 -1.1794 9.037929462223389 9.012364012957843 3.3893153343469997 0 3 -1
268 1 2 -1.1794 5.786162573209094 11.757349812356404 1.0894277469507152 1 3 6
507 1 1 0.5897 8.313019825485677 7.4956459881880075 9.160443375327736 -1 4 -1
186 1 1 0.5897 5.69023657932449 10.000182920723727 8.517027733788506 -4 8 3
630 1 1 0.5897 8.672933346526984 9.984421284250553 6.650916382037681 3 -4 3
505 1 2 -1.1794 7.932695032790007 8.286064342352095 9.543724813673553 -1 4 -1
184 1 2 -1.1794 6.276318680412859 10.656792786703273 8.893439724500286 -4 8 3
459 1 1 0.5897 8.208137902855333 10.926113365748018 9.724861566655834 2 1 -6
629 1 1 0.5897 8.738432220390107 8.482589776404343 6.4710961834567255 3 -4 3
185 1 1 0.5897 6.3855995433270865 11.30696186882151 8.199386896977801 -4 8 3
628 1 2 -1.1794 8.149285659595169 9.187954643486133 6.7389039093020795 3 -4 3
506 1 1 0.5897 7.739654571729509 8.847823460589947 8.793064124022417 -1 4 -1
689 1 1 0.5897 5.538844937948 10.083377129463397 10.608591830180456 1 1 3
457 1 2 -1.1794 9.089817372291726 11.196695640683645 9.981290825795181 2 1 -6
362 1 1 0.5897 5.086813774396319 6.848120042293104 7.37000561552823 -2 -4 -2
188 1 1 0.5897 6.722339606666195 9.674364932846585 14.15490858167588 -6 2 5
10 1 2 -1.1794 7.165433168187233 7.959365901654631 12.059542382360828 2 7 7
189 1 1 0.5897 8.212752395002376 9.854839920273898 14.350298070694391 -6 2 5
673 1 2 -1.1794 5.22630118229683 8.90604683285347 14.431247770843154 -2 -8 -2
11 1 1 0.5897 7.455269930284627 8.641927012460933 12.664859775193596 2 7 7
688 1 2 -1.1794 5.097819566978244 9.870805896606228 11.431168741610813 1 1 3
187 1 2 -1.1794 7.482794213817786 10.132283289693833 13.796669781097524 -6 2 5
690 1 1 0.5897 5.740137614789468 9.358545031877224 11.922430530812697 1 1 3
429 1 1 0.5897 6.918365527841548 11.790309208946416 13.399472352081125 0 3 1
234 1 1 0.5897 8.950891354662984 7.31151541542484 12.048825323033537 5 2 -1
12 1 1 0.5897 7.537480140705156 8.213736014756021 11.21503751200239 2 7 7
306 1 1 0.5897 8.565604622256316 7.199317567375369 15.733157273662101 3 0 -4
256 1 2 -1.1794 4.946150202167221 11.427924494091092 15.64970832793009 3 -1 1
304 1 2 -1.1794 8.860767148566504 7.546203774198878 14.891221162628765 3 0 -4
675 1 1 0.5897 4.983255532280664 9.651691449637159 14.980116961902683 -2 -8 -2
347 1 1 0.5897 6.965521622698843 8.387715557288312 16.24680738062228 -3 1 -3
161 1 1 0.5897 7.53914828629465 11.478620245438767 18.093522200882862 5 13 3
478 1 2 -1.1794 5.970971194278982 8.95983729899669 19.800544147622382 -7 7 -4
480 1 1 0.5897 6.283165356466925 8.610916835447355 20.635465432160224 -7 7 -4
525 1 1 0.5897 8.699851228275808 7.727498378512921 20.693515558917287 1 -1 4
479 1 1 0.5897 6.7548112332624966 9.010388704907536 19.25341853284383 -7 7 -4
160 1 2 -1.1794 7.344463874066244 11.676715525596489 17.17746073910104 5 13 3
523 1 2 -1.1794 8.631430564866042 7.3674584287923635 19.809203087546155 1 -1 4
504 1 1 0.5897 6.9279987104108764 11.784077010660702 20.50173230492336 -10 3 8
346 1 2 -1.1794 7.427119433868224 8.481011666353918 17.08020912324466 -3 1 -3
264 1 1 0.5897 8.798798848103571 10.601361255571096 20.575022128781505 -2 -1 8
162 1 1 0.5897 8.118479727477737 11.380872640379561 16.698210311231282 5 13 3
348 1 1 0.5897 8.1873148780516 9.024967319084128 16.87392251870528 -3 1 -3
502 1 2 -1.1794 7.605569428134263 11.71028230414489 19.82959030083067 -10 3 8
258 1 1 0.5897 5.596933310725012 11.279759396867641 16.3358898583042 3 -1 1
9 1 1 0.5897 4.8718206763448695 7.101755861710155 16.431293063256103 3 0 1
269 1 1 0.5897 5.098546984797978 11.266774720480583 21.391446267107508 1 3 5
701 1 1 0.5897 7.624436915305271 15.51726280399226 3.1221767741491475 2 2 0
700 1 2 -1.1794 7.489964750415187 14.72096328131696 2.6081977558208145 2 2 0
324 1 1 0.5897 8.579435640705288 13.150950528144508 4.790559031952862 8 -3 0
125 1 1 0.5897 5.224158437165715 12.833502745856437 2.4878252622260306 2 5 3
96 1 1 0.5897 5.640021483648022 14.933007318544432 5.7182227145997055 -8 3 5
323 1 1 0.5897 7.446091402569879 13.411224130372563 3.821073132270015 8 -3 0
702 1 1 0.5897 8.3720917188171 14.442405219040113 2.36205325682998 2 2 0
322 1 2 -1.1794 7.695288297757075 12.862014779489394 4.564441957809356 8 -3 0
510 1 1 0.5897 6.157766524870804 14.540250365496304 1.185247708139339 3 -6 7
576 1 1 0.5897 6.437504017216249 13.46219767821415 7.632804720773439 5 -5 0
325 1 2 -1.1794 6.808720417195163 15.515274414977283 7.627377492238374 6 -7 -4
736 1 2 -1.1794 6.031255504389484 16.476633118309323 10.047700144347202 -2 -2 -1
737 1 1 0.5897 5.8731636581688065 16.16983318630073 10.94055756137908 -2 -2 -1
327 1 1 0.5897 7.755641887199808 15.399307638799892 7.548551655686562 6 -7 -4
326 1 1 0.5897 6.675295446439987 15.790258943383193 8.534510681674522 6 -7 -4
529 1 2 -1.1794 7.160577677036969 13.452885170547468 11.0031658875828 -4 -3 -5
531 1 1 0.5897 7.91405350741484 12.950156395267486 10.693583519424852 -4 -3 -5
574 1 2 -1.1794 6.524687699827597 12.638660023971925 7.152699817878361 5 -5 0
575 1 1 0.5897 7.030069705093332 12.867909452644339 6.372739186777126 5 -5 0
485 1 1 0.5897 5.409499420368145 13.353692403155378 10.220827040754132 4 -1 -4
402 1 1 0.5897 5.168226167076706 12.045159059117111 6.223981295712801 -4 -6 4
427 1 2 -1.1794 6.641621955284553 12.683616177414454 13.60373653869898 0 3 1
500 1 1 0.5897 5.855300793918297 15.696209872342445 12.944255995011519 0 -1 -4
473 1 1 0.5897 5.845721914968401 16.041617891799138 15.052083319651441 -2 2 4
472 1 2 -1.1794 6.760425394878559 15.762852919529628 15.00834654781861 -2 2 4
105 1 1 0.5897 8.176188447136305 13.486085927365627 14.116070695786906 -4 -1 6
428 1 1 0.5897 6.634073483516479 13.13184979106066 12.757959324369699 0 3 1
406 1 2 -1.1794 8.161779068587094 15.679161414777985 12.157591998625424 -4 -2 4
474 1 1 0.5897 6.819092042745144 15.0342796958878 15.626460700595468 -2 2 4
499 1 2 -1.1794 5.004228866019318 15.634906639189142 12.51039393976683 0 -1 -4
408 1 1 0.5897 8.44851577826962 16.589320172480384 12.23308572961032 -4 -2 4
407 1 1 0.5897 8.37234302646597 15.290006942020698 13.006431118412465 -4 -2 4
257 1 1 0.5897 5.312601206714005 12.136271072367334 15.120308858622003 3 -1 1
530 1 1 0.5897 7.542470636431359 14.22400696755981 11.422489238087786 -4 -3 -5
49 1 2 -1.1794 6.189431472033603 16.423699483333976 18.96943626322556 10 -4 -1
539 1 1 0.5897 8.219133964373833 15.01673488449688 17.70153164652871 2 -4 3
270 1 1 0.5897 5.76395461081762 12.625831718237025 21.43986841690305 1 3 5
206 1 1 0.5897 5.781498180364525 12.4911615513771 18.33146801079022 -6 3 -3
509 1 1 0.5897 5.98686756813555 15.172993677804582 20.572919649386822 3 -6 6
205 1 2 -1.1794 4.9299223072404805 12.889267651233252 18.512147013303977 -6 3 -3
540 1 1 0.5897 7.754433667373614 13.594026726453254 17.4732819026492 2 -4 3
50 1 1 0.5897 6.464911440123805 15.683383862556253 18.428734423151887 10 -4 -1
508 1 2 -1.1794 5.627900046633585 14.492035076627108 21.141906519519882 3 -6 6