LAMMPS data file via write_data, version 30 Jul 2021, timestep = 29500000

1008 atoms
2 atom types
672 bonds
1 bond types
336 angles
1 angle types

-3.169824096207998 14.779823095762206 xlo xhi
-0.06303907292475586 22.643038072923943 ylo yhi
0.08363996162255205 19.146358038371623 zlo zhi
-0.18289990553155563 -6.648743447253655 0.0762302692621234 xy xz yz

Masses

1 1.008
2 15.999

Pair Coeffs # lj/cut/tip4p/long/omp

1 0 0
2 0.21084 3.1668

Bond Coeffs # harmonic/omp

1 450 0.9572

Angle Coeffs # harmonic/omp

1 55 104.52

Atoms # full

21 7 1 0.5897 1.1746594732548665 2.3449530264275094 1.1268080627776562 0 0 0
55 19 2 -1.1794 -0.6549872831322361 4.123375273383566 3.6740752567793056 0 0 0
56 19 1 0.5897 -1.2431684668959082 3.6065945522895753 3.123456993902084 0 0 0
57 19 1 0.5897 0.14003920719571283 4.221144725463377 3.1502271620091977 0 0 0
121 41 2 -1.1794 -2.3530915486114967 2.2263504624542674 2.530993603626354 1 0 0
122 41 1 0.5897 -2.174342036166199 1.951600640366133 1.6317384679862956 1 0 0
86 29 1 0.5897 -2.1495467410748113 1.5933958974057323 4.288617726032641 1 0 0
31 11 2 -1.1794 1.3694719586495383 1.1549811994328445 2.423635824578426 0 0 0
32 11 1 0.5897 1.1801732340425692 1.4436104153275662 3.316360752429037 0 0 0
123 41 1 0.5897 -3.2645349118490907 2.518234385233343 2.515993865483929 1 0 0
46 16 2 -1.1794 1.6971868706257283 4.689546327879068 2.519251171817337 0 0 0
33 11 1 0.5897 0.6863154149563395 0.513464949028944 2.2288227626496173 0 0 0
16 6 2 -1.1794 5.340912084597237 4.762217329197353 0.4219021405858769 0 0 0
47 16 1 0.5897 1.8827640318257561 5.175303316743122 1.715645928702137 0 0 0
602 201 1 0.5897 -0.7334773338573273 5.336944564797514 0.457460322834844 1 0 1
6 2 1 0.5897 3.6526859718414766 1.6867513629645239 4.7453896813199465 0 0 0
53 18 1 0.5897 4.327561290547866 3.074565411274943 3.25566609420535 0 0 0
527 176 1 0.5897 3.9104552739990686 1.8666906326977206 0.5299414723146105 0 0 1
54 18 1 0.5897 2.954248804480361 3.708813325543761 3.3144414573006844 0 0 0
71 24 1 0.5897 3.0364545345331413 0.7208467675524246 1.993558194318639 0 0 0
78 26 1 0.5897 0.2114268360924214 2.8443797909685653 4.621056100082213 0 0 0
70 24 2 -1.1794 3.833679119336196 0.4538807400061595 1.5361348294950272 0 0 0
52 18 2 -1.1794 3.6147707129111746 3.2816634847180066 3.859891064530206 0 0 0
158 53 1 0.5897 -4.321331593523402 4.325370684707325 4.493430514524512 1 0 0
114 38 1 0.5897 -3.3602729500063813 5.435696059861223 2.0905497038802903 1 0 0
18 6 1 0.5897 4.790490340881361 3.9893026223745354 0.295969991625633 0 0 0
101 34 1 0.5897 -2.6612201436351404 4.619958604733077 0.10780086598952685 1 0 0
48 16 1 0.5897 2.0286940003192058 5.25032081820179 3.220553608741212 0 0 0
113 38 1 0.5897 -3.1130766467920843 5.577085972960561 3.5773581304290794 1 0 0
19 7 2 -1.1794 1.0927902375797158 2.7555393550679854 0.2660345658791098 0 0 0
134 45 1 0.5897 -2.240836724120108 2.692164604321428 6.533817743249404 1 0 0
135 45 1 0.5897 -1.8030847514654043 3.9576328608829305 7.2401218525023125 1 0 0
60 20 1 0.5897 2.8606326130842055 3.7682616598658356 6.825477361319721 0 0 0
34 12 2 -1.1794 0.1784022374006642 1.419380101896252 7.499316567420323 0 0 0
35 12 1 0.5897 0.3369452797086865 2.049344391235062 8.202306633711327 0 0 0
36 12 1 0.5897 -0.6706458045744683 1.0317346757456758 7.711337877804923 0 0 0
159 53 1 0.5897 -3.2792616163417487 4.254298880017975 5.589276110243691 1 0 0
669 223 1 0.5897 -5.362312682930124 1.6815661940672197 9.22173274252868 1 0 0
124 42 2 -1.1794 -5.067168712241606 2.32203521438675 7.5392702986225 1 0 0
58 20 2 -1.1794 2.119465728991786 4.190509740630267 6.391168072189867 0 0 0
59 20 1 0.5897 1.828659232220204 3.553149765628548 5.738936055971293 0 0 0
44 15 1 0.5897 -0.4264851489515986 5.265131918333198 8.307940223194366 0 0 0
43 15 2 -1.1794 -0.3778721667938387 5.010472261264817 7.38659143300795 0 0 0
126 42 1 0.5897 -4.25387685103177 2.8186571978995123 7.449458381539111 1 0 0
45 15 1 0.5897 0.5265342455247897 4.721729532368997 7.264901228181294 0 0 0
133 45 2 -1.1794 -2.578745277950559 3.4376153640821507 7.030119422091805 1 0 0
68 23 1 0.5897 -2.9896344264543564 0.04242191250145594 7.853403658238289 0 0 0
4 2 2 -1.1794 3.8482921602133233 0.8700501004263678 5.204802882156836 0 0 0
11 4 1 0.5897 2.2455097866556493 5.610905988342359 5.288257492082194 0 0 0
87 29 1 0.5897 -3.3518766788319128 1.2445632938241984 5.13960866869446 1 0 0
77 26 1 0.5897 0.5404874615663608 1.8773060312862244 5.738411922193202 0 0 0
69 23 1 0.5897 -2.551556374534267 1.1083595630657739 8.835082244952039 0 0 0
67 23 2 -1.1794 -2.210006359671429 0.4403590778000561 8.24070914266817 0 0 0
98 33 1 0.5897 -4.291029387120249 5.062756089711899 8.766154984993197 1 0 0
401 134 1 0.5897 2.6513484635404243 0.31704532991744333 8.821759761677257 0 1 0
522 174 1 0.5897 1.9455982653517054 5.5256738453935155 9.12528545573463 0 0 0
97 33 2 -1.1794 -4.3659920695469685 4.564623780890821 9.580063045597594 1 0 0
5 2 1 0.5897 3.0790128459752557 0.32044976258612823 5.055385818442319 0 0 0
90 30 1 0.5897 -5.2002382362858395 1.6198233738541439 5.98754883009952 1 0 0
345 115 1 0.5897 -1.2697882716227427 -0.001717477485693078 5.159105714865612 0 1 0
76 26 2 -1.1794 0.8775994886193521 2.2212773400557095 4.911271207055503 0 0 0
85 29 2 -1.1794 -2.403516950706032 1.3664144099707953 5.18309796969396 1 0 0
157 53 2 -1.1794 -3.729406895401614 4.8706731988379515 5.011573141726403 1 0 0
402 134 1 0.5897 1.4062540206751155 0.04429849234235378 8.004974968345673 0 1 0
574 192 2 -1.1794 0.5502582287545779 0.6010199970576127 11.301358008694129 0 0 0
520 174 2 -1.1794 2.2311046369477303 4.89952576745052 9.79065351411617 0 0 0
560 187 1 0.5897 -4.924911474068811 3.7959510643476513 12.890097263860728 0 0 0
576 192 1 0.5897 -0.07315584619416615 0.720088386770147 12.017750483504676 0 0 0
23 8 1 0.5897 0.605108539212952 2.133854063845822 10.297658975924636 0 0 0
523 175 2 -1.1794 -2.3734827874134035 2.59461830746056 10.160504787443871 0 0 0
627 209 1 0.5897 -7.032501168271494 3.0146087454778785 12.367807572765035 1 0 0
22 8 2 -1.1794 0.3045382997848254 2.8737905324020074 9.76997515900009 0 0 0
535 179 2 -1.1794 -2.0889964144887614 1.039737453071743 12.378126936749032 0 0 0
536 179 1 0.5897 -2.1711991644938546 1.5648720128684361 13.174127267156678 0 0 0
537 179 1 0.5897 -2.1632009079706087 1.6730187855052872 11.664196839367166 0 0 0
575 192 1 0.5897 1.2859970541434018 0.1349360144990112 11.69848806497997 0 0 0
625 209 2 -1.1794 -6.1745002756919725 2.6692935008259195 12.121422253541143 1 0 0
556 186 2 -1.1794 0.402758753258742 3.2837893942098306 13.013663166440598 0 0 0
561 187 1 0.5897 -3.681983332267813 3.638538459883204 13.739924013064277 0 0 0
668 223 1 0.5897 -5.898550741930275 1.7448951893053748 10.635916526626016 1 0 0
558 186 1 0.5897 -0.3989681456796381 3.420199041735373 12.508857224196213 0 0 0
559 187 2 -1.1794 -4.167636177472822 4.279276085006737 13.220416322902368 0 0 0
550 184 2 -1.1794 -1.6704541747028436 4.843318189165203 11.969152679052435 0 0 0
552 184 1 0.5897 -2.6029695248073983 4.678259224822628 12.107952577365277 0 0 0
626 209 1 0.5897 -5.9754372596691905 2.018273253991342 12.794352033196958 1 0 0
557 186 1 0.5897 0.20657287651190526 2.536254057854621 13.578415871746524 0 0 0
524 175 1 0.5897 -2.9717137692771916 3.2243361391602026 9.758203499346385 0 0 0
667 223 2 -1.1794 -5.572268454949464 1.132217834366267 9.976925517857024 1 0 0
99 33 1 0.5897 -4.264216493901589 5.218425414121828 10.271707509015972 1 0 0
525 175 1 0.5897 -1.5040057226681545 2.973305074436905 10.031184041450057 0 0 0
662 221 1 0.5897 -7.718160440861902 4.7466246091164574 14.068530266233717 1 0 0
551 184 1 0.5897 -1.4106401219215225 5.390577529572921 12.710223459714003 0 0 0
589 197 2 -1.1794 -6.096847022124863 0.8968423831216922 14.252378162728444 1 0 0
591 197 1 0.5897 -5.377743563727625 0.27638390701883914 14.37143492660564 1 0 0
593 198 1 0.5897 -8.063445596751798 0.7104588310302378 14.28457416506515 1 0 0
24 8 1 0.5897 1.0055184034347437 3.5214165077376904 9.843411612559054 0 0 0
606 202 1 0.5897 -6.154631552220382 4.6074319255375356 9.726186578906304 1 0 0
547 183 2 -1.1794 -3.8643838841818416 4.768576862619589 16.966705524541275 0 0 0
581 194 1 0.5897 -2.9112828087129223 2.193711400108236 15.327458291230093 0 0 0
580 194 2 -1.1794 -2.477580452983738 2.6502668286993205 14.606631501312794 0 0 0
572 191 1 0.5897 -6.503560348788134 0.039764025280085796 17.404586324007415 0 0 0
582 194 1 0.5897 -1.85152279867222 3.2343265149608027 15.034568355463447 0 0 0
563 188 1 0.5897 -0.9879230265768326 5.080346327446294 15.74515288688411 0 0 0
639 213 1 0.5897 -5.875867976945898 3.8164401585428176 15.11785908656593 1 0 0
590 197 1 0.5897 -5.857279015322375 1.6487357666784395 14.794112230605121 1 0 0
538 180 2 -1.1794 -3.4416613404563146 1.1490309148787645 16.652987533516203 0 0 0
539 180 1 0.5897 -3.156541898599178 1.7113244147161386 17.37321001239495 0 0 0
20 7 1 0.5897 -5.774118232958221 2.110401315831083 18.73863129548537 0 0 -1
540 180 1 0.5897 -4.362269713593219 0.9666183447313226 16.840855943141566 0 0 0
638 213 1 0.5897 -6.484533736972772 2.9500225235330766 16.199789238480093 1 0 0
549 183 1 0.5897 -4.478078041745281 4.115441088497799 16.630598166016423 0 0 0
562 188 2 -1.1794 -1.1164919633968244 4.327688346408223 16.322424766986327 0 0 0
510 170 1 0.5897 0.436027151496841 1.3781406256878441 15.438192625124632 0 0 0
564 188 1 0.5897 -2.0189642898461546 4.412465432569125 16.629721834158932 0 0 0
637 213 2 -1.1794 -5.654871569490565 3.1465779305272275 15.76495832484457 1 0 0
164 55 1 0.5897 -8.375203413051803 1.7023785208308588 18.33540381475889 1 0 -1
628 210 2 -1.1794 -8.194911944032835 2.575010930198714 16.698586653927077 1 0 0
508 170 2 -1.1794 0.42567771884327943 1.0815714148148217 14.528211924463424 0 0 0
165 55 1 0.5897 -9.341836549682018 0.635149951980859 18.80274427939332 1 0 -1
630 210 1 0.5897 -8.475505253082382 1.9026451390089645 16.077783181786558 1 0 0
571 191 2 -1.1794 -5.798420924563889 0.5153016654350886 17.843715946300307 0 0 0
629 210 1 0.5897 -8.83995405203628 3.2755435097117016 16.601473745366928 1 0 0
548 183 1 0.5897 -3.921212756180327 5.49385792687376 16.344596127463614 0 0 0
603 201 1 0.5897 -6.9370597493033035 4.025805369346094 19.10908749868837 1 0 0
163 55 2 -1.1794 -8.57903236905009 1.1407603022644255 19.083225435937912 1 0 -1
601 201 2 -1.1794 -7.57508431332861 4.70856833817726 18.90168054647267 1 0 0
526 176 2 -1.1794 -2.8625651598899386 2.5691364793089138 18.879440870005915 0 0 0
528 176 1 0.5897 -3.755464436356335 2.8931357621427143 18.997287953811515 0 0 0
661 221 2 -1.1794 -7.0646868453729885 5.353160468672389 14.416770395394991 1 0 0
289 97 2 -1.1794 -2.7986944058647367 9.959373102202083 2.5422010783714395 1 0 0
255 85 1 0.5897 -2.3990751199024816 8.907381581128305 4.070734549416541 1 0 0
146 49 1 0.5897 -1.3018990774519277 6.366535532167451 2.2267685310506007 1 0 0
147 49 1 0.5897 -0.955285500795334 7.299161289565425 1.0857684053588874 1 0 0
332 111 1 0.5897 -2.180974598469326 9.216801712110781 1.0404910135825338 1 0 0
145 49 2 -1.1794 -0.5887645684390499 6.606212581377334 1.6351190257714012 1 0 0
112 38 2 -1.1794 -2.9924320145776337 6.031195162497985 2.7434421650919294 1 0 0
291 97 1 0.5897 -3.6643279782442244 10.324568464670772 2.725063324427796 1 0 0
290 97 1 0.5897 -2.18694430050246 10.639477881308416 2.8240290345210743 1 0 0
188 63 1 0.5897 0.9159485462216423 9.704676177441938 1.2969051205563842 0 0 0
200 67 1 0.5897 0.548186952731788 7.743225161430795 2.318927829082093 0 0 0
187 63 2 -1.1794 1.005685815701435 10.263347400521502 0.5248855773632966 0 0 0
12 4 1 0.5897 1.2618596128206914 6.56927141287891 4.651096386941664 0 0 0
222 74 1 0.5897 2.897120189261071 11.214468650298503 2.9338993960241324 0 0 0
245 82 1 0.5897 0.8254215011203447 9.412478196752012 4.0713451536468215 0 0 0
220 74 2 -1.1794 3.489950814005045 10.683482957438406 3.465773525027717 0 0 0
199 67 2 -1.1794 1.0255141535214518 8.548239571647324 2.5197809835640306 0 0 0
221 74 1 0.5897 4.279473276693042 10.597352559414052 2.9316560772926823 0 0 0
224 75 1 0.5897 -0.41205241684241134 11.051283024549116 4.023129232744043 0 0 0
331 111 2 -1.1794 -1.8621786461390208 8.622220634479067 0.3615558282943189 1 0 0
10 4 2 -1.1794 2.17588418298177 6.287553604596354 4.614783324570827 0 0 0
240 80 1 0.5897 3.467502301214468 7.159073696461494 1.3728602660859472 0 0 0
174 58 1 0.5897 3.5313879048948404 9.020454218007703 4.362332983751502 0 0 0
239 80 1 0.5897 3.9390398550382653 8.597557148345945 1.3920270339454 0 0 0
238 80 2 -1.1794 3.8129302968747814 7.834698680509454 1.9562937873511936 0 0 0
201 67 1 0.5897 1.9479294692494564 8.308736432859845 2.4308877692691446 0 0 0
82 28 2 -1.1794 2.332165065912041 6.1917132495157965 0.2057681325949383 0 0 0
189 63 1 0.5897 1.9420925564794196 10.45508697584078 0.4750307608288479 0 0 0
696 232 1 0.5897 4.531456885773299 10.810739527181818 0.23684045154120956 0 0 1
244 82 2 -1.1794 0.7008704838890063 9.999303928050434 4.817176799292459 0 0 0
694 232 2 -1.1794 3.902388491396265 10.089395098688918 0.24861394395986522 0 0 1
9 3 1 0.5897 -0.658803325768234 5.911915146551674 4.563023978455404 0 0 0
191 64 1 0.5897 0.40124605348166353 9.955973036491766 8.852651614127728 0 0 0
172 58 2 -1.1794 3.779918233545745 8.462016916221476 5.098980013475224 0 0 0
109 37 2 -1.1794 -4.3117801910359095 6.193388152840485 7.307241192966906 1 0 0
111 37 1 0.5897 -5.251202288755982 6.374490484073733 7.335852137124451 1 0 0
293 98 1 0.5897 -4.291954202557948 10.54541243003011 7.415482698330888 1 0 0
588 196 1 0.5897 -1.500517540974894 6.823174982161374 9.390872836648592 0 0 0
292 98 2 -1.1794 -5.227993223016236 10.34823469891077 7.447845931234084 1 0 0
173 58 1 0.5897 3.2614135635196764 7.665914614667285 4.982312645046998 0 0 0
246 82 1 0.5897 0.5180926603591232 9.415802716990845 5.5536048117208745 0 0 0
294 98 1 0.5897 -5.343084917670489 9.864245063209156 8.265587251827771 1 0 0
66 22 1 0.5897 2.943558892724309 6.605322530508508 7.618211592119097 0 0 0
64 22 2 -1.1794 2.185215810857306 7.107053718768387 7.917086599962366 0 0 0
65 22 1 0.5897 2.54895060501718 7.755696047208354 8.519706830825838 0 0 0
202 68 2 -1.1794 0.18278082312439192 8.870052607799769 7.235735855359321 0 0 0
203 68 1 0.5897 -0.7065791979008949 8.554958443557988 7.396552692905856 0 0 0
204 68 1 0.5897 0.7418210674065704 8.115389901128768 7.420726879521426 0 0 0
8 3 1 0.5897 -0.4726729209772782 6.368268339783164 5.994334402450686 0 0 0
235 79 2 -1.1794 -2.2386166664538014 7.953783901863712 8.094954806754574 0 0 0
236 79 1 0.5897 -2.9882854353156816 7.470977073030539 7.746989583960419 0 0 0
237 79 1 0.5897 -2.592601534169125 8.81249964309693 8.326388269483255 0 0 0
302 101 1 0.5897 -2.3384016223131057 10.007968702076253 6.067084345226252 1 0 0
301 101 2 -1.1794 -2.5741250724337528 10.695382078058913 6.690033516607423 1 0 0
837 279 1 0.5897 -6.044678687749563 8.056425978571276 9.13676037120295 1 0 0
110 37 1 0.5897 -4.173256922625235 5.7784798273400115 6.455903629279757 1 0 0
303 101 1 0.5897 -1.7673163326718342 11.19571205583629 6.81207294289345 1 0 0
228 76 1 0.5897 1.7298613787886037 11.142895816664437 5.754078007122919 0 0 0
7 3 2 -1.1794 -0.5073097370877697 6.693289818708016 5.094708892557374 0 0 0
258 86 1 0.5897 -5.250092095098421 9.134725153748592 6.045614041199424 1 0 0
253 85 2 -1.1794 -2.5131964990574582 8.60689531683221 4.972309124248348 1 0 0
257 86 1 0.5897 -4.185488089289025 8.602310933719162 5.1103893933608315 1 0 0
254 85 1 0.5897 -1.8556531557354972 7.919888806922686 5.081478403793793 1 0 0
663 221 1 0.5897 -6.8006424302767305 5.880330083364385 13.662746221286085 1 0 0
794 265 1 0.5897 -5.25681467812833 10.499123753661225 12.216778154970273 1 0 0
691 231 2 -1.1794 -2.4855853266220875 10.165053577852202 9.791300146878529 0 0 0
836 279 1 0.5897 -4.787072962727361 8.112056960104685 9.977662692064824 1 0 0
742 248 2 -1.1794 0.291942726496047 7.9423131482231195 11.388007113336533 0 0 0
724 242 2 -1.1794 0.6455556175794781 10.822566572454258 12.811326090191056 0 0 0
616 206 2 -1.1794 -6.634006622589334 6.706087522622493 12.049821285704652 1 0 0
693 231 1 0.5897 -2.5342829395604194 9.795613121614005 10.672959575046255 0 0 0
649 217 2 -1.1794 -4.075441633569836 6.883396530174475 11.074429220007191 1 0 0
650 217 1 0.5897 -3.419585743046992 7.302029647054549 11.631915124689268 1 0 0
651 217 1 0.5897 -4.875786489447043 6.889677852186953 11.599263094345405 1 0 0
795 265 1 0.5897 -5.845133374770357 9.477796250704673 11.266724409624524 1 0 0
744 248 1 0.5897 -0.09575894442347233 7.313744262388558 10.779081150820657 0 0 0
793 265 2 -1.1794 -5.927636433032073 9.818945722665344 12.157187333943487 1 0 0
586 196 2 -1.1794 -0.8317963175566301 6.218899747746709 9.713194039895248 0 0 0
759 253 1 0.5897 -5.785618608810008 8.874138490985978 13.660803123595727 1 0 0
703 235 2 -1.1794 -2.2056831903141987 8.512256720930955 12.13112459385683 0 0 0
704 235 1 0.5897 -1.2806414555642185 8.276922045664515 12.060089475972216 0 0 0
705 235 1 0.5897 -2.2746454686203688 8.962968449646668 12.972691697211605 0 0 0
743 248 1 0.5897 0.34494031087044386 8.757893174626092 10.889693745961543 0 0 0
618 206 1 0.5897 -6.811812042127224 6.12070619803462 11.313685067315776 1 0 0
513 171 1 0.5897 -3.9675086922467075 5.932259252305764 14.186248175863772 0 0 0
678 226 1 0.5897 0.10774633826251989 9.260730212376767 13.949808068418251 0 0 0
617 206 1 0.5897 -7.2620918307014595 7.420820965617707 11.945225362182043 1 0 0
750 250 1 0.5897 -3.1837496834600882 10.441564076703767 14.090523080623221 0 0 0
692 231 1 0.5897 -1.5517939476784406 10.316759654615456 9.646002468034718 0 0 0
192 64 1 0.5897 0.7004725460258672 10.998978344763138 9.908310035851478 0 0 0
587 196 1 0.5897 -1.2439703793762154 5.778928416145602 10.456593790373983 0 0 0
809 270 1 0.5897 -7.4964324011734895 10.647901422594131 12.518946045226182 1 0 0
726 242 1 0.5897 0.007241379471533804 11.279390457406517 12.263497012880217 0 0 0
190 64 2 -1.1794 0.1927965146239372 10.20235519270787 9.753727208235752 0 0 0
514 172 2 -1.1794 -1.1472764078928366 6.254908890830319 14.313215633600233 0 0 0
835 279 2 -1.1794 -5.492081329161832 8.660199168770372 9.63302945560145 1 0 0
797 266 1 0.5897 -7.314688525912369 10.65499898319102 16.903565536617247 1 0 0
695 232 1 0.5897 -2.8823618851758503 9.950701573887796 18.38860573475369 0 0 0
741 247 1 0.5897 -5.914007898863506 8.951076467709012 18.21132569779155 0 0 0
613 205 2 -1.1794 -7.766308878790246 6.662854206245588 16.784351811097125 1 0 0
740 247 1 0.5897 -6.449360403578311 7.798377103492516 17.388842034510603 0 0 0
568 190 2 -1.1794 -1.1729250685897794 7.115834606665353 17.784181258736254 0 0 0
333 111 1 0.5897 -8.274368878023026 9.271711583624686 18.695164796611465 1 0 -1
757 253 2 -1.1794 -5.909915312784609 8.443226924765982 14.506401945198212 1 0 0
758 253 1 0.5897 -5.809782570888792 9.144548122911116 15.150068929304053 1 0 0
83 28 1 0.5897 -4.879120543540832 6.944816601414371 18.892075921174335 0 0 -1
569 190 1 0.5897 -1.345140681702512 6.256384138540915 18.168855615528418 0 0 0
749 250 1 0.5897 -2.8910405396224066 9.553035410692438 15.280809750661533 0 0 0
798 266 1 0.5897 -8.424826474683002 9.76898468269252 16.379758720117295 1 0 0
512 171 1 0.5897 -4.645272511131861 7.204630532554817 14.648390024284556 0 0 0
796 266 2 -1.1794 -8.171563289126754 10.29770252964405 17.136392108241093 1 0 0
706 236 2 -1.1794 -3.125661803905195 8.852819239698277 16.88602154871573 0 0 0
707 236 1 0.5897 -3.9999136143396363 8.492295650179162 17.03371186084555 0 0 0
708 236 1 0.5897 -2.537342406038345 8.104543513882035 16.98716793455185 0 0 0
739 247 2 -1.1794 -5.639051660713607 8.160258557258832 17.74747879853342 0 0 0
511 171 2 -1.1794 -3.913004469363755 6.621454592873272 14.848228983008557 0 0 0
762 254 1 0.5897 -7.768474381429224 8.4548012811542 14.67588802679732 1 0 0
805 269 2 -1.1794 -5.767082510234446 10.960437009087363 15.986637497234359 1 0 0
570 190 1 0.5897 -0.33772903964410084 7.011699854230205 17.32848364520201 0 0 0
615 205 1 0.5897 -7.52219064917548 6.344782225575763 15.915260472537886 1 0 0
515 172 1 0.5897 -2.0133472751048282 6.6165177241210795 14.500999277509282 0 0 0
676 226 2 -1.1794 0.25410470094709936 8.580434594947738 14.607121066099156 0 0 0
516 172 1 0.5897 -0.5469309838302774 6.988369559416062 14.446767789231192 0 0 0
84 28 1 0.5897 -4.077512546472325 5.714024708907935 18.525426106619193 0 0 -1
677 226 1 0.5897 0.2771456108652979 9.05219521459365 15.43962212001759 0 0 0
732 244 1 0.5897 -0.5244706684669111 11.349264545816913 16.392645680808002 0 0 0
731 244 1 0.5897 -1.5832476543599894 11.305970683425976 15.311472027801816 0 0 0
614 205 1 0.5897 -7.604981856279074 5.919799749594184 17.365851481789175 1 0 0
748 250 2 -1.1794 -2.499309136428053 9.895634926665526 14.477515073508389 0 0 0
280 94 2 -1.1794 -3.5069979292703435 13.84942906475009 2.5541456286779094 1 0 0
281 94 1 0.5897 -3.447114069905732 13.34790563508973 3.3672373923993577 1 0 0
282 94 1 0.5897 -2.635636265673419 14.229168509481383 2.4417283480312792 1 0 0
500 167 1 0.5897 -2.0548592479117147 16.041961814086008 0.6960045720416149 1 0 0
313 105 2 -1.1794 -1.0924805488096951 14.778629537198308 1.923687670010824 1 0 0
315 105 1 0.5897 -0.7122443872023885 14.013850751417392 1.4915562594580463 1 0 0
223 75 2 -1.1794 -0.9274613645025314 11.646180799674037 3.478401211494704 0 0 0
423 141 1 0.5897 -2.627927138880546 16.744727458077076 3.9824613202533987 1 0 0
408 136 1 0.5897 3.752794736066569 16.375435246935464 1.0981343384358107 0 0 0
225 75 1 0.5897 -0.8709022935765902 12.49071269598449 3.925391290426393 0 0 0
314 105 1 0.5897 -0.3382792433459958 15.27110039029284 2.2474456253260895 1 0 0
269 90 1 0.5897 -3.5901768054276575 12.691562251158674 1.2011782523587087 1 0 0
368 123 1 0.5897 1.9680423660930941 16.036678354872127 2.4332486446833657 0 0 0
180 60 1 0.5897 1.8811274129434707 13.620487476824506 4.036089847416447 0 0 0
250 84 2 -1.1794 2.0968037432231528 13.643165144087684 0.12884260275700038 0 0 0
214 72 2 -1.1794 1.6518527740897033 12.46098610783093 2.4750346565290813 0 0 0
406 136 2 -1.1794 3.5795809625495956 15.559570711549364 1.5678535695908657 0 0 0
367 123 2 -1.1794 1.0431974124022059 16.239175091094722 2.573802459596432 0 0 0
215 72 1 0.5897 1.6614759847983134 12.800478591392862 1.5801421950711083 0 0 0
252 84 1 0.5897 2.7522493591267745 14.255513414867197 0.46292664263591415 0 0 0
216 72 1 0.5897 0.7602863877295483 12.1354782360508 2.5985763573972935 0 0 0
407 136 1 0.5897 4.429662258510256 15.303336599415315 1.9255098627920826 0 0 0
184 62 2 -1.1794 5.5105077546366665 12.300883181541677 0.35431022484031566 0 0 0
369 123 1 0.5897 1.009099941448996 16.603570516543474 3.4582101531508505 0 0 0
769 257 2 -1.1794 -0.7794430503933656 12.555204226263012 0.16460346624297534 1 0 1
771 257 1 0.5897 -0.2611558717023952 11.751658112096756 0.20912451855973285 1 0 1
770 257 1 0.5897 -1.6877546905458847 12.258077355317306 0.21757424388494065 1 0 1
499 167 2 -1.1794 -2.6717932487332026 16.631346736941346 0.262062200130347 1 0 0
421 141 2 -1.1794 -2.5028989923784364 16.296367220611195 4.818865083790927 1 0 0
404 135 1 0.5897 -1.6555419719932445 15.928864853280384 7.622518805175319 0 0 0
326 109 1 0.5897 -3.2603704483476825 11.862659782725895 5.526535477541581 1 0 0
233 78 1 0.5897 2.8508777804092578 14.365177365211212 7.6541302900365755 0 0 0
327 109 1 0.5897 -4.141635249812226 13.092890949733594 5.48307378209113 1 0 0
405 135 1 0.5897 -2.67043532890336 16.20049487069138 8.712309353385235 0 0 0
211 71 2 -1.1794 -0.4892211059120761 12.379745108073422 7.261120228646324 0 0 0
227 76 1 0.5897 1.2749273144375728 11.972912556438054 6.93548034017922 0 0 0
213 71 1 0.5897 -0.675774888800623 13.039873275970512 6.593511694579858 0 0 0
212 71 1 0.5897 -0.5950707386310472 12.842507927580089 8.092247944723253 0 0 0
756 252 1 0.5897 -1.604415665258156 14.27668249938609 9.017499265828214 0 0 0
232 78 2 -1.1794 2.0510927606665117 14.530697028594576 8.153111004511246 0 0 0
372 124 1 0.5897 0.3439460402505845 16.754192532835955 6.376931796876584 0 0 0
234 78 1 0.5897 1.5313190870028048 15.104386943162169 7.5900768268493835 0 0 0
370 124 2 -1.1794 0.01725259403809165 16.349188127566535 7.180279442824741 0 0 0
179 60 1 0.5897 2.0766924570172893 13.200221220678648 5.47723738179287 0 0 0
277 93 2 -1.1794 -4.5207868300664735 13.983436977181325 7.082539740891934 1 0 0
278 93 1 0.5897 -3.9157192392255915 14.659084159060393 7.388491666675282 1 0 0
425 142 1 0.5897 -4.346927734443669 16.180973796029896 5.100320563353257 1 0 0
1004 335 1 0.5897 -5.1200501819581925 16.751079697396747 9.176629584441772 1 0 0
403 135 2 -1.1794 -2.445178842613242 15.57059239652762 8.027739460473784 0 0 0
340 114 2 -1.1794 3.5185578574368606 16.206386288154334 5.183269755355942 0 0 0
267 89 1 0.5897 -3.925949480136809 12.77613490950035 8.480188154096481 1 0 0
279 93 1 0.5897 -5.351736336695484 14.195154690555475 7.507690946009868 1 0 0
341 114 1 0.5897 3.1018260337153194 15.36347885182626 5.004127107058262 0 0 0
226 76 2 -1.1794 2.0497338637083047 11.75349315871062 6.41819268178209 0 0 0
176 59 1 0.5897 -1.1929585427113676 14.822173139058044 4.987842667544726 0 0 0
690 230 1 0.5897 1.7204915450384615 13.096699810411607 9.256370733266047 0 0 0
177 59 1 0.5897 0.17231413381176441 14.175227144587293 5.083963029239748 0 0 0
175 59 2 -1.1794 -0.7602116951561984 13.968986558622813 5.021098335556174 0 0 0
422 141 1 0.5897 -2.1997282525179696 16.981028067568385 5.415131186866632 1 0 0
266 89 1 0.5897 -3.4094239177964427 11.707668162413169 9.42022178848991 1 0 0
265 89 2 -1.1794 -3.8803673066311 12.540930500956248 9.406883038751824 1 0 0
325 109 2 -1.1794 -3.7391091236168315 12.429951822227883 4.922151998552975 1 0 0
318 106 1 0.5897 -6.412771673718179 15.301718489316652 9.03508172812438 1 0 0
178 60 2 -1.1794 1.9582699366069551 13.971728753571474 4.923117934872098 0 0 0
725 242 1 0.5897 0.9530926411430629 11.487805900146382 13.427001026397946 0 0 0
728 243 1 0.5897 -3.1533133950845498 11.916065582100725 12.518151909049791 0 0 0
755 252 1 0.5897 -0.5826391290261781 14.402245489267871 10.127472167161292 0 0 0
718 240 2 -1.1794 -1.5128331051039616 12.339507619224769 11.915833570242139 0 0 0
912 304 1 0.5897 1.00416413182767 15.262791476195892 11.439114939251875 0 0 0
720 240 1 0.5897 -1.4103905984624143 13.09608907645379 12.4931596499078 0 0 0
1003 335 2 -1.1794 -5.430151719891363 16.310403190571968 9.9676975151351 1 0 0
871 291 2 -1.1794 -1.9751900266109805 16.46988216175415 12.254639483818343 0 0 0
727 243 2 -1.1794 -3.976590719985898 11.698228448756941 12.954987269879437 0 0 0
784 262 2 -1.1794 -6.247297038240871 14.012825020047133 12.20153822939062 1 0 0
729 243 1 0.5897 -4.220535474827372 12.498513701247054 13.41997086376943 0 0 0
911 304 1 0.5897 -0.40684183084935643 15.80878251825571 11.490761376229278 0 0 0
910 304 2 -1.1794 0.324642985276399 15.657288144689042 10.892411177590347 0 0 0
1005 335 1 0.5897 -4.653747610189002 15.875526801299385 10.32029704134771 1 0 0
682 228 2 -1.1794 -1.1667126302978357 14.063547430100972 14.044886455779071 0 0 0
719 240 1 0.5897 -1.4850142439848155 12.706478588349805 11.032241349783186 0 0 0
786 262 1 0.5897 -6.578155493211046 13.630956854349543 13.014443286050701 1 0 0
817 273 2 -1.1794 -3.73331602029497 14.530754626173337 11.328413652602599 1 0 0
818 273 1 0.5897 -4.504840683496962 14.273859132212449 11.83321033125764 1 0 0
819 273 1 0.5897 -3.6468176293455867 13.851191343956085 10.659918699463088 1 0 0
873 291 1 0.5897 -2.6108398170563216 15.768223484258085 12.113829530961963 0 0 0
785 262 1 0.5897 -6.954223127785289 14.58285363560695 11.898895498688494 1 0 0
773 258 1 0.5897 -6.476393835402263 12.958034940804199 10.81930569697727 1 0 0
831 277 1 0.5897 -7.589464153661638 12.165777948385466 14.108454657660404 1 0 0
772 258 2 -1.1794 -6.538531225881541 12.396459133564417 10.04669764773132 1 0 0
688 230 2 -1.1794 1.8231620358294531 12.396983719523977 9.901462239874354 0 0 0
754 252 2 -1.1794 -1.1174013047061946 13.760616455861252 9.659977819923386 0 0 0
846 282 1 0.5897 0.09159769472425872 16.9297369877548 14.095698711077993 0 0 0
962 321 1 0.5897 -6.032778542746469 16.85677304857946 12.955366962921586 1 0 0
774 258 1 0.5897 -5.6348743674309745 12.13971981400231 9.86339460780618 1 0 0
684 228 1 0.5897 -0.600589252633327 14.794176482730448 14.293688941667469 0 0 0
806 269 1 0.5897 -6.168780229567508 11.655605794900817 15.46539810705647 1 0 0
683 228 1 0.5897 -0.9163559268081913 13.353696069947727 14.63626717786791 0 0 0
717 239 1 0.5897 -2.757573448475947 12.39960189916307 16.860260353706526 0 0 0
783 261 1 0.5897 -8.88812786874188 14.22545236978695 17.023484174228464 1 0 0
930 310 1 0.5897 -7.676613832238982 15.83912418545938 14.670518161754444 1 0 0
681 227 1 0.5897 -3.854439718062401 13.425138193661146 15.373847182317597 0 0 0
830 277 1 0.5897 -7.484514704711043 13.31387706686415 15.089577289793976 1 0 0
844 282 2 -1.1794 0.20971453838953558 16.199398947163004 14.703092581616703 0 0 0
715 239 2 -1.1794 -3.708250048445885 12.505452437582104 16.826427432324053 0 0 0
716 239 1 0.5897 -3.924296654340835 12.989277801400238 17.623510183645386 0 0 0
874 292 2 -1.1794 -3.3342803859030035 16.40436508916653 16.96468022394018 0 0 0
907 303 2 -1.1794 -5.9472235963171975 15.650595249800267 17.82847445718081 0 0 0
829 277 2 -1.1794 -6.968359803240512 12.797707129616631 14.470521346044755 1 0 0
876 292 1 0.5897 -2.669127781191614 15.761093006212631 17.209706340562292 0 0 0
736 246 2 -1.1794 -1.3494652060310788 14.562253858585205 17.54886986335986 0 0 0
909 303 1 0.5897 -5.200726659233334 15.91927979255882 17.2931166785085 0 0 0
781 261 2 -1.1794 -7.98841924940745 13.929623674976453 16.885145941397898 1 0 0
782 261 1 0.5897 -7.773606387258003 13.436005991164743 17.676632108481982 1 0 0
730 244 2 -1.1794 -1.1211036670687848 11.90809028140414 15.894624665985823 0 0 0
908 303 1 0.5897 -6.5161581766309595 15.173199675986444 17.224650191178917 0 0 0