LAMMPS data file via write_data, version 30 Jul 2021, timestep = 2750000

1920 atoms
2 atom types
1280 bonds
1 bond types
640 angles
1 angle types

-0.02553575136652242 24.755536751363373 xlo xhi
-0.07796123427269563 24.807962234275934 ylo yhi
-0.16909324598663922 22.97909324598856 zlo zhi

Masses

1 1.008
2 15.999

Pair Coeffs # lj/cut/tip4p/long/omp

1 0 0
2 0.21084 3.1668

Bond Coeffs # harmonic/omp

1 450 0.9572

Angle Coeffs # harmonic/omp

1 55 104.52

Atoms # full

1 1 2 -1.1794 4.3063393893374995 1.3825415478600862 4.182615878407869 0 0 0
2 1 1 0.5897 4.2993546481794835 2.069677519699096 4.848911476946244 0 0 0
3 1 1 0.5897 5.175865300507643 1.4409147799340505 3.7867371530043865 0 0 0
4 2 2 -1.1794 2.919196419159041 1.2836496567284614 1.7806598622891818 0 0 0
5 2 1 0.5897 3.297745020841134 1.411528264948365 2.650490910710557 0 0 0
6 2 1 0.5897 1.9832095407899595 1.1642452685659397 1.941491236815196 0 0 0
21 7 1 0.5897 5.411512697706571 2.7188311089321897 1.1247560273964485 0 0 0
9 3 1 0.5897 5.097580781491156 4.2223258714095495 3.6142714678793086 0 0 0
10 4 2 -1.1794 3.1306719815558757 4.624429559342063 3.6634797775086505 0 0 0
11 4 1 0.5897 2.5815496750718836 5.287557086448327 4.081638650490433 0 0 0
12 4 1 0.5897 2.7557053598158556 4.518864621678699 2.7891146812933334 0 0 0
27 9 1 0.5897 4.646302609922944 4.839323442564105 0.3893599559169957 0 0 0
14 5 1 0.5897 2.0776197712146818 3.3932352345955445 4.77572731931924 0 0 0
24 8 1 0.5897 1.5127676532980694 5.3551869868438 0.7468139516868736 0 0 0
15 5 1 0.5897 1.3412367821358473 2.0778323219545314 4.913430698884861 0 0 0
20 7 1 0.5897 3.8993503600454837 2.74884025338192 1.0594232903875191 0 0 0
13 5 2 -1.1794 1.2356669882838553 3.0209297331256924 5.037793956766017 0 0 0
19 7 2 -1.1794 4.682140021651819 3.1175541926253247 0.6501826225704098 0 0 0
22 8 2 -1.1794 1.7209582499322555 4.56867038030714 1.2509551547191828 0 0 0
387 129 1 0.5897 4.22020740046509 0.11796106919361998 1.2491446472869394 0 1 0
386 129 1 0.5897 4.837228484955188 0.07378543874563628 -0.13263048998205743 0 1 0
23 8 1 0.5897 0.985036127224096 4.468882080270822 1.8548425504815231 0 0 0
25 9 2 -1.1794 4.656824404105933 5.794457042739787 0.449865025887074 0 0 0
98 33 1 0.5897 0.276155470228254 5.49582188087844 3.6456260405931866 1 0 0
47 16 1 0.5897 5.95217280006425 0.8521307818300053 1.7914836574795805 0 0 0
16 6 2 -1.1794 0.1770318088939738 1.6244391840730859 1.9688882372904213 0 0 0
99 33 1 0.5897 0.1532775247892456 4.048123552043933 4.070563904904795 1 0 0
7 3 2 -1.1794 5.993181953144205 4.521987267900205 3.7700816891872155 0 0 0
26 9 1 0.5897 5.460548404256339 5.995688543433774 0.9291868476589047 0 0 0
867 289 1 0.5897 4.303856888119079 0.12292989544455371 5.453972827537082 0 1 0
8 3 1 0.5897 5.937477510140645 5.036196117806593 4.575502395718622 0 0 0
1455 485 1 0.5897 1.4122745639880159 3.2551546357378562 -0.16167396931291478 0 0 1
487 163 2 -1.1794 5.990687649353121 4.930379533138444 9.291325808026953 0 0 0
481 161 2 -1.1794 4.355960214669618 1.5945626862647277 9.905799517805217 0 0 0
495 165 1 0.5897 1.2622431172534727 3.3436557665289923 11.372546203714409 0 0 0
483 161 1 0.5897 4.606765430508633 2.368303053022581 10.410317966546726 0 0 0
484 162 2 -1.1794 2.699424563424504 1.7177790548475085 7.911067750336091 0 0 0
485 162 1 0.5897 3.0985240404660535 1.5320008227547395 8.761044588108998 0 0 0
486 162 1 0.5897 3.135658745156051 1.1189619907210464 7.305031898233609 0 0 0
500 167 1 0.5897 3.7018540633440224 2.8684394628400156 6.902574702745008 0 0 0
489 163 1 0.5897 5.193951974425285 4.735714871550058 8.79784540817164 0 0 0
490 164 2 -1.1794 3.230475914400481 4.463003927366711 9.147476993028757 0 0 0
491 164 1 0.5897 2.8915134956965236 5.129505731853939 9.744997073291945 0 0 0
492 164 1 0.5897 2.8039204691828234 3.6524885543862897 9.425329338633047 0 0 0
493 165 2 -1.1794 1.063709915367219 2.9640893714379426 10.51654035672121 0 0 0
503 168 1 0.5897 1.2566098721603243 3.994693455207959 6.7892838981712575 0 0 0
482 161 1 0.5897 5.028734977431576 1.5209480820346162 9.22890495537069 0 0 0
498 166 1 0.5897 0.9664663980671954 1.424354912619754 7.882148529521842 0 0 0
501 167 1 0.5897 4.2063187920810945 4.164077803975631 6.30392643567371 0 0 0
526 176 2 -1.1794 6.105619867844593 1.5211423793122127 7.73980784845227 0 0 0
499 167 2 -1.1794 4.377131469661658 3.222552484880328 6.323954627382128 0 0 0
502 168 2 -1.1794 1.2746703416354201 4.8072851397989185 7.294729941830375 0 0 0
508 170 2 -1.1794 1.4587548966205 0.3261697988941095 10.785794445343386 0 0 0
504 168 1 0.5897 1.9514283601032782 4.663533103776907 7.956212918186315 0 0 0
494 165 1 0.5897 1.2059823083141001 2.024666874980788 10.631833982469821 0 0 0
527 176 1 0.5897 5.789589750586889 0.7845681475214923 7.21662755778285 0 0 0
528 176 1 0.5897 5.7063586275888625 2.291344502768864 7.33547699383337 0 0 0
505 169 2 -1.1794 4.550628540143117 5.945251641344309 6.395971505038127 0 0 0
629 210 1 0.5897 0.6473792456599532 6.0009869374237415 10.078715549340323 0 0 0
488 163 1 0.5897 6.081703968839289 4.196776153367878 9.899339852229216 0 0 0
496 166 2 -1.1794 0.0189906814791847 1.544649218797441 7.818846713567068 0 0 0
150 50 1 0.5897 1.6627657434191332 6.132361942826038 5.652835186996293 0 0 0
967 323 2 -1.1794 5.7546829768144985 4.695542261117093 14.581455024693357 0 0 0
961 321 2 -1.1794 4.346173834441196 1.5718557240680475 15.679179073162167 0 0 0
962 321 1 0.5897 5.140050366527948 1.58319346717173 15.144532466205744 0 0 0
963 321 1 0.5897 4.520577411449143 0.9157555222624967 16.3539214169381 0 0 0
964 322 2 -1.1794 3.0149234703020222 2.0262198011261536 13.308331221002211 0 0 0
965 322 1 0.5897 3.2808941173285544 1.9623656663692657 14.225638508354937 0 0 0
966 322 1 0.5897 2.0618238108346456 2.108620468418089 13.34000920566069 0 0 0
979 327 2 -1.1794 5.0752177134247205 3.3405859696411113 12.168856904592625 0 0 0
970 324 2 -1.1794 3.03898971639726 4.698304844259629 14.869279993266598 0 0 0
971 324 1 0.5897 3.9684654642363997 4.54368998623529 14.700865960521014 0 0 0
972 324 1 0.5897 2.802585510605161 4.045414104852464 15.52807296254721 0 0 0
976 326 2 -1.1794 0.2470037035635525 1.6735785158945589 13.382832194938118 0 0 0
975 325 1 0.5897 0.7430205212993335 3.2379608153974235 16.040566194483915 0 0 0
990 330 1 0.5897 1.4303943275005029 0.9665614537534402 16.432297946820874 0 0 0
981 327 1 0.5897 5.811129602408328 2.8409373239268882 12.522337856613628 0 0 0
980 327 1 0.5897 4.2988363550388256 2.9097886741034933 12.526395553262287 0 0 0
987 329 1 0.5897 4.921979279802216 5.037838223358594 11.971291055709225 0 0 0
982 328 2 -1.1794 1.3350636142900905 4.697124909632302 12.597572004076984 0 0 0
983 328 1 0.5897 1.5785075583743067 5.3789187980674615 11.971435022192855 0 0 0
984 328 1 0.5897 2.0724381358114607 4.656113760189157 13.206525567043336 0 0 0
988 330 2 -1.1794 1.6700305532149304 0.06414223184558943 16.221865690534017 0 0 0
973 325 2 -1.1794 1.5015080656827506 2.827723632321382 16.455996045895674 0 0 0
1347 449 1 0.5897 4.747578640716696 0.5132385842154589 11.446448305532542 0 1 0
985 329 2 -1.1794 4.7809127691025965 5.978544662100555 11.865340874686067 0 0 0
968 323 1 0.5897 6.029620177541438 5.414916135464707 15.149828205166274 0 0 0
1008 336 1 0.5897 6.039222362529561 0.9921992155442065 13.23011397408073 0 0 0
1346 449 1 0.5897 4.016278100673703 0.3868596453481112 12.765983193681127 0 1 0
969 323 1 0.5897 6.139132565940974 3.9147453938364323 14.979771191691 0 0 0
1110 370 1 0.5897 1.9534049227058834 5.988762155336591 15.869831767225596 0 0 0
1460 487 1 0.5897 4.388659644525223 2.6701653305968027 17.138103890124178 0 0 0
509 170 1 0.5897 1.541043511350564 -0.07406620031104438 11.651399927086567 0 0 0
1345 449 2 -1.1794 4.789752291421719 0.07485860781571674 12.29631501395617 0 1 0
1538 513 1 0.5897 0.12037574324085876 3.952122447983104 20.97503968024813 1 0 0
1469 490 1 0.5897 1.2281700991213866 1.1276652930623388 22.13963096821181 0 0 0
1441 481 2 -1.1794 4.57981756174593 1.4807299681301584 21.68056910487784 0 0 0
1442 481 1 0.5897 3.9584539631041387 1.7994169575130852 21.02592131452161 0 0 0
1443 481 1 0.5897 4.551899758643514 2.13645837952696 22.377277182953215 0 0 0
1444 482 2 -1.1794 3.0550348482144924 1.443294785025013 19.496143499736093 0 0 0
1461 487 1 0.5897 5.299315917048619 2.9850582148478524 18.305774896856285 0 0 0
1446 482 1 0.5897 3.48865923157679 2.092963358319497 18.942929366339527 0 0 0
1463 488 1 0.5897 1.3747218065387803 5.487159633149004 18.049337541295202 0 0 0
1450 484 2 -1.1794 3.278855910644687 4.641422844842249 20.987268239801118 0 0 0
1451 484 1 0.5897 4.226653235174805 4.518282142610749 20.93528067356 0 0 0
1452 484 1 0.5897 2.9809212741410733 4.5972114608252275 20.078671786755713 0 0 0
1453 485 2 -1.1794 1.304223168430816 2.92453089337562 22.094741186915748 0 0 0
1468 490 2 -1.1794 1.2700855817578005 0.17954958832261853 22.015623504779185 0 0 0
1445 482 1 0.5897 2.1207672332585936 1.5785530651993154 19.337910278102015 0 0 0
1590 530 1 0.5897 2.202428533754001 5.641639454073675 21.85724103208687 0 0 0
1588 530 2 -1.1794 1.4568779034078998 6.082544208387465 22.264601085002077 0 0 0
1462 488 2 -1.1794 1.5621292473125787 4.764246100408694 18.648009337744753 0 0 0
1459 487 2 -1.1794 4.420545519864966 3.1515560470913337 17.964818109219664 0 0 0
1464 488 1 0.5897 0.8501053171344433 4.791180090005276 19.287178478072605 0 0 0
1454 485 1 0.5897 2.0608495643482767 3.2665874654601246 21.61860301514637 0 0 0
1466 489 1 0.5897 4.379528610847268 4.905138561755284 17.78249618746308 0 0 0
1826 609 1 0.5897 4.014268957990067 0.1506747152482407 18.233317503043722 0 1 0
1456 486 2 -1.1794 0.3374099395932568 1.5227331144549432 19.31393247102944 0 0 0
1447 483 2 -1.1794 5.967797037650573 4.50813003836565 21.105353787358688 0 0 0
1465 489 2 -1.1794 4.45341987046512 5.754975073420402 17.348432673034118 0 0 0
974 325 1 0.5897 1.6150440202136294 3.308059919590591 17.276120130812913 0 0 0
1487 496 1 0.5897 5.541320757648534 1.3680634953990174 19.97413420367409 0 0 0
1488 496 1 0.5897 5.874273048933309 0.5358195260537028 18.754166231583724 0 0 0
1457 486 1 0.5897 0.025221875562564833 1.3891470329444984 20.208894737192203 0 0 0
1448 483 1 0.5897 6.063806172792587 5.414834562583979 21.39644607999002 0 0 0
145 49 2 -1.1794 4.81453654630892 12.026588774858872 0.4914415183731655 0 0 0
121 41 2 -1.1794 4.552595713070186 7.610865248158893 4.10052986010887 0 0 0
122 41 1 0.5897 3.837789532847874 7.395879030517971 3.5013256785554683 0 0 0
123 41 1 0.5897 5.340939525342857 7.3015617838743045 3.6543956037521133 0 0 0
124 42 2 -1.1794 2.876798799874327 7.461633903121249 1.860637056099565 0 0 0
125 42 1 0.5897 3.227731908634409 6.676299489584858 1.4408697046381258 0 0 0
126 42 1 0.5897 3.3944611715541066 8.179795494968577 1.496789274256997 0 0 0
168 56 1 0.5897 6.117471959309861 8.285459547141615 1.6037697444852823 0 0 0
129 43 1 0.5897 5.411393014306382 10.928911289966326 3.652344543511494 0 0 0
130 44 2 -1.1794 3.4279821031188664 10.996451092340447 3.4227957277101853 0 0 0
131 44 1 0.5897 2.9531642632043016 11.703349556076256 3.859795587029664 0 0 0
132 44 1 0.5897 2.9806277708476934 10.198009727076467 3.702905501577117 0 0 0
133 45 2 -1.1794 1.7420314255571665 9.26255895467029 4.592206927619316 0 0 0
135 45 1 0.5897 1.0901414874803166 9.674628966718958 4.025241524833771 0 0 0
140 47 1 0.5897 4.524331009081047 10.106564156599434 0.40752317394379134 0 0 0
137 46 1 0.5897 1.1182479809776051 7.795059004692806 1.900674728805591 0 0 0
139 47 2 -1.1794 4.583797912486721 9.172813640643517 0.6090885320047271 0 0 0
148 50 2 -1.1794 1.3606738642919602 6.441198925473409 4.798668964013524 0 0 0
142 48 2 -1.1794 1.7949647663181605 10.836336729790395 1.1730611889225657 0 0 0
143 48 1 0.5897 2.4760345212102712 10.913329899757665 1.8412302215682823 0 0 0
144 48 1 0.5897 1.9683350420256256 11.558502309821353 0.5692789494008333 0 0 0
621 207 1 0.5897 4.432592817844195 9.053574644265257 5.280708140079769 0 0 0
149 50 1 0.5897 1.5711167560000463 7.374862503853041 4.792953015240945 0 0 0
134 45 1 0.5897 1.5746224332138807 9.632653064892573 5.458946180536203 0 0 0
136 46 2 -1.1794 0.18253431637727144 7.883204252987566 2.0819478131738425 0 0 0
218 73 1 0.5897 0.25012546983709866 11.3566669572336 2.616559521621051 1 0 0
146 49 1 0.5897 5.557499457024128 12.315828506633643 1.021112689505612 0 0 0
507 169 1 0.5897 4.764099713946451 6.453257661553479 5.613303356235754 0 0 0
270 90 1 0.5897 0.7568090921860274 12.285609715527723 4.676536248496988 0 0 0
1574 525 1 0.5897 1.8614642482882549 9.397864805119733 -0.08614692769859289 0 0 1
612 204 1 0.5897 3.189657574098332 11.573190700973381 9.282552869256607 0 0 0
648 216 1 0.5897 6.111251242670856 7.289842009878976 7.000012249583592 0 0 0
601 201 2 -1.1794 4.830778923911031 7.728059326192985 9.675236011216775 0 0 0
630 210 1 0.5897 1.3954589406641942 7.270876316293816 10.424104160523513 0 0 0
603 201 1 0.5897 3.9886757781965105 7.621635080246728 9.232810084795991 0 0 0
604 202 2 -1.1794 2.791778298881806 7.608455491770385 7.4929518103138 0 0 0
605 202 1 0.5897 3.058780533700213 8.393340069052305 7.0146391283096055 0 0 0
606 202 1 0.5897 1.8383333579378665 7.673192046695644 7.547219606218416 0 0 0
613 205 2 -1.1794 1.5132196024385498 9.08222566762616 10.193357357294198 0 0 0
610 204 2 -1.1794 3.4571175472986004 10.670800757286651 9.108725215267802 0 0 0
611 204 1 0.5897 4.367569395380805 10.741346534730722 8.821847545278269 0 0 0
698 233 1 0.5897 0.24407715585083523 11.515771286409505 9.629230470114914 1 0 0
616 206 2 -1.1794 0.13800583043145206 7.782967521988654 7.479812728703758 0 0 0
614 205 1 0.5897 2.214777148641486 9.526162594649724 9.717003558947404 0 0 0
619 207 2 -1.1794 4.531896086310007 9.524402616946945 6.108160873035685 0 0 0
625 209 2 -1.1794 4.738979435911466 12.263703255799534 6.415991558426849 0 0 0
1101 367 1 0.5897 4.363713638137395 9.164844034217275 11.034711402079111 0 0 0
647 216 1 0.5897 5.898569788188141 7.928194772168617 8.356175459005518 0 0 0
622 208 2 -1.1794 1.6177698891103123 10.636959029733058 6.896140649266486 0 0 0
623 208 1 0.5897 2.4220884910067255 10.63427355875941 7.415069816388395 0 0 0
624 208 1 0.5897 1.7306780881182893 11.362516106109604 6.282164020899679 0 0 0
620 207 1 0.5897 5.2138685561607065 9.04390290554638 6.577421857378273 0 0 0
602 201 1 0.5897 4.89810348505235 6.965516354435104 10.249800803449757 0 0 0
626 209 1 0.5897 4.685492648626602 11.322201575188688 6.252390735927964 0 0 0
615 205 1 0.5897 0.7071424273520313 9.417839001686856 9.801201277664601 0 0 0
506 169 1 0.5897 4.013732837918977 6.53459870937575 6.925661985071239 0 0 0
699 233 1 0.5897 0.25868476133076873 10.902669480120576 8.24510667684102 1 0 0
628 210 2 -1.1794 1.493939131097596 6.319397359834315 10.391975937892706 0 0 0
750 250 1 0.5897 1.249767962826291 12.354989703237754 11.256146026721387 0 0 0
607 203 2 -1.1794 6.152784479541587 10.862675771657747 8.811612053851903 0 0 0
627 209 1 0.5897 5.438928209359904 12.35559077653304 7.0624098699225275 0 0 0
1093 365 2 -1.1794 1.6712270756081133 9.249881321716046 16.460888535912034 0 0 0
1087 363 2 -1.1794 6.025927758793586 10.453357985599116 15.019459688345187 0 0 0
1081 361 2 -1.1794 4.490758823981722 7.664560137703493 15.362508222701322 0 0 0
1082 361 1 0.5897 4.418343107149319 8.31992589055012 16.05634892068253 0 0 0
1083 361 1 0.5897 4.673986573932925 6.8461609929952365 15.823753888851884 0 0 0
1084 362 2 -1.1794 2.990817502336033 7.5066090397568175 13.237950741371058 0 0 0
1108 370 2 -1.1794 1.3822772645890236 6.532386225744499 16.412467008517403 0 0 0
1086 362 1 0.5897 3.4915072994065546 8.08128166698499 12.658963828698523 0 0 0
1096 366 2 -1.1794 0.04341032942970392 7.79417618694303 13.005896461901678 0 0 0
1089 363 1 0.5897 5.167672198648676 10.729295040006852 14.697827779761912 0 0 0
1090 364 2 -1.1794 3.241595712937729 10.905790633495133 14.70598399337093 0 0 0
1091 364 1 0.5897 2.8517412094098207 11.500323104676466 15.346853468796052 0 0 0
1092 364 1 0.5897 3.199280378481257 10.044407113450935 15.121087233021848 0 0 0
1085 362 1 0.5897 3.4825090461882757 7.50586810740047 14.059224568235177 0 0 0
1099 367 2 -1.1794 4.394902887340627 9.377728213454537 11.96744262678533 0 0 0
1094 365 1 0.5897 1.7219605887155724 8.294390785973007 16.4384451701739 0 0 0
1095 365 1 0.5897 1.1484136654664048 9.480524190402567 15.692967807591852 0 0 0
1097 366 1 0.5897 0.9793217570925252 7.641522063319379 13.136106300294031 0 0 0
1127 376 1 0.5897 6.053051183567698 8.01949783358042 13.977990534732703 0 0 0
1100 367 1 0.5897 5.153506022065995 8.896773072565201 12.298153281326385 0 0 0
1102 368 2 -1.1794 1.534446605281408 11.01699383679866 12.537582666085358 0 0 0
1103 368 1 0.5897 1.593581600659903 10.219581177512598 12.01150821102403 0 0 0
1104 368 1 0.5897 2.1454090124175678 10.873598444665593 13.260351751771097 0 0 0
1107 369 1 0.5897 4.6181515859414395 11.11857564385765 12.21352934507558 0 0 0
1179 393 1 0.5897 0.43561328068243177 10.914783015454601 13.965437272327291 1 0 0
986 329 1 0.5897 4.000853319115348 6.164571725620565 12.387938294737006 0 0 0
1105 369 2 -1.1794 4.713325181231594 12.062783450072466 12.337857123547181 0 0 0
1178 393 1 0.5897 0.4252823476517698 11.568061265899129 15.33109305678349 1 0 0
1230 410 1 0.5897 1.5789617437083179 12.267801133330437 17.097006485134933 0 0 0
1128 376 1 0.5897 5.875780363749993 7.079609485422519 12.804552462498002 0 0 0
1177 393 2 -1.1794 0.025430236092521596 10.858396849382968 14.828469837053593 1 0 0
1109 370 1 0.5897 0.5118676611481947 6.422577238820557 16.02966034295119 0 0 0
1585 529 2 -1.1794 4.745006858254748 12.12112991594221 17.871981943498383 0 0 0
1467 489 1 0.5897 5.071716198311718 6.247212224329446 17.888424099094486 0 0 0
1581 527 1 0.5897 5.368437028505569 8.635573719446064 18.246718481188424 0 0 0
1561 521 2 -1.1794 4.58020716707566 7.635752871764127 21.46372125114256 0 0 0
1562 521 1 0.5897 4.51110364979601 6.835475172660654 21.984195743427584 0 0 0
1563 521 1 0.5897 3.816586262466766 7.613667492969794 20.886992895592876 0 0 0
1564 522 2 -1.1794 2.7851326002134424 7.387972070493908 19.38540728838514 0 0 0
1565 522 1 0.5897 1.849977761917949 7.505109113839187 19.218206381324087 0 0 0
1566 522 1 0.5897 3.0950515289214167 6.855644161099205 18.652752840155514 0 0 0
1579 527 2 -1.1794 4.683921999003681 9.227715794464581 17.935355444311583 0 0 0
1570 524 2 -1.1794 3.538766321398745 10.775809766026086 20.682124017957683 0 0 0
1571 524 1 0.5897 3.3204736664674543 11.092591747516966 19.805626391412076 0 0 0
1572 524 1 0.5897 4.494028322897402 10.715283251225921 20.684413805257073 0 0 0
1580 527 1 0.5897 3.881986645956093 8.904608693803553 18.34607549764091 0 0 0
1573 525 2 -1.1794 1.7684555580415933 8.88823479463812 22.257159812718427 0 0 0
1606 536 2 -1.1794 6.1324324871011004 7.083560828782549 19.177648416100247 0 0 0
1587 529 1 0.5897 4.946096731954462 11.191067037925933 17.76905873134298 0 0 0
1575 525 1 0.5897 2.3898215963249996 9.286549612193099 21.647675631008305 0 0 0
1589 530 1 0.5897 1.6075698302274573 7.0127799805492215 22.097260387783273 0 0 0
1582 528 2 -1.1794 1.827549388554799 10.825841516084358 18.572821165651852 0 0 0
1583 528 1 0.5897 1.177525552426981 10.673622095740448 19.258769478708885 0 0 0
1584 528 1 0.5897 1.6439927476906782 10.155135889573264 17.915084392882733 0 0 0
1576 526 2 -1.1794 0.06500556125912649 7.948511435256611 19.00613980646027 0 0 0
141 47 1 0.5897 4.62652926253029 8.745011028842079 22.902065704111536 0 0 -1
1709 570 1 0.5897 0.9700979785502399 11.949016154039422 21.439030428418768 0 0 0
1710 570 1 0.5897 2.476260344755581 11.905615176646936 21.585264559157928 0 0 0
1657 553 2 -1.1794 0.1241293864818653 10.552612206240816 20.64306791090725 1 0 0
1658 553 1 0.5897 0.48469076316472304 9.88363677822359 21.224970984168927 1 0 0
1608 536 1 0.5897 5.6745223923867405 7.207012220516151 20.00911045537621 0 0 0
260 87 1 0.5897 4.550776819565001 16.57580968911351 0.3980096466482902 0 0 0
242 81 1 0.5897 4.832185525177491 13.421720801000237 4.9541701838071734 0 0 0
241 81 2 -1.1794 4.713411225939759 14.14986411825374 4.344388336097431 0 0 0
389 130 1 0.5897 2.159688978663448 18.133772361016444 4.517194544318232 0 0 0
243 81 1 0.5897 4.076078811489006 13.827704893677351 3.7070214402875084 0 0 0
244 82 2 -1.1794 3.105250413797053 13.675835268570758 1.9357252052238318 0 0 0
245 82 1 0.5897 2.174410265155186 13.832367002727798 2.0945358120154487 0 0 0
246 82 1 0.5897 3.444703833335737 14.522088939135722 1.6446806805716185 0 0 0
254 85 1 0.5897 0.3795096558787747 16.158187173978114 4.662471424999733 0 0 0
250 84 2 -1.1794 3.257212597687781 16.843393657846885 3.670989203816852 0 0 0
251 84 1 0.5897 2.878101112718033 16.746802488489184 2.7973668692882216 0 0 0
252 84 1 0.5897 4.201721694436646 16.87957155327501 3.5200243669001883 0 0 0
268 90 2 -1.1794 1.4777740963753887 12.665296000439909 5.178765824522762 0 0 0
253 85 2 -1.1794 1.0681253945897013 15.5886025071186 5.005301435665428 0 0 0
339 113 1 0.5897 0.06882719487103313 17.862352966890054 4.206299566533567 1 0 0
255 85 1 0.5897 1.793392941377441 15.691296565893245 4.389131499134047 0 0 0
259 87 2 -1.1794 4.621461725947046 15.641272828104327 0.5921789886093656 0 0 0
269 90 1 0.5897 1.2356185244680806 13.584732834700686 5.288551309621316 0 0 0
262 88 2 -1.1794 1.6325450385584455 16.812681285120675 1.4874439072678818 0 0 0
263 88 1 0.5897 1.600749243990524 15.959057773765615 1.0556960083079283 0 0 0
264 88 1 0.5897 1.3769025303746203 17.435352694554958 0.8069322952614053 0 0 0
265 89 2 -1.1794 4.5938099623044115 18.38506046086056 0.47465717971520094 0 0 0
288 96 1 0.5897 5.798299932662925 14.61445421994469 1.5338536379778964 0 0 0
256 86 2 -1.1794 0.3989589011394991 13.797884475186452 1.7106730749624495 0 0 0
338 113 1 0.5897 0.11042073528835417 17.268760860681507 2.8142328141804382 1 0 0
247 83 2 -1.1794 5.948153309023332 17.287079823348012 3.4343162265090905 0 0 0
287 96 1 0.5897 5.98063133204748 13.93532438804715 2.8745271923698956 0 0 0
147 49 1 0.5897 4.06058521792137 12.481113036255993 0.8671193784178559 0 0 0
748 250 2 -1.1794 1.1191615879980101 12.74488575604532 10.391766206406354 0 0 0
721 241 2 -1.1794 4.6108033537863555 13.409831874528829 9.917448755610312 0 0 0
722 241 1 0.5897 3.8644808444057994 13.516442713424565 9.327655372899297 0 0 0
749 250 1 0.5897 1.2642039516620822 13.68128213738478 10.52656929376737 0 0 0
724 242 2 -1.1794 2.983420785395017 13.949063440999597 7.831127304783548 0 0 0
725 242 1 0.5897 3.413083701550877 14.796223382777805 7.713734599156533 0 0 0
726 242 1 0.5897 3.245046648264583 13.439085255438938 7.064525739158463 0 0 0
723 241 1 0.5897 5.3772028270189365 13.460651046855629 9.346250550350703 0 0 0
728 243 1 0.5897 5.165276797050062 16.945864783633585 9.276365656696294 0 0 0
730 244 2 -1.1794 3.4027357787526955 16.915955077872727 9.20822388775271 0 0 0
731 244 1 0.5897 2.6368806012977983 17.047339515039763 8.649277823558425 0 0 0
732 244 1 0.5897 3.1104007339898243 16.292731009026177 9.873280694972408 0 0 0
736 246 2 -1.1794 0.17145334915239555 14.12480435572306 7.707394707214821 0 0 0
735 245 1 0.5897 0.6600503312793865 15.93286481579603 10.418935252175409 0 0 0
745 249 2 -1.1794 4.657695012258022 18.385137029430357 6.800392658758172 0 0 0
737 246 1 0.5897 1.123812410734105 14.144712754119965 7.8012269391099 0 0 0
739 247 2 -1.1794 4.935647078077465 15.649564661653514 6.611027750531424 0 0 0
733 245 2 -1.1794 1.3007371614018568 15.315331304404491 10.771511830542646 0 0 0
742 248 2 -1.1794 1.4115712637990698 17.114247502926037 7.304480370601349 0 0 0
1221 407 1 0.5897 4.340387278099805 14.967917753858607 11.216871168098873 0 0 0
744 248 1 0.5897 1.3167748602498344 16.301483800159684 6.807954337471641 0 0 0
743 248 1 0.5897 1.5150796944833282 17.79241468779761 6.637001127874042 0 0 0
727 243 2 -1.1794 6.106159801854785 16.845491126022765 9.420800213815712 0 0 0
741 247 1 0.5897 4.6489091625270245 16.556436147708492 6.717907592934557 0 0 0
870 290 1 0.5897 2.3846695292384514 18.280749498904 10.485252294468042 0 0 0
740 247 1 0.5897 4.910488019136609 15.499716892629689 5.6659468668062605 0 0 0
818 273 1 0.5897 0.16816900515865071 16.91445603892947 8.582085379356888 1 0 0
746 249 1 0.5897 5.469299557630087 18.55482972336656 7.278634759354876 0 0 0
1211 404 1 0.5897 2.9438419332655497 17.898974920890748 15.706699863021083 0 0 0
1201 401 2 -1.1794 4.822718542426683 14.020405271198875 15.725133944048014 0 0 0
1213 405 2 -1.1794 1.5881877896623517 15.22250262244586 16.482196997797693 0 0 0
1203 401 1 0.5897 4.931862035173162 13.288454163723042 16.332152731230813 0 0 0
1204 402 2 -1.1794 2.8679016006587896 13.888768627361552 13.535141941117308 0 0 0
1205 402 1 0.5897 3.2468570715080385 14.073273059161654 14.394564894687718 0 0 0
1206 402 1 0.5897 3.413772262593388 13.18860492684866 13.177467987277454 0 0 0
1215 405 1 0.5897 2.368438354766828 15.43383878941056 15.969602273351422 0 0 0
1210 404 2 -1.1794 3.202256680841029 17.196227017456238 15.11045566637071 0 0 0
734 245 1 0.5897 1.6633093189554542 15.757633547914663 11.539063385912794 0 0 0
1212 404 1 0.5897 4.145126338097693 17.31396783333186 14.995039218700436 0 0 0
1225 409 2 -1.1794 4.464095507100131 18.276315019140394 12.091658551135572 0 0 0
1700 567 1 0.5897 4.840841139636549 15.55422802055121 17.12946488262788 0 0 0
1220 407 1 0.5897 3.8656963715853734 15.070272874726864 12.650804045805229 0 0 0
1229 410 1 0.5897 1.7793298759068663 13.547995283428234 16.31435650404235 0 0 0
1218 406 1 0.5897 1.1976864739043847 14.344435218942516 13.477065867299522 0 0 0
1248 416 1 0.5897 5.999725112358352 13.425342506981218 12.845780820745853 0 0 0
1219 407 2 -1.1794 4.3317944612333825 15.557130698404494 11.97115829473068 0 0 0
1222 408 2 -1.1794 1.373482396585367 17.015216845499797 12.874911813242159 0 0 0
1223 408 1 0.5897 1.5383043646112584 17.72681958558735 12.25636341563807 0 0 0
1224 408 1 0.5897 2.1421616405929824 17.01011397856077 13.445287074024588 0 0 0
1214 405 1 0.5897 0.940336679645369 15.873442821078712 16.212583385782857 0 0 0
1202 401 1 0.5897 5.48907869939353 13.876443541760084 15.053217607168708 0 0 0
1227 409 1 0.5897 4.5614204036756725 17.32613105679497 12.030583789341952 0 0 0
1216 406 2 -1.1794 0.2427369668668129 14.32920109469863 13.540549580479002 0 0 0
1298 433 1 0.5897 0.28469761835566615 17.122327576495884 14.24323215278783 1 0 0
1228 410 2 -1.1794 1.693252926042849 12.60084520937714 16.206914514250606 0 0 0
1350 450 1 0.5897 1.015089135129898 18.529948637557936 16.109464631020337 0 0 0
1247 416 1 0.5897 5.775931717009551 14.90245777389733 13.08966789956769 0 0 0
1226 409 1 0.5897 5.276889000890698 18.57504353338125 12.49949020581415 0 0 0
1106 369 1 0.5897 4.726823958363674 12.421476187828533 11.450502253396861 0 0 0
1779 593 1 0.5897 0.15266799191093866 17.617392927683877 21.61562245921001 1 0 0
261 87 1 0.5897 4.438427951375069 15.208465988170952 22.90645927312856 0 0 -1
1681 561 2 -1.1794 4.535163746427191 13.886055212563537 21.575501378044194 0 0 0
1682 561 1 0.5897 5.251690776119096 14.030962154615557 20.957588605488255 0 0 0
1683 561 1 0.5897 4.706381873432921 13.018793731413604 21.94241912577713 0 0 0
1684 562 2 -1.1794 2.884849978948536 13.927054901718346 19.324432953262104 0 0 0
1685 562 1 0.5897 3.517106483412969 13.342274345520803 18.90678392896583 0 0 0
1686 562 1 0.5897 3.128827450888142 13.92264307546541 20.250027054166686 0 0 0
1693 565 2 -1.1794 1.6173278915501503 15.181519376642065 22.380719903083424 0 0 0
1689 563 1 0.5897 4.947588004879619 16.902632318635394 21.111725256573827 0 0 0
1690 564 2 -1.1794 3.1930632693662178 16.913283501100786 20.944188381145736 0 0 0
1691 564 1 0.5897 2.7577527982169543 16.15272702273727 21.32910953882277 0 0 0
1692 564 1 0.5897 3.0058313431346355 16.848554798612103 20.007693259621732 0 0 0
1699 567 2 -1.1794 4.74202541483119 15.666099268330676 18.074977150386054 0 0 0
1687 563 2 -1.1794 5.892525396847448 16.81950602519037 20.983773724509007 0 0 0
1705 569 2 -1.1794 5.020000170280001 18.474672885860187 18.219666868283042 0 0 0
1694 565 1 0.5897 0.9132611818778729 15.68355386335568 21.970335212224917 0 0 0
1697 566 1 0.5897 1.240435188864598 13.73894836133567 18.891635051062906 0 0 0
1703 568 1 0.5897 1.7193762752195052 16.19406616143123 17.989668597280456 0 0 0
1701 567 1 0.5897 3.8888603089937406 15.280716053112307 18.274380095527334 0 0 0
1702 568 2 -1.1794 1.7297668263394113 16.880824019670538 18.656314289857413 0 0 0
1830 610 1 0.5897 2.3273359904411155 18.36500990386509 21.817771737580685 0 0 0
1704 568 1 0.5897 1.7528225623348448 17.697995474223635 18.15851984261279 0 0 0
1695 565 1 0.5897 1.4049190097344277 14.268459661934134 22.18769158714045 0 0 0
1707 569 1 0.5897 5.151426755817017 17.582124531019492 17.900048484478106 0 0 0
1778 593 1 0.5897 0.566019081070592 17.068353369632376 20.266691112055504 1 0 0
1696 566 2 -1.1794 0.2924225158446377 13.66450049743784 19.00080261947422 0 0 0
1728 576 1 0.5897 5.9140695096140545 14.541043657888828 18.849148419404727 0 0 0
1688 563 1 0.5897 6.015889085488987 16.912459098744986 20.03909924848987 0 0 0
1586 529 1 0.5897 5.300047993268243 12.407818592578717 18.59721505919874 0 0 0
1708 570 2 -1.1794 1.7028711954621982 12.397582807783447 21.860938117156792 0 0 0
1777 593 2 -1.1794 0.027859467716211943 16.868580664531994 21.03266181626475 1 0 0
379 127 2 -1.1794 4.339346493042673 21.930390231388987 0.43801637066635735 0 0 0
381 127 1 0.5897 5.194538588327635 21.806567110729162 0.8497502787242386 0 0 0
361 121 2 -1.1794 4.724738079767885 20.11772089515182 4.391222942481772 0 0 0
362 121 1 0.5897 3.956300375598707 19.88271569363045 3.8711456128490465 0 0 0
390 130 1 0.5897 1.7654916124670015 19.51330239443435 4.999901689118987 0 0 0
364 122 2 -1.1794 2.888024775420447 20.04539382868843 2.0167770719493063 0 0 0
365 122 1 0.5897 3.3872033928003544 20.64014881080609 1.4570948619656907 0 0 0
366 122 1 0.5897 1.973898262902151 20.28842722983848 1.8701839298689622 0 0 0