LAMMPS data file via write_data, version 30 Jul 2021, timestep = 17000000

1920 atoms
2 atom types
1280 bonds
1 bond types
640 angles
1 angle types

-0.12482826170803563 24.854829261708538 xlo xhi
-0.05749594945769587 24.787496949455807 ylo yhi
-0.02670609145569003 22.836706091449887 zlo zhi

Masses

1 1.008
2 15.999

Pair Coeffs # lj/cut/tip4p/long/omp

1 0 0
2 0.21084 3.1668

Bond Coeffs # harmonic/omp

1 450 0.9572

Angle Coeffs # harmonic/omp

1 55 104.52

Atoms # full

1 1 2 -1.1794 4.5751238546315305 1.4477679848550207 4.1737593031761655 0 0 0
2 1 1 0.5897 4.810917136876496 2.162127090834557 4.76557088404055 0 0 0
3 1 1 0.5897 5.359508469655266 1.3065059295466124 3.6436774113177495 0 0 0
4 2 2 -1.1794 2.843550198538675 1.4919737773842467 1.823697119137286 0 0 0
16 6 2 -1.1794 0.11621609001339375 1.706535762342819 1.797327287006642 0 0 0
6 2 1 0.5897 1.8905334055434864 1.447816486930704 1.901399389950257 0 0 0
13 5 2 -1.1794 1.6321320161067538 2.9509358153475835 4.918667736719562 0 0 0
9 3 1 0.5897 4.828187791549845 4.387500087049153 3.190292020299617 0 0 0
10 4 2 -1.1794 3.199358484389249 4.815602804933616 3.4718002724911434 0 0 0
11 4 1 0.5897 2.774768835387426 5.41489467222144 4.085587944332075 0 0 0
12 4 1 0.5897 2.762998284749067 4.979456831424206 2.6358092749123623 0 0 0
98 33 1 0.5897 0.20463325843230457 5.584468296797253 3.5730071627126416 1 0 0
28 10 2 -1.1794 1.6616135426391705 0.2976225779980667 4.687659506124095 0 0 0
24 8 1 0.5897 1.70644779394569 5.409235894519669 0.4514490084201623 0 0 0
20 7 1 0.5897 3.7565363868342243 2.8847125002680136 0.7610002493193628 0 0 0
23 8 1 0.5897 1.059069535209487 4.85138689644722 1.7009992571670618 0 0 0
14 5 1 0.5897 2.463328347567024 3.1843567210340153 4.5053491964937455 0 0 0
21 7 1 0.5897 5.157410436352218 2.959854292686286 1.3299928376426533 0 0 0
22 8 2 -1.1794 1.8190993209346074 4.742972964484871 1.1293471956648813 0 0 0
5 2 1 0.5897 3.1586974200094473 1.4830156360979074 2.7274258406076917 0 0 0
99 33 1 0.5897 0.3624669823251613 4.104553627464728 3.8498988105251852 1 0 0
97 33 2 -1.1794 -0.029260955230380595 4.72137609642766 3.2316478405711124 1 0 0
26 9 1 0.5897 4.535570357025378 5.2247390865785555 0.6270145553931067 0 0 0
15 5 1 0.5897 1.6155671996989587 1.994082447068 4.900723532209443 0 0 0
47 16 1 0.5897 5.888628973968466 0.9248183183823301 1.5177050423091807 0 0 0
19 7 2 -1.1794 4.601981234705719 3.315934889137315 0.6365503108819682 0 0 0
7 3 2 -1.1794 5.784232073175975 4.341035504023717 3.197254095544073 0 0 0
387 129 1 0.5897 4.000075939180696 0.1627024256331184 1.1993407510151357 0 1 0
8 3 1 0.5897 6.051277077612524 4.989397455827743 3.848758377750368 0 0 0
867 289 1 0.5897 4.785412706804291 0.00015525209866721484 5.423562422839372 0 1 0
150 50 1 0.5897 1.4451004665642735 6.030316664220218 5.606703185618433 0 0 0
500 167 1 0.5897 3.912518037321999 2.8078939227437947 6.633307311511255 0 0 0
481 161 2 -1.1794 4.229501976814003 1.4203693403145967 9.905902437586942 0 0 0
503 168 1 0.5897 2.1994419131296516 4.625836245930456 7.602602000552384 0 0 0
488 163 1 0.5897 5.092872590159882 4.825297329109149 9.167528034663636 0 0 0
484 162 2 -1.1794 2.9013351723618315 1.6529610041506264 7.484900776972811 0 0 0
485 162 1 0.5897 3.205290613504189 1.588910083131981 8.39024067989004 0 0 0
629 210 1 0.5897 0.7291075702342149 5.808185020370767 10.084175342072093 0 0 0
496 166 2 -1.1794 0.1686739375683613 1.5933588545705542 7.693839008615408 0 0 0
505 169 2 -1.1794 4.489767671130057 5.95017932950271 6.551966752145788 0 0 0
490 164 2 -1.1794 3.3125758710217714 4.551403604350029 9.030277351316595 0 0 0
491 164 1 0.5897 2.8513999063414066 3.76416103691909 9.319655545011582 0 0 0
494 165 1 0.5897 1.7934442393178784 2.002077328093965 10.49362967098707 0 0 0
493 165 2 -1.1794 1.4880800392082127 2.887823962467795 10.297728146502687 0 0 0
483 161 1 0.5897 4.711803505318363 1.7780969261512813 10.651267957886605 0 0 0
482 161 1 0.5897 4.837450750826981 1.4919231055159135 9.170066989837538 0 0 0
492 164 1 0.5897 3.0547508602340345 5.225370952464997 9.659116986537347 0 0 0
497 166 1 0.5897 1.118465503042757 1.631222460498462 7.581184103983444 0 0 0
486 162 1 0.5897 2.9376839853465233 0.7550012895759778 7.155484316077417 0 0 0
504 168 1 0.5897 1.5434636552566618 4.028975072582289 6.375769896159243 0 0 0
502 168 2 -1.1794 1.5578989868713953 4.81723453257631 6.918528517047767 0 0 0
579 193 1 0.5897 0.09112856289810103 3.965796578486726 9.494285316502223 1 0 0
501 167 1 0.5897 4.609104668402234 4.133907766021333 6.413725926750177 0 0 0
499 167 2 -1.1794 4.695137004579864 3.196167778521494 6.242220082725087 0 0 0
527 176 1 0.5897 5.6473242854533865 0.6486233974154814 7.480186293521147 0 0 0
578 193 1 0.5897 0.09046017822234165 4.717528888151805 8.180308030757871 1 0 0
528 176 1 0.5897 5.65886945358984 2.158731727466627 7.585889705012511 0 0 0
487 163 2 -1.1794 6.043505747100824 4.714330348382864 9.152816208466783 0 0 0
495 165 1 0.5897 1.433642802623889 3.3172087236814276 11.151420055269158 0 0 0
526 176 2 -1.1794 5.959944240678863 1.3664955141658088 8.030720485186912 0 0 0
498 166 1 0.5897 -0.10844243908557902 0.8567410404199063 7.1490782741734185 0 0 0
628 210 2 -1.1794 1.5454800664073747 6.129787234415822 10.46667972578256 0 0 0
983 328 1 0.5897 2.189976125877311 4.730810030294278 13.321942521123992 0 0 0
961 321 2 -1.1794 4.229341991799775 1.7193125146013177 15.286420905501691 0 0 0
962 321 1 0.5897 5.020541965699684 1.6133736316613314 14.75822877697432 0 0 0
963 321 1 0.5897 4.257969258295048 0.9934688614161715 15.909702339415094 0 0 0
964 322 2 -1.1794 2.5518966097906173 1.7056151066422105 13.07021921219526 0 0 0
965 322 1 0.5897 2.811638595139406 1.8994463773123487 13.970835125698068 0 0 0
966 322 1 0.5897 1.5989371145463491 1.6237231082129875 13.107626219858606 0 0 0
971 324 1 0.5897 3.929950120703073 4.200349310556273 14.892475332988914 0 0 0
970 324 2 -1.1794 3.1150769938747196 4.646378594666521 15.123227731597908 0 0 0
979 327 2 -1.1794 4.527238122807652 3.2462506004514893 12.025832426369362 0 0 0
972 324 1 0.5897 2.5205848939856352 3.9419159294118824 15.381102536910936 0 0 0
974 325 1 0.5897 1.6749643551422222 3.3113550546859565 16.891089268050745 0 0 0
988 330 2 -1.1794 1.1854257422096723 0.20411755705320522 16.141791846081798 0 0 0
987 329 1 0.5897 4.549298104285219 4.964453577778686 11.932207795898554 0 0 0
985 329 2 -1.1794 4.462773973344448 5.913438404422329 11.84217513409133 0 0 0
984 328 1 0.5897 1.6669975148815224 5.20927844795693 11.9843298471657 0 0 0
990 330 1 0.5897 1.1243595899035261 1.1552459363245602 16.230057213985923 0 0 0
982 328 2 -1.1794 1.443817903236908 4.649501778199394 12.727953668606952 0 0 0
980 327 1 0.5897 3.702590967506018 2.7760858101973453 12.14877928093514 0 0 0
975 325 1 0.5897 0.7466860024442953 3.508778545920682 15.71165780645306 0 0 0
973 325 2 -1.1794 1.3155710742861586 2.860659851518705 16.12698256110457 0 0 0
981 327 1 0.5897 5.113401031966854 2.879920578438063 12.687933557506916 0 0 0
1346 449 1 0.5897 3.6036035902073413 0.2574873854216216 12.75854394946337 0 1 0
967 323 2 -1.1794 5.94876362996852 4.606085491629672 14.767117135273383 0 0 0
1058 353 1 0.5897 0.021287044674587197 4.886922640516997 14.064073957444919 1 0 0
1460 487 1 0.5897 4.499956873595675 2.9611979260551173 16.773149889478425 0 0 0
1008 336 1 0.5897 5.873233462545407 0.7061307288786429 13.046444451479129 0 0 0
1109 370 1 0.5897 0.7500036661144038 6.105703878353312 16.088814035497172 0 0 0
986 329 1 0.5897 3.6703405799271036 6.129856340457065 12.33350746549703 0 0 0
1443 481 1 0.5897 4.8678571638162556 2.2712495883684007 22.131541531234628 0 0 0
1463 488 1 0.5897 1.0690942732664641 4.45955510675274 18.93752436096375 0 0 0
1441 481 2 -1.1794 4.77314236261173 1.4902654567381486 21.586341472077706 0 0 0
1442 481 1 0.5897 4.113338370943569 1.7303333933486078 20.93579531128273 0 0 0
1465 489 2 -1.1794 4.452525153182426 5.894886050126745 17.863536152158375 0 0 0
1444 482 2 -1.1794 2.796000576495373 1.7467894740745866 19.40698937364682 0 0 0
1454 485 1 0.5897 2.187888844126355 3.31327763356148 21.20681988409537 0 0 0
1488 496 1 0.5897 5.9727934926010855 0.6043334002845431 18.743168278338604 0 0 0
1445 482 1 0.5897 3.259333557372976 2.2683043474521805 18.7516284693951 0 0 0
1450 484 2 -1.1794 3.3543390453894992 4.715856040652233 20.735422417746165 0 0 0
1451 484 1 0.5897 4.2934334208301985 4.900467899259627 20.719731765682926 0 0 0
1452 484 1 0.5897 3.101615785743388 4.678710261121584 19.81299344306311 0 0 0
1453 485 2 -1.1794 1.4452201195920749 2.9484931248611335 21.688031968188557 0 0 0
1469 490 1 0.5897 1.4213276564038262 1.094446983111614 21.811869779802237 0 0 0
1456 486 2 -1.1794 0.05449565918440577 1.7740151764737129 19.209053043284115 0 0 0
1459 487 2 -1.1794 4.715433998017494 3.16816470791637 17.682465619040823 0 0 0
1446 482 1 0.5897 1.8837135079174114 1.7527364333492768 19.117298516818686 0 0 0
1462 488 2 -1.1794 1.8415508702983756 4.505603565506439 18.374159184328278 0 0 0
1464 488 1 0.5897 1.7185028525877042 5.305521301575576 17.86313997127417 0 0 0
1461 487 1 0.5897 5.379104801964832 2.5223908124717656 17.924784015853284 0 0 0
1487 496 1 0.5897 5.896471495741589 1.3546251191045868 20.055748794065934 0 0 0
1538 513 1 0.5897 0.28487618308045637 3.9312955950953326 20.68980506699762 1 0 0
1466 489 1 0.5897 4.7503207622523 4.988274378969194 17.789081310386035 0 0 0
1539 513 1 0.5897 0.04594030196482088 5.42616035552576 20.694045693491198 1 0 0
1455 485 1 0.5897 1.6060696716909049 3.1934427399204006 22.59921672614929 0 0 0
1468 490 2 -1.1794 1.4357208991265573 0.13739705701749205 21.815404791637064 0 0 0
1826 609 1 0.5897 4.127032315706849 -0.02538623314544987 18.861153556278598 0 1 0
219 73 1 0.5897 0.1278999488412632 10.351550165683255 4.206514003679119 1 0 0
121 41 2 -1.1794 4.4371984227896455 7.562504168264244 4.220950743570744 0 0 0
122 41 1 0.5897 3.603202475095998 7.725320554810584 3.7803218101169866 0 0 0
140 47 1 0.5897 4.559399151182172 10.456140430071262 0.4119309270601512 0 0 0
124 42 2 -1.1794 2.8937815963689006 8.000687531439462 1.9281491106034845 0 0 0
139 47 2 -1.1794 4.849736410433527 9.6010862217138 0.7293503557496261 0 0 0
126 42 1 0.5897 3.3300071659738135 8.823813225092735 1.7082674707044934 0 0 0
27 9 1 0.5897 5.25737776967959 6.25682608062868 1.4669651862838633 0 0 0
269 90 1 0.5897 0.7940426052091801 12.136048762888187 4.947508708713642 0 0 0
130 44 2 -1.1794 3.15565110235148 11.093892133605387 3.811292530818783 0 0 0
144 48 1 0.5897 1.1882483072571333 11.227258828139435 1.0707474341494037 0 0 0
132 44 1 0.5897 2.6841833858500483 10.970346993938469 2.9875229681269704 0 0 0
133 45 2 -1.1794 1.5189303509040621 9.229561767087949 4.896696029391449 0 0 0
1574 525 1 0.5897 1.3524497953374868 9.465510186357294 0.22651779245608566 0 0 1
131 44 1 0.5897 2.6735863904441515 11.787170335971322 4.26201035854643 0 0 0
137 46 1 0.5897 1.237969352326739 7.8293087522082185 2.2786230446270603 0 0 0
123 41 1 0.5897 5.096982938322561 7.9152440883300565 3.623912268570428 0 0 0
143 48 1 0.5897 0.9495594643427199 10.826233320719604 2.510827409576382 0 0 0
142 48 2 -1.1794 1.4537644664002016 10.58885979725017 1.732632095828929 0 0 0
125 42 1 0.5897 3.4894681191210704 7.3214784653663845 1.6118956643652216 0 0 0
135 45 1 0.5897 2.272131893520294 9.574331058909351 4.417100891816533 0 0 0
128 43 1 0.5897 4.997624478633721 11.003391520539658 3.5727654705744745 0 0 0
149 50 1 0.5897 1.505314116207282 7.464210338815781 5.124999373816459 0 0 0
145 49 2 -1.1794 4.364590835115135 12.226439587588075 0.8333881161493311 0 0 0
127 43 2 -1.1794 5.94325899322153 10.855228968233916 3.580375849934138 0 0 0
148 50 2 -1.1794 1.463484016428718 6.5611688511623605 4.810469066554197 0 0 0
25 9 2 -1.1794 4.646676859827766 6.1692642110465155 0.7351598039828788 0 0 0
136 46 2 -1.1794 0.2809989802115681 7.808586016212979 2.2811472849449297 0 0 0
621 207 1 0.5897 4.589126375338329 8.799561409184562 5.464865522988093 0 0 0
138 46 1 0.5897 0.021702305971487923 8.652638782959167 1.9116759177868183 0 0 0
507 169 1 0.5897 4.38043296511897 6.17201713131974 5.627329226811712 0 0 0
624 208 1 0.5897 2.1405988959362636 11.331448902428258 6.8635696785517215 0 0 0
619 207 2 -1.1794 4.738864127772709 9.232357756797699 6.3053391835928005 0 0 0
601 201 2 -1.1794 4.877802889555468 7.921049765374589 10.040380183734646 0 0 0
625 209 2 -1.1794 4.364098648235394 11.994836120689058 6.417150348435579 0 0 0
603 201 1 0.5897 4.246668189092833 7.795245045655262 9.331856863972348 0 0 0
604 202 2 -1.1794 3.023678183519331 7.797334033894829 8.0499220065704 0 0 0
605 202 1 0.5897 3.260539070376339 8.58823913110755 7.5656487494945095 0 0 0
606 202 1 0.5897 2.067504850560393 7.771301630194474 8.014086723664287 0 0 0
602 201 1 0.5897 4.593451267703267 7.315884551143977 10.72526107413552 0 0 0
610 204 2 -1.1794 3.3514549465143157 10.747923787186233 9.623704206440458 0 0 0
611 204 1 0.5897 4.256340946079285 11.031917956470007 9.494283097559624 0 0 0
134 45 1 0.5897 1.643433700973526 9.539269224504752 5.793745624137601 0 0 0
615 205 1 0.5897 2.2030712183141534 9.104742158266042 10.142509496423482 0 0 0
630 210 1 0.5897 1.4134657647520192 7.073649419587865 10.555341755509616 0 0 0
620 207 1 0.5897 5.499922494661902 8.783910926212464 6.673960971013715 0 0 0
613 205 2 -1.1794 1.404089504949098 8.815981920110772 10.583465799027705 0 0 0
506 169 1 0.5897 3.9269938767619674 6.570221027112183 7.0156585493073775 0 0 0
612 204 1 0.5897 2.9227888660830055 11.495068136792726 10.04106346708308 0 0 0
622 208 2 -1.1794 1.949297119985479 10.54189753848619 7.3697001118204035 0 0 0
623 208 1 0.5897 2.5233820095835147 10.601394899061079 8.133271592793703 0 0 0
647 216 1 0.5897 6.016875680222898 7.509870341807239 8.831693732934017 0 0 0
626 209 1 0.5897 4.578823158174031 11.06345574687929 6.366232427938804 0 0 0
697 233 2 -1.1794 -0.022791066996529552 10.859400701737954 9.151391167242823 1 0 0
698 233 1 0.5897 0.2294237616702396 10.127148289216619 9.713840070997096 1 0 0
648 216 1 0.5897 5.934172775988285 6.7729675128898945 7.511933481917096 0 0 0
699 233 1 0.5897 0.5634297908877635 10.795831267237098 8.397427737514509 1 0 0
616 206 2 -1.1794 0.11667752649767565 7.839883065100579 7.839812964680428 0 0 0
614 205 1 0.5897 1.3161390469182843 9.406436706763142 11.331644342347655 0 0 0
1083 361 1 0.5897 4.719942390092389 6.75892126459404 16.23316040889208 0 0 0
1085 362 1 0.5897 3.5163456694500375 7.332154202129812 14.274312126073198 0 0 0
1081 361 2 -1.1794 4.543877176599326 7.43594591830187 15.579875781359085 0 0 0
1094 365 1 0.5897 1.4270122296101682 8.2662799273367 16.424963185983422 0 0 0
1093 365 2 -1.1794 1.6370971929300895 9.199280408299833 16.38561153407247 0 0 0
1084 362 2 -1.1794 2.989527878484364 7.497913054487201 13.492558366516501 0 0 0
1099 367 2 -1.1794 4.654327674317036 9.447833410574367 12.512165286813808 0 0 0
1086 362 1 0.5897 3.375195396320609 8.283802837448222 13.105504668545953 0 0 0
1082 361 1 0.5897 4.29275708955691 8.20439886499672 16.09229274052203 0 0 0
1089 363 1 0.5897 5.034044931231984 10.67138892526719 15.188532329240449 0 0 0
1090 364 2 -1.1794 3.0861474659534385 10.801689275172409 14.833494079312844 0 0 0
1103 368 1 0.5897 1.3242572305047373 11.440894913587544 12.224944782947363 0 0 0
1092 364 1 0.5897 2.7848755599024715 11.599331489713782 15.268430612614093 0 0 0
1100 367 1 0.5897 5.42995010260706 9.13866653768775 12.980166166908855 0 0 0
1179 393 1 0.5897 0.26774975146966984 10.941917013539632 14.127555661393387 1 0 0
1105 369 2 -1.1794 4.887176719522103 12.189009598722631 12.413299923838483 0 0 0
1095 365 1 0.5897 0.9185147429978344 9.58617414007017 15.885462406221347 0 0 0
1097 366 1 0.5897 1.2690163089115787 7.549600488054438 13.656432269369622 0 0 0
1091 364 1 0.5897 2.711202900713428 10.089564558671897 15.351625229553152 0 0 0
1101 367 1 0.5897 4.782572165751848 9.149494742672124 11.61179597115643 0 0 0
1102 368 2 -1.1794 1.3746641689537775 10.56765387830498 12.613619183121706 0 0 0
1107 369 1 0.5897 4.942004279017332 11.254185902890828 12.215146901042212 0 0 0
1104 368 1 0.5897 2.0487539466214564 10.64408350681685 13.288848458019629 0 0 0
1110 370 1 0.5897 2.2505424006736368 6.285391253897045 15.999427577469199 0 0 0
1087 363 2 -1.1794 5.944214253157042 10.96698915201678 15.167259065568972 0 0 0
1108 370 2 -1.1794 1.4954362185796353 6.488368780813434 16.551520120085293 0 0 0
1096 366 2 -1.1794 0.3120540553719468 7.5544751551286 13.67717443500721 0 0 0
1128 376 1 0.5897 5.9213020759820125 7.050699986732563 13.055794836039949 0 0 0
1127 376 1 0.5897 6.01504215353996 7.708319081353902 14.416078420853422 0 0 0
1098 366 1 0.5897 0.09214120138688875 7.542765363240172 14.608634955614846 0 0 0
1178 393 1 0.5897 0.09973889730198535 11.670495781455047 15.443836998133847 1 0 0
1580 527 1 0.5897 5.053659281904134 8.95733286475616 18.013623674833678 0 0 0
1576 526 2 -1.1794 0.2377601741352035 7.879308474690509 19.127237064069952 0 0 0
1585 529 2 -1.1794 4.540243403232372 12.357616833027173 17.896048814057167 0 0 0
1561 521 2 -1.1794 4.890085968897337 7.992452604055565 21.374641255419395 0 0 0
1562 521 1 0.5897 4.643526405492237 7.345977175620805 22.036021429915976 0 0 0
1563 521 1 0.5897 4.149469501121694 8.010093978274334 20.768541460952832 0 0 0
1564 522 2 -1.1794 2.9192251572250543 7.677310914082567 19.415074635366107 0 0 0
1565 522 1 0.5897 1.9768451793082837 7.8418910618455 19.447644965709735 0 0 0
1566 522 1 0.5897 3.0075900616604723 6.895461430448043 18.870051311843053 0 0 0
1589 530 1 0.5897 1.3470165871171111 7.292824393948981 22.058654057811015 0 0 0
1570 524 2 -1.1794 3.2551678305689076 10.70603208951239 20.844666657618816 0 0 0
1571 524 1 0.5897 2.836088241818069 10.512617192729003 20.006146502026304 0 0 0
1572 524 1 0.5897 4.19317173701301 10.645534251767574 20.663799797696342 0 0 0
1584 528 1 0.5897 1.462373289546467 10.349048770194642 17.77849819687546 0 0 0
1588 530 2 -1.1794 1.340830089387844 6.342725858156066 21.942720071755694 0 0 0
1587 529 1 0.5897 4.683037365088635 11.414381101112406 17.818056393111426 0 0 0
1573 525 2 -1.1794 1.4328017402752298 9.024900705577188 22.244040306015382 0 0 0
1579 527 2 -1.1794 4.514140503414931 9.511989821923699 17.45020446945936 0 0 0
1575 525 1 0.5897 2.171704093168373 9.458281068297062 21.816961312896417 0 0 0
1582 528 2 -1.1794 1.7246226426833589 10.761602268379924 18.60139245368843 0 0 0
1583 528 1 0.5897 0.9160409281480251 10.81639506648138 19.11069881536852 0 0 0
1581 527 1 0.5897 3.632988435266137 9.44220373970671 17.817512239792766 0 0 0
1657 553 2 -1.1794 -0.06642904978815636 10.794190898174461 20.64596250357542 1 0 0
1608 536 1 0.5897 6.00164006232013 8.094772235683797 19.949765599267963 0 0 0
1709 570 1 0.5897 2.1666021784897493 12.22329110895676 22.18099714524593 0 0 0
1567 523 2 -1.1794 5.925076195001297 10.568812438250054 20.435570370862802 0 0 0
1658 553 1 0.5897 0.2169149558808955 10.069932103322156 21.203930728477452 1 0 0
1710 570 1 0.5897 0.7251862327754878 11.888784972763364 21.861150238318494 0 0 0
141 47 1 0.5897 4.7790183659161505 9.025690865263249 22.831149904715026 0 0 -1
1467 489 1 0.5897 5.161654746653764 6.343321730862717 18.324216838946516 0 0 0
1590 530 1 0.5897 2.0474823895360745 6.1723547722423335 21.31998737156552 0 0 0
740 247 1 0.5897 4.953445388218597 15.155225821029658 5.621921078260693 0 0 0
270 90 1 0.5897 1.2634151365796238 13.527618047763784 5.314872689287905 0 0 0
241 81 2 -1.1794 4.6651433268187255 14.018111413282229 4.2665855471318075 0 0 0
253 85 2 -1.1794 1.4331609542482346 15.379909938180447 4.713461160272204 0 0 0
243 81 1 0.5897 3.856462977614512 13.930223615346453 3.7620923019845356 0 0 0
244 82 2 -1.1794 2.7226427732277076 13.978606192190433 2.361610319940861 0 0 0
245 82 1 0.5897 1.8056841849161362 13.902910707142007 2.0976485838750345 0 0 0
246 82 1 0.5897 2.980242241949533 14.85793498335675 2.0848668090227678 0 0 0
265 89 2 -1.1794 4.742577687506797 18.299236645443976 0.6531628703627215 0 0 0
250 84 2 -1.1794 3.084610067232975 17.148507057619106 3.617567186480338 0 0 0
251 84 1 0.5897 2.7883530734927686 17.394070965732844 2.7411743431792805 0 0 0
252 84 1 0.5897 3.9549052326151797 16.774267608717814 3.4806378256300854 0 0 0
242 81 1 0.5897 4.710875129030088 13.216846800204019 4.788152877888062 0 0 0
339 113 1 0.5897 -0.032430076578700284 17.965928932152856 4.280196218512614 1 0 0
254 85 1 0.5897 0.6295543713569861 15.878710887329312 4.566416001405707 0 0 0
264 88 1 0.5897 1.2456156600814952 16.37407684358756 0.8523929231357155 0 0 0
259 87 2 -1.1794 4.403420830651763 15.696525921030807 0.785873039912573 0 0 0
147 49 1 0.5897 3.745346469860738 12.855680484026896 1.2032269247369738 0 0 0
262 88 2 -1.1794 1.343075154500833 17.136637249199147 1.4226123992100934 0 0 0
146 49 1 0.5897 5.226293829485575 12.575548397619386 1.0610131513590568 0 0 0
263 88 1 0.5897 1.015256410487838 17.869490675366574 0.9014417443353396 0 0 0
260 87 1 0.5897 4.60701110965688 16.610398699428384 0.5869942110692262 0 0 0
255 85 1 0.5897 2.0959644814820395 15.833702679502998 4.192939954610622 0 0 0
268 90 2 -1.1794 1.538823386690225 12.61093004557673 5.316270229237503 0 0 0
256 86 2 -1.1794 0.004123547758009771 13.786863310196651 2.0414232189192694 0 0 0
247 83 2 -1.1794 5.957396708673778 16.79781110320937 3.2810478777409138 0 0 0
288 96 1 0.5897 5.795484527529634 14.562457953487844 1.472504310921399 0 0 0
338 113 1 0.5897 0.01470129646171714 17.143961834828993 3.0098457574191753 1 0 0
726 242 1 0.5897 3.5615023408089352 14.847294549460042 7.583885451061186 0 0 0
721 241 2 -1.1794 4.619755021100754 13.416554995921645 9.914612279050775 0 0 0
722 241 1 0.5897 3.8366429349934985 13.544775869968186 9.379369063760471 0 0 0
736 246 2 -1.1794 0.2576770234539538 13.96962839113395 7.822202506754441 0 0 0
724 242 2 -1.1794 2.977931658566619 14.090141338022747 7.632376726061672 0 0 0
725 242 1 0.5897 3.278010287873877 13.51065700139989 6.932162935716466 0 0 0
744 248 1 0.5897 1.6115395174725702 16.48046172091519 6.2540495066655515 0 0 0
728 243 1 0.5897 4.998752212247083 16.47699318699456 9.205643117230467 0 0 0
741 247 1 0.5897 4.902870344688715 16.544750264691373 6.2205628610466634 0 0 0
730 244 2 -1.1794 3.236122904030165 16.647924814966387 8.8464330061437 0 0 0
732 244 1 0.5897 2.712477995875212 16.9196425902608 8.092698405439245 0 0 0
733 245 2 -1.1794 1.5631809927661762 15.267307897480515 10.678032531924254 0 0 0
768 256 1 0.5897 5.926497959716317 14.370017937369637 7.339872856020176 0 0 0
749 250 1 0.5897 1.4578952995345058 13.54589660211817 10.651055157834133 0 0 0
734 245 1 0.5897 0.7617364281068651 15.540291055263953 10.231530108129437 0 0 0
737 246 1 0.5897 1.2102164822363846 13.8970368210042 7.761958284132136 0 0 0
743 248 1 0.5897 1.4705587803826135 17.96345003466179 6.523476802394296 0 0 0
739 247 2 -1.1794 5.096550157385206 15.633136664661695 6.438773788086146 0 0 0
742 248 2 -1.1794 1.5019509902798485 17.113866200658467 6.963220894804004 0 0 0
723 241 1 0.5897 5.331577368311865 13.327104757852506 9.280975573761014 0 0 0
731 244 1 0.5897 2.7026515874306143 15.983296818825242 9.28215261745357 0 0 0
868 290 2 -1.1794 1.496514839222833 18.270928164952398 10.722248842971569 0 0 0
1221 407 1 0.5897 4.1606902528135405 14.784100950634716 11.163578747850744 0 0 0
727 243 2 -1.1794 5.949933885178671 16.45275196090585 9.310020089949205 0 0 0
870 290 1 0.5897 0.7506126797652015 17.84665659929249 10.298198667509874 0 0 0
745 249 2 -1.1794 4.6778279860951 18.35387286550668 6.0527435101404095 0 0 0
869 290 1 0.5897 2.262876553770337 17.822817907902504 10.364360718774678 0 0 0
748 250 2 -1.1794 1.4081232251079694 12.590043497469384 10.656856074541459 0 0 0
738 246 1 0.5897 0.07084307799832881 14.878234807541702 7.58617938000736 0 0 0
627 209 1 0.5897 5.12933561688205 12.395308057624893 6.829739377335991 0 0 0
750 250 1 0.5897 0.8476061263775033 12.374398146249316 9.911557079594514 0 0 0
1213 405 2 -1.1794 1.4700401509158496 15.547767990048163 16.80218911879707 0 0 0
1201 401 2 -1.1794 4.482770984501987 14.244739863326496 15.924519709552852 0 0 0
1220 407 1 0.5897 3.8235517277307607 14.819222312098951 12.638949433917675 0 0 0
1214 405 1 0.5897 2.233035046512348 16.038854835875814 16.497435091663654 0 0 0
1204 402 2 -1.1794 3.136665942721541 13.71016573167251 13.710680014977479 0 0 0
1205 402 1 0.5897 3.5100714535761495 13.918036754062776 14.56711941886471 0 0 0
1206 402 1 0.5897 3.682611381244353 12.998138429275546 13.377303148425316 0 0 0
1298 433 1 0.5897 0.15993057472362815 17.02502408625477 14.465718747120722 1 0 0
1210 404 2 -1.1794 3.414510816435977 16.805195369486768 14.839483106838843 0 0 0
1225 409 2 -1.1794 4.760404693268542 18.140549855271242 11.885910468222976 0 0 0
1212 404 1 0.5897 4.368788114133398 16.764754070990058 14.776618804441554 0 0 0
1203 401 1 0.5897 4.636699755048808 13.433852800124889 16.409210796604274 0 0 0
1218 406 1 0.5897 1.053413316520086 13.811309542535765 13.710329009981066 0 0 0
1219 407 2 -1.1794 4.308084682385071 15.291297268677441 11.961803401296267 0 0 0
1229 410 1 0.5897 1.56019761860898 13.71368602111882 16.492701848257322 0 0 0
1350 450 1 0.5897 0.9772646791620045 18.23380545335115 15.948379497556617 0 0 0
1211 404 1 0.5897 3.2425258032063367 17.567112180720805 15.392705328085396 0 0 0
1202 401 1 0.5897 5.0428142826544216 14.172344757074097 15.151691906803375 0 0 0
1222 408 2 -1.1794 1.303524479437127 16.686994862222722 13.086383145482534 0 0 0
1227 409 1 0.5897 4.619851487370156 17.19592388746677 11.949876253922476 0 0 0
1224 408 1 0.5897 2.0041304508259508 16.65356718419256 13.737698614850355 0 0 0
1223 408 1 0.5897 1.596269817243749 17.341674966398593 12.452474704126328 0 0 0
1215 405 1 0.5897 0.7261906211346949 15.96749697106442 16.370086971512695 0 0 0
1247 416 1 0.5897 5.967538885386954 14.779167570936252 13.462155727691066 0 0 0
1228 410 2 -1.1794 1.615367763727044 12.763517836177613 16.39121353806637 0 0 0
1226 409 1 0.5897 4.047502824208831 18.524352047254347 12.396455746997114 0 0 0
1248 416 1 0.5897 5.98003328366878 13.277105343628797 13.274068042869994 0 0 0
1216 406 2 -1.1794 0.10172746099080107 13.86868422032511 13.795358233801428 0 0 0
735 245 1 0.5897 1.5015118298529135 15.665195536238723 11.546370912736617 0 0 0
1207 403 2 -1.1794 6.049092533747862 17.033057508416057 15.031941981044875 0 0 0
1106 369 1 0.5897 4.723151281023584 12.604542736305058 11.566801716312556 0 0 0
1683 561 1 0.5897 4.477336950456528 13.068446804834434 22.08428687339488 0 0 0
1706 569 1 0.5897 4.501663971047306 17.531030044636854 17.881303359464535 0 0 0
1681 561 2 -1.1794 4.581893557808324 13.795704645110296 21.470848000695046 0 0 0
1704 568 1 0.5897 1.4247008879096883 18.22506661133781 18.401138197331385 0 0 0
1698 566 1 0.5897 -0.10154858501368604 14.794471975837292 19.15524511846236 0 0 0
1684 562 2 -1.1794 2.8851323386360286 13.971841579275104 19.28174289249879 0 0 0
1685 562 1 0.5897 3.25948685232971 13.286611437860092 18.728133223208804 0 0 0
1686 562 1 0.5897 3.315535321276927 13.857609217583468 20.129001650907714 0 0 0
1687 563 2 -1.1794 5.50717067978815 16.75907494970003 21.05565654617391 0 0 0
1689 563 1 0.5897 4.556042056378549 16.661354618490975 21.010488857539542 0 0 0
1690 564 2 -1.1794 2.778737793143653 16.75260144916077 20.912542846030092 0 0 0
1691 564 1 0.5897 2.2922051773475847 16.092004830747545 21.405562005555915 0 0 0
1779 593 1 0.5897 0.20832780227129788 17.690338421383288 21.533186061889573 1 0 0
1695 565 1 0.5897 0.4866662185990075 15.327364288417922 21.859807451442343 0 0 0
1701 567 1 0.5897 3.8962873214658096 15.52290764909584 18.78494331602415 0 0 0
1693 565 2 -1.1794 1.2557199904086631 15.059193609607695 22.362636311342268 0 0 0
1682 561 1 0.5897 5.264119165998664 13.503563307746571 20.86636750692158 0 0 0
1688 563 1 0.5897 5.794793449530081 16.732230159779498 20.14314061934291 0 0 0
1703 568 1 0.5897 1.1586957058275023 16.77682590508274 18.04962191705302 0 0 0
1694 565 1 0.5897 1.1230273306095027 14.125138575008965 22.524218515103787 0 0 0
1702 568 2 -1.1794 1.2521609192146816 17.369938368556497 18.795021616409553 0 0 0
1692 564 1 0.5897 2.30941581241532 16.825736984713235 20.08155413466561 0 0 0
1699 567 2 -1.1794 4.632596850290749 15.965065382617404 18.36240824851571 0 0 0
1697 566 1 0.5897 1.115340181795478 13.974150965655888 19.526831803177792 0 0 0
261 87 1 0.5897 4.250293918019377 15.293328972025872 22.794821416845654 0 0 -1
1696 566 2 -1.1794 0.16017168822952954 13.932960350830317 19.480001215680076 0 0 0
1830 610 1 0.5897 2.077262136872009 18.423327954677205 21.904204066177858 0 0 0
1700 567 1 0.5897 4.725159048416124 15.52363482170278 17.51819400680727 0 0 0
1778 593 1 0.5897 0.1006409396594791 17.053437597957775 20.164104495488882 1 0 0
1705 569 2 -1.1794 4.40366326623513 18.427410335512665 17.560276468685533 0 0 0
1586 529 1 0.5897 5.336154302834286 12.68711119280284 18.31337045405914 0 0 0
1230 410 1 0.5897 1.6459939454968358 12.427860676681831 17.287046148084908 0 0 0
1708 570 2 -1.1794 1.2700960872083862 12.374054061462529 22.480624793620873 0 0 0
380 127 1 0.5897 4.306840756737654 22.61511799221386 0.6953495485019954 0 0 0
385 129 2 -1.1794 4.739879391591649 24.47020161558609 0.9165104144239505 0 0 0
361 121 2 -1.1794 4.5364607887814925 20.252349546770972 4.068372196405218 0 0 0
362 121 1 0.5897 3.9418679180843483 20.200879640481826 3.32005739928436 0 0 0
383 128 1 0.5897 2.1266232073796947 23.308031424002827 1.8168886675452474 0 0 0
364 122 2 -1.1794 2.8570795068359405 19.923894207194493 1.9915974148691222 0 0 0
365 122 1 0.5897 3.053210005029492 20.636574761387013 1.3835145989108826 0 0 0
390 130 1 0.5897 2.094763226416967 18.63541750607987 4.379964198559095 0 0 0
267 89 1 0.5897 4.000920877818377 18.726405680141486 1.0817266914040637 0 0 0
370 124 2 -1.1794 3.241470646262466 23.3362704873326 3.1861660244108303 0 0 0
371 124 1 0.5897 4.158712605615997 23.06607674274212 3.22958509731637 0 0 0
372 124 1 0.5897 2.768279150544657 22.65745615904929 3.6672802018926274 0 0 0