LAMMPS data file via write_data, version 30 Jul 2021, timestep = 9250000

1296 atoms
2 atom types
864 bonds
1 bond types
432 angles
1 angle types

-10.765680324782057 12.745680324782057 xlo xhi
-9.232504128468593 12.222502128468593 ylo yhi
-0.009821842323120222 21.869820842321303 zlo zhi
-9.108019899989628 1.7550882924905473 2.8463642331294676 xy xz yz

Masses

1 1.008
2 15.999

Pair Coeffs # lj/cut/tip4p/long/omp

1 0 0
2 0.21084 3.1668

Bond Coeffs # harmonic/omp

1 450 0.9572

Angle Coeffs # harmonic/omp

1 55 104.52

Atoms # full

280 94 2 -1.1794 -9.724372666647746 -4.485840333404842 1.3568276518740237 1 1 0
270 90 1 0.5897 -8.485003348304694 -7.36900371266767 2.024889149211962 1 1 0
269 90 1 0.5897 -9.085997595568202 -5.991095282052054 2.2033569067282905 1 1 0
268 90 2 -1.1794 -9.054127218857031 -6.860446560445515 2.602476336124797 1 1 0
314 105 1 0.5897 -8.903090542223946 -6.6440784045733965 4.389544040041044 1 1 0
299 100 1 0.5897 -6.562154938599952 -8.139655347461337 3.77962878894919 1 1 0
163 55 2 -1.1794 -7.2357398715839825 -7.9456476870007275 0.799747336345659 1 1 0
164 55 1 0.5897 -6.38016121758102 -8.343434195578526 0.9607573396668975 1 1 0
298 100 2 -1.1794 -6.040062421897408 -7.345119491990198 3.8903641052589095 1 1 0
75 25 1 0.5897 -9.514207221181717 -3.4026666572036994 4.400071183015222 1 0 0
316 106 2 -1.1794 -1.7435175050182554 -4.712441574654621 1.6634893711116547 1 1 0
323 108 1 0.5897 -6.539063437183558 -5.603413805193192 3.320944408683037 1 1 0
322 108 2 -1.1794 -6.670817833721722 -4.7182270422807715 2.98156331787421 1 1 0
275 92 1 0.5897 -10.429044807109742 -8.010889140309144 3.3909705100695153 1 1 0
282 94 1 0.5897 -10.494764291546177 -3.9391779873862065 1.2024981459229072 1 1 0
3 1 1 0.5897 -1.574884868832875 -3.575177083077099 4.315952082879309 0 0 0
324 108 1 0.5897 -7.297921987850129 -4.320505197024346 3.585450074241621 1 1 0
310 104 2 -1.1794 -3.4670457117270503 -8.24050990045168 3.853351487919754 1 1 0
633 211 1 0.5897 -5.635603639101061 -6.02929635056287 5.385158699844618 1 1 0
242 81 1 0.5897 -1.011860881907495 -7.003229789401949 4.450395454488855 0 1 0
311 104 1 0.5897 -2.721373167890013 -7.983100642897826 3.3113401527650494 1 1 0
261 87 1 0.5897 -6.606874265360584 -4.954408168369333 1.0960676389597086 1 1 0
73 25 2 -1.1794 -8.660209450399389 -3.694350416026203 4.719129730372317 1 0 0
300 100 1 0.5897 -5.132573999043677 -7.645545259094623 3.8417307517832935 1 1 0
306 102 1 0.5897 -0.7628314006383352 -7.646231428304097 1.9167425693763323 1 1 0
305 102 1 0.5897 -1.3781335572419575 -6.315935760945514 2.2954264341008757 1 1 0
304 102 2 -1.1794 -1.2691860819765441 -7.215016380708253 2.605066300902608 1 1 0
259 87 2 -1.1794 -6.629281442561092 -5.213858208071133 0.1750102702437711 1 1 0
318 106 1 0.5897 -2.5992140450944827 -4.308329243602676 1.8071111131226942 1 1 0
292 98 2 -1.1794 -4.271066530423127 -3.7236568063859057 2.044556353430016 1 1 0
1262 421 1 0.5897 -1.9867016807905706 -5.737720333875455 0.20279148148046872 0 0 1
243 81 1 0.5897 -0.9409263192568655 -5.736073652831051 5.275632316789708 0 1 0
165 55 1 0.5897 -7.647621797345186 -8.516535426249758 0.151171939927821 1 1 0
260 87 1 0.5897 -6.948101132265901 -6.1162489082791005 0.18750741122075257 1 1 0
281 94 1 0.5897 -8.994570630578544 -3.867568698069089 1.3923567654017068 1 1 0
293 98 1 0.5897 -5.098498160471992 -3.9967947163385737 2.4405742374182737 1 1 0
241 81 2 -1.1794 -0.9709208692846367 -6.6895408875567055 5.3537705566022815 0 1 0
1 1 2 -1.1794 -0.86668631390455 -4.054431869738792 4.745990758323881 0 0 0
317 106 1 0.5897 -1.1677939228626606 -3.9817202227322435 1.4383994362584405 1 1 0
315 105 1 0.5897 -8.997887839604308 -5.492732945663875 5.36789029556934 1 1 0
313 105 2 -1.1794 -9.030870453138943 -6.447984694931382 5.31763922341501 1 1 0
420 140 1 0.5897 -9.166690727807623 -6.410778650380021 9.934051459242125 1 0 0
618 206 1 0.5897 -7.844080925814705 -7.482753144503775 6.721993244418026 1 1 0
413 138 1 0.5897 -7.753103251366233 -3.626201016630122 7.638443354192409 1 0 0
419 140 1 0.5897 -9.103404523902459 -5.505719373934182 8.722290592246841 1 0 0
418 140 2 -1.1794 -9.719464252260655 -5.970062306304866 9.288775678627157 1 0 0
414 138 1 0.5897 -6.935501659328869 -4.8584892730531095 7.314921067751213 1 0 0
350 117 1 0.5897 -7.2651170855124265 -4.45315091724911 9.672402317810963 0 0 0
412 138 2 -1.1794 -7.6229128322117425 -4.538004436229631 7.898760084224607 1 0 0
429 143 1 0.5897 -6.160402943194743 -7.3945165184415895 8.45434325765572 1 0 0
427 143 2 -1.1794 -5.829801740714028 -7.134238349527667 9.314088613119013 1 0 0
428 143 1 0.5897 -6.602678216488302 -7.13506110809853 9.87866417589762 1 0 0
632 211 1 0.5897 -4.671577790570642 -5.671368763248944 6.496201614297253 1 1 0
631 211 2 -1.1794 -5.505036031580288 -5.411015780582721 6.104091445419225 1 1 0
404 135 1 0.5897 -5.479895150743609 -3.671660486052292 5.643522484159974 1 0 0
544 182 2 -1.1794 0.5134567941029982 -8.152954253717665 7.082115512274575 0 1 0
627 209 1 0.5897 -10.742501311384945 -7.019100336804981 6.2988714254534655 1 1 0
334 112 2 -1.1794 -4.371579186008354 -4.740516188515972 9.070566642582756 0 0 0
359 120 1 0.5897 -4.539276543632424 -3.1111569903757577 8.50546355285832 0 0 0
546 182 1 0.5897 0.10155734088159107 -7.597769377753984 6.420119705718571 0 1 0
616 206 2 -1.1794 -7.3323102687606 -8.097135535477403 7.248063725577317 1 1 0
346 116 2 -1.1794 -1.9733727186220094 -6.029896552049188 9.069588842591084 0 0 0
335 112 1 0.5897 -4.927993930519391 -5.503769061312887 9.225281010782957 0 0 0
554 185 1 0.5897 -2.891257253467378 -6.844924038314962 7.701023753884213 0 1 0
347 116 1 0.5897 -1.1669298942366542 -5.629759389285879 8.744628765329038 0 0 0
555 185 1 0.5897 -2.572028557760431 -6.783033912053935 6.222563895839397 0 1 0
348 116 1 0.5897 -1.6767788540514719 -6.715552412494463 9.667917919680505 0 0 0
336 112 1 0.5897 -3.4783356279781854 -5.072800050307826 9.159135364229378 0 0 0
553 185 2 -1.1794 -3.27198302923792 -7.003019875372159 6.83716215824172 0 1 0
655 219 2 -1.1794 -0.48547194445212405 -7.727427561354914 10.899642665491456 0 0 0
356 119 1 0.5897 0.9592869308709631 -7.376751631665362 9.964771670058411 0 0 0
351 117 1 0.5897 -6.815684253500827 -3.2746462045633553 10.509612639229783 0 0 0
326 109 1 0.5897 -3.3302438668926797 -7.741279577348224 10.677654600517428 0 0 0
349 117 2 -1.1794 -7.048766843391366 -4.200993411952522 10.570066483218888 0 0 0
669 223 1 0.5897 -4.341119139929561 -3.5970003314657255 10.67193301924485 0 0 0
340 114 2 -1.1794 0.19294770619104895 -4.7504518429350275 8.202167224684612 0 0 0
727 243 2 -1.1794 -8.043930816345165 -7.376434020861604 10.848629833965909 1 0 0
652 218 2 -1.1794 -5.781909902924806 -5.419055025507328 12.70453156175835 0 0 0
780 260 1 0.5897 -7.392629482508599 -4.073838606226405 15.298285509174336 0 0 0
779 260 1 0.5897 -7.262006840305117 -3.136138088113653 14.117124970331627 0 0 0
778 260 2 -1.1794 -7.898029287607522 -3.6703856605166667 14.59262271907224 0 0 0
768 256 1 0.5897 -9.679476033800444 -3.0112893079724694 15.08829861069178 0 0 0
654 218 1 0.5897 -6.3643443736260785 -5.005836399513991 12.067197243424408 0 0 0
653 218 1 0.5897 -6.220894228714693 -6.2376711168894445 12.935251183542025 0 0 0
662 221 1 0.5897 -8.934515495378148 -4.086887734364207 12.991729162489154 0 0 0
661 221 2 -1.1794 -9.222831476706682 -4.262340171415745 12.096030250105063 0 0 0
663 221 1 0.5897 -8.456586111065231 -4.070752057900734 11.555461449958083 0 0 0
684 228 1 0.5897 -8.453018915017177 -6.612295341090819 14.139926786293987 0 0 0
689 230 1 0.5897 1.2922962367712891 -5.934940807352415 13.237346386528548 0 0 0
774 258 1 0.5897 -5.109893284001414 -2.604582915639151 12.79102280396131 0 0 0
802 268 2 -1.1794 -2.6043547561689095 -2.2727280166892774 14.994756282321005 0 0 0
740 247 1 0.5897 -10.868184273268485 -3.4024996312006994 11.655541338899203 1 0 0
788 263 1 0.5897 -4.893022404001405 -4.874552640756054 15.567521141071353 0 0 0
682 228 2 -1.1794 -7.7976978302784214 -7.075146893663316 13.61795260141404 0 0 0
787 263 2 -1.1794 -4.191925418271082 -4.707443595113261 14.93775735910364 0 0 0
789 263 1 0.5897 -4.634725961043935 -4.6704145023809325 14.089966875485922 0 0 0
816 272 1 0.5897 0.38555613061826577 -4.133019417679235 15.090803811017182 0 0 0
766 256 2 -1.1794 -10.4903052457157 -2.5122741589051873 14.989762166367932 0 0 0
767 256 1 0.5897 -11.18598749912282 -3.157588336850597 15.115019276971053 0 0 0
667 223 2 -1.1794 -3.9773761367953515 -3.0442539026832645 11.363574956948606 0 0 0
676 226 2 -1.1794 -3.3926687438439433 -6.385508410038306 11.833616588408576 0 0 0
814 272 2 -1.1794 -0.03187346101216626 -3.45598227019694 14.558360401154395 0 0 0
803 268 1 0.5897 -3.2402676178624867 -2.9732870233668143 15.139396026716648 0 0 0
804 268 1 0.5897 -1.7532200776547775 -2.708385694312569 15.038565658109283 0 0 0
795 265 1 0.5897 -2.6711536089319985 -5.578686010895113 15.136586547179363 0 0 0
720 240 1 0.5897 -0.6800718180929213 -6.616326584705437 14.246405135480332 0 0 0
698 233 1 0.5897 -1.2661906125157554 -4.199506265271993 13.260402423125305 0 0 0
668 223 1 0.5897 -3.2479464241732794 -3.552476741451775 11.71828355940197 0 0 0
699 233 1 0.5897 -0.922166652164945 -4.065202704990637 11.792353435701093 0 0 0
697 233 2 -1.1794 -1.6547793142256335 -4.228798982992749 12.386140149610801 0 0 0
677 226 1 0.5897 -2.8085241494075355 -5.6942765084616 12.145270488463854 0 0 0
793 265 2 -1.1794 -1.8112958054914472 -5.9250478747767374 15.375008726684094 0 0 0
718 240 2 -1.1794 -0.1091789183984968 -7.021611875756268 13.593753428961627 0 0 0
678 226 1 0.5897 -4.272987112447379 -6.051057717530798 12.004844485847315 0 0 0
729 243 1 0.5897 -8.05405798164886 -7.099595538041601 11.764830450193807 1 0 0
794 265 1 0.5897 -1.571083763213169 -5.446034896936408 16.168133878468165 0 0 0
657 219 1 0.5897 -0.3609940682212667 -7.36152811445921 11.77531240181518 0 0 0
739 247 2 -1.1794 -11.740903621006519 -3.023812008504322 11.5500743617688 1 0 0
749 250 1 0.5897 -10.323505526054966 -5.766554811411812 12.144936813263799 1 0 0
757 253 2 -1.1794 -10.025295527018253 -5.957069782039423 15.42376804682464 0 0 0
772 258 2 -1.1794 -5.8344862764905425 -2.30288841036357 13.338805587274399 0 0 0
758 253 1 0.5897 -9.715017810474611 -5.355356154531097 16.100425416756934 0 0 0
818 273 1 0.5897 -5.822783826936241 -1.924962143710057 15.34246995877626 0 0 0
1150 384 2 -1.1794 -6.4498479613656 -4.319157917100936 19.631404535563824 0 0 0
1152 384 1 0.5897 -7.133686781525977 -3.8424684516285943 20.101792324292884 0 0 0
1227 409 1 0.5897 -9.36142490175912 -3.067299354118024 20.767164445219674 0 0 0
1109 370 1 0.5897 -9.110610604489885 -3.2813309136005033 17.899379831692755 0 0 0
1089 363 1 0.5897 -6.449467276837966 -4.719629515865015 17.64698625266067 0 0 0
1151 384 1 0.5897 -6.496803622632205 -5.210186123242233 19.977730385493146 0 0 0
1131 377 1 0.5897 -7.087554731230206 -1.7670094085552037 17.320647035096467 0 0 0
1108 370 2 -1.1794 -9.671670593982409 -4.017273182846562 17.65491695878349 0 0 0
1179 393 1 0.5897 -0.8200818211959504 -5.131577590040303 21.683259356639635 0 0 0
1187 396 1 0.5897 1.700887688002366 -5.229388880785157 19.7820752001975 0 0 0
1248 416 1 0.5897 -5.9113379990832415 -1.7589176678820913 20.79475310486096 0 0 0
1177 393 2 -1.1794 -0.8460634937794236 -6.084661952784854 21.767248584286587 0 0 0
1097 366 1 0.5897 -9.400119060969757 -5.6279930447366215 18.417323467215102 0 0 0
1129 377 2 -1.1794 -7.761642622598091 -1.8323063786885374 17.99697316834988 0 0 0
1142 381 1 0.5897 -8.873622511167522 -6.072501726822823 20.76807797540939 0 0 0
1165 389 2 -1.1794 0.051198391568902935 -1.9878986275125357 17.74091655306827 0 0 0
1121 374 1 0.5897 -4.781155952915081 -3.419937414750825 18.609111003692604 0 0 0
1188 396 1 0.5897 0.7723957296754911 -4.056074404651369 20.012146568783294 0 0 0
1219 407 2 -1.1794 -10.871747811843449 -1.971694246649644 20.292524065685978 0 0 0
1087 363 2 -1.1794 -6.4763420574624275 -4.958805872419774 16.72057868081017 0 0 0
1143 381 1 0.5897 -8.95527275198132 -4.804788886987033 21.591473216753048 0 0 0
1133 378 1 0.5897 -1.2168006843273602 -5.670884777034514 18.77242109438211 0 0 0
1256 419 1 0.5897 -3.1009481325622303 -2.056053097756111 21.18035531790323 0 0 0
1122 374 1 0.5897 -4.424619706742993 -2.456772750623747 17.497080579408312 0 0 0
1261 421 2 -1.1794 -0.48203076909574527 -3.4046559059157335 21.31430917238459 0 0 0
1146 382 1 0.5897 -2.3529396779561615 -3.89157393286324 17.80641312103898 0 0 0
1255 419 2 -1.1794 -2.564989400706171 -2.0556639815081894 20.38737136161551 0 0 0
1257 419 1 0.5897 -3.1262500975798737 -2.4472643674135997 19.718152328914424 0 0 0
1120 374 2 -1.1794 -4.037581391984642 -3.0809104604431514 18.11090086120155 0 0 0
1145 382 1 0.5897 -0.9279806201947309 -3.411702880712806 17.630768298762856 0 0 0
1144 382 2 -1.1794 -1.461492511327986 -4.20595892618888 17.655957275130437 0 0 0
1263 421 1 0.5897 -1.2912888038205654 -2.996643193878377 21.006395860133985 0 0 0
1088 363 1 0.5897 -6.471984894229849 -5.915923271128834 16.719565029431966 0 0 0
1225 409 2 -1.1794 -8.45873546517614 -3.210727025671355 21.051348662173186 0 0 0
1123 375 2 -1.1794 1.3977444114509616 -4.951039616365991 16.587805592283047 0 0 0
1110 370 1 0.5897 -10.562997190023419 -3.689920574100489 17.775471073488216 0 0 0
1096 366 2 -1.1794 -9.14513257004616 -6.45204836677834 18.83207700990278 0 0 0
1130 377 1 0.5897 -7.289690760082909 -1.702269392108379 18.81950414121074 0 0 0
1141 381 2 -1.1794 -8.991037705064526 -5.758456309498396 21.664596354537686 0 0 0
1186 396 2 -1.1794 1.504243002197466 -4.346854233655071 19.468118960763995 0 0 0
1124 375 1 0.5897 1.2731079842855504 -5.89839939712876 16.643331036560138 0 0 0
1178 393 1 0.5897 -0.6310460966003006 -6.408639628143927 20.89263738245896 0 0 0
1226 409 1 0.5897 -8.313572662645981 -2.5524467538316795 21.730898356054027 0 0 0
1125 375 1 0.5897 1.3664603232840378 -4.6511711367733355 17.496242124823322 0 0 0
1132 378 2 -1.1794 -1.1312165748476115 -6.590051023799987 19.02522274106114 0 0 0
201 67 1 0.5897 2.20562965092428 -5.907109375673946 21.82320186008776 1 1 -1
84 28 1 0.5897 -8.276786299533 -0.2992785446319388 3.7014811852674 1 0 0
67 23 2 -1.1794 -10.978360271984739 -2.300472515113336 4.141361540696252 1 0 0
44 15 1 0.5897 -9.724916515354133 1.086108045594015 0.2103152364702964 1 0 0
301 101 2 -1.1794 -7.742715593801197 -2.090638655298597 1.4877075226272065 1 1 0
99 33 1 0.5897 -12.097493459637253 1.5408539545102915 5.108878983629242 1 0 0
417 139 1 0.5897 -9.177114169158951 1.2851023314935706 5.261009515266045 1 0 0
103 35 2 -1.1794 -2.967908356218011 -2.371153418873213 4.013415600948379 1 0 0
53 18 1 0.5897 -12.25289180015069 0.9533094768879984 2.100179700202775 1 0 0
272 91 1 0.5897 -9.343771747731294 -1.301770578501066 1.1302828464791468 1 1 0
82 28 2 -1.1794 -9.167082364025255 0.045390171981564365 3.770285334427663 1 0 0
98 33 1 0.5897 -12.18012542946665 0.2179358537265781 4.377578085185111 1 0 0
69 23 1 0.5897 -11.412680875594782 -2.362430201092118 3.2906405527570155 1 0 0
54 18 1 0.5897 -11.54231493322612 -0.3565399678477874 1.8337524128575178 1 0 0
271 91 2 -1.1794 -10.20121984512956 -1.0239437025255356 0.8081202080737105 1 1 0
83 28 1 0.5897 -9.71164866776079 -0.7260475666147688 3.926548448032659 1 0 0
52 18 2 -1.1794 -12.122766109502484 0.07597927232162505 2.459939463002449 1 0 0
68 23 1 0.5897 -11.651340985482651 -2.553080517596559 4.773295947960376 1 0 0
258 86 1 0.5897 -12.717743038111017 -2.5278286966067958 1.00736605141162 1 1 0
95 32 1 0.5897 -5.7421786657191785 -0.8166612127045632 3.0754731440214766 1 0 0
59 20 1 0.5897 -13.598074873064462 -0.9626987481019569 3.278556480099471 1 0 0
302 101 1 0.5897 -7.2484717552511535 -1.7349313600988268 2.2262298403792116 1 1 0
89 30 1 0.5897 -4.311709749167174 0.9121286446963683 2.2232152144754656 1 0 0
96 32 1 0.5897 -6.046136089859083 -1.7772400779610678 4.205226909206763 1 0 0
303 101 1 0.5897 -7.104312136561811 -2.147580493578837 0.776871769944271 1 1 0
294 98 1 0.5897 -4.523112875295334 -3.0816900122298643 1.3808848869907817 1 1 0
107 36 1 0.5897 -9.553404836347163 1.6490574275154888 3.0969827074506457 1 0 0
104 35 1 0.5897 -3.648993635095091 -2.4740227419218126 4.6779515356041355 1 0 0
26 9 1 0.5897 -4.216115471511704 0.26526523549862446 4.375729204649953 0 0 0
105 35 1 0.5897 -3.3389377258872974 -2.7691103131262036 3.2259046288501496 1 0 0
88 30 2 -1.1794 -4.2760749560600075 0.00015385225328401475 2.511514425137212 1 0 0
94 32 2 -1.1794 -6.452259058296158 -1.118758861164519 3.641667652815763 1 0 0
90 30 1 0.5897 -3.438302575496804 -0.3236068970855275 2.1807108362449 1 0 0
74 25 1 0.5897 -8.37439561855259 -2.998178252590721 5.310609962305991 1 0 0
97 33 2 -1.1794 -12.182703638452207 0.5988941513069541 5.25566618730329 1 0 0
27 9 1 0.5897 -4.027673027410471 1.562473861173526 5.133013358354816 0 0 0
256 86 2 -1.1794 -12.152821570528797 -2.9870197900739868 1.628786322178495 1 1 0
273 91 1 0.5897 -10.43609956932898 -1.6813255185287757 0.1532321821326938 1 1 0
25 9 2 -1.1794 -4.19361594825563 0.6285698562798832 5.2609849642848205 0 0 0
257 86 1 0.5897 -12.755937632392266 -3.494986858738656 2.1712488551683613 1 1 0
307 103 2 -1.1794 -2.4368160453656564 -0.9851840568147647 0.6404779200616679 1 1 0
1046 349 1 0.5897 -4.515688540529394 1.0606250576086396 0.09849462862213722 0 -1 1
1285 429 2 -1.1794 -5.341049177064362 -2.131208117799364 0.002307725912375009 0 0 1
426 142 1 0.5897 -8.944455263960272 -1.8012281270471089 7.085842021486023 1 0 0
526 176 2 -1.1794 -12.754517319668238 1.1515652186066188 9.03748396963753 1 0 0
435 145 1 0.5897 -7.377809501257534 -0.7975704105908452 9.772739841705159 0 0 0
400 134 2 -1.1794 -10.718620275601939 -1.2128549659921912 7.140325478133952 1 0 0
425 142 1 0.5897 -7.519022432061196 -1.312418665903035 6.94145599011138 1 0 0
528 176 1 0.5897 -12.34907890752631 0.5698246322923293 9.680395881140583 1 0 0
536 179 1 0.5897 -9.437016708660783 0.16302049345021707 9.991536945718122 1 0 0
537 179 1 0.5897 -9.406182734307892 -0.12347665995494772 8.505387126106847 1 0 0
535 179 2 -1.1794 -8.863568005384641 0.19674397177432112 9.225969323966696 1 0 0
424 142 2 -1.1794 -8.046113141181944 -2.110814288927161 6.9705351550592765 1 0 0
527 176 1 0.5897 -12.047310347382718 1.7346915834170922 8.761986777040613 1 0 0
402 134 1 0.5897 -11.04165078061033 -0.8012213457411139 6.338867577511973 1 0 0
401 134 1 0.5897 -11.506935546455615 -1.5257644167158144 7.583855254849265 1 0 0
458 153 1 0.5897 -10.649175262187065 2.730006721666973 10.046135091641421 0 0 0
442 148 2 -1.1794 -7.371140782417247 2.5930611978793436 9.485741791077565 0 0 0
433 145 2 -1.1794 -6.682040195863399 -1.3628754816966566 10.108144201516122 0 0 0
337 113 2 -1.1794 -6.661939739223795 0.340040384521183 6.664302038368344 0 0 0
415 139 2 -1.1794 -8.985482778597325 1.7220573014594454 6.090787114758527 1 0 0
443 148 1 0.5897 -7.996129326918125 1.8685982662216638 9.460057450457825 0 0 0
330 110 1 0.5897 -3.353398242216188 -0.31455273502701786 6.550345484397468 0 0 0
464 155 1 0.5897 -2.1181880413035614 -0.00917541975192826 10.058115123025612 0 0 0
444 148 1 0.5897 -6.572397258391915 2.234732271965269 9.098775640934523 0 0 0
405 135 1 0.5897 -5.191163648637036 -2.42015649225419 6.4448561612453785 1 0 0
339 113 1 0.5897 -6.082974035582886 0.0724736406128148 5.950635146605336 0 0 0
360 120 1 0.5897 -5.681588709478461 -2.128494586490051 8.651064649361514 0 0 0
338 113 1 0.5897 -6.076824604685839 0.4776967168338295 7.409224683996682 0 0 0
416 139 1 0.5897 -8.260087837972787 1.221245710164526 6.4638368913962125 1 0 0
456 152 1 0.5897 -4.411621894131386 0.9366230817960819 9.834373903237012 0 0 0
455 152 1 0.5897 -3.982385154999476 1.6406743983054426 8.564917405760925 0 0 0
358 120 2 -1.1794 -4.886836963457963 -2.2956349777985796 8.144568499123144 0 0 0
454 152 2 -1.1794 -4.75837447872044 1.348800943554691 9.043161183000919 0 0 0
328 110 2 -1.1794 -2.909853650907258 -0.8779518219491678 7.184373964606766 0 0 0
329 110 1 0.5897 -3.6194153735097148 -1.324030159019694 7.646539245440617 0 0 0
403 135 2 -1.1794 -5.313909878997874 -2.7337950494590366 5.548893627737121 1 0 0
411 137 1 0.5897 -13.618240065906111 0.29351026322094853 6.28337254251593 1 0 0
522 174 1 0.5897 -10.087221555065243 2.2661346984620057 7.445596903136339 1 0 0
465 155 1 0.5897 -1.8933384293016893 -0.12010771845931956 8.565208448464663 0 0 0
434 145 1 0.5897 -6.238791089379886 -0.8313924108241597 10.769407146955999 0 0 0
354 118 1 0.5897 -1.3372619570081277 -1.877189694012599 6.900859371621001 0 0 0
797 266 1 0.5897 -1.703295821993656 0.9181604362308686 13.29495305684963 0 0 0
792 264 1 0.5897 -11.825369397238145 0.3525973311795365 14.510859901157199 0 0 0
764 255 1 0.5897 -3.729639432168332 -1.2133832815568333 11.250812677986453 0 0 0
807 269 1 0.5897 -3.9492548988153686 2.7542447550015385 11.599427085123933 0 0 0
762 254 1 0.5897 -9.45569160408341 2.136623497445635 12.355725880614788 0 0 0
760 254 2 -1.1794 -9.090147495442093 1.4520113400975792 12.915904667606826 0 0 0
791 264 1 0.5897 -10.921897577427542 -0.8251935371083103 14.213812771960235 0 0 0
761 254 1 0.5897 -9.854652464430494 0.9940610024430239 13.264983691876356 0 0 0
837 279 1 0.5897 -11.279721248115726 0.12567942393389764 11.8215296694444 1 0 0
790 264 2 -1.1794 -11.215265486729313 0.012803669028263798 13.85631191137616 0 0 0
896 299 1 0.5897 -8.349730176193987 2.522150163542568 15.70600877230585 0 0 0
805 269 2 -1.1794 -4.588489968671082 2.7030395092260786 12.309942403426454 0 0 0
763 255 2 -1.1794 -3.74390593563251 -0.2690417048631364 11.095515328519735 0 0 0
817 273 2 -1.1794 -5.519152122459472 -1.636214361702054 16.203066797659183 0 0 0
924 308 1 0.5897 -2.6453299739464384 2.949169536598893 15.25758634965248 0 0 0
785 262 1 0.5897 -5.98814885634998 1.2131553423957886 12.355171588159898 0 0 0
897 299 1 0.5897 -8.114493842377833 2.0455358907533103 14.288547885719844 0 0 0
895 299 2 -1.1794 -7.668330494511019 2.4375365860151934 15.039206245638988 0 0 0
773 258 1 0.5897 -5.928062883249902 -1.3750193247999238 13.123387266188242 0 0 0
865 289 2 -1.1794 -13.063155555921002 1.3331428739561613 15.709501865529099 0 0 0
784 262 2 -1.1794 -6.401410934997206 0.3513056224980726 12.40549589850643 0 0 0
827 276 1 0.5897 -3.0511745179387804 -0.7392904892533441 14.282860307117472 0 0 0
903 301 1 0.5897 -6.098611879004449 1.5179128231437797 15.481088154094037 0 0 0
769 257 2 -1.1794 -12.653767242147605 2.782606902127778 12.673133883583843 0 0 0
828 276 1 0.5897 -3.77587682595623 0.524994523225633 14.692837657642158 0 0 0
786 262 1 0.5897 -7.327564150367783 0.5378682184966408 12.559045345586346 0 0 0
826 276 2 -1.1794 -3.210251451060005 0.16427092949251687 14.010144508057198 0 0 0
901 301 2 -1.1794 -5.241629749285169 1.1909247033369628 15.754671435252158 0 0 0
765 255 1 0.5897 -3.8607116377254282 0.11533974879298903 11.96428620900889 0 0 0
836 279 1 0.5897 -11.208011430325977 -1.2222658293492294 11.136237386052127 1 0 0
819 273 1 0.5897 -5.39091536854802 -0.6924764484595123 16.108122864985255 0 0 0
771 257 1 0.5897 -11.829238511243592 2.8567472818353075 12.192799608857545 0 0 0
835 279 2 -1.1794 -11.215535206281016 -0.28193116101417637 10.9578756510466 1 0 0
806 269 1 0.5897 -4.05976228649357 2.6863482709820925 13.107671061928711 0 0 0
770 257 1 0.5897 -12.457531267756515 3.132599524203977 13.54214602789607 0 0 0
866 289 1 0.5897 -12.591069709540214 1.8333210707179024 16.375210999333852 0 0 0
1206 402 1 0.5897 -11.678480189190761 0.06464637816552887 18.35509133003187 0 0 0
1100 367 1 0.5897 -9.473464528572286 -0.8983857386679777 17.644652036548653 0 0 0
1204 402 2 -1.1794 -12.22591275819021 0.5321150446232803 18.985900116585395 0 0 0
1218 406 1 0.5897 -13.475320974620573 3.3565067081007474 18.20117132356412 0 0 0
1253 418 1 0.5897 -4.035192434342981 3.5703154278943696 17.771759037757114 0 0 0
1135 379 2 -1.1794 -2.3253209178287175 -0.5721307367939765 17.2213276498314 0 0 0
1229 410 1 0.5897 -7.918346771444669 3.8076131861857814 18.901955411703195 0 0 0
1295 432 1 0.5897 -1.383171116238831 1.8664782279932481 19.359681299158016 0 0 0
1260 420 1 0.5897 -10.022844235225127 3.0044907191339316 20.10423686878872 0 0 0
1216 406 2 -1.1794 -12.646904937776101 2.9178630102508905 18.007605452331028 0 0 0
1235 412 1 0.5897 -9.778532000062654 -0.4813078008104146 20.449427100567448 0 0 0
1259 420 1 0.5897 -9.157523777319232 1.787559770934017 19.855256122156696 0 0 0
1250 417 1 0.5897 -11.979768329444797 0.8473981641900767 20.794448312602473 0 0 0
1099 367 2 -1.1794 -10.24292790588017 -0.650800575522366 17.13198395257641 0 0 0
1234 412 2 -1.1794 -9.046901348502447 0.11006874694961155 20.625831049419617 0 0 0
1197 399 1 0.5897 -9.392466534522187 2.4177002886143786 17.649782677431467 0 0 0
1258 420 2 -1.1794 -9.324877804726718 2.6750087137521525 19.53819334437355 0 0 0
1236 412 1 0.5897 -8.270462077721302 -0.44753107952189985 20.57704156953236 0 0 0
1249 417 2 -1.1794 -11.945183972021187 1.1030764082638687 21.716185697938332 0 0 0
1137 379 1 0.5897 -2.5649158179823672 -1.0975841157053203 16.45798327444126 0 0 0
1009 337 2 -1.1794 -11.459905444395536 3.73909782210041 21.266149913052995 0 -1 0
1232 411 1 0.5897 -1.875456865792092 1.1627317676426987 16.463886700553388 0 0 0
1045 349 2 -1.1794 -3.3421970318328826 3.5026782377016072 21.334322694277848 0 -1 0
1296 432 1 0.5897 -1.958574277324269 3.188486422909662 19.821079842371205 0 0 0
1247 416 1 0.5897 -5.682653203984715 -0.7907499324627967 19.653781510731765 0 0 0
1233 411 1 0.5897 -1.7775779241343983 2.395456644000829 17.337140660773365 0 0 0
1286 429 1 0.5897 -3.8221559648740264 0.3630698941317547 21.023797504842477 0 0 0
1270 424 2 -1.1794 -0.9900758993614236 0.2271710501709041 20.22108026768833 0 0 0
1241 414 1 0.5897 -4.4755463341981665 1.207154833935924 18.686264668168675 0 0 0
1252 418 2 -1.1794 -4.716104217472197 2.9013341233977332 17.842010709838096 0 0 0
1240 414 2 -1.1794 -4.191873264895829 0.40070368333434736 19.116704323065736 0 0 0
1231 411 2 -1.1794 -1.6809565855459372 2.099356518455867 16.432073712740767 0 0 0
1205 402 1 0.5897 -12.459886003589771 1.3475645674491918 18.542727533320207 0 0 0
1242 414 1 0.5897 -3.4677963397264913 0.08273917244859064 18.577510107502494 0 0 0
1271 424 1 0.5897 -1.5996664029612706 -0.5100120129686179 20.188258434790836 0 0 0
1251 417 1 0.5897 -11.907726212306487 2.059322625677293 21.698774364490845 0 0 0
1136 379 1 0.5897 -1.611014889684819 -1.0585106112040812 17.63288719155741 0 0 0
1254 418 1 0.5897 -5.509979024698785 3.3890466234897136 18.06120144590725 0 0 0
1217 406 1 0.5897 -11.976810931838381 3.5712479870910823 18.208130681605773 0 0 0
1246 416 2 -1.1794 -6.375717570409353 -1.234509728954766 20.142450286158844 0 0 0
1047 349 1 0.5897 -4.089512764688528 4.098142043295345 21.27865668973046 0 -1 0
1195 399 2 -1.1794 -9.763845409359782 2.237423802323617 16.786200057473778 0 0 0
1196 399 1 0.5897 -10.089378904319055 1.3394589956544696 16.847617951427022 0 0 0
1272 424 1 0.5897 -0.12298940488229348 -0.17667536846443177 20.186077182177176 0 0 0
1101 367 1 0.5897 -10.353704021851161 -1.365485378362309 16.504974393411725 0 0 0
902 301 1 0.5897 -5.016648669780849 1.7189072942529222 16.520704154660283 0 0 0
309 103 1 0.5897 -1.0440142447352692 1.3735030050049364 21.780453275828712 1 1 -1
1011 337 1 0.5897 -12.326886441872503 4.063902869705236 21.023222631661394 0 -1 0
1287 429 1 0.5897 -3.4189309897409625 1.6440028653885967 21.722577013792453 0 0 0
40 14 2 -1.1794 -15.362671567343874 3.745567817815065 1.9535532562777753 1 0 0
177 59 1 0.5897 -14.28286222558017 4.70816539732777 3.139613593281869 1 0 0
56 19 1 0.5897 -12.534862427003223 5.999960761489287 1.2346958643293566 1 0 0
66 22 1 0.5897 -13.652058657234363 3.0617963684221436 1.5215153843608415 1 0 0
65 22 1 0.5897 -12.207223680164779 3.5015926379725517 1.4182872159631055 1 0 0
64 22 2 -1.1794 -12.768342498520834 2.727839229930334 1.3676715983775718 1 0 0
191 64 1 0.5897 -12.847733698898416 6.373668374563383 4.100778729650352 1 0 0
183 61 1 0.5897 -12.339955500090847 3.8644266462481323 4.208912368050766 1 0 0
175 59 2 -1.1794 -13.795799904460495 4.769593804074674 3.9613221006914205 1 0 0
176 59 1 0.5897 -14.430980834259238 4.5281955515149 4.635362484059592 1 0 0
42 14 1 0.5897 -15.74706793377728 4.381632193087494 1.350400334894006 1 0 0
181 61 2 -1.1794 -11.653910791235 3.333150259132765 4.61295889026298 1 0 0
55 19 2 -1.1794 -13.414657233436802 6.3084946170732366 1.01802192359888 1 0 0
85 29 2 -1.1794 -10.997952355873519 4.875143566326091 1.5444858947707996 1 0 0
162 54 1 0.5897 -14.64132358354962 7.038073716327398 2.01227285434244 1 0 0
77 26 1 0.5897 -8.00813741144813 3.3773940063800527 2.065111800394965 1 0 0
45 15 1 0.5897 -9.755428086014174 2.299927939008821 1.114452162209125 1 0 0
111 37 1 0.5897 -4.510242889994496 3.668947478999865 4.441693242016717 0 0 0
108 36 1 0.5897 -10.242268271226687 2.971823974683142 3.356649803864153 1 0 0
203 68 1 0.5897 -8.977997243910012 6.322228697028116 3.1903737402676007 1 0 0
190 64 2 -1.1794 -12.239981825307094 7.11221390638781 4.064914386713025 1 0 0
86 29 1 0.5897 -10.534780687219401 5.267124592900647 2.284779523497884 1 0 0
192 64 1 0.5897 -11.390215622929265 6.714710258714385 3.8751047687988174 1 0 0
87 29 1 0.5897 -10.351721767756086 4.858572744675794 0.8386609603868899 1 0 0
167 56 1 0.5897 -16.710191112237574 6.337199161360994 3.118932330103428 1 0 0
202 68 2 -1.1794 -9.727552146111238 5.8813769338517226 3.5902291419198984 1 0 0
76 26 2 -1.1794 -7.203342714171363 3.6108696851465005 1.6026518319731196 1 0 0
106 36 2 -1.1794 -9.488632115948146 2.585612132966796 2.910561052055062 1 0 0
78 26 1 0.5897 -7.46085283525693 4.323354786339305 1.017704887397085 1 0 0
213 71 1 0.5897 -6.3578430286955685 4.2427734522989 3.207428488286006 1 0 0
100 34 2 -1.1794 -4.456273912172807 2.5033377898992413 1.5470692083506932 1 0 0
102 34 1 0.5897 -5.3669377766559245 2.7980289191287415 1.545483781961718 1 0 0