LAMMPS data file via write_data, version 30 Jul 2021, timestep = 30500000

1008 atoms
2 atom types
672 bonds
1 bond types
336 angles
1 angle types

-3.0540808600008074 14.664079859555015 xlo xhi
-0.11968768556878295 22.699686685568494 ylo yhi
0.050024324736135384 19.17997367525603 zlo zhi
-0.04019195914274996 -6.801823643937717 0.2286856862037013 xy xz yz

Masses

1 1.008
2 15.999

Pair Coeffs # lj/cut/tip4p/long/omp

1 0 0
2 0.21084 3.1668

Bond Coeffs # harmonic/omp

1 450 0.9572

Angle Coeffs # harmonic/omp

1 55 104.52

Atoms # full

21 7 1 0.5897 1.357284165253838 2.323534610505903 0.9847431879448474 0 0 0
55 19 2 -1.1794 -0.5335148497831304 4.306229029539609 3.45040519869077 0 0 0
56 19 1 0.5897 -1.1560997215644262 3.7056264294118213 3.040614743339605 0 0 0
57 19 1 0.5897 0.24816620849565663 4.253593297028795 2.900518746872647 0 0 0
121 41 2 -1.1794 -2.2592456436196793 2.3749699723833424 2.4513494634064736 1 0 0
122 41 1 0.5897 -2.0615755886801375 2.0648843206495116 1.5676322358077814 1 0 0
86 29 1 0.5897 -2.191642225359607 1.565078357341462 4.1805651663673515 1 0 0
31 11 2 -1.1794 1.289997153376568 1.1742736520335308 2.452870596019612 0 0 0
32 11 1 0.5897 1.1125665488958694 1.56662290941008 3.307721503187712 0 0 0
123 41 1 0.5897 -3.1711906351347494 2.662242150342859 2.406489774291365 1 0 0
46 16 2 -1.1794 1.9426274825840366 4.552111307477284 2.374776015267565 0 0 0
33 11 1 0.5897 0.5248109060580264 0.6268645908343413 2.2765423817401844 0 0 0
54 18 1 0.5897 3.051375892285227 3.404515755581676 3.0796280142741383 0 0 0
53 18 1 0.5897 4.46932808898498 2.889806355541276 2.9521881832772223 0 0 0
101 34 1 0.5897 -2.685856043410417 4.386429465764085 0.1187647622156295 1 0 0
6 2 1 0.5897 3.8046114541131795 1.597143486701452 4.693640368059975 0 0 0
602 201 1 0.5897 -0.4717169219417765 5.31090600344128 0.4858935671447253 1 0 1
158 53 1 0.5897 -4.3328286423797 4.571883813579461 4.273084282560312 1 0 0
78 26 1 0.5897 0.2475684954610986 3.0564655484769903 4.436184205084265 0 0 0
71 24 1 0.5897 3.157282505565214 0.5732936391746248 2.2441722815768608 0 0 0
48 16 1 0.5897 2.1289762766899596 5.223319547234816 3.031289825746163 0 0 0
52 18 2 -1.1794 3.7464386032180874 2.9705369454079666 3.57434460907912 0 0 0
70 24 2 -1.1794 3.8729413664320074 0.3239530027506824 1.6595016080124105 0 0 0
47 16 1 0.5897 2.0372026532567737 5.003871049167652 1.536232979506127 0 0 0
16 6 2 -1.1794 5.482393654106703 4.868583245511885 0.28352026653691154 0 0 0
482 161 1 0.5897 -0.884096996890749 -0.009130269282709588 0.8203063963994088 1 1 0
527 176 1 0.5897 4.2460024002013075 1.9222230249503203 0.5467231936115646 0 0 1
76 26 2 -1.1794 0.8536120343802809 2.425366680200635 4.82431923607331 0 0 0
18 6 1 0.5897 4.98220411191169 4.072174935073328 0.10508950825787276 0 0 0
19 7 2 -1.1794 1.328314520533529 2.641169039740877 0.08226419359612197 0 0 0
134 45 1 0.5897 -2.20015097154104 2.862238930845145 5.9172934808258475 1 0 0
135 45 1 0.5897 -1.9042462801423046 4.05885832452192 6.796221174419798 1 0 0
60 20 1 0.5897 2.7954303115647683 3.589929710577543 6.959279778885414 0 0 0
34 12 2 -1.1794 0.10253084152022796 1.4641223423079441 7.305613389604317 0 0 0
35 12 1 0.5897 0.2580786128718553 2.01738560489646 8.071079603094592 0 0 0
36 12 1 0.5897 -0.7773253427461029 1.1115992924998999 7.439052694062927 0 0 0
159 53 1 0.5897 -3.275767596604682 4.6501523470510335 5.35396329572649 1 0 0
669 223 1 0.5897 -5.388202934248524 2.0556155360060577 9.099653650417265 1 0 0
124 42 2 -1.1794 -5.057254547801149 2.5674445672637423 7.3892805734659515 1 0 0
58 20 2 -1.1794 2.1612834334258473 4.1339597376307475 6.492271831956106 0 0 0
59 20 1 0.5897 1.7251791460031471 3.530960479587912 5.8902249086793965 0 0 0
5 2 1 0.5897 3.3793718371727923 0.2037624331745187 5.105637517308186 0 0 0
43 15 2 -1.1794 -0.36660897941804604 4.884789006561824 7.319228193712381 0 0 0
126 42 1 0.5897 -4.167455428409258 2.8381308186170946 7.1630088457007925 1 0 0
45 15 1 0.5897 0.5357996750569374 4.610816624319367 7.155631719515387 0 0 0
133 45 2 -1.1794 -2.616102582012558 3.484625888522817 6.5137896613698025 1 0 0
87 29 1 0.5897 -3.042692734236808 1.0579903236943324 5.325292935248976 1 0 0
522 174 1 0.5897 2.0494653315630966 5.366555551621822 8.982277133282112 0 0 0
44 15 1 0.5897 -0.3582643660498235 5.2140274267329305 8.217967160138453 0 0 0
98 33 1 0.5897 -3.944254733665421 5.484887550212945 8.312030070480148 1 0 0
77 26 1 0.5897 0.365198072600287 2.039534580078643 5.551500783077035 0 0 0
69 23 1 0.5897 -2.5642732306027782 1.2595347346352426 8.657109082630859 0 0 0
67 23 2 -1.1794 -2.3396291601190415 0.5043137279923765 8.113578237431202 0 0 0
68 23 1 0.5897 -3.180681079440047 0.18567356839985527 7.785988523289642 0 0 0
401 134 1 0.5897 2.313871152906045 0.2590912937476658 8.817645357060652 0 1 0
157 53 2 -1.1794 -3.914007490713354 5.182758805801054 4.879432417439979 1 0 0
402 134 1 0.5897 1.1901012140004976 0.07948722442452594 7.81930751676286 0 1 0
90 30 1 0.5897 -5.130547476734833 1.5820769163749362 5.930023037589342 1 0 0
11 4 1 0.5897 2.402352845463863 5.5365190219520235 5.2954643212461745 0 0 0
606 202 1 0.5897 -5.790049365709718 4.622388845649832 9.560642743368607 1 0 0
97 33 2 -1.1794 -3.809166371645117 4.926206250290313 9.077439417963332 1 0 0
85 29 2 -1.1794 -2.13343439068178 1.2088031344713033 5.0670603729894825 1 0 0
524 175 1 0.5897 -3.0490006173370783 3.3691361372816795 9.510490100589486 0 0 0
574 192 2 -1.1794 0.3214495271141349 0.7499050359856745 11.393542745458273 0 0 0
589 197 2 -1.1794 -5.822745300528917 0.9478304857538191 14.290166699573906 1 0 0
560 187 1 0.5897 -4.709454542442692 4.100682756958786 12.631965631225727 0 0 0
576 192 1 0.5897 -0.4342291197302295 0.7705763030830631 11.980658011665199 0 0 0
23 8 1 0.5897 0.46237495697656605 2.3467870747228488 10.413104342444212 0 0 0
575 192 1 0.5897 0.9633314734291849 0.20407984641625349 11.847711853743395 0 0 0
627 209 1 0.5897 -6.758480026538765 3.177050754534829 12.203739767349122 1 0 0
667 223 2 -1.1794 -5.593770342772737 1.4686791932208083 9.8273148573316 1 0 0
535 179 2 -1.1794 -2.228077552543059 1.1074852250507092 12.35557363019581 0 0 0
536 179 1 0.5897 -2.4144489548586607 1.567809289860358 13.173846974007873 0 0 0
537 179 1 0.5897 -2.316686821638717 1.7775441504932896 11.677771683566975 0 0 0
662 221 1 0.5897 -7.3941443494131365 4.391626164283566 14.071452007989178 1 0 0
625 209 2 -1.1794 -5.879945729004319 2.8076458671461166 12.114909207673277 1 0 0
556 186 2 -1.1794 0.46830056051704627 3.505300788410905 13.053941554651415 0 0 0
561 187 1 0.5897 -3.647124149200314 3.9512623049628512 13.70010374847602 0 0 0
668 223 1 0.5897 -5.717832926487073 2.0505129008707472 10.577182486937451 1 0 0
558 186 1 0.5897 -0.2962541310661484 3.808159578450751 12.564137872810043 0 0 0
559 187 2 -1.1794 -4.002629292185757 4.57631828074101 13.068321464113897 0 0 0
550 184 2 -1.1794 -1.4895045257215198 5.091220344817549 11.9161691110614 0 0 0
552 184 1 0.5897 -2.410242795282862 4.914975591194105 12.109512411872085 0 0 0
626 209 1 0.5897 -5.84676203705475 2.107857782342497 12.7671701465826 1 0 0
557 186 1 0.5897 0.15294508967652032 2.747681000612213 13.546735814355035 0 0 0
986 329 1 0.5897 -4.444227460637505 0.22445363316168954 10.445590775973326 1 1 0
523 175 2 -1.1794 -2.488833172375574 2.670162520460792 9.847953169288845 0 0 0
99 33 1 0.5897 -3.842296998210511 5.526995889900062 9.821872014357492 1 0 0
587 196 1 0.5897 -1.0138177871330862 5.656251229600049 10.253731414028291 0 0 0
520 174 2 -1.1794 2.3313520871161737 4.713229179649754 9.62254402974791 0 0 0
551 184 1 0.5897 -1.2010127661403862 5.665668288292209 12.62540500348573 0 0 0
525 175 1 0.5897 -1.5976907428643625 2.9997199260785083 9.7318585400883 0 0 0
22 8 2 -1.1794 0.32195419938193925 2.937506783601626 9.67312986379864 0 0 0
663 221 1 0.5897 -6.602755255413092 5.61764155798398 13.668260795915247 1 0 0
24 8 1 0.5897 0.9365965310689144 3.6564943695502814 9.819948401658825 0 0 0
593 198 1 0.5897 -7.72145363823662 0.7128055948409361 14.378840885885747 1 0 0
547 183 2 -1.1794 -3.678401229781575 5.068371904654629 16.820413165114562 0 0 0
581 194 1 0.5897 -2.892103413366736 2.199773742505821 15.374414144623819 0 0 0
661 221 2 -1.1794 -6.8309205216534 5.079482811710757 14.426240662651031 1 0 0
580 194 2 -1.1794 -2.638271423444391 2.749288845038417 14.632915667785833 0 0 0
582 194 1 0.5897 -2.053733054962019 3.4066610579708345 15.010329164290294 0 0 0
563 188 1 0.5897 -0.9169468789224169 5.1811156268796 15.485404542989158 0 0 0
639 213 1 0.5897 -5.8462513288203795 3.8183752470776438 15.343482022954179 1 0 0
590 197 1 0.5897 -5.506159616664224 1.6929585786915364 14.80088697697214 1 0 0
538 180 2 -1.1794 -3.263909190235249 1.1995514189198557 16.788170989290567 0 0 0
539 180 1 0.5897 -3.086238323661978 1.8571666007677645 17.460650940992867 0 0 0
20 7 1 0.5897 -5.6271392993138925 2.084883843834982 18.686382208305524 0 0 -1
540 180 1 0.5897 -4.174549864930943 0.944646063530199 16.93638184773677 0 0 0
638 213 1 0.5897 -5.961305673139311 2.8192987831016505 16.475088480943533 1 0 0
549 183 1 0.5897 -4.2752061351198645 4.369658842691311 16.55226903136444 0 0 0
562 188 2 -1.1794 -1.1194235709084142 4.484901096880468 16.11034480928858 0 0 0
571 191 2 -1.1794 -5.687590423432841 0.47085119570026 17.707709676084665 0 0 0
564 188 1 0.5897 -1.9654561779641968 4.734571657107299 16.481923846897025 0 0 0
637 213 2 -1.1794 -5.330818569411034 3.204321315294697 15.866441159052922 1 0 0
164 55 1 0.5897 -8.331575995580636 1.9282588005941026 18.287560017027815 1 0 -1
628 210 2 -1.1794 -7.874961718527505 2.5556454344805384 16.695247262297713 1 0 0
508 170 2 -1.1794 0.3688056225288827 1.1822697087008027 14.608991989335722 0 0 0
629 210 1 0.5897 -8.452480348417744 3.3136453062732376 16.605145693754057 1 0 0
630 210 1 0.5897 -8.104106151329155 1.9902711730148317 15.957627500943978 1 0 0
526 176 2 -1.1794 -2.7244595025550282 2.8542591978259866 19.049687293130653 0 0 0
165 55 1 0.5897 -9.400605950536923 1.0150717587272924 18.84899614752285 1 0 -1
601 201 2 -1.1794 -7.465833140331316 4.894137931372642 18.935651547999274 1 0 0
548 183 1 0.5897 -3.7312007139023438 5.713079787381436 16.11486509329723 0 0 0
603 201 1 0.5897 -6.777008328819003 4.2359147917823865 19.027752093873772 1 0 0
528 176 1 0.5897 -3.656706809970861 3.0467132155811765 19.149963747088005 0 0 0
84 28 1 0.5897 -4.157964983214312 5.598844935389931 18.514892769442127 0 0 -1
163 55 2 -1.1794 -8.652274898208365 1.5529932681274146 19.107634611002986 1 0 -1
591 197 1 0.5897 -5.223271035764324 0.23452247382632718 14.509378763089702 1 0 0
289 97 2 -1.1794 -2.4983019729149296 10.017488556922851 2.6254616051701563 1 0 0
255 85 1 0.5897 -2.3528036726144665 8.910767426831436 4.097573754145517 1 0 0
146 49 1 0.5897 -1.2545780570464318 6.54613868139016 2.1972339061512898 1 0 0
147 49 1 0.5897 -0.8272846234479583 7.524380677121567 1.1237485827996854 1 0 0
332 111 1 0.5897 -2.1644338123156386 9.282952399029432 1.0303131078397667 1 0 0
145 49 2 -1.1794 -0.4962893795596992 6.820410819165156 1.6815221154067979 1 0 0
112 38 2 -1.1794 -3.083173348910954 6.404563893522571 2.4841945065333078 1 0 0
291 97 1 0.5897 -3.399952978038416 10.291635002172814 2.79293715559058 1 0 0
290 97 1 0.5897 -1.9671294933124948 10.773144988904908 2.876681866560874 1 0 0
189 63 1 0.5897 2.092887635701766 10.351386768076601 0.15888727551845722 0 0 0
221 74 1 0.5897 4.384455557269477 10.651399467044062 2.6710999402372195 0 0 0
114 38 1 0.5897 -3.1962207090835624 5.819975891210726 1.7347294859233162 1 0 0
187 63 2 -1.1794 1.1786873536580647 10.290645474247503 0.4359028921909306 0 0 0
9 3 1 0.5897 -0.5988800896534867 5.818115529825769 4.5031564034693545 0 0 0
331 111 2 -1.1794 -1.8037282854365424 8.762297344653689 0.3126739645238544 1 0 0
188 63 1 0.5897 1.2154045593199605 9.86693455129182 1.2934200646665468 0 0 0
200 67 1 0.5897 0.7529658639282459 7.921208802759859 2.4937776898894057 0 0 0
245 82 1 0.5897 0.9706118619360797 9.695038738226435 4.207061881108045 0 0 0
113 38 1 0.5897 -3.3472677385315572 5.87971263862468 3.239849963025448 1 0 0
199 67 2 -1.1794 1.3817318913861065 8.580996096227798 2.7863613466594277 0 0 0
240 80 1 0.5897 3.3684610897475515 7.113782300951305 1.0310715882728734 0 0 0
201 67 1 0.5897 2.2111437514119974 8.314574039489246 2.3897860296184983 0 0 0
238 80 2 -1.1794 3.7239189195587787 7.735405114663164 1.666281448070054 0 0 0
220 74 2 -1.1794 3.732869713222266 10.773902764589256 3.3614662638858555 0 0 0
239 80 1 0.5897 3.919212630305502 8.518823253114741 1.1520816742213857 0 0 0
82 28 2 -1.1794 2.3602434057591815 5.9272784589567085 0.109780643731656 0 0 0
173 58 1 0.5897 3.06106667061888 7.866302591529916 4.7876807500276835 0 0 0
12 4 1 0.5897 1.2671797231065778 6.326569298877603 4.679810002003033 0 0 0
174 58 1 0.5897 3.503950598706326 9.252573168930848 4.37030879681094 0 0 0
10 4 2 -1.1794 2.196229562608755 6.124687058029777 4.5689635145245635 0 0 0
696 232 1 0.5897 4.464881445891514 10.74870546084199 0.09727043439530103 0 0 1
191 64 1 0.5897 0.6135665455780375 9.947464510135235 8.680287574979184 0 0 0
7 3 2 -1.1794 -0.40433543579938025 6.578668334115054 5.050865705270341 0 0 0
109 37 2 -1.1794 -4.194110200071219 6.733551596661261 7.12353961797155 1 0 0
111 37 1 0.5897 -5.0885686298489325 7.017377826016414 7.312129505469236 1 0 0
293 98 1 0.5897 -4.094973018836585 10.434751902581572 7.238947356750601 1 0 0
8 3 1 0.5897 -0.4517358092512245 6.247058971267424 5.947513677204424 0 0 0
292 98 2 -1.1794 -5.040859604262 10.350345782757389 7.3588137914023735 1 0 0
588 196 1 0.5897 -1.0181378689670444 6.780203966648143 9.239492786655628 0 0 0
246 82 1 0.5897 0.29512970938744276 9.756430764072482 5.560473086572036 0 0 0
294 98 1 0.5897 -5.140621625121062 10.008523528532336 8.247303146312671 1 0 0
65 22 1 0.5897 2.3631057994710716 7.611540305837838 8.498634172652428 0 0 0
64 22 2 -1.1794 2.1236072532412447 6.979407634614594 7.820916422919577 0 0 0
228 76 1 0.5897 1.7710513899795934 11.245075061045773 5.945991824258643 0 0 0
202 68 2 -1.1794 0.3539546347962488 8.925991520138453 7.142316906329913 0 0 0
203 68 1 0.5897 -0.4113587629547144 8.53595181461054 7.564681241033309 0 0 0
204 68 1 0.5897 1.0326229990277387 8.254181662176535 7.2079087597545035 0 0 0
172 58 2 -1.1794 3.6739286238203235 8.565635047861045 5.014879094498746 0 0 0
235 79 2 -1.1794 -1.922169211085695 7.889232774869033 8.292814323549148 0 0 0
236 79 1 0.5897 -2.6804256776477726 7.55443425275127 7.814088287878619 0 0 0
237 79 1 0.5897 -2.2290600274284724 8.705139223966235 8.688240256741734 0 0 0
302 101 1 0.5897 -2.2523887394564714 9.958299934703163 6.106521641195682 1 0 0
301 101 2 -1.1794 -2.4344368026806955 10.773141414979895 6.57465688596532 1 0 0
257 86 1 0.5897 -4.2545651097618675 8.517094324925676 5.179904072312148 1 0 0
110 37 1 0.5897 -4.271112222932063 6.212759279313368 6.324123162739389 1 0 0
837 279 1 0.5897 -5.833576481997387 8.36551492700342 9.12914940938909 1 0 0
66 22 1 0.5897 2.9559284938754153 6.733376651763706 7.41732308298895 0 0 0
254 85 1 0.5897 -1.6360488483246411 7.860799377383168 4.919604438919542 1 0 0
303 101 1 0.5897 -1.5709974266558135 11.147048556686496 6.750404530526494 1 0 0
253 85 2 -1.1794 -2.3083357648234273 8.539588768867242 4.978742597799247 1 0 0
209 70 1 0.5897 3.21930272472457 10.731008720612287 7.2130940940848465 0 0 0
190 64 2 -1.1794 0.3583904178862958 10.239513499689247 9.555376967635395 0 0 0
692 231 1 0.5897 -1.4868801221715122 10.464253408813263 9.486701921791882 0 0 0
244 82 2 -1.1794 0.6224409682612873 10.310688808090905 4.852020148393454 0 0 0
192 64 1 0.5897 0.8576539198766233 11.044221660757831 9.694934367516867 0 0 0
794 265 1 0.5897 -5.480522749820926 10.615474527204197 12.31904594326366 1 0 0
618 206 1 0.5897 -6.649156097151673 5.97572651943295 11.352536438402074 1 0 0
836 279 1 0.5897 -4.59319501790932 8.344495519120413 9.996795494044305 1 0 0
742 248 2 -1.1794 0.23127844606861814 8.141145010000194 11.355570516293092 0 0 0
724 242 2 -1.1794 0.4293911333811371 10.847007971033293 12.891483883041934 0 0 0
616 206 2 -1.1794 -6.528506229768716 6.587880132677689 12.078453479502839 1 0 0
693 231 1 0.5897 -2.3306520153533588 9.979093024180461 10.646231099536049 0 0 0
649 217 2 -1.1794 -3.873966294818585 6.970392814511187 10.963056139838061 1 0 0
650 217 1 0.5897 -3.279427583985363 7.575326630376357 11.406719723262496 1 0 0
651 217 1 0.5897 -4.616847493313296 6.882757596700316 11.560239914370209 1 0 0
795 265 1 0.5897 -5.743527851592991 9.401910569817971 11.45299833341689 1 0 0
744 248 1 0.5897 0.009246125361844104 7.4379780128841215 10.745225727638413 0 0 0
793 265 2 -1.1794 -5.99308668283149 9.807829199234222 12.283128257907947 1 0 0
514 172 2 -1.1794 -0.9900536028386808 6.495783702749609 14.28002938829824 0 0 0
759 253 1 0.5897 -5.724852728931671 8.734068432659585 13.692500661716517 1 0 0
703 235 2 -1.1794 -2.2724867783739677 9.020332289043672 12.121645266333214 0 0 0
704 235 1 0.5897 -1.3500885587125246 8.764739163283588 12.115633618718187 0 0 0
705 235 1 0.5897 -2.3818415082702495 9.505142852673137 12.939700336109645 0 0 0
743 248 1 0.5897 0.35913637462988923 8.909952932610485 10.799815075640819 0 0 0
835 279 2 -1.1794 -5.306599440394907 8.914497024052269 9.709805013401944 1 0 0
513 171 1 0.5897 -3.7950621105507896 6.1339872050820965 13.987554304645156 0 0 0
678 226 1 0.5897 0.5019377868085977 9.237058889679503 13.951673832665632 0 0 0
691 231 2 -1.1794 -2.3873923683639235 10.249249385398894 9.729717597474444 0 0 0
750 250 1 0.5897 -3.4498042073189357 10.837768839114187 14.106714507188398 0 0 0
617 206 1 0.5897 -7.106109552301261 7.322554593851093 11.871416719375686 1 0 0
726 242 1 0.5897 -0.3985929136166453 11.217834940780133 12.586337848117234 0 0 0
586 196 2 -1.1794 -0.4540856943432905 6.108296079608801 9.622396097979934 0 0 0
797 266 1 0.5897 -7.538462762873325 10.618078196858855 16.743784735078126 1 0 0
695 232 1 0.5897 -2.8662318375826574 9.945071500094326 18.254527714035987 0 0 0
741 247 1 0.5897 -5.935624923691545 9.028124407990074 18.246557907228066 0 0 0
613 205 2 -1.1794 -7.574036514004816 6.480668675608367 16.715993811901345 1 0 0
740 247 1 0.5897 -6.420046956773026 7.820463401837772 17.47266149147772 0 0 0
568 190 2 -1.1794 -1.3158602899465306 7.266901199612715 17.728996259867426 0 0 0
333 111 1 0.5897 -8.40524228762683 9.63059830182822 18.75923675608084 1 0 -1
570 190 1 0.5897 -0.6087151493775602 7.000825612688338 17.141352169307567 0 0 0
758 253 1 0.5897 -5.605197962077054 9.233985511076156 15.116434761035814 1 0 0
615 205 1 0.5897 -7.360164130589396 5.995377565533513 15.919150714761678 1 0 0
569 190 1 0.5897 -1.507574516975306 6.483148899881038 18.244028173345374 0 0 0
749 250 1 0.5897 -3.0603162306018694 9.784092163852133 15.121599072863694 0 0 0
798 266 1 0.5897 -8.660328198245855 9.60428003656763 16.66880910346744 1 0 0
762 254 1 0.5897 -7.629478849655528 8.31389530559927 14.861625734339023 1 0 0
796 266 2 -1.1794 -8.395835435749184 10.40907629695905 17.114495890553098 1 0 0
706 236 2 -1.1794 -3.155351029102044 8.974280899411523 16.801143963199134 0 0 0
707 236 1 0.5897 -3.988218328239663 8.623926494773338 17.117044813170224 0 0 0
708 236 1 0.5897 -2.5152766133039846 8.292584882631369 17.0056499085599 0 0 0
739 247 2 -1.1794 -5.663245302742465 8.15946283524747 17.950735671850055 0 0 0
731 244 1 0.5897 -1.7635650991307719 11.433428201816024 15.393921515693258 0 0 0
83 28 1 0.5897 -5.039794523632737 6.786164913396359 18.83822755051479 0 0 -1
805 269 2 -1.1794 -5.884796231734445 10.770976879189115 16.002635810131956 1 0 0
757 253 2 -1.1794 -5.696751874699098 8.432848335813308 14.600616349220665 1 0 0
807 269 1 0.5897 -5.125275152391095 11.179938172829864 16.41749416704473 1 0 0
511 171 2 -1.1794 -3.6352878485956133 6.766285399584223 14.688208215087016 0 0 0
614 205 1 0.5897 -7.567508519121341 5.81981319983453 17.408432967191853 1 0 0
512 171 1 0.5897 -4.411714708012812 7.326070806718538 14.687979646782184 0 0 0
806 269 1 0.5897 -6.2497025364440635 11.45573558674512 15.442112952408037 1 0 0
694 232 2 -1.1794 -2.909783813450262 10.21243740142779 19.172572805074314 0 0 0
748 250 2 -1.1794 -2.6919513840563694 10.376888357488221 14.466502106759314 0 0 0
515 172 1 0.5897 -1.8289247813889 6.940559277408845 14.401107911960725 0 0 0
516 172 1 0.5897 -0.3335095211272394 7.169552648708091 14.456833845872813 0 0 0
280 94 2 -1.1794 -3.2692311592226213 14.173836834133255 2.6467207655151515 1 0 0
281 94 1 0.5897 -3.2816622372450412 13.865922676750515 3.55294247108192 1 0 0
369 123 1 0.5897 1.244805072580201 16.67370308729958 3.6744551028602292 0 0 0
282 94 1 0.5897 -2.3433198847401258 14.325842746917125 2.457579224914909 1 0 0
500 167 1 0.5897 -1.5025388903913495 15.881279517332777 0.5356115478780273 1 0 0
313 105 2 -1.1794 -0.7972773142679821 14.626235949246277 1.6354523822465812 1 0 0
315 105 1 0.5897 -0.41856910869160524 13.823288418941654 1.2775537193511988 1 0 0
423 141 1 0.5897 -2.4364495383362588 16.808406003941357 3.825381426533532 1 0 0
223 75 2 -1.1794 -0.7356741549002219 12.041289287931297 3.3280424675470894 0 0 0
225 75 1 0.5897 -0.9322513243152795 12.746547160858771 3.9446545104176294 0 0 0
314 105 1 0.5897 -0.07711476582521337 15.039955847552879 2.1112820277426785 1 0 0
180 60 1 0.5897 2.1895509476889004 13.668040031976895 4.162012508497818 0 0 0
367 123 2 -1.1794 1.190664171118689 16.12815294679666 2.8898083518543576 0 0 0
215 72 1 0.5897 1.9872988495093438 12.946594115364098 1.7646864421768704 0 0 0
252 84 1 0.5897 3.066634841080731 14.371274346353298 0.6349433091534465 0 0 0
771 257 1 0.5897 0.12005929785381309 11.704302733096451 0.2239387827899914 1 0 1
214 72 2 -1.1794 1.906733388886301 12.58386050442939 2.646795970970992 0 0 0
407 136 1 0.5897 4.47651514541598 15.035969280853037 2.2060684198722758 0 0 0
406 136 2 -1.1794 3.687765077414012 15.51449162938899 1.950961211010991 0 0 0
408 136 1 0.5897 4.006540342766456 16.219804114121274 1.387776133020311 0 0 0
368 123 1 0.5897 2.095055917027593 15.867268939220143 2.716043633735202 0 0 0
216 72 1 0.5897 0.9706005807981928 12.414142873901827 2.751923689339126 0 0 0
268 90 2 -1.1794 -3.0568271908930855 12.323762882440203 0.49326042309579377 1 0 0
269 90 1 0.5897 -3.3703866303594556 12.854034817854183 1.2258608652506207 1 0 0
250 84 2 -1.1794 2.5634711361956386 13.686760062958854 0.193890191620878 0 0 0
184 62 2 -1.1794 5.425740252034794 12.160591492156684 0.44225673099233304 0 0 0
770 257 1 0.5897 -1.269903568880025 12.2994308813015 0.1490319853653343 1 0 1
224 75 1 0.5897 -0.27524252355901124 11.385763412482444 3.8519914171713796 0 0 0
222 74 1 0.5897 3.1107375256161287 11.402555198271708 2.9954464214372525 0 0 0
356 119 1 0.5897 0.9561004881217334 17.008301355429055 1.3639690809972553 0 0 0
176 59 1 0.5897 -1.2400278644716414 15.053293833480518 4.795137313004919 0 0 0
421 141 2 -1.1794 -2.371876095725902 16.419004020903884 4.697391713511834 1 0 0
499 167 2 -1.1794 -2.1598452994527886 16.491112899751307 0.20058424790651172 1 0 0
404 135 1 0.5897 -1.4111731436396981 16.039249118613917 7.689376135065222 0 0 0
326 109 1 0.5897 -3.0559397857689703 12.021207026809252 5.36859919399622 1 0 0
462 154 1 0.5897 -5.1178193761649915 16.995754621806825 6.764703719520209 1 0 0
327 109 1 0.5897 -3.772613374812748 13.334495027503895 5.600135795766669 1 0 0
405 135 1 0.5897 -2.4487730129691854 16.57368269892315 8.65349838200726 0 0 0
211 71 2 -1.1794 -0.4788922355665095 12.561652417465327 7.333152445960673 0 0 0
227 76 1 0.5897 1.2321337115266573 12.235431665874835 6.956249479585528 0 0 0
213 71 1 0.5897 -0.7000762923845194 13.227683602041045 6.682213787921056 0 0 0
212 71 1 0.5897 -0.6097941297966312 12.99673561584488 8.17563304103034 0 0 0
265 89 2 -1.1794 -3.6588635773499565 12.656795123837608 9.448483511587227 1 0 0
232 78 2 -1.1794 1.9200692649513948 14.532671283947609 8.353828942172509 0 0 0
690 230 1 0.5897 1.8962382179011215 13.101784781891407 9.463873152966425 0 0 0
234 78 1 0.5897 1.406135769382673 15.067568436628115 7.74887798655542 0 0 0
370 124 2 -1.1794 0.18685955548468147 16.60152918892682 7.354292669286489 0 0 0
179 60 1 0.5897 2.362892268722753 13.384000376188366 5.638859400036714 0 0 0
277 93 2 -1.1794 -4.221531469576959 14.26264318248907 7.034318988239582 1 0 0
278 93 1 0.5897 -3.6611426690476025 14.918103301217506 7.449777148501713 1 0 0
756 252 1 0.5897 -1.4976777535807253 14.617464342907315 9.249403653141794 0 0 0
340 114 2 -1.1794 3.823062813945726 16.453914262958676 5.037456707696214 0 0 0
403 135 2 -1.1794 -2.269170584288146 15.840868322659732 8.064454703393782 0 0 0
233 78 1 0.5897 2.7067284276886117 14.30086118310988 7.860262844251378 0 0 0
267 89 1 0.5897 -3.6609865466185085 12.87628414149369 8.516810887784136 1 0 0
279 93 1 0.5897 -5.083910940315189 14.401369366661898 7.425765872788394 1 0 0
175 59 2 -1.1794 -0.7004697655830894 14.292044616670308 5.0087193230975275 0 0 0
226 76 2 -1.1794 2.0479336168526316 11.858924026002342 6.626257935163844 0 0 0
341 114 1 0.5897 3.3765074612182486 15.60730545346111 5.025104765546729 0 0 0
372 124 1 0.5897 0.3863921554013081 17.03886672603646 6.526559680099071 0 0 0
177 59 1 0.5897 0.199698816237305 14.59509226103655 4.890070438050892 0 0 0
425 142 1 0.5897 -4.173883116755949 16.237940635361696 5.047601640928102 1 0 0
1004 335 1 0.5897 -5.06257195894257 16.74765376718841 9.131593146708392 1 0 0
266 89 1 0.5897 -3.248222711422335 11.793166220585446 9.490669340290824 1 0 0
178 60 2 -1.1794 2.276054939760173 14.10137789368501 5.011096769290707 0 0 0
325 109 2 -1.1794 -3.534129607562467 12.71336167226746 4.911989887262808 1 0 0
682 228 2 -1.1794 -1.4368477916200408 14.130883342552243 14.0795798663806 0 0 0
728 243 1 0.5897 -3.4681069183465776 12.222088954508207 12.382169164247692 0 0 0
755 252 1 0.5897 -0.3545487663189424 14.637059524948098 10.241709332767051 0 0 0
718 240 2 -1.1794 -1.6846606175718968 12.430271520040606 11.943565338221772 0 0 0
912 304 1 0.5897 0.9752738622281791 15.434116482751866 11.63761143914765 0 0 0
720 240 1 0.5897 -1.714272773901608 13.16051805886967 12.561719920116461 0 0 0
962 321 1 0.5897 -5.859883392540339 17.07072834893618 12.745594186498057 1 0 0
871 291 2 -1.1794 -2.019085030168778 16.61335101402623 12.110753807896813 0 0 0
727 243 2 -1.1794 -4.233996086286789 11.992043893715453 12.908186382535677 0 0 0
784 262 2 -1.1794 -6.451066240216066 13.90405111677934 11.864532672837324 1 0 0
729 243 1 0.5897 -4.404767624394509 12.771441654667672 13.43698569887968 0 0 0
911 304 1 0.5897 -0.33065786396005237 16.197176142569006 11.70131563751028 0 0 0
910 304 2 -1.1794 0.40746538093788853 16.007099484882133 11.122343898064777 0 0 0
1005 335 1 0.5897 -4.775236753532766 15.679232363493202 10.164959714103444 1 0 0
725 242 1 0.5897 0.7771403455311319 11.502044436070552 13.496673520753712 0 0 0
719 240 1 0.5897 -1.3450955687817472 12.81394254814135 11.135060390471335 0 0 0
786 262 1 0.5897 -6.637105697117658 13.455970428460207 12.689659801387206 1 0 0
817 273 2 -1.1794 -3.825715407334771 14.645757596443689 11.343583859094256 1 0 0
818 273 1 0.5897 -4.679242524875702 14.388436290227771 11.692078871591265 1 0 0
819 273 1 0.5897 -3.567478286432563 13.917146304194787 10.779066008674155 1 0 0
873 291 1 0.5897 -2.537211332727119 15.839534566531123 11.88929340970736 0 0 0
925 309 2 -1.1794 -5.770795129904483 16.02375444696076 14.289320128612966 1 0 0
688 230 2 -1.1794 2.0882795237927265 12.345041669358942 10.017685770342892 0 0 0
785 262 1 0.5897 -7.069852268807315 14.634029845442159 11.842983622239622 1 0 0
831 277 1 0.5897 -7.85236072956639 12.205994684284617 13.91588815900732 1 0 0
1003 335 2 -1.1794 -5.487362142699431 16.196694860398487 9.789043172935058 1 0 0
773 258 1 0.5897 -6.521863472818721 12.695802159275745 10.540620212804049 1 0 0
917 306 1 0.5897 -2.5345884812426434 17.14911205632699 13.775438766744273 0 0 0
846 282 1 0.5897 0.16495176194315686 17.028612300979702 14.160332366284429 0 0 0
829 277 2 -1.1794 -7.1086879682776445 12.718378047423808 14.233161649001277 1 0 0
684 228 1 0.5897 -0.8232876253770209 14.840487931696025 14.270086022159132 0 0 0
772 258 2 -1.1794 -6.37034067660227 12.125361269787097 9.787064429539264 1 0 0
754 252 2 -1.1794 -0.94043169097624 14.042198965345916 9.773580255383495 0 0 0
774 258 1 0.5897 -5.421810860021003 12.14270150517733 9.659867168401776 1 0 0
732 244 1 0.5897 -0.5427697994090224 11.581875899170356 16.27678047076913 0 0 0
738 246 1 0.5897 -0.7007491856085997 14.34780465964119 17.334542325756235 0 0 0
717 239 1 0.5897 -2.94247934101356 12.28533102456553 16.77058634693193 0 0 0
783 261 1 0.5897 -8.596745553302469 14.37064182804501 16.987504615297183 1 0 0
251 84 1 0.5897 -4.988535124677782 14.3746367777209 18.94626083312212 0 0 -1
681 227 1 0.5897 -4.089151962656283 13.388049032026121 15.628123865743795 0 0 0
830 277 1 0.5897 -7.451215826063381 13.196170756016004 14.988535696304153 1 0 0
737 246 1 0.5897 -1.1623371230380437 15.327499197432445 18.392376167091168 0 0 0
715 239 2 -1.1794 -3.858882291611116 12.419888129877783 17.011976633828564 0 0 0
716 239 1 0.5897 -3.8211912536954715 12.907411162486015 17.83485065951704 0 0 0
874 292 2 -1.1794 -3.5344298236015455 16.324999710903143 16.92111727149992 0 0 0
907 303 2 -1.1794 -6.026892594657955 15.684017863317102 17.9553840334957 0 0 0
927 309 1 0.5897 -5.545574384112491 16.77601819361439 14.836722752633442 1 0 0
876 292 1 0.5897 -2.850381908905285 15.683498181295715 17.11286392336463 0 0 0
736 246 2 -1.1794 -1.4796743008613324 14.63802851960759 17.80911570055084 0 0 0
909 303 1 0.5897 -5.253947931658098 15.890840269782435 17.430045889828644 0 0 0
781 261 2 -1.1794 -7.783727900724264 13.972210714871807 16.67695945130084 1 0 0
782 261 1 0.5897 -7.497756468889239 13.414997174979266 17.400807827505428 1 0 0
730 244 2 -1.1794 -1.3074066902651067 12.059898654027203 15.955808146713244 0 0 0
908 303 1 0.5897 -6.597969140877984 15.197481565050817 17.360912537944003 0 0 0
185 62 1 0.5897 -1.5532165755513656 13.092096119559844 18.946973181083152 0 0 -1