LAMMPS (30 Jul 2021)
  using 1 OpenMP thread(s) per MPI task
package omp 0
using multi-threaded neighbor list subroutines
echo both

include		in.partitions
variable        pid world 0
include		in.temp
variable	temperature equal 285
variable	melttemp equal 450.0
variable	tempDamp equal 100.0
include		in.pressure
variable        pressure equal 10000
variable        pressureDamp equal 1000.0 # This is 1 ps
include		in.seed
variable        seed world 745823

units		real
atom_style	full



include 	in.box

read_data       ice.data
Reading data file ...
  orthogonal box = (0.0055940000 0.0000000 0.0000000) to (49.454405 24.971228 23.019015)
  7 by 3 by 2 MPI processor grid
  reading atoms ...
  3840 atoms
  scanning bonds ...
  2 = max bonds/atom
  scanning angles ...
  1 = max angles/atom
  reading bonds ...
  2560 bonds
  reading angles ...
  1280 angles
Finding 1-2 1-3 1-4 neighbors ...
  special bond factors lj:    0        0        0       
  special bond factors coul:  0        0        0       
     2 = max # of 1-2 neighbors
     1 = max # of 1-3 neighbors
     1 = max # of 1-4 neighbors
     2 = max # of special neighbors
  special bonds CPU = 0.086 seconds
  read_data CPU = 0.348 seconds
include 	in.setup
variable	out_freq equal 500
variable	out_freq2 equal 500

timestep	1.0

neigh_modify    delay 5 every 1

include		in.tip4p
# This is TIP4P/Ice

# create groups ###
group ox type 2
1280 atoms in group ox
group hy type 1
2560 atoms in group hy

# set charges - beside manually ###
set group ox charge -1.1794
Setting atom values ...
  1280 settings made for charge
set group hy charge 0.5897
Setting atom values ...
  2560 settings made for charge

# ### TIP3P Potential Parameters ###
pair_style lj/cut/tip4p/long 2 1 1 1 0.1577 8.5
pair_coeff 1 1*2 0.000 0.000
pair_coeff 2 2 0.21084 3.1668
bond_style  harmonic
bond_coeff  1 450 0.9572
angle_style harmonic
angle_coeff 1 55 104.52
kspace_style pppm/tip4p 1.0e-5
pair_modify tail yes

thermo          ${out_freq}
thermo          500
thermo_style 	custom step temp pe etotal epair emol press lx ly lz xy xz yz vol pxx pyy pzz pxy pxz pyz cella cellb cellc cellalpha cellbeta cellgamma

restart 	${out_freq} restart.lmp.${pid} restart2.lmp.${pid}
restart 	500 restart.lmp.${pid} restart2.lmp.${pid}
restart 	500 restart.lmp.0 restart2.lmp.${pid}
restart 	500 restart.lmp.0 restart2.lmp.0

include         in.dump
dump            myDump all atom ${out_freq2} dump.water.${pid}
dump            myDump all atom 500 dump.water.${pid}
dump            myDump all atom 500 dump.water.0
dump_modify     myDump append yes


timer           timeout 23:50:00 every 1000
New timer settings: style=normal  mode=nosync  timeout=23:50:00


fix 		0 all shake 1e-6 200 0 b 1 a 1
       0 = # of size 2 clusters
       0 = # of size 3 clusters
       0 = # of size 4 clusters
    1280 = # of frozen angles
  find clusters CPU = 0.006 seconds
fix             1 all nph aniso ${pressure} ${pressure} ${pressureDamp}
fix             1 all nph aniso 10000 ${pressure} ${pressureDamp}
fix             1 all nph aniso 10000 10000 ${pressureDamp}
fix             1 all nph aniso 10000 10000 1000
fix             2 all temp/csvr ${temperature} ${temperature} ${tempDamp} ${seed}
fix             2 all temp/csvr 285 ${temperature} ${tempDamp} ${seed}
fix             2 all temp/csvr 285 285 ${tempDamp} ${seed}
fix             2 all temp/csvr 285 285 100 ${seed}
fix             2 all temp/csvr 285 285 100 745823
velocity        all create ${temperature} ${seed}
velocity        all create 285 ${seed}
velocity        all create 285 745823

run             500000
PPPM initialization ...
  extracting TIP4P info from pair style
  using 12-bit tables for long-range coulomb (../kspace.cpp:340)
  G vector (1/distance) = 0.37376444
  grid = 54 32 30
  stencil order = 5
  estimated absolute RMS force accuracy = 0.0034051979
  estimated relative force accuracy = 1.0254652e-05
  using double precision FFTW3
  3d grid and FFT values/proc = 7296 1350
Last active /omp style is kspace_style pppm/tip4p/omp
Neighbor list info ...
  update every 1 steps, delay 5 steps, check yes
  max neighbors/atom: 2000, page size: 100000
  master list distance cutoff = 10.8154
  ghost atom cutoff = 10.8154
  binsize = 5.4077, bins = 10 5 5
  1 neighbor lists, perpetual/occasional/extra = 1 0 0
  (1) pair lj/cut/tip4p/long/omp, perpetual
      attributes: half, newton on, omp
      pair build: half/bin/newton/omp
      stencil: half/bin/3d
      bin: standard
Per MPI rank memory allocation (min/avg/max) = 9.730 | 9.757 | 9.785 Mbytes
Step Temp PotEng TotEng E_pair E_mol Press Lx Ly Lz Xy Xz Yz Volume Pxx Pyy Pzz Pxy Pxz Pyz Cella Cellb Cellc CellAlpha CellBeta CellGamma 
       0          285   -18883.321   -16709.371   -18883.321            0    2272.1032    49.448811    24.971228    23.019015            0            0            0    28423.823    9140.7917    5194.3536   -7518.8355   -3618.3552    -468.4306    4340.6678    49.448811    24.971228    23.019015           90           90           90 
     500    279.09419   -18154.912   -16026.011   -18154.912            0    8282.8768     50.12562    24.949241    22.964882            0            0            0    28719.793    8180.0096    8794.6974    7873.9235   -206.71349    442.38334   -183.94546     50.12562    24.949241    22.964882           90           90           90 
    1000    281.15346   -17999.858   -15855.249   -17999.858            0    9213.4181     49.87507    24.983094    23.047392            0            0            0    28717.824    9952.7283    8561.1933    9126.3327   -18.500776    34.885523   -282.61954     49.87507    24.983094    23.047392           90           90           90 
    1500    283.25016   -17984.898   -15824.296   -17984.898            0    9929.6513    50.048398     24.93963    22.987133            0            0            0    28692.276    9352.2454     10376.25    10060.459   -129.27041    -297.9433   -696.77111    50.048398     24.93963    22.987133           90           90           90 
    2000     287.9858   -18011.735    -15815.01   -18011.735            0    9594.6631    49.828545      25.0492    22.963279            0            0            0    28661.965    10464.854    9186.3116    9132.8242    351.69197   -33.035384   -541.29563    49.828545      25.0492    22.963279           90           90           90 
    2500    285.38175   -17946.199   -15769.337   -17946.199            0    9560.4793    50.091377    24.880945    23.099103            0            0            0    28788.893     9058.868    10046.185     9576.385   -237.33642    588.83972    91.741182    50.091377    24.880945    23.099103           90           90           90 
    3000    281.89477   -17977.492   -15827.229   -17977.492            0    9599.2678    49.917539    25.097679     22.92041            0            0            0    28715.019    10249.309    8259.4358    10289.058    524.54442    622.09992   -91.318661    49.917539    25.097679     22.92041           90           90           90 
    3500    278.78201   -18022.326   -15895.807   -18022.326            0    10741.405    49.937395    24.850707    23.060123            0            0            0    28617.142    9978.3263    11548.627    10697.262   -573.20103   -657.90841    373.10365    49.937395    24.850707    23.060123           90           90           90 
    4000    277.42395   -18006.244   -15890.083   -18006.244            0    10786.274    49.919266    25.018703    22.906139            0            0            0    28607.828    11537.195    10502.261    10319.367    -90.26256    96.175089   -196.85453    49.919266    25.018703    22.906139           90           90           90 
    4500    282.74648   -18009.674   -15852.914   -18009.674            0    10669.674    50.023139    24.881352    22.973718            0            0            0    28594.084    10970.399    10049.092     10989.53    53.062203   -307.38271   -73.349093    50.023139    24.881352    22.973718           90           90           90 
    5000    276.83138   -17935.929   -15824.289   -17935.929            0    10346.748    49.803014    24.939145    23.064704            0            0            0    28647.391    10668.759     10067.13    10304.355    25.497629    750.12716   -303.39617    49.803014    24.939145    23.064704           90           90           90 
    5500    285.05222   -18055.808    -15881.46   -18055.808            0    9949.1302    50.100597    25.009479    22.850818            0            0            0    28631.844    10102.493     9852.349    9892.5486   -25.217181   -812.84566   -168.77621    50.100597    25.009479    22.850818           90           90           90 
    6000    283.65841   -17976.364   -15812.648   -17976.364            0    10662.549    49.761064    24.921266    23.115636            0            0            0    28665.901     11596.59    10624.985    9766.0701   -464.46951    667.93985   -72.021113    49.761064    24.921266    23.115636           90           90           90 
    6500    280.94306   -18020.501   -15877.498   -18020.501            0    11088.661    50.048809    24.903246    22.893916            0            0            0    28534.469    10641.614    10954.974    11669.395   -72.637827    317.10364   -631.04768    50.048809    24.903246    22.893916           90           90           90 
    7000    292.15262   -18040.982   -15812.473   -18040.982            0    10026.001    49.904661    24.970898    22.987805            0            0            0     28646.58    9675.9138    9818.5253    10583.563    143.59574    655.64571   -198.04059    49.904661    24.970898    22.987805           90           90           90 
    7500    289.70239   -18025.768   -15815.949   -18025.768            0    10427.506    49.936297     24.87249       23.046            0            0            0    28624.055    10074.774    10753.134    10454.611   -504.73948   -903.39912   -38.504936    49.936297     24.87249       23.046           90           90           90 
    8000    288.81921   -18055.942    -15852.86   -18055.942            0    10336.473    49.955363     25.02699    22.897218            0            0            0    28626.843     10603.44    9644.7492     10761.23   -749.38664   -576.47052    180.69761    49.955363     25.02699    22.897218           90           90           90 
    8500    286.59851   -18040.299   -15854.156   -18040.299            0    10244.955    49.963377    24.849072    23.074288            0            0            0    28647.734    9820.6391    10833.208    10081.019   -182.45012   -484.52103    167.78589    49.963377    24.849072    23.074288           90           90           90 
    9000    290.01164   -17960.932   -15748.754   -17960.932            0    10213.868    49.874983    25.030262    22.975582            0            0            0    28682.347    10497.781    9334.0838    10809.738   -118.33634    261.07597    210.91291    49.874983    25.030262    22.975582           90           90           90 
    9500    289.90922    -18015.04   -15803.643    -18015.04            0    10015.023    49.963663    24.959695    22.970266            0            0            0    28645.708    10482.892    9799.7152    9762.4626    137.95981   -145.99368   -1134.7379    49.963663    24.959695    22.970266           90           90           90 
   10000    283.65778   -17956.508   -15792.796   -17956.508            0    9899.1175      49.7914    24.939874     23.11283            0            0            0    28701.309    10465.099    9888.3841     9343.869    390.76637    422.36602   -215.87617      49.7914    24.939874     23.11283           90           90           90 
   10500    292.58529   -17951.717   -15719.908   -17951.717            0    9656.9809    50.369909    24.995582    22.806691            0            0            0    28714.199    9117.9739    9433.1553    10419.814   -157.57266    157.82201   -306.29852    50.369909    24.995582    22.806691           90           90           90 
   11000    280.37646   -17988.526   -15849.845   -17988.526            0    9588.7066    49.695478     24.97084    23.154859            0            0            0     28733.74    10820.672    8822.2713    9123.1762    187.99113    296.72249    654.20408    49.695478     24.97084    23.154859           90           90           90 
   11500    281.91417   -18045.771    -15895.36   -18045.771            0    9558.6001    50.104265    24.913437    22.984045            0            0            0    28690.281    8328.6791     10805.84    9541.2809   -174.51737   -688.64159    258.57218    50.104265    24.913437    22.984045           90           90           90 
   12000     289.0456   -17985.545   -15780.736   -17985.545            0    9480.3568    49.885112    25.082487    22.954795            0            0            0     28722.02    10028.478    9091.0804    9321.5121    61.998583    -880.8562   -757.69552    49.885112    25.082487    22.954795           90           90           90 
   12500     285.0558   -17984.388   -15810.013   -17984.388            0    9740.6447    50.005193    24.844554    23.095207            0            0            0    28692.485    9864.2708    10150.774    9206.8893   -117.43927    369.14136    89.990228    50.005193    24.844554    23.095207           90           90           90 
   13000    292.99708   -18020.045   -15785.095   -18020.045            0    9075.3332    49.970206    25.093553     22.90971            0            0            0    28727.173    8886.5553    8720.8034    9618.6409    669.11937    477.37758   -89.150181    49.970206    25.093553     22.90971           90           90           90 
   13500    282.29338   -18028.718   -15875.414   -18028.718            0    9345.6864      50.0457    24.876601     23.08215            0            0            0    28736.513    9513.6222    9360.4505    9162.9864   -447.43961   -145.06971    421.54049      50.0457    24.876601     23.08215           90           90           90 
   14000    278.04042   -18041.771   -15920.909   -18041.771            0    8925.8138    49.970129    25.019079    22.965992            0            0            0    28712.235    8774.6893    8609.0598    9393.6924   -57.760593   -1421.5907    169.06558    49.970129    25.019079    22.965992           90           90           90 
   14500    278.36942   -18061.868   -15938.496   -18061.868            0    9132.0979    50.011357    24.951648    23.013646            0            0            0    28717.941    8529.2696    9885.7253    8981.2988    753.26419    16.896876     -721.128    50.011357    24.951648    23.013646           90           90           90 
   15000    287.74436   -17990.605   -15795.722   -17990.605            0    9243.6781    50.046872     24.96494     23.03378            0            0            0    28778.801    9286.5237    9383.3026     9061.208   -472.78246   -988.15247   -274.07779    50.046872     24.96494     23.03378           90           90           90 
   15500    281.06081   -17991.944   -15848.042   -17991.944            0    9151.3798     50.03283    24.992838    22.994176            0            0            0    28753.354    8967.2406    9115.6414    9371.2573    164.65185   -258.47855    510.40073     50.03283    24.992838    22.994176           90           90           90 
   16000    288.45188   -18044.718   -15844.438   -18044.718            0     9172.612    49.973239    24.983631    23.035421            0            0            0    28760.022    9366.1613    9179.4001    8972.2746   -1368.7794    1163.1569    823.07042    49.973239    24.983631    23.035421           90           90           90 
   16500    284.88805   -17969.708   -15796.612   -17969.708            0     10071.36     50.13227    24.997813    22.888159            0            0            0    28683.375    9985.0201    9691.8511     10537.21   -629.95753   -567.61518   -824.98399     50.13227    24.997813    22.888159           90           90           90 
   17000    286.45844   -18027.665    -15842.59   -18027.665            0    10202.773    49.707054    24.895054    23.180311            0            0            0    28684.702    11124.983    10004.116    9479.2186   -663.25899    192.42252   -526.68382    49.707054    24.895054    23.180311           90           90           90 
   17500    283.77273   -18028.517   -15863.929   -18028.517            0    9923.5599    50.056678    24.953915    22.929832            0            0            0    28641.885    9663.8485    10143.024    9963.8074    439.92592   -133.06128   -495.05057    50.056678    24.953915    22.929832           90           90           90 
   18000    278.75016   -18020.909   -15894.633   -18020.909            0    10749.723    49.886959    24.969404     22.92101            0            0            0    28551.502    10973.295    10531.307    10744.568   -823.71951    419.64004     21.60905    49.886959    24.969404     22.92101           90           90           90 
   18500    279.97618   -17992.222   -15856.594   -17992.222            0     9837.916    49.785462    24.943016    23.079267            0            0            0    28659.824    10535.988    10240.541    8737.2182    407.67418    750.16696    366.71801    49.785462    24.943016    23.079267           90           90           90 
   19000    278.18609   -17981.104    -15859.13   -17981.104            0     9835.383    50.027754    24.975659     22.92685            0            0            0    28646.552    9769.6778    9661.3984    10075.073    26.558801   -639.91139    510.71208    50.027754    24.975659     22.92685           90           90           90 
   19500    287.81198   -18047.829    -15852.43   -18047.829            0    9337.2737    49.892268    24.930557    23.072037            0            0            0    28697.969    9751.1288    9415.5953    8845.0971    270.00675   -796.60533    558.23815    49.892268    24.930557    23.072037           90           90           90 
   20000    279.05866   -18014.108   -15885.478   -18014.108            0     10532.73      49.9988    24.888767    22.965607            0            0            0    28578.595      9827.53    11771.105    9999.5567   -500.97426   -21.156291   -41.966743      49.9988    24.888767    22.965607           90           90           90 
   20500     279.2966   -17960.313   -15829.868   -17960.313            0    11301.761    49.716956    25.041308    22.936453            0            0            0     28555.37    12462.435    10504.858     10937.99    555.28147   -89.289555    368.15305    49.716956    25.041308    22.936453           90           90           90 
   21000    278.02376   -18028.713   -15907.977   -18028.713            0    10572.577     49.99326    24.829785    23.029986            0            0            0    28587.625     9997.997    11513.657    10206.076    -253.1592   -386.39354    376.78302     49.99326    24.829785    23.029986           90           90           90 
   21500     282.3994   -18075.661   -15921.548   -18075.661            0    10366.568    49.870809    24.984186    22.953244            0            0            0    28599.319    10124.829    10626.127    10348.749     140.5466    1059.8765    66.186771    49.870809    24.984186    22.953244           90           90           90 
   22000    279.13971   -17954.553   -15825.305   -17954.553            0    10423.677    49.962994     24.87451    23.010566            0            0            0    28597.646    10544.875    10281.205    10444.952   -469.38401    147.34076   -372.02114    49.962994     24.87451    23.010566           90           90           90 
   22500    289.17597   -18041.579   -15835.775   -18041.579            0    10750.821    49.828602    24.976922    22.963095            0            0            0    28579.068    10835.965    10833.415    10583.083    94.682591    208.79637   -33.011442    49.828602    24.976922    22.963095           90           90           90 
   23000    283.31775   -18073.108   -15911.991   -18073.108            0    10350.511    49.908095    24.919311    22.970091            0            0            0    28567.335    10032.899    10442.533    10576.101   -232.73326    178.77541    84.796732    49.908095    24.919311    22.970091           90           90           90 
   23500    284.12578    -18020.19   -15852.909    -18020.19            0    10528.245    49.832768     24.90572    23.025958            0            0            0    28577.999    10204.335    11320.753    10059.648    359.18231   -65.671849    38.298285    49.832768     24.90572    23.025958           90           90           90 
   24000    293.46774   -17995.343   -15756.802   -17995.343            0    10150.938    50.035776    25.007526    22.882794            0            0            0    28632.575    9587.3769    10655.437    10209.999    268.14429    47.758471    173.11698    50.035776    25.007526    22.882794           90           90           90 
   24500    287.40435   -18054.714   -15862.424   -18054.714            0    9825.3717    49.833368     24.88662    23.104615            0            0            0    28653.976    10244.979    10393.275    8837.8612     54.90384    15.599594    386.95518    49.833368     24.88662    23.104615           90           90           90 
   25000    293.73152   -17948.445   -15707.892   -17948.445            0    10184.136    50.135056    24.993293      22.8734            0            0            0    28661.289    9149.1166     9757.226    11646.066   -32.658845   -359.31084     354.4461    50.135056    24.993293      22.8734           90           90           90 
   25500    291.56869   -18063.382   -15839.327   -18063.382            0    10470.144    49.766237    24.886097    23.088304            0            0            0    28594.573    10127.216      11324.2    9959.0177    420.91542   -71.175185   -432.97613    49.766237    24.886097    23.088304           90           90           90 
   26000    290.88262   -17956.517   -15737.696   -17956.517            0    10600.947    49.979802    24.939771    22.977647            0            0            0    28641.289    10569.942    11110.194    10122.704    303.11631   -15.643768    96.912393    49.979802    24.939771    22.977647           90           90           90 
   26500    285.88646   -18086.508   -15905.797   -18086.508            0    9710.8304    49.957917    25.006208    22.894039            0            0            0    28600.563    9505.6452    9378.8976    10247.948   -150.33901    73.362163    314.65564    49.957917    25.006208    22.894039           90           90           90 
   27000    287.72542   -17994.987   -15800.248   -17994.987            0    10152.109    49.946316    24.884418    23.075961            0            0            0    28680.767     10317.25     10814.02    9325.0569    230.62297    615.04792    327.71639    49.946316    24.884418    23.075961           90           90           90 
   27500    284.55759   -17994.597   -15824.022   -17994.597            0    10217.922    49.937198    25.010262    22.950897            0            0            0    28664.349    9782.9334    10205.904     10664.93   -116.64867   -159.52152    54.656131    49.937198    25.010262    22.950897           90           90           90 
   28000    284.97428   -18013.392   -15839.639   -18013.392            0    10976.143    49.936727    24.846212    23.011627            0            0            0    28551.411    10063.305    11594.409    11270.714   -241.10468   -340.72302    35.673344    49.936727    24.846212    23.011627           90           90           90 
   28500    281.86772   -17951.072   -15801.015   -17951.072            0    11486.854    49.729801    25.004103    22.949774            0            0            0    28536.875    13118.235    9975.7981    11366.528   -284.74961    122.41013   -439.95186    49.729801    25.004103    22.949774           90           90           90 
   29000    281.55388    -18041.54   -15893.877    -18041.54            0    11012.614    50.066855    24.835697    22.952152            0            0            0    28539.744    10480.463    11609.421    10947.956   -679.71314   -1126.4096    120.73898    50.066855    24.835697    22.952152           90           90           90 
   29500    284.49147   -17992.747   -15822.676   -17992.747            0      10262.2    49.769799    25.003976    23.034734            0            0            0     28665.41    10944.298    10509.538    9332.7632   -369.13431     189.8866    73.720305    49.769799    25.003976    23.034734           90           90           90 
   30000    294.70769   -17932.099     -15684.1   -17932.099            0    10000.511    50.101172    24.958953     22.94995            0            0            0    28698.288     9546.363    9772.5402    10682.629   -293.83171    925.33395    461.77317    50.101172    24.958953     22.94995           90           90           90 
   30500    287.37816   -18040.732   -15848.642   -18040.732            0    9525.6163    49.844073    24.972938    23.088675            0            0            0    28739.696    9899.0803    9730.4537    8947.3149   -35.917976   -464.67526    1124.5681    49.844073    24.972938    23.088675           90           90           90 
   31000    294.32989   -18000.714   -15755.597   -18000.714            0    9404.9718    50.125926    24.939549    22.991135            0            0            0    28741.632    9250.0657    9129.2938     9835.556    839.51834    779.40197    1032.8364    50.125926    24.939549    22.991135           90           90           90 
   31500    284.83244   -18010.192    -15837.52   -18010.192            0    9038.8129    50.039832    25.076928     22.90793            0            0            0    28745.907    8849.0518    8365.2929    9902.0939    570.75996     -124.008    687.41904    50.039832    25.076928     22.90793           90           90           90 
   32000    284.52629   -18008.929   -15838.593   -18008.929            0    9685.6339    49.925153     24.85933    23.154254            0            0            0    28736.881    10211.033    10627.059    8218.8094    442.09163    194.54799    813.17548    49.925153     24.85933    23.154254           90           90           90 
   32500    288.83715   -18009.133   -15805.915   -18009.133            0    10238.866    50.004979    25.066533    22.881987            0            0            0    28681.461    9846.2967     9260.195    11610.107    147.74442     485.9327   -286.19349    50.004979    25.066533    22.881987           90           90           90 
   33000    290.61858   -18008.619   -15791.811   -18008.619            0     9992.761    49.968121     24.87752    23.067131            0            0            0    28674.356    9996.9643    10231.483    9749.8351    464.90557   -499.18605    284.82579    49.968121     24.87752    23.067131           90           90           90 
   33500    278.22713   -18047.872   -15925.585   -18047.872            0    9835.4333    49.862788    25.080759    22.914329            0            0            0    28656.581    10339.341    9336.8965    9830.0626   -211.51685   -264.34732    173.75581    49.862788    25.080759    22.914329           90           90           90 
   34000    281.61962   -18045.271   -15897.106   -18045.271            0    10477.295    50.017224    24.863454    22.991335            0            0            0    28592.047    10237.119    11045.984    10148.782    229.39108   -411.11655   -80.759643    50.017224    24.863454    22.991335           90           90           90 
   34500     281.8659   -18075.598   -15925.555   -18075.598            0    10181.493    49.751817    25.005943    23.002864            0            0            0    28617.658    10624.403    10070.647    9849.4277    -160.0982     -972.581    927.17544    49.751817    25.005943    23.002864           90           90           90 
   35000    284.67886   -18042.178   -15870.678   -18042.178            0    9735.6575    50.029889    24.911583    23.026078            0            0            0    28697.947    9336.4627    10277.316    9593.1942    402.59016    77.719644   -89.337606    50.029889    24.911583    23.026078           90           90           90 
   35500    287.62462   -18007.624   -15813.654   -18007.624            0     10378.84     49.84221    25.030181     22.95138            0            0            0    28633.212     10467.66    9482.8227    11186.037    166.87876   -553.43931    972.19367     49.84221    25.030181     22.95138           90           90           90 
   36000    283.63873   -18049.355   -15885.789   -18049.355            0    10722.242    49.901854    24.845901    23.035733            0            0            0    28561.004     10316.65    11463.541    10386.536    490.78214   -118.49402   -37.562486    49.901854    24.845901    23.035733           90           90           90 
   36500    281.97766    -18003.51   -15852.615    -18003.51            0    10298.772    49.885989    24.984916    22.960084            0            0            0    28617.385    10763.821    9580.1509    10552.345    3.3685192    370.85203    77.189678    49.885989    24.984916    22.960084           90           90           90 
   37000    286.44069   -18027.301   -15842.362   -18027.301            0     10392.08    49.898287    24.950691    22.957342            0            0            0    28581.815    11159.562    9601.2553    10415.423   -652.75411   -304.04727   -1185.1688    49.898287    24.950691    22.957342           90           90           90 
   37500    283.01411   -17994.437   -15835.635   -17994.437            0    11152.427    49.870337    24.914352    23.001956            0            0            0    28579.635    10785.501    11385.551     11286.23    85.441646    397.88884  -0.24451715    49.870337    24.914352    23.001956           90           90           90 
   38000      290.076   -17990.049   -15777.381   -17990.049            0    10708.857    50.014841    24.978171     22.88302            0            0            0    28587.283    11314.184    10162.529    10649.858   -102.53837    9.3372607   -764.78344    50.014841    24.978171     22.88302           90           90           90 
   38500      293.789       -18049   -15808.009       -18049            0    10415.211    49.840791    24.895987    23.056584            0            0            0    28609.432    11043.101        10750    9452.5318   -496.67084    1315.0561   -750.09827    49.840791    24.895987    23.056584           90           90           90 
   39000    286.48748   -18029.537   -15844.241   -18029.537            0    10653.997    49.861594    24.983619    22.948662            0            0            0    28587.678    10897.687    10864.768    10199.535   -297.42192    116.45539    441.96694    49.861594    24.983619    22.948662           90           90           90 
   39500    286.15882   -17919.778    -15736.99   -17919.778            0    10617.334    50.004534    24.909608    23.013997            0            0            0    28666.082    9874.2348    11938.644    10039.123   -279.58941    3.9353893   -47.272309    50.004534    24.909608    23.013997           90           90           90 
   40000    290.84857   -18081.637   -15863.075   -18081.637            0    10100.922    49.789143    25.020676    22.974309            0            0            0    28620.429    9820.1956    9528.4932    10954.077    321.94647    806.94711    613.09395    49.789143    25.020676    22.974309           90           90           90 
   40500    284.38042   -18033.745   -15864.522   -18033.745            0    10996.529    49.985353    24.861962    22.986315            0            0            0    28565.873    11277.029    11632.292    10080.267    28.153338   -1265.8515   -394.85338    49.985353    24.861962    22.986315           90           90           90 
   41000    277.52039   -18036.014   -15919.119   -18036.014            0    10712.395    49.800455    25.068429    22.886901            0            0            0    28572.446    10632.447    10380.637      11124.1   -205.64262   -140.51703    248.62487    49.800455    25.068429    22.886901           90           90           90 
   41500    284.25131   -17994.516   -15826.278   -17994.516            0    9617.6312     50.06103    24.768625    23.120125            0            0            0    28667.634    9020.0613    10843.697    8989.1352    154.07563    773.09786    38.553486     50.06103    24.768625    23.120125           90           90           90 
   42000    290.12255   -18019.949   -15806.926   -18019.949            0    9580.8929    49.855779    25.116714    22.925283            0            0            0    28707.345    9916.8136    8547.4542    10278.411   -291.66982   -473.03482   -870.65077    49.855779    25.116714    22.925283           90           90           90 
   42500    286.95988   -18052.806   -15863.907   -18052.806            0    9329.3236     50.06251    24.880687    23.030079            0            0            0    28686.029    9013.4065    10083.911    8890.6529    198.28147    13.000571   -248.72998     50.06251    24.880687    23.030079           90           90           90 
   43000    279.91349   -17983.759   -15848.609   -17983.759            0     9638.759    49.953319     25.00086    22.994158            0            0            0    28716.851    9566.4564    10201.141    9148.6797    228.15593    474.46712   -217.36315    49.953319     25.00086    22.994158           90           90           90 
   43500    289.77068   -18019.594   -15809.255   -18019.594            0    9341.5039    50.056941    24.972084    23.013979            0            0            0    28768.075    9367.1759    9484.7525    9172.5831   -504.19514   -453.15558   -42.474107    50.056941    24.972084    23.013979           90           90           90 
   44000    280.20011    -18044.26   -15906.924    -18044.26            0    9371.3277     49.88233    24.979948    23.027283            0            0            0     28693.33    10148.183    8500.8736     9464.926    474.72113    681.00453     -54.2505     49.88233    24.979948    23.027283           90           90           90 
   44500    285.35953   -17989.505   -15812.813   -17989.505            0    9938.8532    50.033363    24.984034    22.926296            0            0            0    28658.677     10727.49     9274.063    9815.0066     319.0226   -256.10251   -87.905792    50.033363    24.984034    22.926296           90           90           90 
   45000    280.79606   -18012.788   -15870.906   -18012.788            0    10288.129    49.834891    24.839435    23.103288            0            0            0    28598.878    10271.802     11514.08    9078.5046    43.813427     67.02713    -194.8762    49.834891    24.839435    23.103288           90           90           90 
   45500    281.76115   -18025.917   -15876.673   -18025.917            0     9697.425    49.915517    24.981827     22.95918            0            0            0    28629.657    9371.7436    10559.211    9161.3204    53.597489   -3.0771324    -308.4501    49.915517    24.981827     22.95918           90           90           90 
   46000     291.8762   -18030.026   -15803.626   -18030.026            0    9880.9278    50.055858    24.987002    22.916092            0            0            0    28662.206    9962.2423    9223.2006     10457.34   -383.32592    554.94661    176.30598    50.055858    24.987002    22.916092           90           90           90 
   46500    288.40832    -17984.38   -15784.432    -17984.38            0    10209.345    49.819198    24.924946    23.063911            0            0            0    28639.399    10193.507    10390.262    10044.268    522.05988   -706.16778    171.35434    49.819198    24.924946    23.063911           90           90           90 
   47000    285.17141     -17990.4   -15815.143     -17990.4            0        10417    49.992527    25.003633    22.888836            0            0            0    28610.926    9847.2538    10677.152    10726.594     -67.4517   -499.03144    368.39935    49.992527    25.003633    22.888836           90           90           90 
   47500    283.91132   -17943.284   -15777.639   -17943.284            0    10564.629    49.824314    24.912852    23.086615            0            0            0    28656.624    11633.363     10458.95    9601.5754    622.57539   -237.38455    433.56636    49.824314    24.912852    23.086615           90           90           90 
   48000     286.2593   -18071.344   -15887.789   -18071.344            0    10157.873    50.063022    24.939749    22.909471            0            0            0    28603.831    9053.0709    10083.029    11337.518     494.8934    -827.0932    506.14322    50.063022    24.939749    22.909471           90           90           90 
   48500    286.07361   -17986.632   -15804.494   -17986.632            0    10522.007    49.929424    25.036279    22.902405            0            0            0    28629.082    9977.4088    10028.729    11559.882   -676.50121    211.73303   -382.77797    49.929424    25.036279    22.902405           90           90           90 
   49000    294.79371   -18019.925    -15771.27   -18019.925            0    9597.5225    49.834847    24.885977    23.093907            0            0            0    28640.806    9824.5604    10144.196     8823.811   -78.096123   -263.24834    503.16603    49.834847    24.885977    23.093907           90           90           90 
   49500    288.90306   -17929.753   -15726.032   -17929.753            0     9720.336    50.041749    25.018693    22.977841            0            0            0    28767.778     9528.029    9914.4194    9718.5594   -208.80056    552.94608    114.36745    50.041749    25.018693    22.977841           90           90           90 
   50000    287.67673   -18027.129   -15832.762   -18027.129            0    9294.2708    49.935029    25.003882    23.000741            0            0            0    28718.026    9665.8611     9051.203    9165.7482     62.54204   -242.74819   -18.536282    49.935029    25.003882    23.000741           90           90           90 
   50500    282.52555   -18019.869   -15864.795   -18019.869            0    9351.2559    49.962003    24.977905    23.053507            0            0            0    28769.537    9272.9538    9168.6426    9612.1713    1018.0296   -510.82416    237.50834    49.962003    24.977905    23.053507           90           90           90 
   51000    288.14551   -17972.534   -15774.591   -17972.534            0    8104.6977    50.174615    25.064152    22.961102            0            0            0    28875.518    8170.0063     7934.218    8209.8688   -389.17563    566.35467   -245.28822    50.174615    25.064152    22.961102           90           90           90 
   51500     280.2191   -17974.104   -15836.623   -17974.104            0    9388.3133    49.858602    25.017178    23.068844            0            0            0    28774.266    9515.3597    9088.7384    9560.8418    443.73896   -1030.7877    60.806379    49.858602    25.017178    23.068844           90           90           90 
   52000    287.61175   -18049.634   -15855.762   -18049.634            0    9307.8925    50.086002    24.958759    22.960947            0            0            0    28703.123      8911.36    9478.6336    9533.6839    197.99299    79.951344     -74.1374    50.086002    24.958759    22.960947           90           90           90 
   52500    290.03854   -18021.888   -15809.505   -18021.888            0    9640.9916    49.903906    24.990219    23.015377            0            0            0    28702.697    9809.9029    10416.833    8696.2383    149.33797    198.71679    77.704968    49.903906    24.990219    23.015377           90           90           90 
   53000    287.34989   -18060.123   -15868.249   -18060.123            0    10097.179    49.967337    24.898798    23.017146            0            0            0    28636.244     10172.04    10261.491    9858.0044   -480.28311   -174.78926    106.42034    49.967337    24.898798    23.017146           90           90           90 
   53500    285.64314   -18029.211   -15850.356   -18029.211            0    10195.368    49.967653    25.053351    22.877142            0            0            0    28638.914    10529.962    9857.9567    10198.184    846.50516    194.95564   -448.91141    49.967653    25.053351    22.877142           90           90           90 
   54000    289.68054   -17979.373   -15769.721   -17979.373            0    10480.524     49.92255    24.820764    23.081925            0            0            0    28601.179    10297.307     11345.54    9798.7228   -189.67949    19.979144   -506.30839     49.92255    24.820764    23.081925           90           90           90 
   54500    284.12294   -18079.718   -15912.459   -18079.718            0    10585.734    49.816713    25.043291    22.846521            0            0            0    28502.735     10354.22    10592.374    10810.608    406.64828   -298.14962    67.473629    49.816713    25.043291    22.846521           90           90           90 
   55000     294.5319   -18014.014   -15767.356   -18014.014            0    10087.992    49.991078    24.905162    22.956945            0            0            0     28582.22    9530.8444    10562.581    10170.551   -456.09284    66.536942    249.20396    49.991078    24.905162    22.956945           90           90           90 
   55500    280.06485   -17999.244    -15862.94   -17999.244            0    10128.201    49.816988    24.925137    23.059659            0            0            0    28633.069    10693.189    10235.378    9456.0366   -954.99745   -423.12928   -45.449679    49.816988    24.925137    23.059659           90           90           90 
   56000    286.86386    -17965.23   -15777.063    -17965.23            0    9557.6924    50.066827    24.992268    22.933958            0            0            0    28696.885    9062.6375    9292.2263    10318.213   -382.94615    82.727275    237.00596    50.066827    24.992268    22.933958           90           90           90 
   56500    288.96972   -18055.955   -15851.724   -18055.955            0    9231.9263    49.892818    24.974028    23.051212            0            0            0    28722.378    9710.4708    8859.2329    9126.0752   -423.28992    144.50285    247.54613    49.892818    24.974028    23.051212           90           90           90 
   57000    279.58741   -18044.971   -15912.308   -18044.971            0    9109.6907     49.95766    24.964976    23.012086            0            0            0    28700.485    9751.9856    9215.9353    8361.1512   -108.87351    176.08483    565.15572     49.95766    24.964976    23.012086           90           90           90 
   57500    285.51954   -18013.049   -15835.137   -18013.049            0    9044.1129    50.035207    25.037989    22.961641            0            0            0    28765.906    9866.3954    7858.4289    9407.5145    382.56625    -81.66284   -183.21371    50.035207    25.037989    22.961641           90           90           90 
   58000    281.50393   -18019.496   -15872.214   -18019.496            0    9301.8139    49.877091    24.936093    23.098279            0            0            0    28728.249    9380.0805    9560.4644    8964.8969   -782.96556    -1184.397    644.77408    49.877091    24.936093    23.098279           90           90           90 
   58500    283.25992   -17925.595   -15764.919   -17925.595            0    9946.3932    50.050361    24.999759    22.945277            0            0            0    28710.209    10700.834    9594.8011    9543.5449   -640.59136   -436.61281   -703.65519    50.050361    24.999759    22.945277           90           90           90 
   59000    289.00877    -18061.61   -15857.082    -18061.61            0    9807.1664    49.975752    24.991407    22.952836            0            0            0    28667.274    10499.799    9184.0249    9737.6753   -69.983541   -170.21733    -23.87676    49.975752    24.991407    22.952836           90           90           90 
   59500    290.93977     -18010.8   -15791.543     -18010.8            0    9752.2661    49.833258     24.90301    23.122627            0            0            0    28695.136    9961.8168     10190.91    9104.0716   -93.374714   -848.70872    194.51693    49.833258     24.90301    23.122627           90           90           90 
   60000    281.43472    -17983.22   -15836.466    -17983.22            0    9838.5425    50.102179    25.046196    22.866133            0            0            0    28694.001    9786.3151    9370.0693    10359.243   -476.43561   -380.64513   -74.989039    50.102179    25.046196    22.866133           90           90           90 
   60500    286.30059   -18045.717   -15861.846   -18045.717            0    9611.7771    49.824601    24.874902    23.142747            0            0            0    28682.705    10386.581    9917.4157    8531.3347   -856.77484   -262.78947    234.63967    49.824601    24.874902    23.142747           90           90           90 
   61000     290.0495   -18076.231   -15863.765   -18076.231            0    9357.7514    49.941569    24.997031    22.971621            0            0            0    28677.564    10086.541    8466.8068    9519.9065    14.495985    126.06269   -513.50235    49.941569    24.997031    22.971621           90           90           90 
   61500    297.07625   -18037.872   -15771.806   -18037.872            0    10015.937    50.013613    24.988038    22.932981            0            0            0    28660.311    10004.355    9347.7444     10695.71    333.67905   -741.22091   -369.19844    50.013613    24.988038    22.932981           90           90           90 
   62000    289.01962   -18026.285   -15821.674   -18026.285            0    9274.1194    49.918528    24.936232    23.069711            0            0            0    28716.715    9411.6244    9341.9579     9068.776   -694.77256    1183.1117   -174.17219    49.918528    24.936232    23.069711           90           90           90 
   62500    273.66604   -17964.385    -15876.89   -17964.385            0    10225.214    49.934143    24.984989    22.966368            0            0            0    28652.932    10759.118    9400.7679    10515.756   -426.25367    61.477716    505.19474    49.934143    24.984989    22.966368           90           90           90 
   63000    292.61145   -17955.595   -15723.586   -17955.595            0    9269.8231    50.062032    24.934146    23.048475            0            0            0    28770.351    9241.8753     9115.478     9452.116   -208.09486    848.48285    48.916652    50.062032    24.934146    23.048475           90           90           90 
   63500    277.56942   -17982.846   -15865.577   -17982.846            0    9503.1048    49.948084    25.023687    22.970205            0            0            0     28710.12    10133.553    8557.9834    9817.7785    394.62469   -424.45593     404.7958    49.948084    25.023687    22.970205           90           90           90 
   64000    291.52434   -18007.372   -15783.655   -18007.372            0    10239.413    49.955571    24.891457    23.041576            0            0            0    28651.438    10562.208     10521.92     9634.111    226.23532   -221.89524   -197.60441    49.955571    24.891457    23.041576           90           90           90 
   64500     278.7129   -18051.025   -15925.033   -18051.025            0    10535.712    49.926239     25.04382    22.851183            0            0            0    28571.834    10391.068    9955.2815    11260.786   -260.38802    823.11261    151.67176    49.926239     25.04382    22.851183           90           90           90 
   65000    281.81757   -18084.398   -15934.724   -18084.398            0    10597.749    49.721782    24.839464    23.119532            0            0            0    28554.064    10402.089    11635.286    9755.8728    393.37254    334.38019   -392.00177    49.721782    24.839464    23.119532           90           90           90 
   65500     276.0615    -18002.61   -15896.842    -18002.61            0    10736.886    49.912518    24.936181    22.988559            0            0            0    28612.195    10623.089    11355.742    10231.828    321.32842   -27.580747    213.00675    49.912518    24.936181    22.988559           90           90           90 
   66000    294.00923   -18014.508   -15771.837   -18014.508            0    9544.6954    50.012086    24.968328    22.988955            0            0            0    28706.725    9210.8596    9631.4097    9791.8169   -531.39011    108.98581   -393.39545    50.012086    24.968328    22.988955           90           90           90 
   66500    291.57158   -17975.925   -15751.848   -17975.925            0    10025.602    49.956185    24.940563    23.050246            0            0            0    28719.116    10084.221      9768.34    10224.244     335.6103   -145.11783   -213.08622    49.956185    24.940563    23.050246           90           90           90 
   67000    287.56534   -18087.927    -15894.41   -18087.927            0     9612.554    49.942926    24.999496    22.932039            0            0            0    28631.751    9477.6941    9899.9104    9460.0574   -545.00138    559.66068    432.10479    49.942926    24.999496    22.932039           90           90           90 
   67500     284.2725   -18045.376   -15876.975   -18045.376            0    10282.854    49.909607    24.889889    23.040623            0            0            0    28622.089    10571.684    10598.908      9677.97    98.597228   -462.60913   -202.78391    49.909607    24.889889    23.040623           90           90           90 
   68000    279.98735   -18040.199   -15904.486   -18040.199            0     10194.66    49.877682    24.995825    22.950005            0            0            0    28612.548    11470.271    8757.6848    10356.025    381.48697   -740.09472   -84.999456    49.877682    24.995825    22.950005           90           90           90 
   68500    287.80231   -17949.905    -15754.58   -17949.905            0    10588.454     50.05176    24.914862     22.95139            0            0            0    28621.133    9843.6978    10436.956    11484.708    884.92765    544.18448   -35.866286     50.05176    24.914862     22.95139           90           90           90 
   69000    277.45895   -18035.204   -15918.777   -18035.204            0    10420.739    49.710193    24.932788    23.033888            0            0            0    28548.516    11257.863    10302.442    9701.9116   -366.36785   -76.603274    107.03199    49.710193    24.932788    23.033888           90           90           90 
   69500    282.32044   -18019.028   -15865.518   -18019.028            0     10492.87    50.103376    24.895273    22.908001            0            0            0    28574.002    9553.3166    11105.735    10819.558   -47.906847    -672.5855    261.58494    50.103376    24.895273    22.908001           90           90           90 
   70000    275.94931   -17950.103   -15845.191   -17950.103            0    10375.328    49.791886    24.936866     23.06647            0            0            0    28640.565    11293.588    10200.364    9632.0313   -592.36054   -204.97961    1253.5603    49.791886    24.936866     23.06647           90           90           90 
   70500    284.87145   -18048.463   -15875.494   -18048.463            0    9666.0089      50.0295    24.962926     22.95756            0            0            0      28671.3    9549.3034    9510.8851    9937.8382   -141.65781    399.97063   -440.57671      50.0295    24.962926     22.95756           90           90           90 
   71000     275.7297   -18023.346   -15920.109   -18023.346            0    9832.1749    49.984113    24.970225    22.961751            0            0            0    28658.896    9940.2448    9815.3287    9740.9512   -668.55802   -242.51083   -549.18825    49.984113    24.970225    22.961751           90           90           90 
   71500    288.43224   -18028.955   -15828.825   -18028.955            0    10422.163    49.759709    24.934465    23.081618            0            0            0    28638.096     11126.39    9592.3218    10547.778    179.58776    156.64541     88.01422    49.759709    24.934465    23.081618           90           90           90 
   72000    293.55719    -17958.09   -15718.867    -17958.09            0    9701.4946    50.185564    25.045098     22.88546            0            0            0    28764.789    8930.3491    9489.6963    10684.438    50.521726   -158.34952    188.01955    50.185564    25.045098     22.88546           90           90           90 
   72500    282.62018   -18042.927   -15887.131   -18042.927            0    9631.0662    49.812412    24.901434    23.148259            0            0            0    28713.111    10569.416    9757.5059    8566.2768    675.21127    117.82904   -363.49536    49.812412    24.901434    23.148259           90           90           90 
   73000    281.35609   -18019.017   -15872.862   -18019.017            0    9937.4234    50.040429    24.966267    22.909562            0            0            0    28621.436    9662.9367    9965.3967    10183.937   -720.82936   -317.73347    150.71754    50.040429    24.966267    22.909562           90           90           90 
   73500    288.04618   -17955.216   -15758.031   -17955.216            0    9996.8117    49.928977    24.989421    22.980839            0            0            0    28673.106    11213.915    9129.6432    9646.8774   -707.32534    218.23253   -832.14746    49.928977    24.989421    22.980839           90           90           90 
   74000    286.17055   -17995.954   -15813.076   -17995.954            0    10383.816    49.908232    24.930805    23.033734            0            0            0    28659.778    10334.386    11433.875    9383.1859   -169.94785    206.79444    312.78656    49.908232    24.930805    23.033734           90           90           90 
   74500    288.63703   -18027.102    -15825.41   -18027.102            0    9539.9533    49.987809    25.006774      22.9405            0            0            0    28676.401     9450.762     9604.729    9564.3689      729.727   -520.32116   -365.81255    49.987809    25.006774      22.9405           90           90           90 
   75000    282.82671   -17996.456   -15839.084   -17996.456            0    9699.2039     49.92603     24.95342    23.055933            0            0            0    28723.662    9983.3083     10075.12     9039.183   -162.94862    362.77551   -239.81476     49.92603     24.95342    23.055933           90           90           90 
   75500    289.20313   -18046.776   -15840.765   -18046.776            0    10223.425    49.969152    24.944654    23.004205            0            0            0    28673.895    10678.442    9607.3822    10384.451   -136.52199    300.45857   -153.42545    49.969152    24.944654    23.004205           90           90           90 
   76000    282.77315   -18018.982   -15862.019   -18018.982            0    10236.592    49.875188     24.99397    22.974604            0            0            0    28639.658    10638.316    10281.596    9789.8653   -284.29359   -738.23203    945.27791    49.875188     24.99397    22.974604           90           90           90 
   76500    274.38489   -18080.543   -15987.565   -18080.543            0    10683.973    49.897701    24.821868    23.030007            0            0            0    28523.911    10286.247    11918.299    9847.3741   -95.869049    380.98437    719.73066    49.897701    24.821868    23.030007           90           90           90 
   77000    280.88764   -18044.594   -15902.013   -18044.594            0    10527.553    49.800094    25.017457    22.924835            0            0            0    28561.404    11377.629    9250.5073    10954.523   -493.61754   -142.98525   -32.951119    49.800094    25.017457    22.924835           90           90           90 
   77500    283.49921   -17994.526   -15832.024   -17994.526            0    10958.452    50.027881    24.845581    22.990333            0            0            0    28576.335    10032.095    12133.123    10710.138   -408.25285    -436.8984   -526.36995    50.027881    24.845581    22.990333           90           90           90 
   78000    295.11044   -17987.553   -15736.482   -17987.553            0    10744.966    49.772145    25.006344    22.982158            0            0            0    28604.039    10901.444    10384.703    10948.752   -468.18733   -1312.8554    401.07011    49.772145    25.006344    22.982158           90           90           90 
   78500    283.26089   -18058.657   -15897.974   -18058.657            0    11118.167    49.936121    24.886347    22.964358            0            0            0    28538.443    10583.124    11573.661    11197.717   -270.01728   -197.58552    504.61385    49.936121    24.886347    22.964358           90           90           90 
   79000    288.36918    -18109.51   -15909.861    -18109.51            0    10763.581     49.71712    24.991145    22.958117            0            0            0    28525.179    11371.689    9971.0724    10947.982    87.955928    942.48844      23.3399     49.71712    24.991145    22.958117           90           90           90 
   79500    288.60841   -18034.774     -15833.3   -18034.774            0    10952.633    49.991699    24.864524    22.963742            0            0            0    28544.385    11176.575    10341.205    11340.118   -385.26935    123.60659   -786.69226    49.991699    24.864524    22.963742           90           90           90 
   80000    287.47699   -18020.954    -15828.11   -18020.954            0    10304.269    49.850031    24.974299    22.975988            0            0            0    28604.406    10021.468    10192.214    10699.126    645.87728   -483.90864    105.56276    49.850031    24.974299    22.975988           90           90           90 
   80500    282.93401   -18016.265   -15858.074   -18016.265            0    10000.285    50.015229    24.840612    23.078678            0            0            0    28673.155    10021.024    10790.189    9189.6415    -468.8822   -17.882112   -441.26029    50.015229    24.840612    23.078678           90           90           90 
   81000     280.3015   -18020.657   -15882.547   -18020.657            0     9721.238    49.972759    25.064112    22.901223            0            0            0    28684.304    9207.3394    9324.2465    10632.128    576.96272   -172.09241   -13.815105    49.972759    25.064112    22.901223           90           90           90 
   81500    282.35818   -18028.576   -15874.778   -18028.576            0    9336.6974    49.916307     24.92131    23.094819            0            0            0    28729.487    9017.7194    10287.958     8704.415   -406.00861   -462.78341   -132.17544    49.916307     24.92131    23.094819           90           90           90 
   82000    283.32878   -18027.815   -15866.613   -18027.815            0     9271.877    50.025226    25.011649    22.950203            0            0            0    28715.602    9244.3987    9686.4939    8884.7385    120.54864   -145.16541    302.57916    50.025226    25.011649    22.950203           90           90           90 
   82500    291.79286   -17966.282   -15740.517   -17966.282            0    9687.9553    49.979795    24.987048    23.022495            0            0            0    28751.587    9287.0017    10144.365    9632.4992    -180.6196    382.85769    -368.9971    49.979795    24.987048    23.022495           90           90           90 
   83000    282.40255   -17986.138   -15832.001   -17986.138            0    9345.0903    49.976546    25.000773    22.987441            0            0            0    28721.712    9710.5212    9380.5928     8944.157   -268.01188   -297.46857    172.15991    49.976546    25.000773    22.987441           90           90           90 
   83500    281.97771   -18003.749   -15852.853   -18003.749            0    9662.6792    50.077384    25.005581    22.904546            0            0            0    28681.395     9615.643    9258.9607    10113.434   -101.57204    264.55603   -176.74078    50.077384    25.005581    22.904546           90           90           90 
   84000    285.37775   -17951.483   -15774.652   -17951.483            0    10053.321    49.742941    24.921179    23.156171            0            0            0    28705.611    10577.307    9560.1488    10022.507   -31.253975   -285.26536   -462.75739    49.742941    24.921179    23.156171           90           90           90 
   84500    279.62124   -18047.247   -15914.326   -18047.247            0    9438.6474    50.129641    25.012385    22.889093            0            0            0    28699.761    8639.6918    9474.0623    10202.188   -360.58569    -242.1872   -114.59643    50.129641    25.012385    22.889093           90           90           90 
   85000    284.70064   -18035.317   -15863.651   -18035.317            0    9785.1548      49.7561    24.976585    23.086197            0            0            0    28690.083    10221.758    10129.416    9004.2909   -165.89629    485.18317    335.49853      49.7561    24.976585    23.086197           90           90           90 
   85500    286.91537    -17989.48    -15800.92    -17989.48            0    9110.3585    50.203404    24.948685    22.965645            0            0            0    28764.675    8777.3894     9430.302    9123.3843    -301.5395   -525.78859   -675.71039    50.203404    24.948685    22.965645           90           90           90 
   86000    290.07723   -18069.284   -15856.606   -18069.284            0     9428.845    49.925042    25.052088    22.951549            0            0            0    28706.111     9292.334    9381.4215    9612.7796    597.36158    50.332188   -128.68861    49.925042    25.052088    22.951549           90           90           90 
   86500    275.86819   -18037.166   -15932.873   -18037.166            0    9830.8538    49.956227    24.900218    23.061625            0            0            0    28686.838    9816.1699    10325.949    9350.4428    554.68266    335.20762   -162.81041    49.956227    24.900218    23.061625           90           90           90 
   87000    286.88714   -18034.284   -15845.939   -18034.284            0    10283.995    49.994671    24.987626    22.928975            0            0            0    28643.979    10231.004    9677.7832    10943.197    -467.0121   -389.50454    750.93149    49.994671    24.987626    22.928975           90           90           90 
   87500    281.78454   -18004.753   -15855.331   -18004.753            0    10342.981    49.906209    24.905451    23.037042            0            0            0    28633.583    10292.143    11155.318    9581.4822    367.30072     18.04548   -235.11025    49.906209    24.905451    23.037042           90           90           90 
   88000    279.81681   -17936.247   -15801.834   -17936.247            0     10692.31    49.980331    24.973842    22.946644            0            0            0    28642.022    10781.132    10690.648    10605.149   -474.25392     946.0561    456.42047    49.980331    24.973842    22.946644           90           90           90 
   88500    291.54254   -18086.004   -15862.148   -18086.004            0    9794.6624    49.884675    24.934908    23.019305            0            0            0    28633.017    9538.0519    9878.0507    9967.8847   -330.20381    536.95107   -701.15856    49.884675    24.934908    23.019305           90           90           90 
   89000    280.15226   -18106.041    -15969.07   -18106.041            0    9899.0283    49.775306    24.912062    23.052567            0            0            0    28585.309    10270.442    10373.913    9052.7298    -559.7236   -151.67689   -75.472517    49.775306    24.912062    23.052567           90           90           90 
   89500    276.89438   -18069.457   -15957.336   -18069.457            0    9636.1354    49.977612    24.918597    22.969806            0            0            0    28605.953    8949.1844    10933.103    9026.1188   -240.98699   -994.54976   -38.202602    49.977612    24.918597    22.969806           90           90           90 
   90000    276.70621   -18028.621   -15917.936   -18028.621            0     10248.53    49.889348    24.983237    22.970555            0            0            0     28630.44    10798.407    10356.374    9590.8089    517.27917    395.59413     1515.869    49.889348    24.983237    22.970555           90           90           90 
   90500    284.92718   -17975.785   -15802.391   -17975.785            0    9975.0665    49.974992    24.908084    23.054766            0            0            0    28698.142    9901.3862    11003.538    9020.2749   -561.05754   -85.643918   -662.99431    49.974992    24.908084    23.054766           90           90           90 
   91000    284.66509   -18035.534   -15864.139   -18035.534            0    9986.2651    49.938051    25.014574    22.921853            0            0            0    28633.498    9433.4148    10319.304    10206.077   -49.164757   -604.18495   -160.90836    49.938051    25.014574    22.921853           90           90           90 
   91500    288.68725   -18075.224   -15873.148   -18075.224            0    9826.9678    49.875627    24.904431    23.036775            0            0            0    28614.534    10321.675    10510.928    8648.3002   -801.30022    41.893373    966.08769    49.875627    24.904431    23.036775           90           90           90 
   92000    295.26813   -18030.953   -15778.679   -18030.953            0    10606.318    49.867159    24.895325     22.99621            0            0            0    28548.856      10326.9    11477.357    10014.699    26.750514    670.91739   -415.09849    49.867159    24.895325     22.99621           90           90           90 
   92500    285.02717    -18026.78   -15852.623    -18026.78            0    11876.009    49.920623    24.974599    22.828578            0            0            0    28461.473    11491.505     11818.64    12317.883   -414.42297   -726.70923    620.78874    49.920623    24.974599    22.828578           90           90           90 
   93000     288.0206   -18011.452   -15814.462   -18011.452            0    10458.439    49.913325    24.890874    23.051883            0            0            0    28639.343    10707.567    11050.921    9616.8291   -177.46724    66.885515    572.39193    49.913325    24.890874    23.051883           90           90           90 
   93500    282.36278   -18069.788   -15915.955   -18069.788            0     9932.918    49.872516    25.001421    22.952968            0            0            0    28619.684    10556.574    9668.9865    9573.1939    241.83796    39.803769    747.90671    49.872516    25.001421    22.952968           90           90           90 
   94000    276.53233   -17945.305   -15835.946   -17945.305            0    10714.434    50.029171    24.873698     23.01957            0            0            0    28645.794    9601.7607    11635.887    10905.655   -542.54718    382.81664    267.15587    50.029171    24.873698     23.01957           90           90           90 
   94500    288.77484   -18038.853   -15836.109   -18038.853            0    10742.367    49.719455    24.970148    23.004403            0            0            0    28560.016    10628.078    11228.989    10370.034   -500.31495   -75.221285    152.44574    49.719455    24.970148    23.004403           90           90           90 
   95000    287.14556   -18010.578   -15820.262   -18010.578            0    10780.934     50.13934    24.896307    22.870829            0            0            0    28549.299    9513.3183    11623.486    11205.998    128.93022   -994.03994     374.5989     50.13934    24.896307    22.870829           90           90           90 
   95500     286.6118   -18024.357   -15838.113   -18024.357            0    11096.399    49.613581    24.926999    23.102782            0            0            0    28571.619    11979.186    11050.377    10259.634    1015.4742    147.70953    296.89139    49.613581    24.926999    23.102782           90           90           90 
   96000    289.11752    -18092.98   -15887.623    -18092.98            0    9706.1656    50.101233    24.920885    22.928108            0            0            0     28627.28    9202.7912    10422.897     9492.809   -418.45004    335.42822   -526.39481    50.101233    24.920885    22.928108           90           90           90 
   96500    280.67271   -18042.614   -15901.673   -18042.614            0    10013.964    49.800854    25.014223     23.00216            0            0            0    28654.472    11031.738    9300.6601    9709.4947     492.7805   -923.71972    39.748673    49.800854    25.014223     23.00216           90           90           90 
   97000    283.08704    -18013.71   -15854.352    -18013.71            0    10225.058    50.033151    24.841865    23.053232            0            0            0    28653.249      9222.61    11724.539    9728.0262    495.68603   -245.93755   -543.91433    50.033151    24.841865    23.053232           90           90           90 
   97500    282.19771   -18023.356   -15870.782   -18023.356            0    8945.1495    49.939264    25.100158     22.92612            0            0            0    28737.512     9537.657    7479.0612    9818.7302    735.41349    -927.3925    357.98977    49.939264    25.100158     22.92612           90           90           90 
   98000    289.04753   -18059.841   -15855.018   -18059.841            0    9100.8529    49.963116    24.899419    23.080845            0            0            0    28713.784    9562.1282    9678.0297    8062.4006    676.00981    128.61748    591.96927    49.963116    24.899419    23.080845           90           90           90 
   98500    282.98879   -18058.334   -15899.726   -18058.334            0     9066.353    49.992264    25.037801    22.970653            0            0            0    28752.283    9051.3898    8818.3159    9329.3532    184.81548   -692.40743   -355.60512    49.992264    25.037801    22.970653           90           90           90 
   99000    284.31419   -17969.858   -15801.139   -17969.858            0    9401.6979    49.924247    24.923767    23.074997            0            0            0    28712.225    9291.5443    10103.659    8809.8903    369.21415   -368.18327    407.97414    49.924247    24.923767    23.074997           90           90           90 
   99500    287.16272   -17997.411   -15806.965   -17997.411            0     10112.16    49.921851    24.973604    23.000821            0            0            0     28675.78    9924.2561    10265.132    10147.092    572.76369   -1040.2558   -195.25445    49.921851    24.973604    23.000821           90           90           90 
  100000    287.66621   -18007.179   -15812.891   -18007.179            0    10127.993    49.966475    24.934943    22.979083            0            0            0    28629.896    9200.3041    11101.843    10081.833    77.073892   -110.87673   -66.815578    49.966475    24.934943    22.979083           90           90           90 
  100500    280.25972   -17994.859   -15857.067   -17994.859            0     10399.98    49.911776    24.953446    22.964691            0            0            0    28601.853     10160.65    10811.561     10227.73   -454.99964   -270.36838   -81.942412    49.911776    24.953446    22.964691           90           90           90 
  101000    280.23838   -18002.536   -15864.907   -18002.536            0    10182.869    49.948639    24.937901    22.979171            0            0            0    28623.183    10354.127    10832.797    9361.6812   -79.832093    1115.6327   -1255.0405    49.948639    24.937901    22.979171           90           90           90 
  101500    290.30366   -18015.957   -15801.552   -18015.957            0    10140.312    49.875486    24.951634    23.023945            0            0            0    28652.721    10819.749    9848.0516    9753.1341    336.89579    -757.4277   -146.33731    49.875486    24.951634    23.023945           90           90           90 
  102000    279.02426   -17949.352   -15820.985   -17949.352            0    9470.0733    50.096317    24.973714    22.957087            0            0            0    28721.407    9666.8631    8825.5064    9917.8505   -17.904479     340.3984   -221.95089    50.096317    24.973714    22.957087           90           90           90 
  102500    287.25745   -18066.178   -15875.009   -18066.178            0     8961.698    49.912853    24.886084    23.142179            0            0            0    28745.721    9080.3541    9560.2633    8244.4767   -406.34442    370.30565   -237.65684    49.912853    24.886084    23.142179           90           90           90 
  103000    274.02742    -17973.92   -15883.668    -17973.92            0    9553.2607    50.006168    25.051623    22.923931            0            0            0    28717.625    9224.2377    9772.6569    9662.8876   -85.881282    174.17333   -912.06016    50.006168    25.051623    22.923931           90           90           90 
  103500    284.35704   -18015.633   -15846.588   -18015.633            0    9756.2372    50.072292    24.923303    22.971814            0            0            0    28668.063    9843.0055    9647.3153    9778.3907   -265.43479   -268.99372    1273.6412    50.072292    24.923303    22.971814           90           90           90 
  104000    291.02617   -18065.181   -15845.264   -18065.181            0    9510.0428    49.867081    24.957921    23.034262            0            0            0    28667.951    9822.5936    9524.5213    9183.0135    204.61168   -384.20136   -541.69554    49.867081    24.957921    23.034262           90           90           90 
  104500    286.73904   -18095.951   -15908.737   -18095.951            0    9629.6642    50.075172    24.954447    22.913427            0            0            0    28632.578    8973.7986     9924.932    9990.2621   -304.02404   -634.54633    148.52851    50.075172    24.954447    22.913427           90           90           90 
  105000    285.28833   -18022.732   -15846.583   -18022.732            0    9712.8061    49.713177    24.999977    23.074998            0            0            0     28678.26    10795.871    10018.799    8323.7482   -352.32477    462.44864    293.15318    49.713177    24.999977    23.074998           90           90           90 
  105500      291.836   -17947.356   -15721.262   -17947.356            0    8865.1956    50.210417    25.016817    22.935851            0            0            0    28809.832    8180.6151    9463.3007     8951.671    424.96712   -558.36399   -475.99867    50.210417    25.016817    22.935851           90           90           90 
  106000    283.94193   -18039.317   -15873.438   -18039.317            0    8753.0338    49.851294    24.991222     23.09407            0            0            0    28771.626    9942.0034    7898.7383    8418.3596     693.1195   -830.63212    310.87711    49.851294    24.991222     23.09407           90           90           90 
  106500    290.74597   -17995.093   -15777.314   -17995.093            0    9393.0157    50.035766    24.959125    23.005002            0            0            0    28729.772    10290.228    9293.4666    8595.3524   -458.88808   -324.56427   -244.86966    50.035766    24.959125    23.005002           90           90           90 
  107000    288.41895   -18030.513   -15830.484   -18030.513            0    8957.8198    50.045349    24.983762    22.980696            0            0            0    28733.249     8192.764    9496.7719    9183.9234    204.09768    731.22501   -35.879402    50.045349    24.983762    22.980696           90           90           90 
  107500    288.30197   -17946.156    -15747.02   -17946.156            0    9389.8544    49.916685    24.974931     23.05815            0            0            0    28745.807    10034.132    9418.0418    8717.3891   -323.40027    857.17133   -187.21451    49.916685    24.974931     23.05815           90           90           90 
  108000    283.39938   -17980.008   -15818.268   -17980.008            0    9745.4413    50.026937    25.003662    22.957961            0            0            0    28717.118    9322.9658    9636.2166    10277.141    659.84502   -559.79402    253.70863    50.026937    25.003662    22.957961           90           90           90 
  108500    280.37685   -17963.133   -15824.449   -17963.133            0    9302.8644    49.999808    24.998227    22.969495            0            0            0    28709.722     9028.337    9479.4153    9400.8408   -702.48522    377.49913   -151.06221    49.999808    24.998227    22.969495           90           90           90 
  109000    277.04781   -17959.003   -15845.712   -17959.003            0    9507.5691    49.867401    24.992596    23.082181            0            0            0    28767.687    9866.3642    9327.3859    9328.9572    277.76594    -101.5741    15.306254    49.867401    24.992596    23.082181           90           90           90 
  109500    283.74008   -18008.055   -15843.716   -18008.055            0    9459.5099     50.16337    24.988453    22.896762            0            0            0    28701.206     8931.626    9588.9237      9857.98   -236.20188   -162.47201    363.06224     50.16337    24.988453    22.896762           90           90           90 
  110000    285.82245    -18060.74   -15880.517    -18060.74            0    9082.1999    49.728324    25.027955    23.131683            0            0            0    28789.652    9483.4338    9398.5893    8364.5766   -151.73608    2.9269372    394.57173    49.728324    25.027955    23.131683           90           90           90 
  110500    280.61825   -18044.924   -15904.399   -18044.924            0    9222.3853    50.078609    24.957565    22.970113            0            0            0    28708.969    8755.1857    9603.4368    9308.5333    187.09862    227.72828   -169.87881    50.078609    24.957565    22.970113           90           90           90 
  111000    278.73222   -17997.677   -15871.537   -17997.677            0    9314.5697    49.927586    24.984391    23.030356            0            0            0    28728.304    9244.3066    9038.1482    9661.2543    277.69023   -688.31563    4.3724244    49.927586    24.984391    23.030356           90           90           90 
  111500    288.79259   -18037.628   -15834.749   -18037.628            0    9104.0101     50.02884    24.952093    23.001401            0            0            0    28713.207    8409.1492    9536.5862    9366.2949   -806.18874    208.84184    160.09889     50.02884    24.952093    23.001401           90           90           90 
[...]
  474500     290.7706   -18037.054   -15819.087   -18037.054            0    8483.3297    49.906456    25.023942    23.073449            0            0            0    28815.422       8482.4    8623.6819    8343.9074   -76.759687    -118.5935    311.76319    49.906456    25.023942    23.073449           90           90           90 
  475000    275.44888   -17969.822   -15868.728   -17969.822            0    9390.1973    50.158618    24.960444    22.944104            0            0            0    28725.591    8790.3883    9782.9966    9597.2069    557.99847   -526.19019    628.00324    50.158618    24.960444    22.944104           90           90           90 
  475500    284.40696   -18090.029   -15920.603   -18090.029            0    9169.8697    49.838816    24.994512    23.038499            0            0            0    28698.985    9627.3502    8585.0125    9297.2463    506.61832   -78.503206    102.53141    49.838816    24.994512    23.038499           90           90           90 
  476000    286.07121   -17981.322   -15799.201   -17981.322            0    9317.5778    50.008007    24.988304    23.052841            0            0            0    28807.183    8969.2987    9719.4202    9264.0144    426.54662    65.903541   -79.311309    50.008007    24.988304    23.052841           90           90           90 
  476500    288.74191   -18063.854   -15861.362   -18063.854            0    9089.3682    49.946989    25.004134    23.008051            0            0            0    28734.323    9148.7007    8944.9782    9174.4257   -205.82893    380.07866    340.14548    49.946989    25.004134    23.008051           90           90           90 
  477000    279.02941   -17964.857    -15836.45   -17964.857            0    10103.259    49.999798    24.928638    23.011695            0            0            0    28682.394    9174.8405    10099.225    11035.711    95.077751    208.36109    -205.9443    49.999798    24.928638    23.011695           90           90           90 
  477500    289.94412   -17920.121   -15708.458   -17920.121            0    9548.2775    49.929713    25.026488    22.991385            0            0            0    28729.239    10346.369    8851.9446    9446.5193   -255.65639    430.56817   -211.00065    49.929713    25.026488    22.991385           90           90           90 
  478000    288.01022   -18036.243   -15839.332   -18036.243            0    9573.6145    49.978672    24.978077    22.992995            0            0            0    28703.791    9637.9837    10017.528    9065.3321    353.70952    199.70488    85.458683    49.978672    24.978077    22.992995           90           90           90 
  478500    283.42588   -18033.353   -15871.411   -18033.353            0    9759.3497    49.870464    24.958272    23.022812            0            0            0    28656.048    10474.749    9373.0415    9430.2585    227.00325   -150.66534   -384.29143    49.870464    24.958272    23.022812           90           90           90 
  479000    283.73062   -18061.601   -15897.334   -18061.601            0    9598.6084    50.109367    24.917402    22.934283            0            0            0    28635.637    9183.7256    9594.1939    10017.906    504.60007 -0.084448139    132.57134    50.109367    24.917402    22.934283           90           90           90 
  479500    281.80803    -18094.96   -15945.358    -18094.96            0    10080.095    49.737037    24.990341    23.004768            0            0            0    28593.673    10299.017    9523.8419    10417.426   -241.43964    162.29111   -435.83554    49.737037    24.990341    23.004768           90           90           90 
  480000    288.57556   -18003.027   -15801.803   -18003.027            0    10594.821    49.959757    24.890758     22.99723            0            0            0    28597.889     10483.05    10633.663     10667.75   -81.082574    65.628253     814.4886    49.959757    24.890758     22.99723           90           90           90 
  480500    289.82976    -18006.56   -15795.769    -18006.56            0    10253.991    49.946641    24.998189     22.92314            0            0            0    28621.272    9495.3106    9469.6417    11797.021    449.71738   -727.00669   -146.89385    49.946641    24.998189     22.92314           90           90           90 
  481000    284.95207   -18091.689   -15918.105   -18091.689            0    10671.421    49.865068    24.864761    23.053585            0            0            0    28583.748    11105.837    10364.986     10543.44   -77.387369    454.91527   -163.10233    49.865068    24.864761    23.053585           90           90           90 
  481500    287.79733   -18021.829   -15826.542   -18021.829            0    10632.614    49.860012    25.043136     22.88153            0            0            0    28571.047    11057.099     10023.34    10817.403    13.149497   -221.24134   -439.53754    49.860012    25.043136     22.88153           90           90           90 
  482000    285.41072   -18070.688   -15893.606   -18070.688            0    10786.435    50.017025    24.786534    23.014368            0            0            0    28532.032    9459.7571    12354.621    10544.926    716.89971    -700.2583    167.46137    50.017025    24.786534    23.014368           90           90           90 
  482500    286.09022    -17959.53   -15777.264    -17959.53            0     10357.07    49.702077    25.042827    22.966238            0            0            0    28585.629     11289.34    9647.3124    10134.557   -372.24809    184.26706   -606.56282    49.702077    25.042827    22.966238           90           90           90 
  483000    285.08342   -18062.817   -15888.231   -18062.817            0    10213.888    50.083083    24.872945    22.943587            0            0            0    28581.141    9718.6885    10828.303    10094.672    13.779496     370.4541    235.33788    50.083083    24.872945    22.943587           90           90           90 
  483500    291.66625   -18018.564   -15793.765   -18018.564            0    9946.4667    49.805067    24.999218    23.008297            0            0            0    28647.349     10038.22    10039.811    9761.3691    300.19937    325.07764   -346.77176    49.805067    24.999218    23.008297           90           90           90 
  484000    280.74208   -17986.441    -15844.97   -17986.441            0    10787.728    50.050826    24.877285    22.980622            0            0            0    28613.831    10080.731    11118.056    11164.397   -196.95866    491.88873   -254.74623    50.050826    24.877285    22.980622           90           90           90 
  484500    287.77337   -18028.319   -15833.214   -18028.319            0    9941.5422    49.860975    24.977158    23.016732            0            0            0    28664.703    10330.506     10326.26    9167.8607    183.77268    16.474416   -857.31369    49.860975    24.977158    23.016732           90           90           90 
  485000    292.79125   -18027.395   -15794.014   -18027.395            0    9693.8632    50.063846    24.970301    22.971752            0            0            0    28717.201    9428.3053    9095.6701    10557.614    155.84956   -851.53193   -85.941682    50.063846    24.970301    22.971752           90           90           90 
  485500    281.60611   -18014.345   -15866.284   -18014.345            0    10186.258     49.88376    24.901686    23.027505            0            0            0    28604.531    9992.8873     10227.87    10338.016   -506.08814   -405.44576    121.56288     49.88376    24.901686    23.027505           90           90           90 
  486000    283.18361   -18120.377   -15960.282   -18120.377            0    9834.0183    49.924328    24.951359    22.959187            0            0            0    28599.795     9927.526    9476.3534    10098.176    491.26046   -40.240829   -349.91471    49.924328    24.951359    22.959187           90           90           90 
  486500    280.63786   -18025.991   -15885.315   -18025.991            0    9803.7096    50.046485    24.922296    23.005802            0            0            0    28694.524     9617.546    9719.5157    10074.067    334.22299   -180.12344    -339.1078    50.046485    24.922296    23.005802           90           90           90 
  487000    287.52323   -18091.425   -15898.229   -18091.425            0    10029.465    49.862232    24.973425    22.981238            0            0            0    28616.943    9785.4135     10820.74    9482.2425     505.3301   -28.923903   -136.28171    49.862232    24.973425    22.981238           90           90           90 
  487500    279.12276   -18045.583   -15916.465   -18045.583            0    10300.214    50.002916    24.923201    22.963705            0            0            0    28618.121    10397.912    9822.3036    10680.426     254.5528    798.80087    449.45931    50.002916    24.923201    22.963705           90           90           90 
  488000    285.15319   -17932.676   -15757.558   -17932.676            0    10436.335    49.907029    24.941061    23.027513            0            0            0    28663.134    10778.169    9848.3693    10682.468   -400.79206   -254.58416    791.01457    49.907029    24.941061    23.027513           90           90           90 
  488500    282.41879   -17984.332   -15830.072   -17984.332            0     9862.917    49.935649    24.957968    23.019621            0            0            0    28689.177    10593.642    9021.3218    9973.7874    49.484246   -1030.0245   -328.41587    49.935649    24.957968    23.019621           90           90           90 
  489000    286.09242   -18036.786   -15854.504   -18036.786            0    10812.833    49.895707    24.975187    22.962076            0            0            0    28614.296    10864.436    10775.001    10799.063    412.27683     326.9005   -302.18325    49.895707    24.975187    22.962076           90           90           90 
  489500    291.49968   -18022.319   -15798.791   -18022.319            0    9672.8389    50.011908    24.925143    22.966707            0            0            0     28629.24    9054.1872    10227.501     9736.828   -50.994877    684.17796   -855.12215    50.011908    24.925143    22.966707           90           90           90 
  490000    290.96083   -18029.975   -15810.557   -18029.975            0    9917.9784    49.874391    24.958929    23.027473            0            0            0    28664.861    10345.774    9836.7697    9571.3915    365.56325   -6.3023627   -129.72965    49.874391    24.958929    23.027473           90           90           90 
  490500    290.05484   -17968.723   -15756.215   -17968.723            0    9763.2211    50.089526    24.993816    22.954919            0            0            0    28737.915    9393.8423    9048.2243    10847.597   -504.48652   -184.20982    167.09787    50.089526    24.993816    22.954919           90           90           90 
  491000    293.05063   -18011.717   -15776.358   -18011.717            0    9491.9579    49.860843    24.942177    23.094613            0            0            0    28721.338    9706.8434    9701.5016    9067.5288    226.74505    647.63282   -814.66552    49.860843    24.942177    23.094613           90           90           90 
  491500    281.97146   -17944.446   -15793.598   -17944.446            0    9923.1791    50.113984    24.993415    22.913289            0            0            0    28699.343     8963.371    10488.795    10317.371   -830.71141   -88.463173    43.428349    50.113984    24.993415    22.913289           90           90           90 
  492000    283.39915    -18010.06   -15848.321    -18010.06            0    9684.9726    49.831044    25.025044    22.983533            0            0            0    28661.018    10190.789    9286.7785    9577.3501   -270.71087    749.18744    342.42716    49.831044    25.025044    22.983533           90           90           90 
  492500    286.50826   -18050.474    -15865.02   -18050.474            0     8992.695    49.986588     24.87416    23.106788            0            0            0    28730.389    8437.2698    9328.4072    9212.4079    182.84483    -512.3201   -140.57875    49.986588     24.87416    23.106788           90           90           90 
  493000    279.49755   -18013.238    -15881.26   -18013.238            0    9904.3714    49.900125    25.062174    22.896275            0            0            0     28634.21    9291.1334    10137.254    10284.727    558.10584    472.93264   -182.64288    49.900125    25.062174    22.896275           90           90           90 
  493500    287.67628   -17940.433   -15746.069   -17940.433            0    10515.874    49.980158    24.838683    23.077015            0            0            0     28648.76    10930.831    11147.384    9469.4064    421.73626    140.19334   -265.73911    49.980158    24.838683    23.077015           90           90           90 
  494000    292.13457   -18042.099   -15813.728   -18042.099            0    9491.8639    49.990014    25.033412    22.946274            0            0            0    28715.441    9867.4942    8047.6866    10560.411   -107.81412   -394.46387    87.013457    49.990014    25.033412    22.946274           90           90           90 
  494500    281.66957    -18049.98   -15901.435    -18049.98            0    9405.9768    50.082482    24.924354     23.00101            0            0            0    28711.552    8510.9944     9745.903    9961.0329   -29.159975   -517.34167   -385.84021    50.082482    24.924354     23.00101           90           90           90 
  495000    281.01773   -18005.982   -15862.409   -18005.982            0    10443.484    49.781213    24.919837    23.079448            0            0            0    28630.972    11094.823     10161.19    10074.439   -53.035468    57.309068    251.76547    49.781213    24.919837    23.079448           90           90           90 
  495500    292.97221   -18035.432   -15800.671   -18035.432            0    10307.765    50.163793    25.017411    22.791438            0            0            0    28602.531    9334.2774    9851.9304    11737.089   -66.729753    160.45888    117.77853    50.163793    25.017411    22.791438           90           90           90 
  496000    280.10275   -18010.049   -15873.456   -18010.049            0    10241.487    49.841362    24.892753    23.101923            0            0            0    28662.294    10260.601    10855.934    9607.9249    359.83021   -485.00497    872.80255    49.841362    24.892753    23.101923           90           90           90 
  496500    283.77898   -17992.225   -15827.589   -17992.225            0    10152.796    49.983577    24.992631    22.954746            0            0            0    28675.553     10051.83    9662.7154    10743.841   -54.278034   -309.41868     1029.886    49.983577    24.992631    22.954746           90           90           90 
  497000    278.13781   -18065.062   -15943.456   -18065.062            0    9276.7172    49.983301    24.955716    22.999216            0            0            0     28688.51    9211.7021    9716.0633    8902.3861   -388.09531    240.33616    -24.44684    49.983301    24.955716    22.999216           90           90           90 
  497500    272.68894   -18064.577   -15984.535   -18064.577            0    9252.4154    49.814608    25.005096    23.057753            0            0            0    28721.175    10366.352    8081.6347    9309.2594    579.50579   -221.22877   -59.874249    49.814608    25.005096    23.057753           90           90           90 
  498000    285.03866   -18037.384    -15863.14   -18037.384            0    8574.4758    50.244385     24.95685    22.909378            0            0            0    28727.022    7999.2714    8420.6521    9303.5038   -372.06884    106.16927   -312.22644    50.244385     24.95685    22.909378           90           90           90 
  498500     285.7971   -17990.128   -15810.099   -17990.128            0    9460.2039    49.741894    25.047491    23.094076            0            0            0    28773.133    9815.7537    8828.3517    9736.5064   -548.61023    438.01943    267.14468    49.741894    25.047491    23.094076           90           90           90 
  499000    291.23011   -18017.935   -15796.463   -18017.935            0    9070.5904    50.227976    24.931041    22.974226            0            0            0    28769.146    7286.5978    10146.554    9778.6193    167.62588   -404.93725   -171.87272    50.227976    24.931041    22.974226           90           90           90 
  499500    285.70781   -18066.292   -15886.943   -18066.292            0    9727.4062    49.849162    25.003668    22.995566            0            0            0    28661.947    10489.275    9490.6967    9202.2468   -399.41524    141.99184    882.57442    49.849162    25.003668    22.995566           90           90           90 
  500000    290.68454   -18030.326   -15813.015   -18030.326            0    9087.3213    50.024825    24.929049    23.031677            0            0            0    28722.145    9443.2973    9531.7962    8286.8705   -957.71122    287.33732   -387.17372    50.024825    24.929049    23.031677           90           90           90 
Loop time of 1441.39 on 42 procs for 500000 steps with 3840 atoms

Performance: 29.971 ns/day, 0.801 hours/ns, 346.888 timesteps/s
99.4% CPU use with 42 MPI tasks x 1 OpenMP threads

MPI task timing breakdown:
Section |  min time  |  avg time  |  max time  |%varavg| %total
---------------------------------------------------------------
Pair    | 333.89     | 375.82     | 432.93     | 134.1 | 26.07
Bond    | 0.52372    | 0.54312    | 0.55926    |   1.4 |  0.04
Kspace  | 538.73     | 595.81     | 637.52     | 110.5 | 41.34
Neigh   | 15.64      | 16.086     | 16.534     |   5.9 |  1.12
Comm    | 171.66     | 181.49     | 187.54     |  25.2 | 12.59
Output  | 3.9705     | 3.981      | 3.9943     |   0.3 |  0.28
Modify  | 231.41     | 249.6      | 265.46     |  71.4 | 17.32
Other   |            | 18.07      |            |       |  1.25

Nlocal:        91.4286 ave         101 max          79 min
Histogram: 1 2 5 3 3 11 4 3 6 4
Nghost:        3779.93 ave        3870 max        3691 min
Histogram: 3 1 5 6 6 2 14 1 2 2
Neighs:        32230.2 ave       36763 max       27898 min
Histogram: 1 3 6 8 4 5 6 6 2 1

Total # of neighbors = 1353670
Ave neighs/atom = 352.51823
Ave special neighs/atom = 2.0000000
Neighbor list builds = 18211
Dangerous builds = 0


write_restart   restart.equil
System init for write_restart ...
PPPM initialization ...
  extracting TIP4P info from pair style
  using 12-bit tables for long-range coulomb (../kspace.cpp:340)
  G vector (1/distance) = 0.37348736
  grid = 54 32 30
  stencil order = 5
  estimated absolute RMS force accuracy = 0.0034386141
  estimated relative force accuracy = 1.0355284e-05
  using double precision FFTW3
  3d grid and FFT values/proc = 7296 1350
Last active /omp style is kspace_style pppm/tip4p/omp
write_data   	water.equil.data nocoeff
System init for write_data ...
PPPM initialization ...
  extracting TIP4P info from pair style
  using 12-bit tables for long-range coulomb (../kspace.cpp:340)
  G vector (1/distance) = 0.37348736
  grid = 54 32 30
  stencil order = 5
  estimated absolute RMS force accuracy = 0.0034386141
  estimated relative force accuracy = 1.0355284e-05
  using double precision FFTW3
  3d grid and FFT values/proc = 7296 1350
Last active /omp style is kspace_style pppm/tip4p/omp
Total wall time: 0:24:03
