LAMMPS (30 Jul 2021)
  using 16 OpenMP thread(s) per MPI task
package omp 0
using multi-threaded neighbor list subroutines
echo both

include		in.partitions
variable        pid world 0
include		in.temp
variable	temperature equal 250.0
variable	tempDamp equal 100.0
include		in.pressure
variable        pressure equal 1000
variable        pressureDamp equal 1000.0 # This is 1 ps
include		in.seed
variable        seed world 745823

units		real
atom_style	full
include		in.box
read_data       water.data
Reading data file ...
  orthogonal box = (0.0000000 1.0915313 0.0000000) to (18.207572 22.537647 22.213196)
  1 by 1 by 1 MPI processor grid
  reading atoms ...
  864 atoms
  reading velocities ...
  864 velocities
  scanning bonds ...
  2 = max bonds/atom
  scanning angles ...
  1 = max angles/atom
  reading bonds ...
  576 bonds
  reading angles ...
  288 angles
Finding 1-2 1-3 1-4 neighbors ...
  special bond factors lj:    0        0        0       
  special bond factors coul:  0        0        0       
     2 = max # of 1-2 neighbors
     1 = max # of 1-3 neighbors
     1 = max # of 1-4 neighbors
     2 = max # of special neighbors
  special bonds CPU = 0.000 seconds
  read_data CPU = 0.008 seconds
include 	in.setup
variable	out_freq equal 500
variable	out_freq2 equal 500

timestep	2.0

neigh_modify    delay 7 every 1

include		in.tip4p
# This is TIP4P/Ice

# create groups ###
group ox type 2
288 atoms in group ox
group hy type 1
576 atoms in group hy

# set charges - beside manually ###
set group ox charge -1.1794
Setting atom values ...
  288 settings made for charge
set group hy charge 0.5897
Setting atom values ...
  576 settings made for charge

# ### TIP3P Potential Parameters ###
pair_style lj/cut/tip4p/long 2 1 1 1 0.1577 8.5
pair_coeff 1 1*2 0.000 0.000
pair_coeff 2 2 0.21084 3.1668
bond_style  harmonic
bond_coeff  1 450 0.9572
angle_style harmonic
angle_coeff 1 55 104.52
kspace_style pppm/tip4p 1.0e-5
pair_modify tail yes

thermo          ${out_freq}
thermo          500
thermo_style 	custom step temp pe etotal epair emol press lx ly lz vol pxx pyy pzz pxy pxz pyz

restart 	${out_freq} restart.lmp.${pid} restart2.lmp.${pid}
restart 	500 restart.lmp.${pid} restart2.lmp.${pid}
restart 	500 restart.lmp.0 restart2.lmp.${pid}
restart 	500 restart.lmp.0 restart2.lmp.0


include         in.dump
dump            myDump all atom ${out_freq2} dump.water.${pid}
dump            myDump all atom 500 dump.water.${pid}
dump            myDump all atom 500 dump.water.0
dump            myDump2 all dcd ${out_freq2} dump.dcd
dump            myDump2 all dcd 500 dump.dcd
dump_modify     myDump append yes
dump_modify     myDump2 append yes


timer           timeout 00:55:00 every 1000
New timer settings: style=normal  mode=nosync  timeout=00:55:00

fix 		1 all shake 1e-6 200 0 b 1 a 1
       0 = # of size 2 clusters
       0 = # of size 3 clusters
       0 = # of size 4 clusters
     288 = # of frozen angles
  find clusters CPU = 0.000 seconds
fix             2 all nph iso ${pressure} ${pressure} ${pressureDamp}
fix             2 all nph iso 1000 ${pressure} ${pressureDamp}
fix             2 all nph iso 1000 1000 ${pressureDamp}
fix             2 all nph iso 1000 1000 1000
fix             3 all temp/csvr ${temperature} ${temperature} ${tempDamp} ${seed}
fix             3 all temp/csvr 250 ${temperature} ${tempDamp} ${seed}
fix             3 all temp/csvr 250 250 ${tempDamp} ${seed}
fix             3 all temp/csvr 250 250 100 ${seed}
fix             3 all temp/csvr 250 250 100 745823
velocity 	all create ${temperature} ${seed} dist gaussian
velocity 	all create 250 ${seed} dist gaussian
velocity 	all create 250 745823 dist gaussian

run             500000
PPPM initialization ...
  extracting TIP4P info from pair style
  using 12-bit tables for long-range coulomb (../kspace.cpp:340)
  G vector (1/distance) = 0.37144849
  grid = 24 25 25
  stencil order = 5
  estimated absolute RMS force accuracy = 0.0033118622
  estimated relative force accuracy = 9.9735747e-06
  using double precision FFTW3
  3d grid and FFT values/proc = 33792 15000
Last active /omp style is kspace_style pppm/tip4p/omp
Neighbor list info ...
  update every 1 steps, delay 7 steps, check yes
  max neighbors/atom: 2000, page size: 100000
  master list distance cutoff = 10.8154
  ghost atom cutoff = 10.8154
  binsize = 5.4077, bins = 4 4 5
  1 neighbor lists, perpetual/occasional/extra = 1 0 0
  (1) pair lj/cut/tip4p/long/omp, perpetual
      attributes: half, newton on, omp
      pair build: half/bin/newton/omp
      stencil: half/bin/3d
      bin: standard
Per MPI rank memory allocation (min/avg/max) = 25.42 | 25.42 | 25.42 Mbytes
Step Temp PotEng TotEng E_pair E_mol Press Lx Ly Lz Volume Pxx Pyy Pzz Pxy Pxz Pyz 
       0          250   -3852.2439   -3423.7525   -3852.2439            0    2962.6983    18.207572    21.446115    22.213196    8673.8464     2645.686    3255.3905    2987.0185    2059.0609   -2061.3767    -1725.181 
     500    254.13332   -3906.2993   -3470.7235   -3906.2993            0    2998.3755    18.049084    21.259437     22.01984    8449.3069    5008.3856    2166.4647    1820.2761    174.55328    -1403.211   -847.33249 
    1000    254.66258   -3912.8473   -3476.3644   -3912.8473            0    1177.6361    18.152853    21.381663    22.146438    8595.8779    1349.8058    557.86944    1625.2329   -267.44842    1407.4267    2.9106067 
    1500    237.30689   -3905.7792   -3499.0433   -3905.7792            0     2185.786    18.186263    21.421015    22.187198    8643.4269    2390.4724    728.57413    3438.3116   -89.302236   -959.57352    831.52921 
    2000    245.71173   -3914.2935    -3493.152   -3914.2935            0    1597.1155    18.211363     21.45058     22.21782    8679.2649    1415.5187    903.67773    2472.1499    194.79903    41.870387   -22.620832 
    2500    249.45629   -3920.3018   -3492.7423   -3920.3018            0    155.65135    18.210225     21.44924    22.216432    8677.6378    -1107.974    113.70035    1461.2277    837.46524    997.10186   -334.68232 
    3000    254.02835   -3934.7851   -3499.3892   -3934.7851            0    282.86871    18.234968    21.478384    22.246618     8713.058   -290.21548    158.26822    980.55339   -356.12678    458.31235   -580.42329 
    3500    236.75437   -3930.4261   -3524.6372   -3930.4261            0    396.66366    18.137578    21.363672    22.127803    8574.1978    1150.8543    1156.5403   -1117.4037   -1487.9589     -1930.25    555.00007 
    4000    236.90486   -3926.9879   -3520.9411   -3926.9879            0    811.26491    18.181421    21.415313    22.181292     8636.526    885.15772   -104.30533    1652.9423   -42.370857   -1003.6917   -774.54908 
    4500    236.72383   -3918.0585   -3512.3219   -3918.0585            0    2828.6392     18.19787    21.434687    22.201359    8659.9874    2257.4494    1708.3571    4520.1111    303.03499    282.35936   -219.42524 
    5000    256.46238   -3920.6833   -3481.1156   -3920.6833            0    1165.6028      18.1312    21.356158    22.120021    8565.1545     1746.577    953.88986    796.34146   -1125.9586   -114.77431   -738.31979 
    5500    236.98046   -3935.8411   -3529.6647   -3935.8411            0    196.39646    18.202538    21.440186    22.207054    8666.6537    257.00165    1241.0401    -908.8524    -990.8511   -78.813286   -72.791592 
    6000    253.16319   -3919.5837   -3485.6706   -3919.5837            0   -196.09908    18.254271     21.50112    22.270168    8740.7572    409.81067   -903.24082   -94.867079    16.070513     15.25189    86.351574 
    6500    248.88725   -3933.6722    -3507.088   -3933.6722            0    1448.3642    18.283363    21.535386     22.30566    8782.6141    1214.6124    1041.7839    2088.6964    370.29389   -829.92024    676.76988 
    7000    246.02043   -3919.5044   -3497.8338   -3919.5044            0    677.88144     18.12202    21.345346    22.108822    8552.1518     598.0406    720.74734    714.85639    506.85268    428.87514    268.50135 
    7500     234.3744   -3923.3705   -3521.6608   -3923.3705            0    30.091301    18.053516    21.264657    22.025248     8455.533    -834.4616    -97.50925    1022.2447   -119.70105   -248.32814   -144.25009 
    8000    252.29481   -3923.1772   -3490.7525   -3923.1772            0   -268.13145    18.165936    21.397073      22.1624    8614.4778    1304.0471   -839.04357   -1269.3979   -3.3560377    342.08857    517.26855 
    8500    247.84119   -3928.1366   -3503.3452   -3928.1366            0   -876.57098    18.157904    21.387612      22.1526    8603.0553   -942.92714   -821.32059   -865.46521    1882.6322   -213.17316   -718.27756 
    9000    250.04927    -3890.171   -3461.5951    -3890.171            0    81.129903     18.08434    21.300964    22.062853    8498.9175    448.00748   -305.51199    100.89422    107.29822   -357.94882   -127.27181 
    9500    252.12112   -3909.7288   -3477.6018   -3909.7288            0     2071.129    17.997934    21.199188    21.957437    8377.6752    2125.0823    2533.5086    1554.7961   -1498.5806   -74.997858    95.243599 
   10000    252.81359   -3937.0782   -3503.7643   -3937.0782            0     1484.613    17.942566    21.133973    21.889889    8300.5958    1807.2163    1516.4728    1130.1498    1233.5926   -204.31819   -1024.7567 
   10500    259.66073   -3910.4428   -3465.3932   -3910.4428            0    1133.6774    18.057186     21.26898    22.029725    8460.6908   -291.37586    2275.3513    1417.0568    170.53949    924.46079   -1195.4514 
   11000    255.12315   -3958.3613    -3521.089   -3958.3613            0    2668.6071    17.975707    21.173009    21.930321    8346.6756    3318.1171    1737.0299    2950.6742    200.35523   -392.15521     1114.531 
   11500    243.67493   -3955.0344   -3537.3839   -3955.0344            0    1178.9059    18.026849    21.233247    21.992714    8418.1187    2003.3428    714.35618    819.01876   -188.84413   -893.43671   -267.32008 
   12000    262.59517   -3913.1963   -3463.1172   -3913.1963            0     458.1711    17.990112    21.189975    21.947894    8366.7575    72.178187   -219.05669    1521.3918    181.09865    205.32951    978.58142 
   12500    250.74517   -3914.3513   -3484.5827   -3914.3513            0    518.00178     17.98099    21.179231    21.936766     8354.037   -447.49903    1181.2962    820.20818   -514.22526    -56.03504    786.61748 
   13000    251.87713   -3911.7588     -3480.05   -3911.7588            0    2748.1086    17.985871     21.18498     21.94272    8360.8417    2351.9966    1760.0145    4132.3147   -350.17004    126.34691   -326.49636 
   13500    242.79876   -3964.4326   -3548.2838   -3964.4326            0    154.17853    18.014298    21.218464    21.977402    8400.5485    -446.0027    1261.9159   -353.37763   -431.19286    -1295.096    821.33727 
   14000    244.00483   -3943.6445   -3525.4285   -3943.6445            0     746.0117    17.998405    21.199744    21.958012    8378.3335    1319.7774    85.895486     832.3622   -847.29449    133.01096     374.4469 
   14500    232.92368   -3937.3137   -3538.0905   -3937.3137            0     838.1761    18.042325    21.251475    22.011594    8439.8176    1444.5983    1157.2774   -87.347437    2353.6516    -354.3349    1362.5039 
   15000     252.1168   -3931.4702   -3499.3506   -3931.4702            0     859.6888    18.102892    21.322815    22.085486    8525.0993    210.07042     1441.715    927.28094    1635.8967   -191.57806   -247.76399 
   15500    248.12979   -3949.2943   -3524.0084   -3949.2943            0    291.72559    18.163681    21.394417    22.159648    8611.2695    679.22122   -1185.3026    1381.2582   -175.04565     364.6551    115.44363 
   16000    249.99397   -3934.4946   -3506.0135   -3934.4946            0    694.20684     18.01944     21.22452    21.983674     8407.743   -133.14727    2261.3308   -45.563038    684.16802    173.45617   -241.82242 
   16500    269.05359   -3952.2673   -3491.1187   -3952.2673            0    689.70601    18.103269     21.32326    22.085946    8525.6327    476.39749    163.90525    1428.8153   -213.32221   -348.89525     951.0467 
   17000    246.51738    -3954.083   -3531.5607    -3954.083            0    802.00562    18.031264    21.238447      21.9981    8424.3052    1123.6552    629.48363    652.87808    1143.8744   -825.11309    342.08144 
   17500    244.48674   -3945.6156   -3526.5737   -3945.6156            0    -363.6654    18.114641    21.336654     22.09982    8541.7092   -1078.7851    986.26832    -998.4794   -203.63276    1057.4654    164.88586 
   18000    227.29467    -3939.229   -3549.6537    -3939.229            0     678.9431    18.093637    21.311915    22.074195    8512.0317   -279.74203    1591.9551    724.61619   -397.66257    959.79244    456.26944 
   18500    241.08094   -3956.5272   -3543.3228   -3956.5272            0    855.60077     18.06272    21.275498    22.036476    8468.4712     -44.8308    1093.1974    1518.4358     671.3941   -904.75943   -1302.2017 
   19000    243.74604   -3934.7436   -3516.9712   -3934.7436            0    1735.7258    18.048809    21.259113    22.019505    8448.9212    1289.3603    1611.4802     2306.337    -1004.367   -1224.4995     428.8654 
   19500    268.86801   -3964.3749   -3503.5443   -3964.3749            0    1193.6347    17.983856    21.182607    21.940263    8358.0326    1647.5377    731.30175    1202.0646    1620.4727   -872.04339   -275.41213 
   20000    237.38143   -3948.2781   -3541.4144   -3948.2781            0    1055.3997    18.044536    21.254079    22.014291    8442.9209    1007.4953     1222.829    935.87481   -796.21651   -673.17393    241.71674 
   20500    256.23945   -3959.2578   -3520.0721   -3959.2578            0    1716.9503    18.016373    21.220908    21.979933    8403.4517    595.77663    1549.7645    3005.3098   -511.32663   -94.765288    255.31653 
   21000    254.51589   -3969.1898   -3532.9582   -3969.1898            0    873.76191    17.990084    21.189942     21.94786    8366.7183    1058.4255    637.79644    925.06376   -902.03214     -1737.09   -1124.7257 
   21500    250.90189   -3970.9819   -3540.9446   -3970.9819            0    467.98198     17.99006    21.189914    21.947831    8366.6846    1437.4208   -68.657385    35.182574   -345.53866   -379.77613    450.53435 
   22000    255.16749   -3930.5425   -3493.1941   -3930.5425            0   -452.51457    18.106099    21.326593    22.089398    8529.6309   -167.63423   -876.16812   -313.74137    622.88123    352.24498     1512.439 
   22500    249.88448   -3952.1572   -3523.8638   -3952.1572            0    423.72953    18.060187    21.272515    22.033386    8464.9095    360.83603    2263.1244   -1352.7719   -931.11673   -242.17412    337.99408 
   23000    237.84125   -3954.1357   -3546.4839   -3954.1357            0      1435.48    18.049494     21.25992    22.020341    8449.8829     137.3288    1693.1606    2475.9507    1114.6395   -1073.4473    484.61938 
   23500    247.03576   -3922.4456   -3499.0348   -3922.4456            0   -137.19968    18.167381    21.398775    22.164162    8616.5331   -950.26704    111.44325    427.22476    1191.2422    25.444247   -650.24191 
   24000    252.67025   -3883.8916   -3450.8235   -3883.8916            0     1314.033    18.110085    21.331288    22.094261     8535.266   -589.41533    1533.7622    2997.7521   -24.971997   -838.20622    1137.6839 
   24500    246.31233   -3940.5358   -3518.3649   -3940.5358            0    380.54758    18.089477    21.307014    22.069119    8506.1609    124.33402    208.79362    808.51511   -1089.2914    199.85978   -127.09714 
   25000    234.71805   -3884.4601   -3482.1614   -3884.4601            0    1236.3501    18.123742    21.347374    22.110922    8554.5894    343.46358     1384.112    1981.4748   -22.653502    515.16837   -1220.8559 
   25500    241.52868   -3922.5559    -3508.584   -3922.5559            0    944.07144    18.092123    21.310131    22.072348    8509.8944    704.61747    1160.5864    967.01048   -108.88017   -611.88467    1193.0285 
   26000    260.30536   -3929.7027   -3483.5483   -3929.7027            0    965.85439    18.133326    21.358663    22.122615    8568.1684    1049.5074    687.98952    1160.0662     453.3787    29.364707   -19.896502 
   26500    228.78623   -3950.7235   -3558.5917   -3950.7235            0    819.06523    17.998117    21.199405    21.957661    8377.9316    13.645474    149.58885    2293.9614   -704.27602   -211.68747   -420.99599 
   27000    260.32431   -3928.8637   -3482.6767   -3928.8637            0    277.52293    17.995747    21.196613    21.954769    8374.6219    1030.8785    409.47722   -607.78694    1070.9455    -188.1541   -1046.7983 
   27500    245.24782   -3910.2032   -3489.8568   -3910.2032            0    279.63537    18.055925    21.267495    22.028187    8458.9182    328.87221    781.48925   -271.45536    696.47786   -350.84418   -630.61193 
   28000    248.89284   -3944.2928    -3517.699   -3944.2928            0    1649.4889    17.991591    21.191718    21.949699    8368.8215    1966.3957     2440.723    541.34791    441.20258    978.40948   -76.635167 
   28500    249.49296   -3933.3037   -3505.6813   -3933.3037            0   -469.69122    18.043978    21.253423    22.013611    8442.1384    371.17998   -1128.0828   -652.17079    794.73175    636.79657   -1576.7779 
   29000    231.49055   -3940.1867   -3543.4198   -3940.1867            0    421.56154    18.102422    21.322262    22.084913    8524.4361     1270.364    1285.5385   -1291.2178    4.9473518   -716.69815   -226.22654 
   29500    259.61694   -3957.6765    -3512.702   -3957.6765            0    606.43927    18.087766    21.304999    22.067032    8503.7476   -90.380569    646.34173    1263.3567    708.22409    1542.4077   -490.76711 
   30000    255.85308   -3908.1692   -3469.6458   -3908.1692            0   -51.896831    17.991495    21.191604    21.949582     8368.687   -804.83907    688.11434   -38.965764    457.25994    303.86851     184.4278 
   30500    254.23082   -3959.8356   -3524.0927   -3959.8356            0    1102.5046    17.944099    21.135778    21.891759    8302.7232    1711.4663   -117.29704    1713.3446   -773.54143   -88.654924   -217.95981 
   31000    250.95671   -3882.2072    -3452.076   -3882.2072            0    1070.4833    18.046361    21.256229    22.016518    8445.4828    1337.0841    965.13759    909.22832     555.8399    639.39516    471.47221 
   31500     251.4407   -3902.5399   -3471.5791   -3902.5399            0     1233.793    18.003751    21.206041    21.964535    8385.8021    129.74691    672.28997    2899.3421     483.3659    795.24968   -375.12236 
   32000    249.38936   -3898.1992   -3470.7544   -3898.1992            0    464.35622    17.997177    21.198297    21.956514    8376.6189    364.61752   -957.65441    1986.1056   -1096.4036    297.96991    235.49459 
   32500    255.91758   -3928.5355   -3489.9015   -3928.5355            0    1383.8494    18.007189    21.210091    21.968729    8390.6073    2875.3851    89.213662    1186.9495   -684.81956     750.6018    114.22735 
   33000    251.01434   -3919.4762   -3489.2462   -3919.4762            0    117.23686    18.035088    21.242952    22.002765    8429.6665   -192.85674    1528.4234   -983.85606   -670.05214    1024.7821    171.07797 
   33500    242.75268   -3910.1235   -3494.0537   -3910.1235            0    471.21439    18.060201    21.272531    22.033403    8464.9286    2342.7876   -110.52554   -818.61885   -342.00481    389.94498   -20.297956 
   34000     255.1903   -3962.5138   -3525.1263   -3962.5138            0     193.0278     17.89948    21.083223    21.837324    8240.9413   -105.86609    248.00221    436.94728   -847.25865    1014.7803    150.54018 
   34500    242.36717   -3953.2822   -3537.8732   -3953.2822            0     867.3612    17.946526    21.138637     21.89472    8306.0929    1731.0437   -404.81625    1275.8562   -330.82355    48.731429    564.27584 
   35000    240.97493   -3942.2459   -3529.2232   -3942.2459            0    625.35583    17.976177    21.173562    21.930894    8347.3303    1011.8391    958.62499   -94.396643   -1775.1872    849.94792   -260.77508 
   35500     252.2637   -3935.9514   -3503.5801   -3935.9514            0    510.28768    17.974645    21.171758    21.929025    8345.1965    439.76143   -265.85441     1356.956    298.74932    430.92989   -135.60303 
   36000    248.22793   -3939.1434   -3513.6892   -3939.1434            0    1308.7278    17.966597    21.162278    21.919206    8333.9911    1598.0098    1011.6867     1316.487    1130.3015   -547.82879    732.91587 
   36500    249.93818    -3890.026   -3461.6405    -3890.026            0    421.16158    18.040953     21.24986    22.009921    8437.8936   -179.68717    1586.8605   -143.68855   -702.45723     1275.941   -498.24474 
   37000    258.23194   -3941.7922   -3499.1915   -3941.7922            0    205.23606    18.007808    21.210819    21.969483    8391.4712   -341.49721    544.46641    412.73898   -61.625533    341.27627    725.61181 
   37500    248.42093   -3927.8937   -3502.1087   -3927.8937            0    482.95445    18.060403    21.272769    22.033649    8465.2127    1585.7568    318.97624   -455.86975   -150.30646     441.5898   -893.90351 
   38000    258.00368   -3941.9655    -3499.756   -3941.9655            0    485.19185    18.000178    21.201832    21.960175    8380.8096    914.63002    756.63426   -215.68874   -342.02965    476.02029    660.41694 
   38500    242.29783   -3902.6391   -3487.3489   -3902.6391            0    561.28537    17.991639    21.191775    21.949758     8368.889    1685.0694    1401.8194   -1403.0327   -1978.5462   -723.99673   -125.47731 
   39000    249.23815    -3919.218   -3492.0324    -3919.218            0     1498.505    17.927095     21.11575    21.871014    8279.1421    2618.5271    461.44072    1415.5472   -921.41425   -1132.4069    486.49824 
   39500    248.63025   -3902.9112   -3476.7674   -3902.9112            0    518.01029    17.867153    21.045147    21.797886    8196.3726    761.95102     2027.301   -1235.2212   -223.90601   -1416.7857    518.77105 
   40000    245.69522   -3909.9685   -3488.8553   -3909.9685            0    1797.7915    17.925657    21.114056     21.86926    8277.1505    3005.2145     467.8463    1920.3138    305.96686    699.74371    809.68327 
   40500    241.37099   -3945.1428   -3531.4411   -3945.1428            0     1271.815    17.994902    21.195618    21.953739    8373.4431    1110.2874    1479.6995    1225.4582     236.5042   -454.24696    154.56727 
   41000    251.26407   -3916.2089   -3485.5509   -3916.2089            0    1977.9293    17.971457    21.168003    21.925136     8340.757    1630.5487    2040.7119    2262.5273    242.50172    1976.3362    508.47551 
   41500    257.72781   -3934.5323   -3492.7957   -3934.5323            0    1527.0177     18.02259    21.228231    21.987518    8412.1539    1971.3079    1471.3029    1138.4424   -664.78484    777.76737    582.17088 
   42000    246.22792   -3926.2244   -3504.1981   -3926.2244            0   -432.90225    18.124325     21.34806    22.111634    8555.4151   -10.388858   -457.57135   -830.74655    1235.3382    -853.1321   -1152.2421 
   42500    245.95814   -3940.0991   -3518.5353   -3940.0991            0    474.24076     18.05496    21.266358    22.027009     8457.562   -242.93715   -653.11448    2318.7739   -621.07548    472.30914    63.201286 
   43000    252.41864    -3937.377   -3504.7401    -3937.377            0    1053.0012    17.994119    21.194695    21.952783    8372.3494    511.30014    1317.4819    1330.2214   -52.848258    667.10065    778.68788 
   43500    241.43562   -3952.7349   -3538.9225   -3952.7349            0    189.20484    18.099265    21.318544    22.081061     8519.977    856.76964   -385.13919    95.984086   -280.68909    1762.5795    72.877809 
   44000    254.55493   -3941.8894   -3505.5909   -3941.8894            0   -503.64032    18.086617    21.303645     22.06563    8502.1272   -1877.8323    -11.25345    378.16479    599.66561   -1132.1123     285.4512 
   44500    251.25795   -3913.3748   -3482.7273   -3913.3748            0    1690.7818    18.051944    21.262805    22.023329    8453.3239    199.90951     4035.922    836.51378    33.303528    410.49691   -649.93697 
   45000    235.64378   -3935.3392   -3531.4538   -3935.3392            0    1002.1918    18.022991    21.228703    21.988007    8412.7151    91.871585    720.36829    2194.3356   -134.78177   -563.54669   -941.20137 
   45500    251.29245   -3954.7845   -3524.0778   -3954.7845            0    2377.2639    17.989624    21.189401      21.9473    8366.0773    3040.4854    1855.9952    2235.3112   -1034.8295    1565.8296     364.1321 
   46000    263.29324   -3932.2142   -3480.9386   -3932.2142            0    2362.4074     17.99059    21.190539    21.948478     8367.425     888.3179    3256.9045    2941.9999    429.42174   -788.32146   -1170.2057 
   46500    254.55564   -3945.4359   -3509.1363   -3945.4359            0    2601.4074     17.86838    21.046592    21.799382    8198.0609    3289.5948    1200.2543    3314.3733   -249.86003    5.2340642   -595.89156 
   47000    238.98956   -3919.8251   -3510.2051   -3919.8251            0    828.36257    18.036371    21.244463    22.004331    8431.4656    1498.7649    629.01102    357.31174    -74.50569    392.23469    62.135481 
   47500    242.42193   -3892.8358   -3477.3329   -3892.8358            0    1633.7888    18.005642    21.208268    21.966842    8388.4448    1541.5159    1513.6415    1846.2089   -1075.4299    1876.4473   -984.18425 
   48000    262.19991   -3936.9423   -3487.5407   -3936.9423            0    1756.3605    17.903629     21.08811    21.842385    8246.6731    966.97221    1760.5032    2541.6061   -655.34076   -494.52911    1204.6004 
   48500    238.75989   -3892.6146   -3483.3884   -3892.6146            0    121.60697    17.963356    21.158461    21.915253    8329.4827     444.2457   -280.40012    200.97533     83.87994    562.64521   -530.60272 
   49000    247.32444   -3916.0185   -3492.1129   -3916.0185            0    589.40114    17.952004     21.14509    21.901403    8313.7014    691.93875    71.723173    1004.5415   -616.71378    682.00773    1441.3489 
   49500    268.38436   -3910.5184   -3450.5168   -3910.5184            0   -244.25718    17.955546    21.149261    21.905724    8318.6226     64.14586   -810.65452    13.737107    1534.0421    -974.0743    541.62242 
   50000    236.30005   -3906.8939   -3501.8837   -3906.8939            0    1350.7032    17.870621    21.049231    21.802116    8201.1453     892.7625    798.77601    2360.5711    255.25799   -345.71071    1501.4151 
   50500    269.20543   -3943.7141   -3482.3052   -3943.7141            0    575.59321    17.882177    21.062843    21.816214    8217.0658   -447.75981   -75.494131    2250.0336     631.4388    329.17864   -55.023384 
   51000     254.7525   -3915.6307   -3478.9936   -3915.6307            0   -406.56291    17.936551    21.126888     21.88255    8292.2499   -1045.4757    552.64906   -726.86204    667.06871    1207.0194    631.41321 
   51500    249.56612   -3924.5743   -3496.8265   -3924.5743            0    1198.7812    17.859627    21.036281    21.788703    8186.0183    750.04302    1556.9141    1289.3864    -173.4962    112.08484   -876.71966 
   52000    254.22148   -3940.5862   -3504.8593   -3940.5862            0    2017.7307    17.886525    21.067964    21.821519    8223.0612    2982.1146    1471.9896     1599.088    281.37218   -2048.2439    199.64837 
   52500    251.67255   -3911.8837   -3480.5255   -3911.8837            0    527.94586    17.908897    21.094316    21.848813    8253.9557   -599.65826     1065.102    1118.3939    426.23605   -436.79478   -1075.1354 
   53000      251.053   -3931.2768   -3500.9806   -3931.2768            0    52.740964    17.978577    21.176389    21.933822    8350.6743    456.78928    442.48341    -741.0498   -25.468854    56.778104    -215.6708 
   53500     250.0483   -3929.3606   -3500.7864   -3929.3606            0    1557.4789    17.890832    21.073037    21.826773    8229.0028    557.37301    2604.4289    1510.6347   -1390.9658    563.07966    -657.8046 
   54000    253.21214   -3916.2393   -3482.2424   -3916.2393            0    693.52804    17.960572    21.155181    21.911855    8325.6097    598.33025     215.7789     1266.475   -1113.6705   -415.44841    494.59674 
   54500    234.10916   -3948.1452   -3546.8901   -3948.1452            0    1747.0694    17.897131    21.080456    21.834458    8237.6973    1767.9216    1297.2482    2176.0385    1032.8362    366.08527   -1098.4575 
   55000    253.90204   -3924.1142   -3488.9348   -3924.1142            0    720.53605    17.975065    21.172252    21.929537    8345.7807   -234.41642     1405.413    990.61158   -593.76677    163.79962    58.787556 
   55500     244.6505   -3948.6253   -3529.3028   -3948.6253            0    1567.1006    17.891262    21.073544    21.827298    8229.5962    100.61934     4201.858     398.8245    68.671975    1521.6669    35.979703 
   56000    248.75898   -3868.9469   -3442.5825   -3868.9469            0    1087.6664     17.90445    21.089077    21.843387    8247.8077    2760.1541   -391.96501    894.81001    63.584945    1426.5317    1170.0907 
   56500    235.77754   -3887.9893   -3483.8746   -3887.9893            0   -30.222168    17.946863    21.139034    21.895131      8306.56    629.37911    12.890243   -732.93586   -254.88192    805.79067    270.13949 
   57000    259.28276   -3907.0977    -3462.696   -3907.0977            0    1182.1658    18.061106    21.273597    22.034507    8466.2018    675.83823    994.13955    1876.5196    1100.2651   -62.143654   -95.703509 
   57500    253.71198   -3902.6415   -3467.7878   -3902.6415            0    1735.7508    17.902229    21.086461    21.840677    8244.7388     1070.365    2720.9629    1415.9245    1123.5521    331.05832   -918.79196 
   58000    236.12471   -3883.5451   -3478.8354   -3883.5451            0    1212.7332    17.824421    20.994813    21.745752    8137.7036    514.97797    1385.2353    1737.9864    70.450184    858.33313     149.4163 
   58500    257.90521   -3920.7366   -3478.6959   -3920.7366            0    1097.4443    17.843911     21.01777     21.76953    8164.4274    -469.5485     1819.765    1942.1165    156.64251   -610.54447   -774.19967 
   59000    254.06419   -3923.2347   -3487.7774   -3923.2347            0   -365.43494    17.935418    21.125553    21.881168    8290.6783   -1892.6694   -17.293842    813.65842    364.90274    118.97722    928.34546 
   59500    248.52213   -3915.8796   -3489.9212   -3915.8796            0    1435.5188    17.815351     20.98413    21.734686    8125.2871     1169.921    2122.0379    1014.5974   -1418.0934   -1447.1014   -1159.9697 
   60000      246.029   -3941.5739   -3519.8886   -3941.5739            0    397.48793    17.956407    21.150276    21.906775    8319.8196   -168.97551    699.23116    662.20815   -1088.3925   -654.65085    1116.5199 
   60500    250.10961    -3923.283   -3494.6037    -3923.283            0    1778.1786    17.846032    21.020268    21.772117    8167.3386     1634.352    1528.1705    2172.0134    73.410385     134.0466    -813.1414 
   61000    250.44862   -3908.5965   -3479.3361   -3908.5965            0    923.37197    17.899524    21.083275    21.837378    8241.0027    408.49718    2453.6349   -92.016176   -35.095597    168.27593    358.25781 
   61500    257.67014   -3908.5794   -3466.9416   -3908.5794            0    2300.7069    17.921627     21.10931    21.864343    8271.5693    2136.6847    2381.4915    2383.9444     691.3053   -267.61698   -46.477758 
   62000    256.41813   -3903.2118   -3463.7199   -3903.2118            0    628.70569    17.923568    21.111595    21.866711    8274.2565     1202.187    118.96574    564.96434     94.66975    779.92326    115.90001 
   62500    242.41352   -3912.2161   -3496.7276   -3912.2161            0   -316.62037    17.922689     21.11056    21.865639    8273.0396   -414.15783    55.226143   -590.92943   -438.55926     137.9292    980.40122 
   63000    255.56523   -3884.6906   -3446.6606   -3884.6906            0    1428.8864    17.882247    21.062925      21.8163    8217.1621    1593.0899    1374.3661    1319.2033   -636.65019    256.28788    466.04124 
   63500    246.27658    -3934.766   -3512.6564    -3934.766            0    290.22227    17.921583    21.109257    21.864289    8271.5079    1517.7487    726.60336   -1373.6852   -1550.1363    504.74086    -163.5727 
   64000    252.61188    -3914.802   -3481.8339    -3914.802            0    766.92096    17.867562    21.045628    21.798384    8196.9349    1256.1184    1623.3417   -578.69722    220.19478   -11.958923    1491.5166 
   64500    247.47544    -3943.736   -3519.5715    -3943.736            0    1843.7024    17.810617    20.978555    21.728912    8118.8124    2972.4359    1024.9353    1533.7361   -1710.5528    1072.2827    190.52783 
   65000    232.49399   -3921.1918   -3522.7051   -3921.1918            0     726.1179     17.79777    20.963423    21.713238    8101.2566    183.40372    291.30268    1703.6473     274.0873   -117.97635     1031.535 
   65500     249.6467   -3942.8933   -3515.0074   -3942.8933            0   -550.67058     17.88829    21.070043    21.823673    8225.4961    162.29159   -1050.1575   -764.14581    593.93107    1188.8453    735.59145 
   66000    251.99091   -3889.0683   -3457.1645   -3889.0683            0    1108.7875    17.867208    21.045211    21.797952    8196.4479    2207.7752   -307.61043    1426.1978   -307.56685   -1531.9555   -725.59695 
   66500    254.92537   -3910.1137   -3473.1804   -3910.1137            0    255.83943    17.860831      21.0377    21.790172    8187.6744    20.284242    327.12101    420.11304   -582.64204   -653.32533    377.89082 
   67000     236.7192   -3941.7166    -3535.988   -3941.7166            0    975.14623    17.792132    20.956781    21.706359    8093.5591    1203.0593    200.83798    1521.5414   -897.83287   -645.37516   -176.83169 
   67500     250.1372    -3941.515   -3512.7883    -3941.515            0   -669.94916    17.884499    21.065577    21.819047     8220.267     352.6766   -1832.9639    -529.5602    639.68912    737.54532    1076.9742 
   68000    244.74104   -3919.7406   -3500.2628   -3919.7406            0    780.62065    17.883848     21.06481    21.818252     8219.369    661.12026    528.77575    1151.9659   -351.83325    436.58975   -39.169947 
   68500    248.74325   -3925.1229   -3498.7855   -3925.1229            0    2583.6236     17.66756    20.810051    21.554381    7924.7447    3583.1041     1645.838    2521.9288   -394.82836     -402.623   -847.37507 
   69000     236.3851   -3946.0974   -3540.9414   -3946.0974            0     1509.018    17.751011    20.908346    21.656192    8037.5714    1617.2019   -514.81699    3424.6689    570.16312    442.80975   -1328.5164 
   69500     241.9156   -3917.9687   -3503.3336   -3917.9687            0    824.75923    17.868049    21.046202    21.798978    8197.6053   -12.902664    1410.6881    1076.4923     597.5143   -213.95351   -592.95216 
   70000     251.7361   -3924.9893   -3493.5222   -3924.9893            0    1848.3626    17.848824    21.023557    21.775524    8171.1735    2492.0709   -33.948307    3086.9652   -677.13181   -386.34057    335.89433 
   70500    248.75212   -3913.2672   -3486.9146   -3913.2672            0    1462.2181    17.915285    21.101839    21.856606    8262.7906    2051.1906    376.85375      1958.61    622.82345    194.71292   -314.42419 
   71000    251.53628   -3926.0799   -3494.9554   -3926.0799            0      1664.11    17.876972    21.056711    21.809864    8209.8919    2047.7952    266.77581     2677.759    190.01758    1269.6185   -973.22413 
   71500    252.72517   -3933.3069   -3500.1446   -3933.3069            0    1115.9055    17.906082       21.091    21.845379    8250.0643    1256.0327    321.75681    1769.9271    573.90812   -428.52182    172.90756 
   72000    256.59117   -3855.6583   -3415.8698   -3855.6583            0    880.11466    17.957414    21.151462    21.908004    8321.2199    852.51285    1389.6736    398.15757    1044.5199    697.12918   -716.43982 
   72500    243.08719   -3890.7432   -3474.1001   -3890.7432            0    1726.9491     17.91917    21.106415    21.861346    8268.1674    4042.4524    79.376585    1059.0183   -633.22936   -193.16509    148.73395 
   73000    230.77642   -3896.6084   -3501.0655   -3896.6084            0    2811.9696    17.828226    20.999296    21.750395     8142.917    3929.2262    2897.7681    1608.9144    1001.7127    26.998147   -1075.1974 
   73500    251.29875   -3862.0781   -3431.3606   -3862.0781            0    1074.1864    17.941506    21.132724    21.888595    8299.1241    1347.1118    2109.6398   -234.19255    604.35006    393.91928    341.96027 
   74000    259.45591   -3915.4747   -3470.7762   -3915.4747            0    1923.7953    17.857864    21.034205    21.786553    8183.5955    579.94451    2533.9618    2657.4795    476.80871    110.14088   -1090.6997 
   74500    251.46916   -3899.5206   -3468.5111   -3899.5206            0    1565.1793    17.887396    21.068989    21.822581     8224.262    3261.2569    249.81258    1184.4685    1351.9114    487.31269    917.39999 
   75000    238.66584   -3885.1288   -3476.0637   -3885.1288            0   -279.48504    17.970859    21.167299    21.924406    8339.9247    -1287.102   -753.67421    1202.3211   -809.98478   -927.67312   -253.34431 
   75500    247.39127    -3920.764   -3496.7438    -3920.764            0    1652.3679    17.879191    21.059326    21.812572    8212.9504    1888.8325    2100.3255    967.94556    1103.7879    499.00411   -58.908705 
   76000    251.37667   -3923.8051   -3492.9541   -3923.8051            0    996.07481    17.899346    21.083066    21.837161    8240.7568    1839.9937    279.81386    868.41687   -341.66652    -396.6154    432.36022 
   76500      222.822   -3930.5034   -3548.5941   -3930.5034            0    1176.6736    17.977272    21.174852     21.93223    8348.8563    2541.7141    43.079285    945.22746    444.47463   -561.76761   -88.125833 
   77000    248.72351   -3937.5595   -3511.2559   -3937.5595            0     1490.271    17.891316    21.073607    21.827363    8229.6702    2435.2877    1095.4399     940.0853    152.65744    1222.0423   -1076.0044 
   77500    237.77802   -3888.4672   -3480.9238   -3888.4672            0    1983.5003    17.908331    21.093648    21.848121    8253.1719    2432.8122    409.40344    3108.2852   -413.59566     864.3861   -52.168465 
   78000    265.08464   -3912.9571   -3458.6111   -3912.9571            0    1014.6263    17.968895    21.164985     21.92201    8337.1899   -385.44502    2271.5088    1157.8151   -410.68232   -634.62669    1157.4331 
   78500    240.08635   -3940.0132   -3528.5134   -3940.0132            0    841.32191    17.944145    21.135833    21.891815    8302.7873    453.57214     1447.822    622.57165   -332.45305    879.86555   -810.15383 
   79000    251.75896   -3939.3765   -3507.8703   -3939.3765            0    1323.6637    18.025944    21.232181    21.991609     8416.851    649.72502    1317.4714    2003.7948    596.07672   -1107.7139    181.29793 
   79500    249.89471   -3909.1406   -3480.8296   -3909.1406            0    133.21184     18.03851    21.246982     22.00694    8434.4661    -482.1709    1041.3873   -159.58085    544.98895   -169.31245    -57.62678 
   80000    265.59343   -3933.2315   -3478.0134   -3933.2315            0   -818.34131    18.162251    21.392733    22.157904    8609.2366   -1088.8013   -25.017986   -1341.2047    849.91698    353.94724    74.241499 
   80500    248.35148   -3933.0664   -3507.4004   -3933.0664            0   -65.401833    18.088145    21.305446    22.067495    8504.2829   -1142.2187    1334.8226   -388.80942   -988.45293    545.21446    531.34908 
   81000    244.37965   -3906.4452   -3487.5868   -3906.4452            0    496.94594    18.001684    21.203606    21.962013    8382.9139   -445.21258    1692.9209    243.12948   -180.85304    1200.6993    706.10422 
   81500    241.63454   -3935.9544    -3521.801   -3935.9544            0    528.90762    17.992117    21.192338    21.950341     8369.556    645.93086   -316.93785    1257.7298      798.993   -510.86425    944.73065 
   82000    247.65707   -3962.3003   -3537.8246   -3962.3003            0    1794.6779    17.969718    21.165954    21.923013    8338.3351    2905.0312    1026.2803    1452.7221     693.2661    164.99629   -136.46502 
   82500    266.14028   -3920.7818   -3464.6265   -3920.7818            0    368.52302    17.981706    21.180075     21.93764    8355.0351   -221.63068    1057.6005    269.59924   -295.08753    395.39997    160.32913 
   83000    238.72103   -3927.5723   -3518.4126   -3927.5723            0     1078.534    17.903609    21.088087    21.842362    8246.6464    216.10374    625.45918    2394.0392    146.54814   -20.472828   -743.11987 
   83500    260.71562   -3938.0989   -3491.2413   -3938.0989            0    1096.0311    17.992234    21.192475    21.950483    8369.7185    1603.5741    1478.4621    206.05712    323.94636     737.4131   -51.688614 
   84000    266.58171   -3929.8424   -3472.9305   -3929.8424            0    1838.0646    17.911849    21.097792    21.852414     8258.037    2401.3053    3033.6812     79.20732    135.53601     1057.993    276.28915 
   84500    238.43041   -3920.4288   -3511.7672   -3920.4288            0     295.8454    17.986809    21.186085    21.943865    8362.1499   -312.49167    925.66867     274.3592    1049.0965   -102.70544    -1017.009 
   85000    243.53459   -3898.8768   -3481.4668   -3898.8768            0    1829.4588    17.847153    21.021589    21.773485    8168.8787    2602.8828    925.65273    1959.8408    175.13158   -463.98952   -966.20718 
   85500    258.31834   -3880.0525   -3437.3037   -3880.0525            0    1168.3406    17.993899    21.194437    21.952515    8372.0429    1098.2206    1980.6996    426.10171    179.82609   -436.90151    187.18995 
   86000    247.79118   -3913.2327   -3488.5272   -3913.2327            0    442.56737    18.013428    21.217439     21.97634    8399.3314    8.6192118    1196.3584    122.72448   -78.341235   -618.53648   -1113.2591 
   86500    240.38635   -3942.3087   -3530.2947   -3942.3087            0     811.5133    17.999471    21.200999    21.959312    8379.8219   -556.43478    1410.6407    1580.3339    84.675263   -194.96197   -735.92713 
   87000    254.44439   -3964.3324   -3528.2234   -3964.3324            0    259.87652    17.971401    21.167937    21.925068    8340.6793   -833.81016    987.82313    625.61661   -538.20238   -758.75742   -240.67975 
   87500    242.16481   -3934.5804   -3519.5182   -3934.5804            0    1455.1724    17.947369     21.13963    21.895748    8307.2628    674.13563    560.44858    3130.9331    912.26992    470.07854    325.46608 
   88000    255.89185   -3913.2797   -3474.6898   -3913.2797            0    260.91643    17.993496    21.193962    21.952023    8371.4804   -356.90411   -323.59901    1463.2524   -342.79621    870.50058   -341.23557 
   88500    236.76211   -3900.1955   -3494.3934   -3900.1955            0    156.26881    18.009981    21.213378    21.972134    8394.5095    707.27395   -544.29854    305.83101    30.183824    57.632718    256.93017 
   89000    235.85334   -3950.4651   -3546.2205   -3950.4651            0    1585.5683    18.009289    21.212563     21.97129    8393.5418    1510.6133    2154.8233    1091.2683   -886.98113    157.59283    298.78178 
   89500    242.19972    -3954.892     -3539.77    -3954.892            0   -1485.9427    18.041916    21.250994    22.011096    8439.2447   -1322.3446   -1831.2721   -1304.2115   -716.57767   -431.97981   -210.61402 
   90000    259.51624   -3959.6041   -3514.8021   -3959.6041            0    1035.7543    18.016439    21.220985    21.980013    8403.5432   -859.24117    1006.7962    2959.7079    533.64127    101.08194   -2.6880616 
   90500    249.34932   -3929.7309   -3502.3547   -3929.7309            0    934.35149    17.962791    21.157795    21.914563    8328.6968    468.73981    1500.8149    833.49977    440.56808   -1231.1024   -240.80249 
   91000     240.2839   -3940.7929   -3528.9545   -3940.7929            0     777.0366    17.987421    21.186806    21.944611    8363.0034    319.95417    1260.5838    750.57188    272.42949    173.61484    11.398958 
   91500    242.32393   -3980.3738   -3565.0389   -3980.3738            0    1322.9781    17.932655    21.122298    21.877797    8286.8473     555.6778    1025.1647    2388.0918    34.790544    273.17133    514.04526 
   92000    267.13823   -3950.1767   -3492.3109   -3950.1767            0     539.7569    17.991012    21.191035    21.948992    8368.0128    562.95261    473.58287    582.73522    1130.6417   -569.44282   -388.86402 
   92500    239.69371   -3953.4077   -3542.5809   -3953.4077            0      1377.46    17.962341    21.157265    21.914014    8328.0706    1337.3257    1490.5788    1304.4755    348.70696    568.77922   -472.22638 
   93000    243.23411   -3950.1976   -3533.3026   -3950.1976            0    1824.2576    17.938938    21.129699    21.885462     8295.561    2864.6446    862.61379    1745.5143    885.45388    964.79704   -684.19023 
   93500    250.99835   -3972.2028   -3542.0003   -3972.2028            0     1364.874    17.960273    21.154829    21.911491    8325.1943     268.1017    1720.2604    2106.2598    54.329437   -1240.1712   -235.68232 
   94000    236.75343   -3944.9896   -3539.2023   -3944.9896            0     236.8947    17.978767    21.176613    21.934054    8350.9391    998.45624   -659.28864     371.5165    952.00952     659.7573     533.3787 
   94500    250.12664   -3955.7682   -3527.0597   -3955.7682            0    976.42651    17.945571    21.137513    21.893555    8304.7671    1242.6479    1101.9647    584.66691   -616.60814    436.04204    134.23878 
   95000    255.06429   -3973.6951   -3536.5237   -3973.6951            0    1967.0657    17.834538     21.00673    21.758094     8151.568    3403.2399     443.9124    2054.0448    318.86993    2371.9447   -967.59757 
   95500    241.57384   -3939.5317   -3525.4824   -3939.5317            0    1813.9914    17.916509     21.10328    21.858099    8264.4838    1134.6688    2364.1678    1943.1377    -118.6509    470.50762   -501.75153 
   96000    253.32318   -3922.6656   -3488.4783   -3922.6656            0    797.03783    17.892876    21.075444    21.829266    8231.8229   -460.18023    2868.6995    -17.40574     653.5599    222.69312   -1031.3217 
   96500    264.92314   -3932.5157   -3478.4465   -3932.5157            0    861.40982    17.942754    21.134194    21.890117    8300.8557    37.813391    474.27439    2072.1417   -859.34774   -571.58127    -264.4391 
   97000    251.99801   -3950.4117   -3518.4958   -3950.4117            0      665.939    17.944444    21.136185     21.89218     8303.202    66.994436    818.34628    1112.4763    324.85841    1392.3085   -68.140559 
   97500    261.14263   -3964.2846   -3516.6951   -3964.2846            0    1669.0322    17.924644    21.112863    21.868024    8275.7474     2616.902     1726.925    663.26969    1638.4218    -442.7381      -376.28 
   98000    232.49733   -3955.9212   -3557.4287   -3955.9212            0    375.43718    17.953685    21.147069    21.903454    8316.0366   -354.37312    1901.4679   -420.78327    633.15074   -1104.4006   -115.43584 
   98500    244.18323   -3904.0851   -3485.5635   -3904.0851            0    2580.7407    17.833547    21.005563    21.756886    8150.2103     3553.387    2511.2663    1677.5687    276.11759    170.85293    380.93543 
   99000    240.44824   -3910.9889   -3498.8688   -3910.9889            0   -862.72457    17.922082    21.109845    21.864898    8272.1989   -1548.1371   -1458.6544    418.61774   -415.49738   -670.40061    982.85479 
   99500     262.9563   -3914.3798   -3463.6817   -3914.3798            0    1581.0289    17.910689    21.096425    21.850998    8256.4327    980.01424    1884.3502    1878.7222    241.26638   -405.46901    439.32485 
  100000    237.10719    -3937.149   -3530.7554    -3937.149            0    1264.0584    17.897104    21.080424    21.834425    8237.6596    375.04244    2380.7471    1036.3855   -180.33505    279.04514    66.708558 
  100500     244.4509   -3929.6752   -3510.6947   -3929.6752            0    2102.0955    17.902025     21.08622    21.840428    8244.4566     3017.427    2478.2511    810.60829    1250.9321    737.11441    883.99779 
  101000    251.12617   -3976.0075   -3545.5858   -3976.0075            0    527.82349    17.817301    20.986427    21.737065    8127.9558    641.72298    20.320176    921.42731    1630.2287   -582.02927    455.10611 
  101500    254.44049   -3923.7548   -3487.6525   -3923.7548            0   -336.16266     17.99979    21.201375    21.959702    8380.2684   -363.87007   -1604.8598    960.24189    11.969837   -203.35053    937.06032 
  102000    275.10624   -3963.4793   -3491.9566   -3963.4793            0    208.91855    18.004427    21.206837    21.965359    8386.7463   -95.872517    1399.3304   -676.70219   -72.049962   -429.07688    295.91978 
  102500     253.9838   -3957.6656   -3522.3461   -3957.6656            0    867.27083    17.946531    21.138644    21.894727    8306.1002   -457.15946    2565.7028    493.26917    1107.1699    248.73378    1093.2392 
  103000    256.62494   -3928.4045   -3488.5582   -3928.4045            0    1317.3994    17.989515    21.189272    21.947166    8365.9248   -131.44975    1320.7381      2762.91    1383.2275    596.96733   -1562.9663 
  103500    249.21409   -3932.8931   -3505.7487   -3932.8931            0    823.85732    18.044565    21.254114    22.014327    8442.9616   -82.701576    1528.4106    1025.8629   -639.12746    808.10056    501.96627 
  104000    254.06995    -3928.395   -3492.9278    -3928.395            0    2371.5456    17.980428    21.178569     21.93608    8353.2529    1630.1557    3405.3958    2079.0852   -189.67504    948.59863   -377.69852 
  104500    248.06062   -3913.8215   -3488.6541   -3913.8215            0    781.57462     18.06814    21.281882    22.043089    8476.0973    1276.1871   -563.27069    1631.8075    208.52763    1129.7362    1369.1621 
  105000    271.58618   -3938.1023   -3472.6129   -3938.1023            0    536.92833     18.11887    21.341636     22.10498    8547.6935    1514.2216    415.41692   -318.85351    969.09302    89.437656    2330.0325 
  105500    260.08395   -3913.9762   -3468.2012   -3913.9762            0    947.92641    17.992216    21.192454    21.950461    8369.6935    674.57734   -23.205874    2192.4078   -534.47287    1659.1789    294.67322 
  106000    238.87754   -3935.2038   -3525.7759   -3935.2038            0    1415.9658    17.959124    21.153476    21.910089    8323.5968    1305.0617    1161.7684    1781.0673   -362.58033   -500.91045   -368.76229 
  106500    252.73428   -3946.2293   -3513.0514   -3946.2293            0    2213.9183    17.964474    21.159778    21.916617    8331.0381    1873.8679    2485.9266    2281.9603    80.954465    615.12255   -331.03837 
  107000    245.94269   -3932.5949   -3511.0576   -3932.5949            0    2311.6003    18.038985    21.247541    22.007519    8435.1313    1383.2921    2624.2282    2927.2806   -804.75925    1046.2271    1894.4826 
  107500    255.09187   -3920.6082   -3483.3894   -3920.6082            0   -125.82779    18.101223     21.32085     22.08345    8522.7424   -1063.3439    737.19413   -51.333632    130.06029    1206.0636   -49.056844 
  108000    244.07297   -3892.7877    -3474.455   -3892.7877            0     689.0629     18.08189    21.298078    22.059863    8495.4629      1962.23    132.99852   -28.039848    647.37926    366.25058     792.0087 
  108500     263.0629   -3907.4566   -3456.5758   -3907.4566            0    848.23167    18.005728    21.208369    21.966946    8388.5646    952.56289    630.45076    961.68136    1139.4497    844.62262   -754.23739 
  109000     246.7077   -3915.6367   -3492.7881   -3915.6367            0    953.93816    17.948245    21.140662    21.896817    8308.4797   -985.00859    2093.4227    1753.4004   -128.40869   -794.90965   -289.76346 
  109500    246.44931   -3907.6431   -3485.2374   -3907.6431            0    2133.9284    17.925698    21.114104     21.86931    8277.2069    3026.0659    2171.9107    1203.8084    402.42293    849.21487   -110.24997 
  110000    247.50267   -3926.0699   -3501.8588   -3926.0699            0    649.46407     17.98751    21.186911     21.94472    8363.1277    538.42677    1870.7632   -460.79769   -1014.7486    1176.8101    648.07482 
  110500    252.49109   -3922.3355   -3489.5744   -3922.3355            0    199.46782    17.930932     21.12027    21.875696    8284.4601   -350.95427   -410.48773    1359.8455     723.5595    495.80056    66.690355 
  111000    250.83398   -3910.2716   -3480.3508   -3910.2716            0    1185.7842     17.92196    21.109701    21.864749    8272.0298    493.88963    2150.3276    913.13545   -240.30861    686.90002     1086.888 
  111500    256.06282   -3902.4119    -3463.529   -3902.4119            0    2136.4664    17.957133    21.151131    21.907661    8320.8294    589.78039    2863.8804    2955.7385   -775.92855    551.41206    379.56341 
  112000     253.4638   -3911.4139   -3476.9856   -3911.4139            0    2460.0391     17.86126    21.038205    21.790695     8188.264    3642.1578    1070.8356    2667.1238    811.23803   -157.73554    627.50458 
  112500    243.07214   -3911.6402   -3495.0228   -3911.6402            0    248.08502    17.956645    21.150556    21.907065    8320.1504    153.23811      1818.48   -1227.4631    1244.9516   -384.12704    1008.5307 
  113000    251.84556   -3940.9354   -3509.2808   -3940.9354            0    2072.4815     17.92979    21.118925    21.874302    8282.8774    1435.1205    2476.0585    2306.2655    655.57323    423.39492    401.58927 
  113500    249.83777   -3939.5103   -3511.2969   -3939.5103            0    70.387722    18.079799    21.295615    22.057312    8492.5159    1148.0635   -900.76099   -36.139347    519.35595    584.08501   -188.40987 
  114000    263.40803   -3916.2989   -3464.8265   -3916.2989            0   -80.722312     18.10056    21.320069    22.082641    8521.8061   -1650.0179    804.58419    603.26676    371.92543    966.59149    1270.7699 
  114500    251.98866   -3955.2081   -3523.3081   -3955.2081            0    2239.2174    18.001621    21.203531    21.961935     8382.825   -623.83609    3908.6072    3432.8812   -686.04839    326.56098    109.36168 
  115000     251.5581   -3932.3392   -3501.1772   -3932.3392            0    368.76195    18.078138    21.293659    22.055286    8490.1762    847.19145   -494.77952    753.87392    397.82707     555.4174    807.81199 
  115500    246.51316   -3940.4269   -3517.9117   -3940.4269            0    2276.9949    17.969318    21.165483    21.922526    8337.7792    117.77678    2962.2113    3750.9967     287.6789    1211.5162   -254.81168 
  116000    232.36084   -3915.7224   -3517.4639   -3915.7224            0    890.53308    18.052828    21.263846    22.024408    8454.5657    1362.0147    429.32587    880.25867    830.11319   -178.50985    757.76669 
  116500    264.05911     -3945.47   -3492.8817     -3945.47            0    2116.7971     18.00147    21.203354    21.961751    8382.6143    1476.7301    2142.9646    2730.6967    122.30413    630.14243    255.20867 
  117000    248.80985   -3987.4783   -3561.0267   -3987.4783            0    1058.7246    17.975578    21.172857    21.930164    8346.4965   -130.04892     2144.147    1162.0756    1225.9194    1403.8764   -273.33697 
  117500    232.93862   -3943.5634   -3544.3146   -3943.5634            0     337.8453    18.057346    21.269169     22.02992    8460.9157    626.24631   -1348.8206    1736.1102   -1190.2352    181.95447    1106.7448 
  118000    242.38923   -3958.4492   -3543.0024   -3958.4492            0    121.96489    18.065536    21.278815    22.039912    8472.4329   -1078.7662   -181.55949    1626.2204   -573.20854   -78.580169   -1074.3453 
  118500     254.9707   -3946.7893   -3509.7782   -3946.7893            0    1345.9805    17.978893    21.176761    21.934207    8351.1138    1180.8181    498.61272    2358.5105   -695.12203    623.37559     645.0067 
  119000    242.83086   -3925.9485   -3509.7447   -3925.9485            0    2021.6419    18.081178     21.29724    22.058995    8494.4602    2530.4371     1788.792    1745.6967   -636.04558    1158.8668   -316.92329 
  119500    243.41908   -3937.4352   -3520.2233   -3937.4352            0    1128.2855    18.059125    21.271264    22.032091    8463.4169    699.55384    225.59898    2459.7037    77.241379   -288.32674    605.52583 
  120000    241.94779   -3933.8605   -3519.1703   -3933.8605            0    571.87409    18.066966    21.280499    22.041656    8474.4445    1014.4146   -486.39125     1187.599   -125.43574     2.327906    281.06418 
  120500     250.7236   -3905.4871   -3475.7554   -3905.4871            0    1171.2121    18.104801    21.325064    22.087815    8527.7971    1254.2052    1474.0622    785.36876    349.41527    1115.7761    1041.8192 
  121000    251.17886   -3946.7674   -3516.2554   -3946.7674            0    2875.4425    18.004774    21.207245    21.965782    8387.2305    2893.9815    3029.7685    2702.5776   -340.42949   -292.95082    935.83594 
  121500     240.7589   -3944.5468   -3531.8943   -3944.5468            0    1154.5961    18.078593    21.294195    22.055842    8490.8173   -778.16336     2790.579    1451.3726   -60.313342    -1584.255   -260.99171 
  122000    259.52278   -3929.3674   -3484.5542   -3929.3674            0   -764.70754    18.168133     21.39966    22.165079    8617.6026   -970.19238   -130.46786   -1193.4624   -1088.8585   -729.27589   -230.93932 
  122500    245.63657   -3889.2882   -3468.2755   -3889.2882            0    1773.1365    18.057527    21.269381     22.03014    8461.1693    3150.3918    728.22558    1440.7921    111.10621   -1037.7136   -795.75882 
  123000     243.0128   -3959.5682   -3543.0525   -3959.5682            0    2248.9772    18.076925    21.292229    22.053806    8488.4663    2198.0694    3343.7094    1205.1528    1442.7331    672.99903   -41.917916 
  123500    255.54985   -3954.2906   -3516.2869   -3954.2906            0    1123.3254    18.088417    21.305766    22.067827    8504.6665    299.08702    1196.0717    1874.8176   -83.859805    -190.5184   -9.5155687 
  124000    254.13903   -3929.8646    -3494.279   -3929.8646            0    508.87291     18.06342    21.276323    22.037331    8469.4566   -254.31279    517.62555     1263.306    386.20443     375.4907    1240.7849 
  124500    245.90323   -3929.8764   -3508.4067   -3929.8764            0   -46.826481       18.028    21.234603    21.994118    8419.7313   -958.83966     -373.464    1191.8242    263.89588   -734.98274   -783.70489 
  125000    263.66117   -3917.6994   -3465.7932   -3917.6994            0    1680.3564    17.947582     21.13988    21.896008    8307.5583    1256.7059    1492.5049    2291.8586    771.62019   -29.515711    1040.2099 
  125500    254.37421    -3956.048   -3520.0593    -3956.048            0   -503.58144    18.055897    21.267461    22.028152     8458.878   -615.28201    158.29353   -1053.7558    658.40862    -2.596442    435.90516 
  126000    242.79979   -3926.4799   -3510.3293   -3926.4799            0   -110.52958    18.109656    21.330783    22.093739    8534.6601   -327.90197    67.793734   -71.480504   -923.70945    1529.2458    114.48768 
  126500    233.62361   -3968.4449   -3568.0221   -3968.4449            0   -643.51222    18.052856     21.26388    22.024443     8454.606   -311.23847   -148.39783   -1470.9003    366.72552    908.30058    920.33239 
  127000    265.51039   -3952.6267   -3497.5509   -3952.6267            0    1396.9963    17.965199    21.160631      21.9175    8332.0458    1505.9825    1963.4995    721.50698    -1250.757   -513.75006   -1112.5144 
  127500    252.13418   -3930.3131   -3498.1637   -3930.3131            0    965.54308    17.976426    21.173855    21.931198    8347.6772     430.3438    612.54616    1853.7393     421.6116   -344.99159   -809.91456 
  128000    260.81491   -3951.4437   -3504.4159   -3951.4437            0    2004.6691    17.976753     21.17424    21.931596    8348.1325    1478.9283    2346.6962    2188.3829   -759.39727   -377.62904   -618.58175 
  128500    247.55263   -3964.6825   -3540.3858   -3964.6825            0   -10.528434    18.048691    21.258975    22.019361    8448.7557    621.50059    174.11809   -827.20398   -212.69748     1151.644   -2073.3148 
  129000    264.49641   -3940.7059   -3487.3681   -3940.7059            0    1176.9031     18.01724    21.221928     21.98099     8404.664    346.92964    546.84939    2636.9302   -317.82105     1469.664   -270.57726 
  129500    247.64518   -3939.4439   -3514.9886   -3939.4439            0     1441.578     18.03782    21.246169    22.006098    8433.4971    762.80173    952.39202    2609.5401    21.891214   -12.461999    19.666369 
  130000    244.83675   -3965.8035   -3546.1617   -3965.8035            0    568.95652    18.145642    21.373169    22.137641    8585.6387    532.31535    1140.8002    33.753994   -539.57023    1177.4293    792.79356 
  130500    253.11807   -3921.2448   -3487.4091   -3921.2448            0    2167.6348    18.133252    21.358576    22.122525    8568.0638     2548.025    2064.9168    1889.9627   -386.96789    1724.5392    397.59664 
  131000    249.16709   -3970.9388   -3543.8749   -3970.9388            0    1305.0304    18.090266    21.307944    22.070082    8507.2744    772.06784    2693.8614    449.16182   -535.30344    230.05536   -166.01098 
  131500    248.44008   -3926.7471   -3500.9293   -3926.7471            0    1868.6617    17.926489    21.115036    21.870274    8278.3024    395.13837    2336.0366    2874.8101    414.78649    883.93114    765.16458 
  132000    258.14784   -3916.1535   -3473.6969   -3916.1535            0    1312.4156    18.086752    21.303805    22.065796    8502.3184    1356.7386    1724.6538    855.85454   -1626.5719    1552.7622   -214.06439 
  132500    254.85514   -3938.1267   -3501.3137   -3938.1267            0    870.21613    18.000868    21.202644    21.961016    8381.7732    944.68795    1855.5429   -189.58249    -677.0062    1272.7746   -1345.1675 
  133000    259.27205     -3949.97   -3505.5866     -3949.97            0    1051.1706    17.930019    21.119194    21.874582    8283.1946    435.67491    1655.0948    1062.7422   -573.22732    794.77122     291.4117 
  133500    235.07894   -3879.6783    -3476.761   -3879.6783            0    1058.4283    18.034472    21.242225    22.002013    8428.8022    700.40586    70.407263    2404.4719    910.02642   -72.775091   -191.70974 
  134000    252.38391   -3971.0599   -3538.4825   -3971.0599            0   -389.34514    18.023089    21.228818    21.988126    8412.8524   -1465.0237   -455.69184    752.68015    -395.3498    1061.9182   -615.52255 
  134500    261.00374   -3949.9871   -3502.6357   -3949.9871            0    559.71293      17.9974     21.19856    21.956786    8376.9305    503.08724    343.05553    832.99603   -311.25022   -1601.1109    62.076447 
  135000    237.55466   -3949.3227   -3542.1621   -3949.3227            0   -609.70002    18.015435    21.219802    21.978788    8402.1383   -1318.4877   -37.509969   -473.10242   -616.29642   -38.930989   -744.86583 
  135500    256.79919   -3945.4049   -3505.2599   -3945.4049            0    791.40936    17.933252    21.123002    21.878526    8287.6757     106.6474      589.123    1678.4577   -171.06275    100.34968   -310.82033 
  136000    255.00144   -3937.3077   -3500.2439   -3937.3077            0    445.15823     18.02746    21.233966    21.993459    8418.9746    1552.5435   -973.38939    756.32054     794.7463   -416.68932   -1206.9248 
  136500    259.11273    -3926.006   -3481.8956    -3926.006            0    3909.2861    17.894592    21.077465     21.83136    8234.1918    4369.3786    4855.3275    2503.1523    52.538228    167.67235   -410.57763 
  137000    250.16089   -3950.2345   -3521.4673   -3950.2345            0    985.06121    17.980995    21.179238    21.936772    8354.0445    3012.9484    259.66453   -317.42934   -276.85135    430.02946   -422.77193 
  137500    259.71806   -3892.0894   -3446.9415   -3892.0894            0    9.6411745    18.007961    21.210999     21.96967    8391.6851    311.91485    387.58265   -670.57398   -1397.8563    120.77441   -308.97212 
  138000    252.76408   -3920.2225   -3486.9935   -3920.2225            0     2028.285    17.884528    21.065612    21.819082    8220.3069    2586.1856    2402.5784    1096.0909   -42.893445    211.24506   -109.75845 
  138500    248.84563   -3907.3573   -3480.8444   -3907.3573            0    1059.7507    17.926641    21.115216     21.87046    8278.5137    526.57014    756.10937    1896.5726   -17.873223    915.03328   -454.08124 
  139000     238.7721   -3959.6704   -3550.4232   -3959.6704            0   -881.23694    18.009582    21.212909    21.971649    8393.9528   -554.15169   -1430.8973   -658.66187   -967.22754     1287.828    783.35847 
  139500     244.3346    -3885.796   -3467.0148    -3885.796            0    2736.1468    17.993818    21.194341    21.952416    8371.9297    1980.8602    4115.6389    2111.9414   -1880.1026    381.88806    708.36554 
  140000    246.21888   -3898.9445   -3476.9338   -3898.9445            0    2834.4294    17.953894    21.147315    21.903709    8316.3268    3665.3461    3177.3207    1660.6215   -658.43409   -9.4431627    158.08927 
  140500     250.3531   -3895.6649   -3466.5683   -3895.6649            0    376.56155    18.104891     21.32517    22.087925    8527.9241    172.01049    1725.0487   -767.37454   -1234.9766    536.18872    53.789118 
  141000     247.3208   -3928.2069   -3504.3075   -3928.2069            0    300.59958    17.951905    21.144972    21.901282     8313.563   -610.86076    127.50439    1385.1551     374.0006   -300.93361    414.83854 
  141500    256.35283   -3928.4691   -3489.0891   -3928.4691            0    1356.9747    17.944296    21.136011       21.892     8302.997    2306.5922    506.95151    1257.3803    937.48941    90.135151   -106.59958 
  142000    235.36239   -3885.6997   -3482.2966   -3885.6997            0     1709.444    17.906035    21.090944    21.845321    8249.9986    1506.9011    2230.2121    1391.2189    980.30345    323.45153    298.46468 
  142500    268.06186   -3908.9695   -3449.5206   -3908.9695            0     877.3371    17.912016    21.097989    21.852618    8258.2686    525.54225    857.58857    1248.8805    361.45139   -740.69593    -634.2302 
  143000    239.87164   -3914.1644   -3503.0326   -3914.1644            0   -241.80093    17.964675    21.160014    21.916861    8331.3169   -993.74494    175.92062    92.421547    668.75224    898.05439    527.98327 
  143500    251.43464   -3917.7449   -3486.7945   -3917.7449            0    1481.6224     17.92891    21.117888    21.873228     8281.657    1093.0818    2482.7873    868.99808    156.68386     1042.784    488.82308 
  144000    238.13082   -3903.4847   -3495.3366   -3903.4847            0    988.11638    18.033437    21.241007    22.000751    8427.3519    769.25907    2139.4875    55.602599    72.126723    1015.6696   -49.121336 
  144500    255.61465   -3917.0966   -3478.9818   -3917.0966            0    568.71169    17.945861    21.137853    21.893908    8305.1689    722.77967    476.33386    507.02155    28.050616    607.01686    715.70733 
  145000    250.50462   -3869.0129   -3439.6565   -3869.0129            0   -104.19243     18.02765    21.234191    21.993691    8419.2412   -339.55677     429.9428   -402.96333    555.88467    710.11241    -893.2594 
  145500     263.7767   -3897.2524   -3445.1482   -3897.2524            0    1089.5851    17.980505     21.17866    21.936175    8353.3615   -92.567189    1601.5938    1759.7285    110.24365    423.68316   -825.20576 
  146000    247.71049    -3907.362   -3482.7947    -3907.362            0    763.36199    17.886782    21.068266    21.821832    8223.4151    1088.9316    727.75092    473.40348    83.126208   -170.81453   -262.35578 
  146500    243.96652   -3896.5291   -3478.3788   -3896.5291            0    432.53972    17.987028    21.186344    21.944133     8362.456   -139.48784    1079.4961    357.61088   -157.14273    647.83544    999.41429 
  147000    238.41343    -3912.062   -3503.4295    -3912.062            0    2540.8771    17.767911    20.928252     21.67681    8060.5502    1141.1885    3351.5511    3129.8918    798.47503     676.6006    881.09668 
  147500    248.55737   -3911.7298    -3485.711   -3911.7298            0    1126.9797    17.827141    20.998018    21.749071    8141.4305   -933.91941    2017.3704    2297.4881    101.67257    1084.8302    964.15887 
  148000    243.12848   -3927.5505   -3510.8366   -3927.5505            0    2180.8589     17.77849    20.940713    21.689716    8074.9568    2673.9926    2493.4323    1375.1517   -5.0667222    1456.1081   -463.57877 
  148500    248.71188   -3901.7857    -3475.502   -3901.7857            0    1792.0584    17.799791    20.965803    21.715704    8104.0168    1109.4101     1536.617    2730.1481   -227.13795   -443.63342   -747.47445 
  149000    256.89757   -3863.3032   -3422.9896   -3863.3032            0    1747.7563    17.860021    21.036746    21.789184    8186.5607    2244.2018    1549.6954    1449.3717    979.34882    -28.70996   -174.83091 
  149500    253.71263   -3876.0255   -3441.1707   -3876.0255            0    2622.1006    17.787993    20.951907     21.70131    8087.9129     2471.866    3556.9347    1837.5013   -509.00438   -488.96933    1024.0707 
  150000    246.34071   -3911.2364   -3489.0169   -3911.2364            0   -119.26904     17.87783    21.057722    21.810911    8211.0745   -389.40719    227.35469   -195.75461     93.54536    12.505261    155.80581 
  150500    246.96032   -3917.0265    -3493.745   -3917.0265            0      1112.99    17.870572    21.049174    21.802057    8201.0788    466.48217    1344.9978    1527.4899    1151.3946    316.23722    176.75101 
  151000    253.26494   -3886.1956   -3452.1082   -3886.1956            0     1516.832     17.83939    21.012445    21.764014    8158.2229    823.45462      2269.16    1457.8813    238.46627   -879.89957   -155.66005 
  151500    257.28856   -3918.7984   -3477.8146   -3918.7984            0     971.6038    17.890324    21.072439    21.826154    8228.3023     257.2282    528.46888    2129.1143    1186.3664    674.75955     73.53009 
  152000    236.46514   -3896.4998   -3491.2066   -3896.4998            0    1113.9435    17.825451    20.996027    21.747009    8139.1152     1093.013     1740.682     508.1354    1630.9029    212.36777    1453.5922 
  152500    247.40984   -3924.2166   -3500.1646   -3924.2166            0   -387.94698    17.893046    21.075644    21.829474    8232.0578   -240.57057   -1159.5358    236.26541    71.562599    1138.0069    528.83699 
  153000    254.01531    -3901.979   -3466.6055    -3901.979            0    1177.6083        17.83    21.001385    21.752558    8145.3472    1211.6761    1560.1283    761.02065   -1453.1887    583.86473    -331.7986 
  153500    254.46923   -3890.5227   -3454.3712   -3890.5227            0    746.86999    17.835085    21.007374    21.758762    8152.3187    549.04259    661.76994    1029.7974   -737.58336    328.92372   -774.37215 
  154000    244.73776   -3914.8773   -3495.4051   -3914.8773            0    1387.9681    17.834768    21.007001    21.758375    8151.8839    1098.1996    2077.6731    988.03156   -1240.2971   -229.16775   -301.52002 
  154500     242.8166   -3926.8356   -3510.6563   -3926.8356            0    1158.6766    17.784756    20.948094    21.697361    8083.4984    1460.1277    241.48164    1774.4205    74.707826    207.35001   -388.11624 
  155000    266.33056   -3958.1097   -3501.6283   -3958.1097            0    357.72736    17.870534    21.049128     21.80201    8201.0257   -1552.3259     1736.238    889.26996   -224.20863    560.69797   -434.50499 
  155500    247.14082   -3940.3585   -3516.7676   -3940.3585            0   -98.121925    17.969276    21.165433    21.922474    8337.7198   -878.28555   -373.37552     957.2953    511.53242    685.09932    692.36869 
  156000    236.26124   -3960.1891   -3555.2454   -3960.1891            0    2059.9036    17.884712    21.065829    21.819307    8220.5613    1874.3385    1781.2891    2524.0832    353.16993    113.37935   -302.38513 
  156500    247.78748   -3950.4068   -3525.7075   -3950.4068            0    1372.6614    17.912052    21.098031    21.852661    8258.3177    696.79421    1764.2561    1656.9339   -267.62328   -133.10263   -900.19984 
  157000     248.2932    -3939.463   -3513.8969    -3939.463            0    214.17295    17.883329    21.064199     21.81762    8218.6537    399.47402    168.57435    74.470469    -133.9354    337.75487   -954.30198 
  157500     245.6513   -3931.9926   -3510.9547   -3931.9926            0    1119.0788    17.998713    21.200106    21.958388    8378.7637    1755.0026    565.81089    1036.4229    533.14044    573.76988    346.99191 
  158000    245.25353   -3933.6777   -3513.3215   -3933.6777            0    819.02515    17.904141    21.088713     21.84301    8247.3805   -62.601496    280.92755    2238.7494    357.19083   -1474.5609   -111.45164 
  158500    253.23976   -3944.6436   -3510.5993   -3944.6436            0    1604.0589    17.934252     21.12418    21.879746    8289.0621    1318.9034    2360.0476    1133.2257   -611.13873   -46.528594   -452.90632 
  159000    244.67756    -3926.238    -3506.869    -3926.238            0    1484.2667    17.917574    21.104535    21.859398    8265.9583    1035.3255     1657.564    1759.9107    1063.4852   -793.29365   -52.964917 
  159500    247.07482   -3912.2725   -3488.7947   -3912.2725            0    499.64648    17.947142    21.139363    21.895471    8306.9478    1008.1546    451.01848    39.766346    530.22159    174.70931    624.75209 
  160000    255.77832   -3902.3835   -3463.9882   -3902.3835            0    1273.5435    17.962633    21.157609     21.91437    8328.4767     719.8029   -301.20741    3402.0349   -66.835019   -26.249525   -685.52096 
  160500    255.91097   -3924.7843   -3486.1617   -3924.7843            0     971.6906    17.930828    21.120147    21.875569    8284.3157    122.31395    789.26667    2003.4912    1440.2188   -313.94973   -672.96961 
  161000    247.12296   -3952.6921   -3529.1318   -3952.6921            0    1239.1249    17.852981    21.028454    21.780595    8176.8839    957.10359    1646.2516    1114.0194    1029.8555   -806.61955    679.41691 
  161500    256.67614   -3936.6576   -3496.7234   -3936.6576            0   -1532.9781    17.950573    21.143404    21.899658    8311.7136   -1686.3446   -1298.0862   -1614.5036    284.87897    462.69741   -197.28892 
  162000    242.66983   -3920.9911   -3505.0634   -3920.9911            0   -619.53782    17.917419    21.104353     21.85921    8265.7442   -851.69794   -2658.1475     1651.232    -1094.693   -976.83387   -379.35436 
  162500    256.49358   -3926.5895   -3486.9683   -3926.5895            0    520.37694    17.859186    21.035762    21.788165    8185.4127   -701.90139    227.60634    2035.4259   -127.76962    245.70506    474.63177 
  163000    255.48834   -3921.6753    -3483.777   -3921.6753            0    1540.7609    17.885695    21.066986    21.820506    8221.9157    2267.5962   -160.88623    2515.5727    114.70071    -812.5862    -995.4764 
  163500    233.49373   -3924.8919   -3524.6917   -3924.8919            0    1447.0847     17.91481     21.10128    21.856026    8262.1332    774.85438     3697.789   -131.38914   -144.94122   -1193.7218   -276.32106 
  164000     253.0518   -3932.1976   -3498.4755   -3932.1976            0    1987.7487    17.914747    21.101205    21.855949    8262.0457     2110.973    1159.0834    2693.1897   -1442.8484    244.58884   -480.68837 
  164500    256.12755   -3899.0299    -3460.036   -3899.0299            0   -88.876818    18.027699    21.234248     21.99375    8419.3091    431.63571     60.91725   -759.18341     365.5006    611.40177    27.855355 
  165000    256.11705   -3920.6144   -3481.6385   -3920.6144            0    1150.3213    17.897045    21.080354    21.834353    8237.5781    378.29472    1503.3276    1569.3415   -475.83697   -121.83267   -798.99989 
  165500    245.12247   -3901.9838   -3481.8523   -3901.9838            0    1807.5485    17.946626    21.138755    21.894842    8306.2318    1489.4207    2593.5059     1339.719    212.12225   -445.57765   -77.816226 
  166000    263.76415   -3910.5511   -3458.4683   -3910.5511            0    1013.4843    17.948553    21.141025    21.897193    8308.9078    468.28251    296.46189    2275.7086    101.55347   -1561.1014   -891.87413 
  166500    245.27246   -3915.9792   -3495.5906   -3915.9792            0    1892.9461    17.957863    21.151991    21.908551    8321.8438    2631.1193    424.14883    2623.5701   -77.453774   -1223.8813   -1121.5896 
  167000    244.22337   -3926.6925    -3508.102   -3926.6925            0    247.14695    17.919066    21.106293    21.861218     8268.023   -487.21089    822.57194     406.0798    140.88891     849.1706    528.05923 
  167500    243.68653   -3908.4996   -3490.8293   -3908.4996            0    1653.2572    17.975257    21.172478    21.929771    8346.0482    1597.0554    1483.9003    1878.8158    -783.9939   -447.71485     471.1466 
  168000    254.67807   -3869.2245    -3432.715   -3869.2245            0    2345.1941     17.87616    21.055756    21.808874    8208.7743    2180.1552    2420.1608    2435.2665    -902.9271   -1768.8738    352.17079 
  168500    257.40626    -3906.368   -3465.1825    -3906.368            0   -22.854654    17.995671    21.196524    21.954677    8374.5166    393.25711   -1390.5204    928.69937   -66.499104    120.32099   -485.33511 
  169000    250.96503   -3889.2819   -3459.1365   -3889.2819            0    2147.9868    17.843337    21.017094    21.768829    8163.6394    3021.1329    2141.7598    1281.0678   -399.59383    487.21509   -34.862955 
  169500    251.15386   -3939.7198   -3509.2507   -3939.7198            0    857.79594    17.902768    21.087096    21.841336    8245.4842    1285.1431    284.63566    1003.6091    -658.4403    122.09885   -430.09725 
  170000    238.01804   -3884.1886   -3476.2338   -3884.1886            0    1933.9454     17.98263    21.181163    21.938767    8356.3235    150.81677     3181.062    2469.9574    762.58955   -721.97726    20.126216 
  170500    245.68411   -3928.5064   -3507.4123   -3928.5064            0    2151.5765     17.96618    21.161786    21.918697    8333.4108    2365.6162    1999.2521    2089.8613    154.37926    421.39402   -255.53457 
  171000    239.23252   -3886.9756   -3476.9393   -3886.9756            0    464.48236    17.962716    21.157706    21.914471    8328.5918    2292.6215    -774.9844   -124.19002    198.73211   -838.67985    294.15946 
  171500    247.33762   -3903.8148   -3479.8866   -3903.8148            0    357.63741    17.880277    21.060604    21.813896    8214.4462     1051.358     700.6432   -679.08902    246.24009   -1205.1344    466.41633 
  172000      242.665   -3910.4403   -3494.5207   -3910.4403            0    2607.9053    17.831638    21.003314    21.754556     8147.592    4052.6137    1088.4715    2682.6306   -777.96994   -1603.4289   -75.307305 
[...]
  460500    266.67078   -3940.9681   -3483.9035   -3940.9681            0    1236.2702    17.823165    20.993334     21.74422    8135.9839    2424.0178   -283.59685    1568.3896   -79.678764   -408.72085    707.52506 
  461000    250.33032   -3906.1056    -3477.048   -3906.1056            0     1009.352    17.889793    21.071813    21.825506    8227.5691    2009.8187    1771.1046   -752.86727   -587.13869   -317.92168   -2041.7673 
  461500    249.49339   -3897.9604   -3470.3372   -3897.9604            0    1882.0823    17.840772    21.014072      21.7657     8160.119   -83.838364    3789.9644    1940.1208   -1657.5227     17.46941    1375.8891 
  462000    248.19081   -3839.9666    -3414.576   -3839.9666            0    1896.9598    17.927603    21.116348    21.871633    8279.8456    2200.6414    2616.6668    873.57122    401.23481   -1113.6715    195.05989 
  462500    259.55093    -3870.206   -3425.3446    -3870.206            0    1922.8951    17.849461    21.024307    21.776301    8172.0481    2603.7792    2191.2118    973.69425    799.36436    675.06286    888.36555 
  463000    257.75053   -3938.3256     -3496.55   -3938.3256            0    2203.9184    17.814543    20.983179    21.733701    8124.1824      1725.31     2536.065    2350.3803     1697.875    -208.1792   -110.84505 
  463500    256.21233   -3902.2745   -3463.1354   -3902.2745            0    2309.4297     17.85112    21.026261    21.778325    8174.3266    2295.7971     2175.781    2456.7108    566.98007    -1147.726   -86.249748 
  464000    270.49209   -3908.0449   -3444.4307   -3908.0449            0    1126.3452    17.942197    21.133538    21.889438    8300.0831    1181.4539    196.81354    2000.7681    1281.8888    775.80183   -598.93815 
  464500    230.09509   -3938.2256   -3543.8505   -3938.2256            0    1664.6266     17.88396    21.064942    21.818389    8219.5235    2274.2912    109.79869    2609.7901    529.63595   -377.99572    88.057486 
  465000    240.39804    -3914.941    -3502.907    -3914.941            0    2700.1184    17.847369    21.021843    21.773749    8169.1752    2604.3569    4119.1367    1376.8616    539.90278    520.72337   -458.28946 
  465500    249.17625   -3908.7242   -3481.6446   -3908.7242            0     813.4382    17.853406    21.028954    21.781114    8177.4676    1301.3654    1450.1073   -311.15811    265.70072   -50.062018   -645.55105 
  466000    253.41718   -3900.0027   -3465.6543   -3900.0027            0    2093.4748    17.947419    21.139689    21.895809    8307.3324    875.47782    2302.6416    3102.3049   -26.648243    755.74518   -703.09404 
  466500    258.18323   -3950.0527   -3507.5355   -3950.0527            0      666.456    17.890862    21.073073     21.82681    8229.0444    582.58237    974.14505    442.64058   -599.65493    460.68509   -23.234948 
  467000    239.89845    -3887.995   -3476.8173    -3887.995            0   -1140.1141     17.96091    21.155579    21.912268    8326.0801   -1415.5798   -1665.5649   -339.19761   -22.787094    617.04345    156.94262 
  467500    250.36068   -3944.9232   -3515.8136   -3944.9232            0    344.65054     17.89068    21.072858    21.826588    8228.7933   -1174.6691    467.41028    1741.2104    996.82315   -463.60269    670.58512 
  468000    248.31713   -3930.9066   -3505.2995   -3930.9066            0    1648.5741    17.843769    21.017603    21.769357    8164.2328     973.8036    60.405357    3911.5132    546.80533    248.62131   -605.48705 
  468500    251.10916   -3927.8223   -3497.4298   -3927.8223            0     197.9395    17.867834    21.045948    21.798716    8197.3092    298.50595    7.3488417    287.96371    1521.7308   -1116.7786    332.96312 
  469000    245.06548    -3907.432   -3487.3982    -3907.432            0    1229.7307    17.939027    21.129804     21.88557    8295.6841    846.56677    1601.5815    1241.0439     1487.685    1953.2006    -292.6676 
  469500    237.51538   -3909.1864   -3502.0932   -3909.1864            0     2297.761    17.865448    21.043138    21.795804    8194.0253    210.44674     2721.196    3961.6404    49.891801    408.83073   -719.50452 
  470000    251.12881   -3918.7948   -3488.3686   -3918.7948            0    841.69266    17.883741    21.064684    21.818122    8219.2212    1257.7446     739.9804    527.35301    328.49047    275.22258    -563.2403 
  470500    249.66007   -3918.4688     -3490.56   -3918.4688            0    1029.3121     17.86627    21.044107    21.796808    8195.1574   -359.47892    664.46283    2782.9524   -21.891398   -209.78279   -238.98883 
  471000    265.26441   -3883.2263   -3428.5722   -3883.2263            0    1838.6042    17.884861    21.066004    21.819488     8220.766     2249.061    1676.9318    1589.8197    361.97425   -607.01541    144.35183 
  471500    253.43654    -3885.547   -3451.1654    -3885.547            0    1432.1783    17.836082    21.008549    21.759979     8153.686    -617.0903    1824.7243    3088.9009   -1340.7079    715.82171   -233.40776 
  472000    267.82044   -3870.0409   -3411.0058   -3870.0409            0    626.51925    17.869105    21.047445    21.800266     8199.058    1717.9557    340.94727   -179.34525   -104.21047   -939.35378    933.70997 
  472500    256.01193   -3882.0322   -3443.2365   -3882.0322            0    508.84213    17.856321    21.032387     21.78467    8181.4735    -1121.763    1542.6228    1105.6667   -1563.7263    890.34668   -655.39331 
  473000    250.62258   -3888.2279   -3458.6694   -3888.2279            0   -370.23825    17.936995    21.127411    21.883092    8292.8661   -349.19203    313.87027    -1075.393    -475.6068   -4.8448817    186.47757 
  473500    251.19549   -3919.2058   -3488.6654   -3919.2058            0    1191.6418    17.830916    21.002464    21.753676     8146.603    388.68115    1398.9189    1787.3252   -1098.1618    662.44567   -113.39862 
  474000    246.90541   -3935.1695   -3511.9821   -3935.1695            0    2180.5761    17.755763    20.913944     21.66199    8044.0293    2429.2615    529.75207    3582.7148   -271.80028    866.14378   -1649.7826 
  474500    255.32933   -3898.2076   -3460.5819   -3898.2076            0    377.63541    17.892218    21.074669    21.828464    8230.9149    643.75204   -23.231092     512.3853    1195.6558     345.9994   -114.17237 
  475000    251.06067   -3888.2012   -3457.8918   -3888.2012            0   -1121.6244     18.02399     21.22988    21.989226    8414.1148   -1798.4971   -795.24653   -771.12954   -363.83195    447.94014   -824.53964 
  475500    241.85373   -3931.4583   -3516.9293   -3931.4583            0    1575.6361    17.828952     21.00015     21.75128    8143.9112    1279.7244    1879.9468    1567.2372   -467.11848    727.12771   -719.02789 
  476000    257.25591   -3870.8697   -3429.9419   -3870.8697            0    1470.2814    17.942413    21.133793    21.889702    8300.3832    1300.0162    1041.1542    2069.6738   -477.28545     67.90897    1216.9506 
  476500    251.73199   -3938.6842   -3507.2242   -3938.6842            0   -153.97475    17.942489    21.133882    21.889795    8300.4891   -983.07059    747.01551   -225.86917    922.91001    552.09714    669.86072 
  477000    254.85939   -3899.6603     -3462.84   -3899.6603            0    70.441533    17.896988    21.080287    21.834283    8237.4996    405.35903   -1131.8956    937.86122   -337.75512    80.190682    936.56981 
  477500    262.18582   -3914.2046   -3464.8271   -3914.2046            0   -206.33168    17.951562    21.144568    21.900863    8313.0863   -1337.4679   -814.68196    1533.1549     598.0839    4.3138918   -1093.5015 
  478000    252.76456   -3964.3247   -3531.0949   -3964.3247            0    538.28701    17.902246    21.086481    21.840698    8244.7623    2901.6491    1263.5841   -2550.3722   -143.21332   -1070.7374    1037.5739 
  478500    250.75928   -3926.3062   -3496.5134   -3926.3062            0     791.1899    17.917572    21.104533    21.859396    8265.9556    1533.6071    197.96963    641.99292    998.37547   -52.487075    123.77003 
  479000    254.75666   -3942.4463   -3505.8021   -3942.4463            0    410.87927    18.032359    21.239737    21.999436    8425.8399    61.613072    910.92365    260.10108     349.3781   -1018.8256    1019.2336 
  479500     228.1503   -3966.4725   -3575.4307   -3966.4725            0    263.19711    18.033109    21.240621    22.000351    8426.8921    1873.4418    84.263941   -1168.1144   -1338.9126   -334.87469     207.7839 
  480000    248.14408   -3933.4944   -3508.1839   -3933.4944            0    1355.2882    18.032491    21.239892    21.999597    8426.0253    834.33653    846.33063    2385.1974   -144.96085    653.35342    180.10147 
  480500     253.3476   -3921.8494   -3487.6203   -3921.8494            0    722.27927    18.009549     21.21287    21.971608    8393.9066    988.18842    1315.6111    -136.9617   -663.85314    -748.7081   -706.92239 
  481000    235.77627   -3945.3305   -3541.2181   -3945.3305            0    211.35064    18.073991    21.288774    22.050227    8484.3346    260.00043    810.62456   -436.57306   -918.68609      1100.02    353.65494 
  481500    245.31022   -3956.3777   -3535.9244   -3956.3777            0    2764.4521    17.923299    21.111279    21.866383     8273.884    4235.4624    3518.7652    539.12859    41.012965   -417.95427    718.22908 
  482000     235.8006   -3947.6156   -3543.4615   -3947.6156            0   -78.945194    18.121022     21.34417    22.107604    8550.7384   -201.61788    1238.4709   -1273.6886   -51.938212   -166.23542    159.77908 
  482500    249.67809   -3900.4222   -3472.4825   -3900.4222            0    559.77084    18.000774    21.202534    21.960902    8381.6419   -298.27372    849.12589    1128.4603   -934.35096   -1043.2192    1043.6345 
  483000    245.95235   -3950.9477   -3529.3938   -3950.9477            0    672.68689    18.000654    21.202393    21.960756    8381.4746     -1568.46    773.38022    2813.1405   -1358.5706   -43.041273   -240.10108 
  483500    261.10212   -3913.9742   -3466.4541   -3913.9742            0    1722.6059    17.964266    21.159532    21.916362     8330.748    2437.0701    751.59883    1979.1489    211.57544    910.97859     722.3725 
  484000     259.1651   -3940.4833   -3496.2832   -3940.4833            0    1915.6413    17.857836    21.034172    21.786519     8183.557    1800.4589    809.57683    3136.8883   -679.39572   -1242.0695   -532.07361 
  484500    260.20059   -3924.2192   -3478.2443   -3924.2192            0    113.16878     18.02325    21.229008    21.988323    8413.0778    984.56007   -914.28624     269.2325    144.20589   -644.74491   -324.70765 
  485000    247.23718   -3898.9081    -3475.152   -3898.9081            0    1824.9867    17.934453    21.124417    21.879991    8289.3406     2444.781    652.30094    2377.8783    521.93266   -869.76251    -657.9053 
  485500    248.77849   -3925.3264   -3498.9286   -3925.3264            0    1850.6975    17.941807    21.133078    21.888962    8299.5414    3166.3129    1961.6836     424.0961   -955.21535   -149.16535    1031.5035 
  486000    259.20023   -3946.5237   -3502.2634   -3946.5237            0    944.71979    17.910719    21.096462    21.851036    8256.4752    1346.9908   -378.35792    1865.5265    372.75846    309.52781    1647.9184 
  486500    252.92143   -3944.2208   -3510.7221   -3944.2208            0    1065.7269     17.95274    21.145956    21.902301    8314.7236    628.79088    1329.2072    1239.1826    177.80847   -1259.7205   -128.00205 
  487000     265.9013    -3929.309   -3473.5633    -3929.309            0    715.63776    17.981108    21.179371     21.93691     8354.202     1387.312   -165.62181     925.2231    939.46058   -465.17793     422.3647 
  487500    239.68722   -3917.1231   -3506.3075   -3917.1231            0    1186.6264    17.942542    21.133945     21.88986    8300.5628    1071.4477    1423.4815    1064.9499    54.472172   -930.26225   -448.24577 
  488000    263.63518   -3915.7318   -3463.8702   -3915.7318            0   -5.4521055    17.967914     21.16383    21.920813    8335.8249   -634.78134   -391.97032    1010.3953    716.22487    -323.7201    842.22117 
  488500    250.65221   -3897.1367   -3467.5274   -3897.1367            0    1277.8362    17.878899    21.058981    21.812215    8212.5475    1403.3523    2529.1948   -99.038502    409.68118   -611.88536   -1647.5335 
  489000    246.22103    -3954.833   -3532.8186    -3954.833            0    1760.1281    17.879318    21.059475    21.812727    8213.1254    1035.9301    1561.0507    2683.4035   -1495.9449    1071.0388   -940.39514 
  489500    265.99816   -3943.7119   -3487.8001   -3943.7119            0    552.14271    17.996224    21.197175    21.955351    8375.2879    148.43538    1060.3541    447.63862   -44.094176    758.28256   -1022.5204 
  490000    240.94088   -3911.2067   -3498.2423   -3911.2067            0    1610.7237    17.902182    21.086405     21.84062    8244.6736     2380.635     2833.865   -382.32908    -436.9164    1130.8971    436.83669 
  490500    249.76465   -3941.8102   -3513.7221   -3941.8102            0     2131.978    17.918821    21.106005     21.86092    8267.6847    1798.3926    2039.1166    2558.4246    179.62949   -723.79209    -560.2661 
  491000    251.31519   -3950.6661   -3519.9205   -3950.6661            0    1528.6515     17.91365    21.099913    21.854611    8260.5282    649.41397    1775.9075    2160.6331    625.50029    1149.5534    113.68856 
  491500    244.62709    -3940.343   -3521.0606    -3940.343            0    1635.4882    17.896852    21.080127    21.834117     8237.312    2610.9468    1420.7039    874.81385   -1132.1159    476.56087   -527.77192 
  492000    252.84312   -3913.1194   -3479.7549   -3913.1194            0    2484.2532    17.813575    20.982038    21.732519    8122.8573    3102.1059    2206.8304    2143.8232   -581.43997   -728.71106   -1268.7115 
  492500    242.22629   -3955.2604   -3540.0928   -3955.2604            0    1435.5826    17.901365    21.085444    21.839624    8243.5457    1891.9018    2230.0349    184.81114   -600.61713    548.94589   -440.23089 
  493000    252.09143   -3970.7031    -3538.627   -3970.7031            0    2500.9511     17.84198    21.015496    21.767174    8161.7777     3463.332     1504.321    2535.2002    167.72418    1062.1479   -923.99075 
  493500    250.55263   -3959.4488   -3530.0101   -3959.4488            0    2151.0674     17.86249    21.039654    21.792196    8189.9566    1412.2304     2490.416    2550.5558     473.5555   -490.20167    567.52966 
  494000    258.30905   -3940.0595   -3497.3266   -3940.0595            0    1340.3005    17.870914    21.049576    21.802473    8201.5491    1133.5264    1620.8364    1266.5388    -155.5283   -70.813563   -888.55644 
  494500    271.14888   -3951.1824   -3486.4425   -3951.1824            0    3090.4901    17.776949    20.938898    21.687837    8072.8575    2194.1642    4075.9716    3001.3344    1646.8044    205.51597   -631.89977 
  495000    249.64907   -3927.8608   -3499.9709   -3927.8608            0    1283.9591    17.844769    21.018781    21.770577    8165.6057    1281.2967    499.91431    2070.6664    1155.6442    865.77081    22.671109 
  495500    230.14139   -3953.5844     -3559.13   -3953.5844            0   -815.64423    17.965289    21.160737    21.917611    8332.1718   -452.67064   -801.34409    -1192.918    313.78771    143.40588   -590.61616 
  496000    256.94012   -3927.3332   -3486.9466   -3927.3332            0    599.50647    17.935653     21.12583    21.881454    8291.0043    1219.0112    682.00012   -102.49188    368.69242   -757.34952    192.49416 
  496500    249.72189   -3927.4427   -3499.4279   -3927.4427            0    331.99349     18.00326    21.205463    21.963936    8385.1161   -29.643667    1164.1356   -138.51152    1396.7955   -223.06385   -751.55536 
  497000    241.36332   -3942.1869   -3528.4984   -3942.1869            0   -147.65978    18.023469    21.229266     21.98859    8413.3844    -201.6821   -312.72585    71.428605   -245.61712   -556.59332     934.7453 
  497500    245.03824   -3931.7733   -3511.7861   -3931.7733            0    1015.5391    17.964623    21.159952    21.916798    8331.2445    1235.4962     1136.058    675.06302   -766.57931    -672.6614      948.031 
  498000    248.66009   -3944.3351   -3518.1402   -3944.3351            0    359.15952    17.999479    21.201009    21.959322    8379.8336    1604.2222   -1356.4614     829.7177   -682.54895   -589.94094    556.21259 
  498500    244.55481    -3930.867   -3511.7085    -3930.867            0     583.3281    17.981661    21.180022    21.937584    8354.9722   -618.50328    1605.4942    762.99336    221.45626    382.63792    1231.1455 
  499000    247.38295   -3968.5057   -3544.4998   -3968.5057            0   -624.09255    17.966431    21.162082    21.919003    8333.7603   -601.44151    191.65213   -1462.4883    295.35282   -30.171085    186.82145 
  499500     260.0862   -3949.9053   -3504.1265   -3949.9053            0    844.46291    17.987041    21.186358    21.944148    8362.4733    1824.4519    454.80439    254.13243    599.36308   -978.41522   -1049.0241 
  500000    255.69054   -3953.6463   -3515.4015   -3953.6463            0   -307.55153    17.913801    21.100092    21.854796    8260.7378   -679.84423    532.96841   -775.77879    175.27642    595.21742   -116.40789 
Loop time of 1164.5 on 16 procs for 500000 steps with 864 atoms

Performance: 74.195 ns/day, 0.323 hours/ns, 429.370 timesteps/s
1588.0% CPU use with 1 MPI tasks x 16 OpenMP threads

MPI task timing breakdown:
Section |  min time  |  avg time  |  max time  |%varavg| %total
---------------------------------------------------------------
Pair    | 215.99     | 215.99     | 215.99     |   0.0 | 18.55
Bond    | 10.222     | 10.222     | 10.222     |   0.0 |  0.88
Kspace  | 656.84     | 656.84     | 656.84     |   0.0 | 56.41
Neigh   | 12.897     | 12.897     | 12.897     |   0.0 |  1.11
Comm    | 50.77      | 50.77      | 50.77      |   0.0 |  4.36
Output  | 3.0764     | 3.0764     | 3.0764     |   0.0 |  0.26
Modify  | 213.6      | 213.6      | 213.6      |   0.0 | 18.34
Other   |            | 1.115      |            |       |  0.10

Nlocal:        864.000 ave         864 max         864 min
Histogram: 1 0 0 0 0 0 0 0 0 0
Nghost:        6836.00 ave        6836 max        6836 min
Histogram: 1 0 0 0 0 0 0 0 0 0
Neighs:        238976.0 ave      238976 max      238976 min
Histogram: 1 0 0 0 0 0 0 0 0 0

Total # of neighbors = 238976
Ave neighs/atom = 276.59259
Ave special neighs/atom = 2.0000000
Neighbor list builds = 24566
Dangerous builds = 0

unfix		3
unfix		2
unfix		1

write_data	data.final.${pid}
write_data	data.final.0
System init for write_data ...
PPPM initialization ...
  extracting TIP4P info from pair style
  using 12-bit tables for long-range coulomb (../kspace.cpp:340)
  G vector (1/distance) = 0.37279851
  grid = 24 25 25
  stencil order = 5
  estimated absolute RMS force accuracy = 0.0031553217
  estimated relative force accuracy = 9.5021575e-06
  using double precision FFTW3
  3d grid and FFT values/proc = 33792 15000
Last active /omp style is kspace_style pppm/tip4p/omp
WARNING: Not all mixed pair coeffs generated from mixing. Use write_data with 'pair ij' option to store all pair coeffs. (../write_data.cpp:312)

write_restart   restart.lmp.${pid}
write_restart   restart.lmp.0
System init for write_restart ...
PPPM initialization ...
  extracting TIP4P info from pair style
  using 12-bit tables for long-range coulomb (../kspace.cpp:340)
  G vector (1/distance) = 0.37279851
  grid = 24 25 25
  stencil order = 5
  estimated absolute RMS force accuracy = 0.0031553217
  estimated relative force accuracy = 9.5021575e-06
  using double precision FFTW3
  3d grid and FFT values/proc = 33792 15000
Last active /omp style is kspace_style pppm/tip4p/omp
Total wall time: 0:19:24
