LAMMPS data file via write_data, version 30 Jul 2021, timestep = 46250000

972 atoms
2 atom types
648 bonds
1 bond types
324 angles
1 angle types

0.03553190504502801 19.964469094912296 xlo xhi
0.06927567095757858 19.930725329020163 ylo yhi
0.047435298049173014 20.652562701941306 zlo zhi

Masses

1 1.008
2 15.999

Pair Coeffs # lj/cut/tip4p/long/omp

1 0 0
2 0.21084 3.1668

Bond Coeffs # harmonic/omp

1 450 0.9572

Angle Coeffs # harmonic/omp

1 55 104.52

Atoms # full

10 4 2 -1.1794 1.1254680158795896 4.177997785905607 3.865629325787746 0 0 0
11 4 1 0.5897 1.043915133569181 3.3992632233265603 3.3151186273963344 0 0 0
12 4 1 0.5897 2.0639575628387776 4.251906858899525 4.039328218562487 0 0 0
33 11 1 0.5897 1.613069137854223 2.3893458574428683 1.4368099342353393 0 0 0
31 11 2 -1.1794 0.9911557391708126 2.0866718483255857 2.0985283470257863 0 0 0
18 6 1 0.5897 4.016293274154888 3.169072585393865 3.5065612189684825 0 0 0
4 2 2 -1.1794 4.248738838102437 1.368786400272045 3.3644174164251393 0 0 0
16 6 2 -1.1794 3.887768055546572 4.084742758189837 3.7538991976131597 0 0 0
23 8 1 0.5897 2.8191017370792775 1.00031078561397 4.390440799498455 0 0 0
5 2 1 0.5897 4.34093438350613 0.7249222070609128 2.6622146193423717 0 0 0
17 6 1 0.5897 4.147908133726443 4.5816046468331 2.9782555876912467 0 0 0
132 44 1 0.5897 1.1153240102772437 7.520521376705184 5.0915916307474225 0 0 0
236 79 1 0.5897 0.9937543731765304 0.33857655794814695 1.939498523243356 0 1 0
13 5 2 -1.1794 4.613278461916544 5.811133385870737 1.7068037969339258 0 0 0
3 1 1 0.5897 3.6003618937941524 2.647868797662768 0.2052256884464518 0 0 0
130 44 2 -1.1794 2.0701005771956504 7.452042262293013 5.080776962896669 0 0 0
140 47 1 0.5897 1.0123952573426402 9.303121864620712 2.9035438907296904 0 0 0
6 2 1 0.5897 4.909530214386027 1.1166574142521424 4.009444736170005 0 0 0
22 8 2 -1.1794 2.118816658496921 0.9044733063668486 5.035967901730406 0 0 0
19 7 2 -1.1794 0.8147046699286152 6.0445309516223045 1.916066095629041 0 0 0
15 5 1 0.5897 4.416854147002898 6.636214826877241 2.1504392345237164 0 0 0
20 7 1 0.5897 0.9356587802256846 5.465803177547981 2.668790679419282 0 0 0
126 42 1 0.5897 4.158840384284875 9.778963380234904 3.4518059074260465 0 0 0
111 37 1 0.5897 3.4536006557476755 9.361635792405165 0.29532443251918894 0 0 0
110 37 1 0.5897 2.0306845915918768 9.219962001795325 0.7928137122383261 0 0 0
32 11 1 0.5897 0.13073844454744535 2.267360939802379 1.7198611063657836 0 0 0
674 225 1 0.5897 1.918234883088775 5.710510818762621 0.5535450798760863 0 0 1
114 38 1 0.5897 3.3662448764827837 7.7347587644717954 3.8275467099453118 0 0 0
139 47 2 -1.1794 0.8595690142256259 8.843873468028878 2.0777762634435 0 0 0
14 5 1 0.5897 3.9651895414364184 5.756111288981371 1.0045061171720997 0 0 0
112 38 2 -1.1794 4.17598601333715 7.958386374007144 3.368592952689373 0 0 0
141 47 1 0.5897 0.8897249325144688 7.91584787985579 2.310160932645929 0 0 0
113 38 1 0.5897 4.872318830973973 7.724458407568068 3.9823353580524863 0 0 0
102 34 1 0.5897 0.29555015461468664 0.9048570296622145 5.051642628992971 1 0 0
325 109 2 -1.1794 2.6953301852561564 2.512907992986654 7.161254563807968 0 0 0
326 109 1 0.5897 2.4827623333503412 1.963404162484704 6.406920525486829 0 0 0
327 109 1 0.5897 3.646279812399596 2.4446997215919133 7.2475417833894475 0 0 0
355 119 2 -1.1794 0.7973827568447451 2.041892634574789 9.117139108917117 0 0 0
356 119 1 0.5897 1.538185798104426 2.1793563477447817 8.526703230444328 0 0 0
27 9 1 0.5897 2.5163867969382436 4.297786029887313 6.611040187274147 0 0 0
329 110 1 0.5897 4.161635277490835 0.7513531854485477 9.563290577900723 0 0 0
342 114 1 0.5897 4.10239386767652 4.750290381673872 9.775055257220108 0 0 0
328 110 2 -1.1794 4.058454405891449 1.4789361977010589 10.176579485316463 0 0 0
341 114 1 0.5897 3.9912027219819373 3.3260288137539797 10.275848880805446 0 0 0
561 187 1 0.5897 0.7157548540724039 0.2233301942253238 8.909622192191275 0 1 0
26 9 1 0.5897 1.8477066111895575 5.488927652075707 7.263610670028934 0 0 0
468 156 1 0.5897 4.476671430922831 9.098393362963431 7.391476039577558 0 0 0
131 44 1 0.5897 2.2566288715906646 6.627050752299856 5.528826545141092 0 0 0
343 115 2 -1.1794 0.722600891738494 5.859756396900313 8.573022897016374 0 0 0
438 146 1 0.5897 4.138482929688379 8.908325367699835 10.056001696464502 0 0 0
25 9 2 -1.1794 2.5048676776244556 5.254864506260144 6.608152124392101 0 0 0
464 155 1 0.5897 1.4361092875343677 8.721980652215372 8.465162575554192 0 0 0
344 115 1 0.5897 0.9677378095079927 5.424774711738293 9.3896410341157 0 0 0
337 113 2 -1.1794 4.426882747509129 5.983824566928699 8.516015755951239 0 0 0
435 145 1 0.5897 2.44429327135869 8.617353946412486 6.453332216153523 0 0 0
433 145 2 -1.1794 2.658407905923276 9.099823870977554 7.251793463167245 0 0 0
345 115 1 0.5897 0.7479141899370163 6.793572270635446 8.781564017986948 0 0 0
437 146 1 0.5897 4.215952256629847 7.484111915198899 9.548771301611279 0 0 0
339 113 1 0.5897 3.959142874693447 5.750394199915964 7.71417852537356 0 0 0
463 155 2 -1.1794 0.6774245318579889 8.530408931685013 9.01653424737528 0 0 0
335 112 1 0.5897 0.9709003361130659 3.4174458002080845 10.221886739290836 0 0 0
443 148 1 0.5897 1.0100897865459397 9.886107628353345 10.247924790778356 0 0 0
649 217 2 -1.1794 2.666904701317543 2.5827556659878987 13.835109143379313 0 0 0
650 217 1 0.5897 2.4112532426962567 1.9929638956305613 13.125917093063945 0 0 0
651 217 1 0.5897 2.1170804543054045 2.322010791820817 14.57398819930772 0 0 0
348 116 1 0.5897 2.565675096126556 0.9423301378151472 11.091350931886458 0 0 0
346 116 2 -1.1794 2.0062476199351176 0.7032063494454387 11.830335895713024 0 0 0
350 117 1 0.5897 2.5340226038016063 4.356508998443811 13.624756881142494 0 0 0
347 116 1 0.5897 1.1236426067699126 0.9486747408814816 11.552631348120276 0 0 0
683 228 1 0.5897 4.480613311121323 2.715563153054067 14.18011835092879 0 0 0
336 112 1 0.5897 2.10473062861791 4.249392290373754 10.782550124520759 0 0 0
330 110 1 0.5897 4.713612137090603 1.315601824161558 10.8550753038341 0 0 0
334 112 2 -1.1794 1.149570677584855 4.203110225176975 10.738571745384238 0 0 0
340 114 2 -1.1794 3.872766942622101 4.235760920332432 10.548808705561292 0 0 0
792 264 1 0.5897 4.623449457076695 9.149378610941305 14.316823599851377 0 0 0
454 152 2 -1.1794 2.1068194173965455 7.479172621950709 12.003563237290289 0 0 0
349 117 2 -1.1794 2.5733553935927844 5.312770309296982 13.637406313395607 0 0 0
757 253 2 -1.1794 2.7115753254548247 9.311133498602233 14.04293459846631 0 0 0
533 178 1 0.5897 0.2799756538203876 7.546373315997918 11.861424353262837 1 0 0
351 117 1 0.5897 3.3585200088892733 5.513946260857238 14.146687528714958 0 0 0
759 253 1 0.5897 2.5229058482375 8.760485834932702 13.283100113687922 0 0 0
668 223 1 0.5897 1.296917839119914 5.718123192011167 14.896512286083984 0 0 0
455 152 1 0.5897 2.7949626072818727 7.576813953642182 11.345378786845805 0 0 0
456 152 1 0.5897 2.3252373925585346 6.666886698200255 12.460338015861412 0 0 0
661 221 2 -1.1794 4.653290723289556 5.8676642990215635 15.283032441540668 0 0 0
789 263 1 0.5897 1.4948826640050026 8.88364303951958 15.322011437288136 0 0 0
436 146 2 -1.1794 4.1921624921779905 8.00044847601827 10.354362495298895 0 0 0
680 227 1 0.5897 0.09459667327989257 2.246448028440242 15.315878450635536 0 0 0
653 218 1 0.5897 3.4374279639967935 1.1760478656421838 17.384130306643485 0 0 0
652 218 2 -1.1794 4.265989484553454 1.3696751274896681 16.945568923821018 0 0 0
664 222 2 -1.1794 4.007887104395927 4.115992078368541 17.328985444998818 0 0 0
671 224 1 0.5897 2.312817330899102 1.6619270725217115 19.321115231786003 0 0 0
666 222 1 0.5897 4.1161006757122856 3.19977037331051 17.074090884202057 0 0 0
670 224 2 -1.1794 2.0986312741878392 1.0154437322814434 18.648552473515508 0 0 0
665 222 1 0.5897 3.0705759044902003 4.208401176015029 17.500151847173456 0 0 0
681 227 1 0.5897 0.9286435388296185 2.6066564294943406 16.526870291644297 0 0 0
672 224 1 0.5897 1.153186070184578 0.8890525206026978 18.729517755407276 0 0 0
658 220 2 -1.1794 1.2658453361832789 4.174724582263842 17.518817756121 0 0 0
659 220 1 0.5897 0.6283602666582868 4.276228288315617 18.225623956600213 0 0 0
654 218 1 0.5897 4.3799202064165605 0.6535338724122031 16.32081941733841 0 0 0
679 227 2 -1.1794 0.8694631697652683 1.9764972686377196 15.808857234998703 0 0 0
660 220 1 0.5897 1.017855440635271 4.838135292898306 16.87496130108857 0 0 0
884 295 1 0.5897 0.8107420605223387 0.15467200315272062 15.6590802067822 0 1 0
2 1 1 0.5897 2.5428256899546096 3.6848618861231826 20.49689805214404 0 0 -1
662 221 1 0.5897 4.479352004609506 5.1953629196393685 15.941752279005785 0 0 0
778 260 2 -1.1794 2.215760531982941 7.5519930280273115 18.693805801631633 0 0 0
760 254 2 -1.1794 4.309853955687649 8.053079451684436 16.94677568143218 0 0 0
761 254 1 0.5897 4.223745682437626 9.006227109611142 16.931362580353976 0 0 0
788 263 1 0.5897 1.0001308407844545 9.338686704618173 16.67844712663848 0 0 0
669 223 1 0.5897 0.7933941226097321 6.868069063184657 15.742579402727904 0 0 0
779 260 1 0.5897 2.316154694350266 8.285155012163147 19.300879108580542 0 0 0
675 225 1 0.5897 2.485775240005986 6.170247269518769 19.832654993915742 0 0 0
663 221 1 0.5897 4.486979358085175 6.694955744092165 15.734786845471906 0 0 0
787 263 2 -1.1794 0.8669243147879211 8.665843403487608 16.010846491004827 0 0 0
858 286 1 0.5897 0.38564295897145123 7.423014326214026 18.604712890839224 1 0 0
780 260 1 0.5897 2.8897738547126384 7.696371964840932 18.02962924030624 0 0 0
762 254 1 0.5897 4.979179340262223 7.883264812848641 17.609680669249023 0 0 0
673 225 2 -1.1794 2.587473934973732 5.499317580108398 20.50767921526078 0 0 0
109 37 2 -1.1794 2.5419775910325546 9.429555123733254 20.616358312161783 0 0 -1
1 1 2 -1.1794 2.6632184816424944 2.746412548239721 20.64168876561153 0 0 -1
667 223 2 -1.1794 0.6352698342305269 5.9438367350710335 15.550381515070422 0 0 0
120 40 1 0.5897 1.185323456978972 11.434446547881258 3.4214809208417916 0 0 0
129 43 1 0.5897 0.9799499924282755 13.543491332778226 2.291307504109519 0 0 0
118 40 2 -1.1794 1.3886124239160198 10.7477382476055 4.056510129845802 0 0 0
119 40 1 0.5897 2.34510391538339 10.727018944729986 4.089698659251824 0 0 0
240 80 1 0.5897 2.567200865263548 14.075052634465013 4.4790304901386335 0 0 0
127 43 2 -1.1794 0.8606608478109322 12.612925690755361 2.101664189438819 0 0 0
123 41 1 0.5897 4.110973662158941 12.338654359255486 0.8949046112841891 0 0 0
222 74 1 0.5897 4.162579210677566 13.962191665577645 2.5838326869828965 0 0 0
124 42 2 -1.1794 4.109885958410945 10.720682569622523 3.6158538517660226 0 0 0
783 261 1 0.5897 1.9246423423654402 12.365192149683697 0.7404737940096426 0 0 1
220 74 2 -1.1794 3.990439331106386 14.425500360713302 3.4035094501976038 0 0 0
122 41 1 0.5897 4.493292008445007 11.80623618042553 2.259490937206966 0 0 0
121 41 2 -1.1794 4.755180182861237 12.443539187304577 1.5950939736297658 0 0 0
125 42 1 0.5897 4.697647908196737 10.865986088011644 4.357252748303215 0 0 0
226 76 2 -1.1794 1.4045867621479518 17.509900131201803 3.784308112925129 0 0 0
228 76 1 0.5897 0.7373957515149061 17.652809489335304 4.455657412109641 0 0 0
219 73 1 0.5897 3.519198471689003 15.920809288584024 0.18960163416085551 0 0 0
232 78 2 -1.1794 4.136671304066681 17.197561577631852 3.4528746197990903 0 0 0
221 74 1 0.5897 4.0317477435319775 15.352426709283893 3.1684718496791393 0 0 0
233 78 1 0.5897 4.360398601963636 17.802986068516184 2.746072948207751 0 0 0
235 79 2 -1.1794 0.9064477487632752 19.269050894959747 1.7350286505048897 0 0 0
227 76 1 0.5897 1.224191700080865 18.176088031696153 3.1211287906387275 0 0 0
234 78 1 0.5897 3.216451045606587 17.380259165943272 3.643148029768885 0 0 0
249 83 1 0.5897 1.5476758582098096 15.623777600795398 1.4345613771409258 0 0 0
230 77 1 0.5897 4.264259577267539 19.01484237985789 0.7731612638836941 0 0 0
229 77 2 -1.1794 4.6836254640504995 19.12421192378931 1.6266082731455438 0 0 0
247 83 2 -1.1794 0.9504791154551238 15.36536199237892 2.1365789189802804 0 0 0
248 83 1 0.5897 1.0668257949982154 16.035956621796252 2.809570439657577 0 0 0
890 297 1 0.5897 2.0617590872639684 18.965327429867926 0.38465857254534697 0 0 1
238 80 2 -1.1794 1.922992700337919 13.903831557910179 5.166014708744283 0 0 0
317 106 1 0.5897 0.14843840274391662 13.996788829559591 5.185322137853841 1 0 0
133 45 2 -1.1794 2.5811459142461417 11.770279397357564 6.839270272139243 0 0 0
134 45 1 0.5897 1.9072246106404507 11.989626409001007 7.482692921887072 0 0 0
135 45 1 0.5897 3.4018336259186936 12.04609806787674 7.247595686063963 0 0 0
453 151 1 0.5897 0.855810476797421 11.894796630695598 9.451105219230664 0 0 0
451 151 2 -1.1794 0.7020567645014814 12.490999310855578 8.71826443824043 0 0 0
450 150 1 0.5897 4.248679985466544 11.424053364222472 9.642968320288588 0 0 0
446 149 1 0.5897 4.505511993597191 13.331367731174229 8.880741976792722 0 0 0
573 191 1 0.5897 0.783013491475498 14.355565638351363 9.160396855133774 0 0 0
445 149 2 -1.1794 4.708177818155 12.55909665553143 8.352840436461568 0 0 0
239 80 1 0.5897 2.267234036747829 13.142758272091987 5.633396019792926 0 0 0
544 182 2 -1.1794 4.165606278473008 14.541158522502645 10.149349233358903 0 0 0
576 192 1 0.5897 4.297868688853893 15.740070798850297 7.329434048047996 0 0 0
242 81 1 0.5897 2.516993737432095 17.68520608607915 6.638500926977434 0 0 0
542 181 1 0.5897 1.9187523308381813 15.671542570629427 7.707932123029699 0 0 0
559 187 2 -1.1794 0.6955532407143274 19.145958220013917 8.724313494489124 0 0 0
572 191 1 0.5897 0.8498316617366969 15.72480377513074 9.802580482721115 0 0 0
571 191 2 -1.1794 0.6641276796179775 15.286475126600235 8.972194847385376 0 0 0
551 184 1 0.5897 1.0927667460087191 17.991649092433192 10.11482389606557 0 0 0
553 185 2 -1.1794 4.422790012855074 19.05606445385859 8.695673737715595 0 0 0
243 81 1 0.5897 1.8559125136036727 18.796561109817553 7.425690602247692 0 0 0
555 185 1 0.5897 3.9430625825080368 18.90875801097826 7.880579771352408 0 0 0
241 81 2 -1.1794 2.513485555639932 18.635967981663946 6.748874089487583 0 0 0
558 186 1 0.5897 4.178104294423138 17.82677044769151 9.969274964048855 0 0 0
543 181 1 0.5897 2.3076779051183323 15.26025779155905 6.303895055474692 0 0 0
541 181 2 -1.1794 2.519675601301791 15.887731202724288 6.994905287170891 0 0 0
434 145 1 0.5897 2.620661960729443 10.020608693119819 6.993194714148587 0 0 0
448 150 2 -1.1794 3.988840809814412 10.813470462602805 10.332778987349254 0 0 0
24 8 1 0.5897 2.3003914032860258 19.929559154832454 5.464543237821344 0 -1 0
457 153 2 -1.1794 2.523061357720692 11.959224795674702 13.434646602238285 0 0 0
458 153 1 0.5897 1.817697454812596 12.114538951535039 14.062834874519677 0 0 0
459 153 1 0.5897 3.325358807776675 12.136562362741559 13.925769461433926 0 0 0
562 188 2 -1.1794 1.9649736689963972 14.025377730653547 11.717559925076014 0 0 0
563 188 1 0.5897 2.1775092616627325 13.259907505077736 12.25145162380189 0 0 0
449 150 1 0.5897 4.558713270770943 11.028917637726419 11.071065012523563 0 0 0
442 148 2 -1.1794 1.266667865742617 10.67440276748839 10.726383839623994 0 0 0
444 148 1 0.5897 2.2227324203870467 10.683567373467886 10.678805275898698 0 0 0
769 257 2 -1.1794 4.624554456209715 12.387329831648717 15.187637061291971 0 0 0
545 182 1 0.5897 3.3867517714437443 14.265557366952592 10.632824642041353 0 0 0
877 293 2 -1.1794 4.764193543370026 18.934461383105308 15.46429686062312 0 0 0
564 188 1 0.5897 2.2076658136138714 14.77338702208957 12.263219921247728 0 0 0
758 253 1 0.5897 2.5513111035429277 10.204107695741811 13.737873811683329 0 0 0
642 214 1 0.5897 0.2272200750183859 14.037946614731396 11.856605316073612 1 0 0
865 289 2 -1.1794 2.756788378480201 15.967555496777202 13.461531121840622 0 0 0
552 184 1 0.5897 2.231689541410985 17.31536071093533 10.847994483317319 0 0 0
567 189 1 0.5897 2.517223966903272 19.24654435853055 12.930789584415297 0 0 0
550 184 2 -1.1794 1.2762445179531365 17.345652202142368 10.796864191339223 0 0 0
556 186 2 -1.1794 4.026899680592576 17.247047377263854 10.715741816271224 0 0 0
866 289 1 0.5897 3.6398008854518795 15.869899970527806 13.818071683819028 0 0 0
867 289 1 0.5897 2.1775172131885623 15.754262060378604 14.193101422871814 0 0 0
566 189 1 0.5897 2.690643015702815 17.814424249512562 13.389745491381232 0 0 0
885 295 1 0.5897 1.3291483641730808 18.91672571162858 14.756671461908253 0 0 0
565 189 2 -1.1794 2.729313942166651 18.718844397076097 13.700668004903763 0 0 0
879 293 1 0.5897 4.103268848546739 18.889546798712416 14.773335467553299 0 0 0
546 182 1 0.5897 4.885317314426425 14.43157562037374 10.770883975732481 0 0 0
883 295 2 -1.1794 0.6825469088449864 19.093221838593024 15.440061360155626 0 0 0
557 186 1 0.5897 4.1569141046282345 16.36584748327575 10.365412139447299 0 0 0
896 299 1 0.5897 0.24510919306947054 15.526183230118063 15.087565736075732 0 0 0
775 259 2 -1.1794 0.7671959992448998 12.513369115068878 15.416244091756647 0 0 0
512 171 1 0.5897 0.058520969499817 11.048399765563198 12.035075987939294 1 0 0
768 256 1 0.5897 1.067798506047913 11.513418118673872 16.891005326638883 0 0 0
888 296 1 0.5897 2.287326453098339 13.373499217182298 19.231550779437534 0 0 0
766 256 2 -1.1794 1.2908782706745465 10.877839025638634 17.57103120779616 0 0 0
773 258 1 0.5897 3.091143588961847 10.837933783821184 17.40654471363259 0 0 0
886 296 2 -1.1794 2.127722032970982 14.141382974304145 18.682886871223943 0 0 0
774 258 1 0.5897 4.225907331786147 11.336090122796683 16.536946396355567 0 0 0
772 258 2 -1.1794 4.038834721539261 10.772948535741875 17.287967847366644 0 0 0
869 290 1 0.5897 3.3936082056816432 14.318078341955726 17.42983731869583 0 0 0
767 256 1 0.5897 0.6019803413643476 10.977724294593804 18.228088025937588 0 0 0
868 290 2 -1.1794 4.199197269947068 14.43584041344134 16.926360524430077 0 0 0
965 322 1 0.5897 0.3473519557138715 14.078440634740742 18.819487479336885 1 0 0
782 261 1 0.5897 2.4813680685201054 11.269406387492785 20.46181707028462 0 0 0
771 257 1 0.5897 4.407972510887792 13.190367325712462 15.661326043358946 0 0 0
781 261 2 -1.1794 2.525228049237418 12.213049979111892 20.6159423871721 0 0 0
887 296 1 0.5897 2.2618725109552593 14.886664893062747 19.26829958275958 0 0 0
777 259 1 0.5897 0.9077833494435701 13.44667774966999 15.575353980365463 0 0 0
897 299 1 0.5897 1.1003380180726763 15.780131544359142 16.310668320320154 0 0 0
874 292 2 -1.1794 1.2094299197509046 17.26802368377544 17.510717747958843 0 0 0
889 297 2 -1.1794 2.708920987915846 18.78730093800214 20.30732226324274 0 0 0
891 297 1 0.5897 2.5513112448177777 19.460741711858113 19.64566457643114 0 0 0
880 294 2 -1.1794 3.960305981859642 17.115390567719743 17.443171863251067 0 0 0
878 293 1 0.5897 4.488550945898678 18.277057935918265 16.103052024970985 0 0 0
875 292 1 0.5897 0.6335365091291237 17.46056861729509 18.25066265779651 0 0 0
895 299 2 -1.1794 1.0638932711660696 15.261570974249876 15.506982864895742 0 0 0
218 73 1 0.5897 2.571564870300359 17.03387365672006 20.401012843222677 0 0 -1
876 292 1 0.5897 1.0136705033141495 17.951699348602943 16.87007475995129 0 0 0
881 294 1 0.5897 3.0100138165598183 17.184447956131827 17.535792226638044 0 0 0
882 294 1 0.5897 4.109537781779952 16.210738843469223 17.16842823321594 0 0 0
870 290 1 0.5897 4.901657703520765 14.26680806937784 17.554266812783816 0 0 0
217 73 2 -1.1794 2.5936247843701006 16.10615017933729 20.635503388207276 0 0 -1
9 3 1 0.5897 5.1136414773677235 4.382675860159218 4.949298217172345 0 0 0
53 18 1 0.5897 9.785651912053751 4.1620924565498 3.8756447137933994 0 0 0
138 46 1 0.5897 6.952319183323541 7.4451698352780475 5.117834304119661 0 0 0
58 20 2 -1.1794 8.702118396049524 0.8140174533755591 4.93397274705838 0 0 0
273 91 1 0.5897 7.4644117483627435 0.3788096869466478 1.9500394694642667 0 1 0
47 16 1 0.5897 7.756681964084723 3.4200719749047583 3.2256860390957574 0 0 0
34 12 2 -1.1794 5.337457130082558 2.600454101359397 0.2892482568322228 0 0 0
69 23 1 0.5897 6.668856938618501 2.312107590731915 1.5380451039327552 0 0 0
48 16 1 0.5897 7.3338593756933905 4.251642798674249 4.417931987151169 0 0 0
67 23 2 -1.1794 7.4638917975529 2.1388388316196827 2.0422477165214623 0 0 0
46 16 2 -1.1794 7.992246227323936 4.202049846903108 3.7248653786961845 0 0 0
68 23 1 0.5897 8.179094071556904 2.3145935788892715 1.430780823955335 0 0 0
145 49 2 -1.1794 9.348252642865054 9.474409060659365 0.11403094580497661 0 0 0
143 48 1 0.5897 5.941938651146774 9.126892183396667 1.0548201131684056 0 0 0
711 237 1 0.5897 8.521376681114303 5.65574764630102 0.4405889676895509 0 0 1
142 48 2 -1.1794 5.279262644620858 9.178389764919 0.36599183587461226 0 0 0
175 59 2 -1.1794 7.486228847834687 8.771015634040538 2.0237983446601286 0 0 0
57 19 1 0.5897 7.650120059854062 5.5828101567115755 2.490826999194349 0 0 0
177 59 1 0.5897 8.143922087879757 8.993348344847153 1.364798343488701 0 0 0
56 19 1 0.5897 6.439829688845115 5.902774478667497 1.6394059812028259 0 0 0
176 59 1 0.5897 7.4815939888191565 7.814105807946794 2.0448814911214193 0 0 0
166 56 2 -1.1794 8.728600329975567 7.512058648060603 4.932336301239972 0 0 0
55 19 2 -1.1794 7.374598809624536 6.089645947311519 1.7270366935395245 0 0 0
37 13 2 -1.1794 9.282110386468188 2.677621849654024 0.07826692573053683 0 0 0
29 10 1 0.5897 6.924836414754821 0.7688559129100074 5.092795228201228 0 0 0
338 113 1 0.5897 5.347877465197278 5.819372333891825 8.313256225720666 0 0 0
379 127 2 -1.1794 7.177754815139497 5.818317462115338 8.503992286028295 0 0 0
361 121 2 -1.1794 9.218621820689998 2.651640460276461 6.934070893040292 0 0 0
391 131 2 -1.1794 7.592326420745686 2.0794900252724653 9.035225962932067 0 0 0
59 20 1 0.5897 8.878359570239228 1.538304940125255 5.534389804133681 0 0 0
360 120 1 0.5897 5.639233779061179 1.7669735184553557 6.617220602300176 0 0 0
359 120 1 0.5897 6.0617275593600395 2.303478387575456 7.968295904051173 0 0 0
8 3 1 0.5897 5.728935523547029 3.8983213950782245 6.244910170989057 0 0 0
392 131 1 0.5897 8.238661078011031 2.2732389097595895 8.356269248547457 0 0 0
393 131 1 0.5897 7.495372463813705 1.1276031286093255 9.009626950838772 0 0 0
358 120 2 -1.1794 5.416925139482962 2.42877103185148 7.272019705315078 0 0 0
7 3 2 -1.1794 5.845307492548143 4.541553512410323 5.545723739503521 0 0 0
362 121 1 0.5897 9.10091035089926 3.5806503442442383 6.736002345295499 0 0 0
136 46 2 -1.1794 6.024603569933713 7.303526673054901 5.306707353080415 0 0 0
380 127 1 0.5897 7.340720876314493 6.7232510887946 8.769862292889421 0 0 0
137 46 1 0.5897 5.95956043618086 6.368877053385575 5.502522008585192 0 0 0
381 127 1 0.5897 7.4884583574978825 5.292114569301762 9.240705622147475 0 0 0
167 56 1 0.5897 8.887546756289003 6.680255432781136 5.378421044248239 0 0 0
500 167 1 0.5897 7.6660860724937185 9.181959221384156 9.669057710510259 0 0 0
467 156 1 0.5897 5.631967249047361 8.374439282882312 6.733274233653739 0 0 0
470 157 1 0.5897 8.749320762443874 9.058608409006165 7.7350768285836535 0 0 0
168 56 1 0.5897 8.926351717186682 8.17870994069587 5.590081662760214 0 0 0
469 157 2 -1.1794 9.267210530067324 9.277008799804834 6.960275283125163 0 0 0
62 21 1 0.5897 8.340632064205725 5.494884319540728 7.167836503168681 0 0 0
499 167 2 -1.1794 7.545793261390086 8.509070622491794 8.999057098954086 0 0 0
61 21 2 -1.1794 9.076821678792518 5.360212220403073 6.571023818506079 0 0 0
466 156 2 -1.1794 5.433010625929505 9.063119455814116 7.3675390259161775 0 0 0
501 167 1 0.5897 6.748492561436244 8.769529225247465 8.53775204242402 0 0 0
371 124 1 0.5897 7.783567155638767 3.460520049873322 10.17436319077082 0 0 0
28 10 2 -1.1794 6.006718092558314 0.6496255681550966 5.336166165389708 0 0 0
63 21 1 0.5897 9.850436990926505 5.578028726848621 7.091017139035767 0 0 0
332 111 1 0.5897 5.129419880758937 4.581320871118073 11.771575436114125 0 0 0
370 124 2 -1.1794 7.990729821036908 4.290997213506852 10.602778448096581 0 0 0
682 228 2 -1.1794 5.43641911192244 2.7667005696037577 14.165112486813124 0 0 0
685 229 2 -1.1794 9.221897080939087 2.820076791847204 13.773288605327814 0 0 0
386 129 1 0.5897 9.081946057665247 4.6578666447535815 13.730517990820122 0 0 0
331 111 2 -1.1794 5.88364122492913 4.762225189258244 12.332587637509096 0 0 0
372 124 1 0.5897 7.29319446196015 4.408880021210513 11.247629349815254 0 0 0
382 128 2 -1.1794 8.590133180229158 0.8265770830672167 11.948341879555436 0 0 0
684 228 1 0.5897 5.626271478462827 3.5674571165786997 13.676337921172314 0 0 0
354 118 1 0.5897 5.722897227041641 1.532860117400589 12.91836598531072 0 0 0
384 128 1 0.5897 9.245916408953546 0.9129164518769562 11.256412247600894 0 0 0
353 118 1 0.5897 6.7845666032924985 0.916107448624183 12.032659661542707 0 0 0
686 229 1 0.5897 8.706963621795444 2.5605428543808104 14.537299027328997 0 0 0
383 128 1 0.5897 8.764769417508349 1.560549812361524 12.53735943313208 0 0 0
352 118 2 -1.1794 5.844312960238604 0.8988952667514309 12.211614174185334 0 0 0
790 264 2 -1.1794 5.5400962911409035 9.216189681219717 14.04909149315915 0 0 0
377 126 1 0.5897 9.806236968488605 4.06427360113771 10.587104443237033 0 0 0
387 129 1 0.5897 9.102032204051914 6.086057257810525 13.228978754181256 0 0 0
333 111 1 0.5897 5.935081113534097 5.717450665964353 12.364856752718012 0 0 0
705 235 1 0.5897 7.846479578812325 5.905795284764548 15.217170155257918 0 0 0
385 129 2 -1.1794 9.150018875727541 5.564393805817935 14.030049498096956 0 0 0
460 154 2 -1.1794 6.2066618594402545 7.43764278819016 12.129868285086642 0 0 0
793 265 2 -1.1794 9.337416502198291 9.261251997393405 14.188761727479465 0 0 0
462 154 1 0.5897 5.557831576714139 7.657891322207075 11.461454681920488 0 0 0
492 164 1 0.5897 8.076500372133449 7.492094588177646 11.791983529087904 0 0 0
491 164 1 0.5897 9.49938824455878 7.589600486212519 11.283908497558018 0 0 0
490 164 2 -1.1794 8.987706195191345 7.477184114345467 12.085012464056852 0 0 0
794 265 1 0.5897 9.142272126498428 8.687890244478634 13.447593127343453 0 0 0
461 154 1 0.5897 5.982311260886709 7.995072206238341 12.874915421246465 0 0 0
791 264 1 0.5897 6.035582775393589 9.114425756583387 14.861715490985096 0 0 0
717 239 1 0.5897 6.735002826243047 2.35396633501755 15.31275574810889 0 0 0
824 275 1 0.5897 8.17357826811125 8.9802639111626 15.448608303742166 0 0 0
696 232 1 0.5897 7.685163992385794 4.854256767286214 17.112485197535875 0 0 0
35 12 1 0.5897 5.592222053826455 1.9474146531411372 20.242610369405565 0 0 -1
702 234 1 0.5897 9.69282411900537 4.1889559368598155 17.652813108710216 0 0 0
38 13 1 0.5897 9.070539624607614 2.1203593856469847 19.934490042993982 0 0 -1
694 232 2 -1.1794 7.953567591929869 4.138391013131125 17.6883852712855 0 0 0
677 226 1 0.5897 5.473079452330374 0.9752159557909603 18.23780300438066 0 0 0
695 232 1 0.5897 7.7914394764040775 3.3455541248494356 17.177233514502728 0 0 0
708 236 1 0.5897 7.800003418331144 0.935543431296703 18.68562307141555 0 0 0
715 239 2 -1.1794 7.523020772294086 2.1595038050906985 15.820236422928149 0 0 0
655 219 2 -1.1794 5.844184597008861 4.76713475146688 19.319080549412927 0 0 0
657 219 1 0.5897 6.652098031263123 4.478475744130153 18.894480034932045 0 0 0
706 236 2 -1.1794 8.755091379594786 0.9123051669017511 18.625012240973586 0 0 0
716 239 1 0.5897 7.475257422065456 1.2180674310290986 15.986246064270059 0 0 0
676 226 2 -1.1794 6.056321596479113 0.8187851818328201 18.980504730675744 0 0 0
656 219 1 0.5897 5.162204380058754 4.618023335612789 18.664138268370145 0 0 0
814 272 2 -1.1794 8.856592159743137 7.645993461074942 18.762000636715033 0 0 0
784 262 2 -1.1794 6.107562558244745 7.469394025367479 19.00314167618731 0 0 0
707 236 1 0.5897 9.007226699501889 0.1258593632625963 19.10884210634699 0 0 0
704 235 1 0.5897 6.3879289942051685 5.963337906610855 15.61916371548437 0 0 0
786 262 1 0.5897 7.046481267263481 7.549484700235113 18.83457368165826 0 0 0
785 262 1 0.5897 5.982428180543016 6.548297334566994 19.231330385016438 0 0 0
144 48 1 0.5897 5.554713997902119 8.52894866184184 20.32418688030064 0 0 -1
816 272 1 0.5897 8.973281973634343 8.340084274508481 19.410670127327457 0 0 0
703 235 2 -1.1794 7.272418840947752 6.104946353635599 15.956789028164954 0 0 0
815 272 1 0.5897 9.01316514628204 6.835681099288326 19.246800623046653 0 0 0
823 275 2 -1.1794 7.445616963146889 8.852986843222274 16.057024480793995 0 0 0
825 275 1 0.5897 7.4087654487654335 7.906174198694896 16.192405276459617 0 0 0
710 237 1 0.5897 9.1889780360848 4.502242205060545 20.32770880001682 0 0 0
709 237 2 -1.1794 9.210041838086365 5.455465505586963 20.411756060289285 0 0 0
36 12 1 0.5897 5.511659742023749 3.4415761722246874 20.472096529411203 0 0 -1
275 92 1 0.5897 7.79425981878524 13.956038558064579 4.975980949896748 0 0 0
164 55 1 0.5897 6.579334782433674 12.601857222929258 1.8794652292906953 0 0 0
246 82 1 0.5897 5.295259065295303 14.10955793360175 4.580306353890281 0 0 0
276 92 1 0.5897 9.211155434312198 13.977396255587378 4.4428771419518895 0 0 0
154 52 2 -1.1794 8.082123871292216 10.740886204591847 3.859003052063904 0 0 0
819 273 1 0.5897 8.56199108959919 12.509956687557683 0.6630281213746267 0 0 1
156 52 1 0.5897 9.038933817374875 10.76469886304859 3.877836008281348 0 0 0
163 55 2 -1.1794 7.492220989090356 12.74376600258667 2.1302352396361233 0 0 0
165 55 1 0.5897 7.662450662818135 12.0824382680464 2.800923908527298 0 0 0
285 95 1 0.5897 7.600850182156605 14.61193974355462 2.1636769828145326 0 0 0
263 88 1 0.5897 7.393429021265669 17.507918422994308 4.536603022258464 0 0 0
271 91 2 -1.1794 7.374373541695338 19.318677851962292 1.7077056711467888 0 0 0
284 95 1 0.5897 7.704184299033884 16.05645685522513 2.6045370602061753 0 0 0
231 77 1 0.5897 5.6217300835260255 19.11412645395837 1.436204033617168 0 0 0
262 88 2 -1.1794 7.872955185705163 17.487445707296033 3.7084435229418133 0 0 0
272 91 1 0.5897 7.568845183053009 18.838768911749924 2.5127080733117793 0 0 0
224 75 1 0.5897 5.179822632046122 17.548593498489602 4.899946289642214 0 0 0
283 95 2 -1.1794 7.598083683528266 15.508029955740781 1.8272897889610138 0 0 0
927 309 1 0.5897 8.618936706840037 18.954448620052183 0.47944814753357107 0 0 1