LAMMPS data file via write_data, version 30 Jul 2021, timestep = 26750000

1008 atoms
2 atom types
672 bonds
1 bond types
336 angles
1 angle types

-3.135155632558355 14.745154632112563 xlo xhi
-0.05600895546257689 22.63600795546172 ylo yhi
-0.009253156777772276 19.23925115676827 zlo zhi
-0.29648698006227026 -6.352228610371472 0.1359889712106554 xy xz yz

Masses

1 1.008
2 15.999

Pair Coeffs # lj/cut/tip4p/long/omp

1 0 0
2 0.21084 3.1668

Bond Coeffs # harmonic/omp

1 450 0.9572

Angle Coeffs # harmonic/omp

1 55 104.52

Atoms # full

21 7 1 0.5897 1.162591829334569 2.1672332975516713 1.0805432231524204 0 0 0
55 19 2 -1.1794 -0.6085401302797147 4.359441592551174 3.5239135619035897 0 0 0
56 19 1 0.5897 -1.232787227598647 3.8121551496964328 3.0475156489293855 0 0 0
57 19 1 0.5897 0.166821535613364 4.382906019080255 2.963098772617403 0 0 0
121 41 2 -1.1794 -2.3366159478042237 2.4266477616438573 2.414430035964365 1 0 0
122 41 1 0.5897 -2.3484208774256015 2.1207110837702174 1.5074942307421246 1 0 0
86 29 1 0.5897 -2.064676405560722 1.4386463414385724 4.061195619906187 1 0 0
31 11 2 -1.1794 1.3181257014031083 1.071477765805918 2.4850102859992758 0 0 0
32 11 1 0.5897 1.0500058475019296 1.5110293611151109 3.291939562117499 0 0 0
123 41 1 0.5897 -3.251014901823658 2.6303702262229387 2.610884721811127 1 0 0
46 16 2 -1.1794 1.7594401662993793 4.857312774501817 2.1793713467476956 0 0 0
33 11 1 0.5897 0.6036138598253 0.463944585386324 2.2939304615177183 0 0 0
19 7 2 -1.1794 1.0893126506131914 2.6356594548544368 0.24896642672765973 0 0 0
158 53 1 0.5897 -3.878112243127652 4.262081134576026 4.265108442101519 1 0 0
53 18 1 0.5897 4.43001538057194 3.17958023256208 2.605876233160203 0 0 0
6 2 1 0.5897 3.516774217980829 1.6655516403997481 4.470177227297128 0 0 0
78 26 1 0.5897 -0.044088805502856765 2.927642774460107 4.430164633128613 0 0 0
18 6 1 0.5897 4.942461670928472 4.187579480360006 0.16312880998046714 0 0 0
482 161 1 0.5897 -1.1455000134694646 0.33879621361947854 0.8759198869576715 1 1 0
47 16 1 0.5897 1.9969120637653424 5.346536038355888 1.3916336332032542 0 0 0
70 24 2 -1.1794 3.874226588259228 0.597687255216822 1.4271323330551804 0 0 0
71 24 1 0.5897 3.1899050930712676 0.7347212307233268 2.0822512380635323 0 0 0
527 176 1 0.5897 3.9960937626049358 1.995887130514197 0.3376584460962235 0 0 1
52 18 2 -1.1794 3.6372017690870972 3.245856477963519 3.138143742067248 0 0 0
54 18 1 0.5897 3.053016767242897 3.8082915781815836 2.6295263441938226 0 0 0
602 201 1 0.5897 -0.4062648589796942 5.4521518133275 0.5858573347174038 1 0 1
16 6 2 -1.1794 5.438811646539833 4.9970753652702 0.2831889103533683 0 0 0
48 16 1 0.5897 1.9187951775403533 5.468370109149032 2.898665130805636 0 0 0
72 24 1 0.5897 4.511963239997443 0.03100325100593905 1.8612362737398287 0 0 0
76 26 2 -1.1794 0.6149421581547161 2.292669550654484 4.710706972609866 0 0 0
101 34 1 0.5897 -2.6034088112289684 4.675638792758496 0.5432037294520969 1 0 0
601 201 2 -1.1794 -0.78946232496327 4.7809659043941 0.0212420587353704 1 0 1
603 201 1 0.5897 -0.21231944922792456 4.024114428305413 0.12262143687047558 1 0 1
134 45 1 0.5897 -2.1215150326534324 2.5412780237343022 6.497845891334808 1 0 0
135 45 1 0.5897 -1.849026909248197 3.881534708670053 7.146641240257204 1 0 0
60 20 1 0.5897 2.767802834192052 3.4715826150272187 6.853723170296757 0 0 0
34 12 2 -1.1794 0.19356374021959688 1.1137478080302254 7.315864961608145 0 0 0
35 12 1 0.5897 0.49645614703739316 1.7117395305414285 7.999102116108931 0 0 0
36 12 1 0.5897 -0.6826901065706474 0.8513332688038596 7.597870468585497 0 0 0
159 53 1 0.5897 -3.0629601233454284 4.221704178634884 5.5402656523216285 1 0 0
669 223 1 0.5897 -5.186899642706496 1.7199646879477655 9.248274674209998 1 0 0
124 42 2 -1.1794 -5.076696695496704 2.3807211966763355 7.514183042480389 1 0 0
58 20 2 -1.1794 2.0121064060010934 3.91751634607903 6.471156416682228 0 0 0
59 20 1 0.5897 1.5749538821624371 3.244528267523157 5.949523012916119 0 0 0
5 2 1 0.5897 3.1607202423761507 0.2985153083171458 5.014293850290917 0 0 0
43 15 2 -1.1794 -0.36715443262143577 4.885369640627537 7.3295449827094625 0 0 0
126 42 1 0.5897 -4.1871964922236895 2.723832631306618 7.429119800253714 1 0 0
45 15 1 0.5897 0.499220299854783 4.538500190235506 7.116660074036642 0 0 0
133 45 2 -1.1794 -2.557664965723496 3.275959448470996 6.9292988210758875 1 0 0
522 174 1 0.5897 2.3607267671029506 5.582639326490138 9.263733512925155 0 0 0
402 134 1 0.5897 1.5334422310337725 0.002344155720318708 7.994023318620881 0 1 0
98 33 1 0.5897 -4.105798768131215 5.126153213600808 8.499769941111433 1 0 0
4 2 2 -1.1794 3.8404395119429946 0.9716894779762784 5.044663331671834 0 0 0
77 26 1 0.5897 0.22509153330328324 1.8624742272411163 5.47176729533172 0 0 0
69 23 1 0.5897 -2.4456757506144053 0.9902370345750164 8.764911492498586 0 0 0
67 23 2 -1.1794 -2.193318579736684 0.2516118220622187 8.21095232348897 0 0 0
44 15 1 0.5897 -0.2643995438257072 5.269915329403541 8.200067436310238 0 0 0
401 134 1 0.5897 2.58493031964918 0.30050948275295963 9.041633975496719 0 1 0
157 53 2 -1.1794 -3.452922897039465 4.827405748998317 4.909930557102822 1 0 0
97 33 2 -1.1794 -4.129044655682879 4.62851786604102 9.317156765674126 1 0 0
85 29 2 -1.1794 -2.293818525270834 1.2090495495025202 4.9618037185202235 1 0 0
11 4 1 0.5897 2.222024170173495 5.390575995705745 5.307241629235542 0 0 0
87 29 1 0.5897 -3.2462404152914797 1.1143236915528052 4.950358595084959 1 0 0
22 8 2 -1.1794 0.6077192722957769 2.6479984258974567 9.412609372619608 0 0 0
574 192 2 -1.1794 0.680023470116065 0.4817352705953988 11.164613565158483 0 0 0
99 33 1 0.5897 -4.006972017690394 5.285924268844992 10.002039157147678 1 0 0
560 187 1 0.5897 -4.677731687497754 3.8479769444202785 12.705259800498666 0 0 0
576 192 1 0.5897 -0.027010987100823503 0.681149877558924 11.778271757986722 0 0 0
986 329 1 0.5897 -4.195624958366539 0.08281597173390381 10.796919611895275 1 1 0
551 184 1 0.5897 -1.2851193799373544 5.25544583063846 12.680442474163852 0 0 0
627 209 1 0.5897 -6.728067607975145 3.1363890951285396 12.326259016243787 1 0 0
23 8 1 0.5897 0.733658476116744 1.9551739833552002 10.060983660681345 0 0 0
535 179 2 -1.1794 -1.723182672695998 1.2003476560091213 12.393453804952618 0 0 0
536 179 1 0.5897 -2.041983593051439 1.6271587832675984 13.188702089378564 0 0 0
537 179 1 0.5897 -2.0066307968052772 1.7750990732442615 11.682382558712494 0 0 0
523 175 2 -1.1794 -2.248212077268821 2.4119604100831378 9.922214009978077 0 0 0
625 209 2 -1.1794 -5.902649601815558 2.7390075634380606 12.048758218323295 1 0 0
556 186 2 -1.1794 0.8057886239320275 3.5401322039474885 13.121410134439307 0 0 0
561 187 1 0.5897 -3.600694252848096 3.8019032349358937 13.76826541556082 0 0 0
668 223 1 0.5897 -5.558933695769731 1.694781749915935 10.715600890626131 1 0 0
558 186 1 0.5897 -0.04156730948127674 3.727082073900141 12.717256201696658 0 0 0
559 187 2 -1.1794 -4.046091748679482 4.399129717061744 13.167239749670069 0 0 0
550 184 2 -1.1794 -1.5784722441278491 4.701142813796356 11.957340209459218 0 0 0
552 184 1 0.5897 -2.503981007417912 4.5386834824287225 12.139700942481378 0 0 0
626 209 1 0.5897 -5.7785702008703534 2.0015050168349213 12.64619220059906 1 0 0
557 186 1 0.5897 0.6737876869836228 2.7125698253473876 13.583881164123934 0 0 0
24 8 1 0.5897 1.233493410335882 3.3275467339490765 9.663077989237545 0 0 0
525 175 1 0.5897 -1.3541217873738631 2.7000717662142155 9.738379827563127 0 0 0
587 196 1 0.5897 -0.8750130477782787 5.676358932697541 10.416401376138921 0 0 0
589 197 2 -1.1794 -5.543682781987153 1.2703322255921734 14.249399720835308 1 0 0
662 221 1 0.5897 -7.423613181481336 4.5040678205155205 14.13290527458324 1 0 0
667 223 2 -1.1794 -5.325193927371405 1.1234924994364692 9.98403884912139 1 0 0
575 192 1 0.5897 1.358358180281285 0.07520781644671407 11.703980690267107 0 0 0
520 174 2 -1.1794 2.394732795820012 4.884167192685525 9.917357164969182 0 0 0
524 175 1 0.5897 -2.7961143011486054 3.1567969589359084 9.674751526319586 0 0 0
606 202 1 0.5897 -5.8958008515546485 4.9643991130741725 9.617527015427125 1 0 0
547 183 2 -1.1794 -3.423037968055426 5.00789259329127 17.006107987373774 0 0 0
581 194 1 0.5897 -2.8968392724221195 2.1410921651983315 15.230091388453394 0 0 0
591 197 1 0.5897 -4.934333417705334 0.5629340130877177 14.460363418850962 1 0 0
572 191 1 0.5897 -6.163378570836596 0.108797911364025 17.363200710282186 0 0 0
582 194 1 0.5897 -1.9244702495977926 3.288176423739549 15.056059790080404 0 0 0
563 188 1 0.5897 -0.8538936041211045 5.215670899546019 15.390425792519098 0 0 0
639 213 1 0.5897 -5.801595328809443 3.995768717794286 15.51764793048791 1 0 0
165 55 1 0.5897 -9.217179585729642 0.8205313092640314 18.827696229792807 1 0 -1
538 180 2 -1.1794 -2.909144688955857 1.1588353743848607 16.872708506661972 0 0 0
539 180 1 0.5897 -2.65068105765733 1.8930985329043646 17.429609431481225 0 0 0
20 7 1 0.5897 -5.526420324024169 2.101558329072159 18.86685235078005 0 0 -1
540 180 1 0.5897 -3.803540914731056 0.9540935119896738 17.14535047421559 0 0 0
638 213 1 0.5897 -6.321804821888907 3.0252718171406534 16.556585050419685 1 0 0
549 183 1 0.5897 -4.037733271980519 4.284183670908752 16.885749112012867 0 0 0
562 188 2 -1.1794 -0.8743410103560061 4.542140868660228 16.07025939949105 0 0 0
590 197 1 0.5897 -5.413870953968244 1.914320071167188 14.945520815352884 1 0 0
564 188 1 0.5897 -1.6591083156729391 4.740548031906401 16.581159514707267 0 0 0
637 213 2 -1.1794 -5.5129054463756395 3.342683259684834 16.155151246380065 1 0 0
164 55 1 0.5897 -8.428574678057753 2.0202444357639906 18.347686812005605 1 0 -1
628 210 2 -1.1794 -8.037530113616254 2.6617067021179275 16.779036808571554 1 0 0
571 191 2 -1.1794 -5.53426045496761 0.6175035943240886 17.874668528878075 0 0 0
630 210 1 0.5897 -8.129887904635112 2.0347732293803786 16.061694387954205 1 0 0
580 194 2 -1.1794 -2.4883092966709492 2.692450612843088 14.56275598505456 0 0 0
614 205 1 0.5897 -7.208276347071268 5.717858664995366 17.620869224654058 1 0 0
508 170 2 -1.1794 0.6750883835694399 1.173161463705766 14.573670795861347 0 0 0
526 176 2 -1.1794 -2.5107860452012405 2.9304392503360015 19.081592685935668 0 0 0
548 183 1 0.5897 -3.654301501267251 5.63549726300651 16.321332669652463 0 0 0
546 182 1 0.5897 0.2889954107520536 3.3953760397920556 16.48889655042339 0 0 0
510 170 1 0.5897 0.6533715910881916 1.7151450759228004 15.362325891506133 0 0 0
528 176 1 0.5897 -3.460447453958218 3.0483476851397406 19.10392719584592 0 0 0
163 55 2 -1.1794 -8.630335105788353 1.5120981864563423 19.133405835859513 1 0 -1
661 221 2 -1.1794 -6.878049457046011 5.209404359362644 14.480705991124186 1 0 0
593 198 1 0.5897 -7.412885676587379 0.8848532821658364 14.49758752336179 1 0 0
289 97 2 -1.1794 -2.6145897514863785 10.189130004867263 2.3872144925975953 1 0 0
255 85 1 0.5897 -2.3415076107024264 8.970488054998906 4.084381996063755 1 0 0
146 49 1 0.5897 -1.3426065884730018 6.698659368535622 2.2544938163191452 1 0 0
147 49 1 0.5897 -1.0963738529772047 7.579567547798908 1.048105019878754 1 0 0
332 111 1 0.5897 -2.1075720802267286 9.449360718867217 0.9358953174045094 1 0 0
145 49 2 -1.1794 -0.65694150959555 6.975453501853671 1.6466372758679306 1 0 0
112 38 2 -1.1794 -3.153173773896289 6.476296839154747 2.7094007100310264 1 0 0
291 97 1 0.5897 -3.4395969032869167 10.591216933268221 2.659088018912909 1 0 0
290 97 1 0.5897 -1.9431801989890036 10.820278869811105 2.6460201419741307 1 0 0
188 63 1 0.5897 0.8744408678587927 9.840566997296117 1.2677633284476735 0 0 0
200 67 1 0.5897 0.6806663932153221 7.897000511070184 2.33397492839465 0 0 0
696 232 1 0.5897 4.389115758684569 10.985676678774766 0.13810994983141087 0 0 1
187 63 2 -1.1794 0.972496773919505 10.361049402347804 0.47042134797626906 0 0 0
224 75 1 0.5897 -0.2078011703223046 11.141293680192385 3.927717861379903 0 0 0
239 80 1 0.5897 3.9940060466093197 8.812280850683232 1.3132419560900856 0 0 0
222 74 1 0.5897 3.0348545647009697 11.180764430861204 3.118405872674316 0 0 0
189 63 1 0.5897 1.911523853711067 10.342429923614715 0.2856742875017881 0 0 0
199 67 2 -1.1794 1.3086837308282506 8.452589771978761 2.795578529838078 0 0 0
113 38 1 0.5897 -3.2664518914666374 5.8852976504939125 3.453819370171926 1 0 0
221 74 1 0.5897 4.419344120200322 10.572813514235323 3.043963121555383 0 0 0
238 80 2 -1.1794 3.837358184938739 8.002600596469238 1.7990954012756624 0 0 0
240 80 1 0.5897 3.4234480845843125 7.418119384542987 1.1640954322280577 0 0 0
201 67 1 0.5897 2.1585281996878303 8.212023872348286 2.4266062455192325 0 0 0
331 111 2 -1.1794 -1.9029528560723374 8.883371331488952 0.19159843306377408 1 0 0
220 74 2 -1.1794 3.6352449024646436 10.605024277892532 3.5920575804265873 0 0 0
245 82 1 0.5897 0.9442181411186574 9.383859306989542 4.2857520721293705 0 0 0
174 58 1 0.5897 3.6808476169313495 8.92647992959558 4.43659720085744 0 0 0
694 232 2 -1.1794 3.802839985636508 10.229152431654299 0.13226566848721819 0 0 1
9 3 1 0.5897 -0.7815255049802863 6.047627980673879 4.539540223873423 0 0 0
114 38 1 0.5897 -3.3074274884194526 5.9268522083224555 1.9409611895214003 1 0 0
10 4 2 -1.1794 2.1026429543061464 6.123784302508929 4.703605746204279 0 0 0
191 64 1 0.5897 0.4949995417859525 9.781754728243019 8.92361319859085 0 0 0
65 22 1 0.5897 2.647384597727343 7.7252629027785185 8.593017591120688 0 0 0
109 37 2 -1.1794 -4.051476568404169 6.183698437332859 7.165130732438383 1 0 0
111 37 1 0.5897 -4.967962280277446 6.457294224688976 7.203274656558094 1 0 0
293 98 1 0.5897 -4.137596209592701 10.498353566939667 7.298184640814459 1 0 0
244 82 2 -1.1794 0.8331206791071839 10.062713896961807 4.951306078314935 0 0 0
292 98 2 -1.1794 -5.051211384521995 10.213498249879715 7.31754687845537 1 0 0
228 76 1 0.5897 1.8588916761866816 11.326132449213137 5.718900433499173 0 0 0
246 82 1 0.5897 0.7258143734344258 9.580080199782598 5.770970890830362 0 0 0
294 98 1 0.5897 -5.139438054148036 9.746707772400606 8.148585790333911 1 0 0
588 196 1 0.5897 -1.0846807561437006 6.585313742402294 9.22396650064833 0 0 0
64 22 2 -1.1794 2.318359306354342 6.9779794452310275 8.09360341344556 0 0 0
66 22 1 0.5897 3.0826945884189545 6.65132898704927 7.618919623118674 0 0 0
202 68 2 -1.1794 0.48101160554066436 8.737909311567915 7.347531062577083 0 0 0
203 68 1 0.5897 -0.3981261722144942 8.389888265159337 7.496469285052699 0 0 0
204 68 1 0.5897 1.064456725933704 7.999993254731207 7.52438370685458 0 0 0
8 3 1 0.5897 -0.5542729377982569 6.211889664421328 6.027315018918486 0 0 0
235 79 2 -1.1794 -1.954623477584272 7.756936686459115 8.11395644732427 0 0 0
236 79 1 0.5897 -2.730914915051271 7.307047261773256 7.780563382027995 0 0 0
237 79 1 0.5897 -2.3005902879737334 8.513326237092718 8.587576770706805 0 0 0
302 101 1 0.5897 -2.1096893262839633 10.12401722658603 6.078047331610307 1 0 0
301 101 2 -1.1794 -2.4113932531728195 10.831145108813544 6.648211726777813 1 0 0
303 101 1 0.5897 -1.6194767956874334 11.137579453363946 7.089991201541406 1 0 0
110 37 1 0.5897 -3.947247305089366 5.81568121246965 6.287661664925379 1 0 0
837 279 1 0.5897 -6.06945582375208 8.240700050142141 9.104958466870155 1 0 0
172 58 2 -1.1794 3.9018181251890676 8.24715340695848 5.073741736966923 0 0 0
173 58 1 0.5897 3.36753535466279 7.4953874877429945 4.817861566836423 0 0 0
12 4 1 0.5897 1.2297002797489291 6.4608436068308075 4.905116942224575 0 0 0
257 86 1 0.5897 -4.180918624395486 8.55259326971814 5.0814630619472885 1 0 0
254 85 1 0.5897 -1.8603886862923105 7.906194171009486 5.047605749648037 1 0 0
253 85 2 -1.1794 -2.5138855647963476 8.598662847444272 4.949448650775353 1 0 0
7 3 2 -1.1794 -0.5469271009551502 6.697185538443889 5.202247165659285 0 0 0
692 231 1 0.5897 -1.6619499491479592 10.318746556399908 9.576239837452574 0 0 0
750 250 1 0.5897 -3.1854576993877615 10.676340502177025 14.248774187088797 0 0 0
794 265 1 0.5897 -5.219477645139539 10.777822836758089 12.34076567954136 1 0 0
678 226 1 0.5897 0.7016341987817167 9.232170382639747 14.022567587513208 0 0 0
516 172 1 0.5897 -0.22552597685398368 7.020706069301826 14.205394205635583 0 0 0
742 248 2 -1.1794 0.39339394891051027 8.055994405077165 11.389838152676512 0 0 0
724 242 2 -1.1794 0.694051933612176 10.617850866510533 12.95312629342094 0 0 0
616 206 2 -1.1794 -6.715586758678788 6.406492202553205 12.08446898734692 1 0 0
693 231 1 0.5897 -2.666650063363646 9.70355545219327 10.527037982601884 0 0 0
649 217 2 -1.1794 -4.066002992335337 6.779821085933685 10.966406755003266 1 0 0
650 217 1 0.5897 -3.4357154654659636 7.210086723409493 11.544167301500126 1 0 0
651 217 1 0.5897 -4.847625065103788 6.665203348005076 11.50693498407617 1 0 0
795 265 1 0.5897 -5.729446256419158 9.831943871575831 11.274486687376198 1 0 0
744 248 1 0.5897 0.12298111315994831 7.388086689004292 10.759826891738939 0 0 0
793 265 2 -1.1794 -5.864805439232853 10.087925393639585 12.186856486355511 1 0 0
691 231 2 -1.1794 -2.569131173146812 10.017851736443397 9.628133744923467 0 0 0
759 253 1 0.5897 -5.692816588687079 9.13292494303433 13.693866592306936 1 0 0
703 235 2 -1.1794 -2.2670322251386668 8.661767465566658 12.109353640105105 0 0 0
704 235 1 0.5897 -1.3593667232291238 8.402185824907225 11.951216269855209 0 0 0
705 235 1 0.5897 -2.2306191319015323 9.18694356034328 12.908764248318397 0 0 0
743 248 1 0.5897 0.5056598383278712 8.848853346928953 10.865475206561536 0 0 0
836 279 1 0.5897 -4.933320820516831 8.179083893874138 10.103708246893913 1 0 0
586 196 2 -1.1794 -0.40073086678346703 6.1509706044537396 9.733726730963248 0 0 0
618 206 1 0.5897 -6.763225532971141 5.84853670100706 11.308201084130864 1 0 0
513 171 1 0.5897 -3.947259836844161 5.799153673186324 14.20008366844612 0 0 0
192 64 1 0.5897 0.7500068756508731 10.972340568365578 9.823079283798151 0 0 0
190 64 2 -1.1794 0.1769198696198928 10.21317630470842 9.716658530262324 0 0 0
726 242 1 0.5897 -0.09062553009064533 11.027160475058107 12.588373876832069 0 0 0
663 221 1 0.5897 -6.6950169628915175 5.76645300741058 13.724089677363489 1 0 0
835 279 2 -1.1794 -5.576065085043766 8.77842355057859 9.724304947289207 1 0 0
515 172 1 0.5897 -1.7095287703266902 6.762616636859396 14.356965160446759 0 0 0
514 172 2 -1.1794 -0.8998142681002816 6.361592185788887 14.041108272507905 0 0 0
534 178 1 0.5897 1.7782596472523302 7.095341899493689 11.771280063197441 0 0 0
725 242 1 0.5897 0.9924647467866716 11.228814613440317 13.626769651024667 0 0 0
797 266 1 0.5897 -6.752162151592982 10.722662730617245 16.906403177556115 1 0 0
695 232 1 0.5897 -2.5554395092558897 10.073313808520652 18.469144517679716 0 0 0
741 247 1 0.5897 -5.844892286418464 9.118762733882438 18.14003041505527 0 0 0
613 205 2 -1.1794 -7.250030419704631 6.401094925351115 16.951765394012497 1 0 0
740 247 1 0.5897 -6.236793659843801 7.825479168653802 17.457869855071493 0 0 0
568 190 2 -1.1794 -0.9540161747062941 7.352114564505478 17.97760978727058 0 0 0
333 111 1 0.5897 -7.932210379965104 9.616927970058603 18.7656973966905 1 0 -1
83 28 1 0.5897 -4.539299697356864 7.130724008661613 18.84932337684328 0 0 -1
758 253 1 0.5897 -5.424531503700374 9.263353268673265 15.178158197298126 1 0 0
84 28 1 0.5897 -3.631215528906761 5.979109990568711 18.47395628043037 0 0 -1
569 190 1 0.5897 -1.1291543589214728 6.685641232913013 18.64194048672188 0 0 0
749 250 1 0.5897 -2.6304560084180997 9.664120578639947 15.228266029685479 0 0 0
798 266 1 0.5897 -8.053660705050289 10.006954464388384 16.61380778958408 1 0 0
512 171 1 0.5897 -4.401165259931532 7.149798488864729 14.711254250575537 0 0 0
796 266 2 -1.1794 -7.632451024244041 10.580146091511969 17.254275757115586 1 0 0
706 236 2 -1.1794 -2.9040741301228117 9.199784062744076 16.920409297817343 0 0 0
707 236 1 0.5897 -3.756229641252065 8.825445703846961 17.143747624159495 0 0 0
708 236 1 0.5897 -2.276296273972741 8.506964652164692 17.125660518967678 0 0 0
739 247 2 -1.1794 -5.475944511202734 8.321790177553435 17.759455771198816 0 0 0
511 171 2 -1.1794 -3.699335735048157 6.50465037384884 14.797520925499342 0 0 0
757 253 2 -1.1794 -5.508918835464091 8.615953959717519 14.478222428298833 1 0 0
805 269 2 -1.1794 -5.170339285243859 10.882603619385998 15.881963256938452 1 0 0
615 205 1 0.5897 -7.090785612008412 5.940448118252053 16.12795603943637 1 0 0
748 250 2 -1.1794 -2.40151860905506 10.162933204823764 14.444017596404036 0 0 0
731 244 1 0.5897 -1.3805682327619015 11.168222323733943 15.505598008973529 0 0 0
762 254 1 0.5897 -7.504910218452426 8.444923638330765 15.000954300489232 1 0 0
570 190 1 0.5897 -0.13923404611448298 7.069028886549532 17.562602162329917 0 0 0
732 244 1 0.5897 -0.23054253607363506 11.375511483621928 16.468147862576537 0 0 0
807 269 1 0.5897 -4.447151997197125 11.34822596396373 16.301942549325325 1 0 0
82 28 2 -1.1794 -3.911525212601031 6.510078870070514 19.219409586583005 0 0 -1
280 94 2 -1.1794 -3.37731560127385 13.793996439132474 2.627524616732413 1 0 0
281 94 1 0.5897 -3.3466717182303043 13.299828310387388 3.446773868282199 1 0 0
282 94 1 0.5897 -2.494360387060796 14.150205287460855 2.5290195916191585 1 0 0
500 167 1 0.5897 -1.8020562429663163 16.00900366058919 0.6584442932593265 1 0 0
313 105 2 -1.1794 -0.7503900162672514 15.01284879210104 1.7970240988199795 1 0 0
315 105 1 0.5897 -0.4503157719687909 14.265847429754057 1.2792596946968557 1 0 0
180 60 1 0.5897 2.1200653253478396 13.910913902512993 4.043938741803143 0 0 0
770 257 1 0.5897 -1.5344709715071165 12.517344705497894 0.2005324131117476 1 0 1
771 257 1 0.5897 -0.09900885680000293 12.039468977273012 0.2558116726049897 1 0 1
423 141 1 0.5897 -2.7663970225615806 16.36491246719115 4.10353203903062 1 0 0
406 136 2 -1.1794 3.448664850106435 15.74814813177085 1.6353266085095413 0 0 0
408 136 1 0.5897 3.707505757852788 16.366914960156222 0.952416913543949 0 0 0
367 123 2 -1.1794 1.044212243712721 16.753774347925766 2.6557506484243776 0 0 0
215 72 1 0.5897 1.818331619282576 13.09186943617623 1.6760474845100346 0 0 0
216 72 1 0.5897 0.9774833819351887 12.401355132728597 2.7287071691762685 0 0 0
223 75 2 -1.1794 -0.6161738151800216 11.76656141016191 3.3289318186460104 0 0 0
225 75 1 0.5897 -0.7723131345074474 12.544477383326122 3.864264454247213 0 0 0
314 105 1 0.5897 0.053515566791275226 15.460963199293206 2.0599152224287356 1 0 0
252 84 1 0.5897 2.6767186525732827 14.569838312538085 0.6681848987179199 0 0 0
407 136 1 0.5897 4.263253282115894 15.311971223632598 1.8852804903001508 0 0 0
368 123 1 0.5897 1.9785294943367138 16.562267851088052 2.574293709979143 0 0 0
214 72 2 -1.1794 1.8736963706137502 12.677669373907017 2.5372631340144447 0 0 0
184 62 2 -1.1794 5.401584778373703 12.567793091045052 0.3418087759381056 0 0 0
250 84 2 -1.1794 2.2427222859611886 13.87535338103126 0.17275494588778745 0 0 0
499 167 2 -1.1794 -2.5234052378967355 16.351244810548042 0.13039278616057834 1 0 0
268 90 2 -1.1794 -3.26121873426042 12.334152068315943 0.30682396506795595 1 0 0
269 90 1 0.5897 -3.4771155584547713 12.820691479196865 1.1023597130893756 1 0 0
769 257 2 -1.1794 -0.6332401693152017 12.811016501208453 0.06737988103819177 1 0 1
404 135 1 0.5897 -1.7820998632494351 15.67254557259958 7.931651503933764 0 0 0
326 109 1 0.5897 -3.18502943081645 11.885137671102273 5.378140931172688 1 0 0
371 124 1 0.5897 0.15680893034643661 16.874413269246865 7.858445856485365 0 0 0
327 109 1 0.5897 -4.15189533895028 13.043731304163533 5.498969132102379 1 0 0
405 135 1 0.5897 -2.645890592170717 16.47310279614202 8.88286641049735 0 0 0
211 71 2 -1.1794 -0.2687230030650043 12.402106564825306 7.414048921821908 0 0 0
227 76 1 0.5897 1.5586956110809922 12.080334402932738 6.996740481168751 0 0 0
213 71 1 0.5897 -0.5378316402253707 12.979511192199958 6.699563432717835 0 0 0
212 71 1 0.5897 -0.4306122701190782 12.911330829994867 8.20820946762215 0 0 0
341 114 1 0.5897 2.8802902536322703 15.601996070342414 5.026488081147041 0 0 0
232 78 2 -1.1794 1.90485129774323 14.419242836989751 8.402686109100868 0 0 0
421 141 2 -1.1794 -2.7840814109402467 15.989298355173908 4.983817391797179 1 0 0
234 78 1 0.5897 1.2334012070349782 14.858320416572424 7.880519731132944 0 0 0
370 124 2 -1.1794 0.0461796295054584 16.11425566486461 7.287462245474575 0 0 0
179 60 1 0.5897 2.1334512413220974 13.501815164870912 5.501530612181723 0 0 0
277 93 2 -1.1794 -4.381920198471129 13.828782092658109 7.303672060203907 1 0 0
278 93 1 0.5897 -3.8544175416812587 14.58647230317949 7.556133200876159 1 0 0
175 59 2 -1.1794 -0.9024340582873425 13.969290607910517 5.066818420398055 0 0 0
325 109 2 -1.1794 -3.762975665304045 12.445882059271486 4.860611534378235 1 0 0
403 135 2 -1.1794 -2.634635292503022 15.667061666148262 8.366856534342013 0 0 0
226 76 2 -1.1794 2.2494140948291985 11.928921105666374 6.3515787301623465 0 0 0
267 89 1 0.5897 -3.8037935899963826 12.68523535831721 8.68011593691354 1 0 0
279 93 1 0.5897 -5.259320092493004 14.0274529799454 7.630703420151977 1 0 0
340 114 2 -1.1794 3.4807590909150283 16.347227513144354 5.013789667889099 0 0 0
1004 335 1 0.5897 -5.054890265135473 16.859145492961684 9.077429293924668 1 0 0
176 59 1 0.5897 -1.5248295405394108 14.690970668251458 4.977332653538955 0 0 0
233 78 1 0.5897 2.6387737212983016 14.30126996260794 7.799613718146204 0 0 0
756 252 1 0.5897 -1.676952479026395 14.337955563855049 9.45000264983628 0 0 0
690 230 1 0.5897 1.639524857607956 13.046781250514103 9.548488569879805 0 0 0
177 59 1 0.5897 -0.045473457385390326 14.37288849854079 4.929287917393997 0 0 0
372 124 1 0.5897 0.03343922873459704 16.47864349499713 6.402370504295518 0 0 0
266 89 1 0.5897 -3.4724007010039197 11.462064712602272 9.508296508555395 1 0 0
265 89 2 -1.1794 -3.9185204105561877 12.307746046832868 9.552265118568702 1 0 0
425 142 1 0.5897 -4.5741192807508355 16.127426895027188 4.914423147898661 1 0 0
422 141 1 0.5897 -2.5703933957324834 16.721753440975558 5.561706085452013 1 0 0
754 252 2 -1.1794 -0.8705540688258502 13.844050945281811 9.598470682840363 0 0 0
178 60 2 -1.1794 1.9287306539801126 14.236731965026612 4.923412358632615 0 0 0
688 230 2 -1.1794 1.8882477926178591 12.347358045516987 10.152806587752345 0 0 0
728 243 1 0.5897 -3.1481754333993957 11.9445791842936 12.383758088014668 0 0 0
727 243 2 -1.1794 -3.943531602436833 11.903033053715912 12.91472932548954 0 0 0
718 240 2 -1.1794 -1.3230052282625304 12.229337723033813 11.952828114516219 0 0 0
912 304 1 0.5897 1.1137213658867484 15.196210033742036 11.683827331393948 0 0 0
720 240 1 0.5897 -1.2005195253747045 12.926356709127905 12.597257715955925 0 0 0
755 252 1 0.5897 -0.34882987925758924 14.403530857790134 10.173756542968796 0 0 0
871 291 2 -1.1794 -2.128655810444325 16.314491866516587 12.242985184014202 0 0 0
831 277 1 0.5897 -7.594971917393864 11.946991424247805 14.098780697121583 1 0 0
784 262 2 -1.1794 -6.5273740663299495 13.867494663195478 12.024977110444597 1 0 0
729 243 1 0.5897 -4.098467160608716 12.80770047323148 13.18611715483345 0 0 0
911 304 1 0.5897 -0.3123328856733547 15.701731694630782 11.736418500310188 0 0 0
910 304 2 -1.1794 0.45986964008562126 15.671987336460681 11.171557034103747 0 0 0
1005 335 1 0.5897 -4.76695183509145 15.773107022632143 10.092115114935138 1 0 0
1003 335 2 -1.1794 -5.424062887259022 16.424189492114234 9.846062106873552 1 0 0
719 240 1 0.5897 -1.1748086884389797 12.654556499179906 11.108119553147189 0 0 0
786 262 1 0.5897 -6.727544844732359 13.54156492559952 12.902472753554871 1 0 0
817 273 2 -1.1794 -3.9489188689057917 14.486040338448888 11.068388179271246 1 0 0
818 273 1 0.5897 -4.7041759149606746 14.432483656772808 11.654013711470906 1 0 0
819 273 1 0.5897 -3.9322336139485787 13.6404691589447 10.620265044088798 1 0 0
873 291 1 0.5897 -2.723921908099354 15.586093459371801 12.066367995582041 0 0 0
682 228 2 -1.1794 -1.0877661296766936 13.930093452132544 14.057919439487538 0 0 0
785 262 1 0.5897 -7.120019674215609 14.609248338508124 11.903491323540338 1 0 0
872 291 1 0.5897 -2.314996978698504 16.94967070717925 11.551533836476306 0 0 0
773 258 1 0.5897 -6.651251020277398 12.733999129989401 10.732443051363282 1 0 0
680 227 1 0.5897 -2.9101332036636522 14.3649731132255 14.336060299720259 0 0 0
926 309 1 0.5897 -5.113888406295867 15.480926946407546 14.353876775073493 1 0 0
774 258 1 0.5897 -5.725236853257712 12.13936838704824 9.692841904544863 1 0 0
846 282 1 0.5897 0.41938330330718276 16.86425946896053 14.074096081642974 0 0 0
684 228 1 0.5897 -0.5619333715601078 14.655745566646791 14.394116293964448 0 0 0
925 309 2 -1.1794 -5.757600794924292 16.167799234147065 14.18046810130792 1 0 0
829 277 2 -1.1794 -6.875585120686196 12.497165283840868 14.408520111103847 1 0 0
875 292 1 0.5897 -3.176155269225995 16.61745337726967 16.030086532912556 0 0 0
683 228 1 0.5897 -1.0049367409089776 13.245912313860897 14.722216092745839 0 0 0
717 239 1 0.5897 -2.542704190396769 12.348364715865147 16.839677465966773 0 0 0
783 261 1 0.5897 -8.367763942777707 14.214093459556366 16.799148022033876 1 0 0
927 309 1 0.5897 -5.56858887569712 16.843554121964107 14.831444173650818 1 0 0
681 227 1 0.5897 -3.803328624424135 13.707556108160686 15.366551317029058 0 0 0
830 277 1 0.5897 -7.262709069201035 13.029538408195686 15.103440777050938 1 0 0
737 246 1 0.5897 -0.8583562794956405 15.460850402601073 18.39085902142611 0 0 0
715 239 2 -1.1794 -3.4370865796730135 12.685982575316926 16.88815975728985 0 0 0
716 239 1 0.5897 -3.5316495886652417 12.985940565561515 17.79223389313163 0 0 0
874 292 2 -1.1794 -3.3049785937766396 16.273408108430107 16.914027766378688 0 0 0
907 303 2 -1.1794 -5.779841707914114 15.707397528306638 18.031152296820146 0 0 0
930 310 1 0.5897 -7.5435757256317855 16.015057836832067 14.522706201818295 1 0 0
876 292 1 0.5897 -2.610147565016457 15.62403643301683 17.02245743705931 0 0 0
736 246 2 -1.1794 -1.1460151480806262 14.74412556688223 17.825465464635293 0 0 0
909 303 1 0.5897 -4.936551382825338 15.794377824435578 17.586741028769964 0 0 0
781 261 2 -1.1794 -7.474207527780999 13.90294986299302 16.6542349745254 1 0 0
782 261 1 0.5897 -7.237866439021245 13.462972360720032 17.47086998606369 1 0 0
730 244 2 -1.1794 -0.9471126509272523 11.838392937793593 16.03390923806228 0 0 0