LAMMPS data file via write_data, version 30 Jul 2021, timestep = 20500000

864 atoms
2 atom types
576 bonds
1 bond types
288 angles
1 angle types

0.16254398906891687 18.045028410938386 xlo xhi
0.16811700418575093 23.46106079582506 ylo yhi
0.07628382664839606 22.136911973348887 zlo zhi

Masses

1 1.00794
2 15.9994

Atoms # full

707 1 1 0.5897 3.390834480444464 1.8973378362905982 3.7027196944459826 0 0 0
706 1 2 -1.1794 3.293243339301315 1.8256680754884522 2.7531154381706964 0 0 0
30 1 1 0.5897 5.579787202809931 3.9248839665954676 1.924361319111781 0 0 0
708 1 1 0.5897 2.5926747256630267 2.441140032186343 2.5366942437045856 0 0 0
29 1 1 0.5897 4.710603112216194 2.6871613065883198 1.9926498682583005 0 0 0
28 1 2 -1.1794 5.493329271680478 3.0401703163851197 1.5693385794392467 0 0 0
3 1 1 0.5897 0.9602347013573111 4.11648026634477 2.253131544303924 0 0 0
846 1 1 0.5897 7.604324495139141 1.61968301241634 4.97963337609641 0 0 0
495 1 1 0.5897 8.185675106558246 2.130941820236206 2.8516140407803396 0 0 0
494 1 1 0.5897 6.686617566848647 1.976459229792354 2.7045702557641733 0 0 0
493 1 2 -1.1794 7.454338745275836 1.5671209193347564 3.1039390489556893 0 0 0
595 1 2 -1.1794 1.0159602357307813 5.769170501671401 2.978335450311913 0 0 0
1 1 2 -1.1794 0.9718601756569126 3.240899207235726 1.8665436784894958 0 0 0
597 1 1 0.5897 0.8418706722660172 5.80916633576797 3.918823177922049 0 0 0
136 1 2 -1.1794 5.309708393610612 5.4142169386417445 2.8287819991238345 0 0 0
137 1 1 0.5897 5.299202780983776 5.40514129192769 3.785965099961367 0 0 0
2 1 1 0.5897 0.17878089622808913 2.8208947259726536 2.199835383541185 0 0 0
685 1 2 -1.1794 5.314965194833402 5.659302938404919 5.50750672347348 0 0 0
83 1 1 0.5897 4.748472675208377 2.851106664464669 6.353205833247945 0 0 0
784 1 2 -1.1794 1.1660332714407424 3.2147190511420507 6.349665254036228 0 0 0
82 1 2 -1.1794 5.527847340126594 3.2253987050471333 6.764243321055483 0 0 0
488 1 1 0.5897 2.564192083849812 2.3894327423166586 5.802611055449757 0 0 0
674 1 1 0.5897 3.7847517419190173 2.6958768853169826 10.195341715674287 0 0 0
356 1 1 0.5897 7.672849795936092 1.0278536011681718 10.081301735202862 0 0 0
183 1 1 0.5897 0.5677019934668343 4.905685932465821 6.0747223379528235 0 0 0
686 1 1 0.5897 5.352297896798392 4.762903114411308 5.841152347546295 0 0 0
845 1 1 0.5897 7.883936953632587 0.9220686515397736 6.2939189024621465 0 0 0
673 1 2 -1.1794 3.0134450163329976 2.206903116761467 10.482463848874897 0 0 0
112 1 2 -1.1794 0.510075675474436 5.708430928931578 10.30072866515634 0 0 0
274 1 2 -1.1794 5.400714127189217 3.3113319325003063 9.409268439889992 0 0 0
678 1 1 0.5897 5.394258640855867 5.047680824943782 10.134485986205451 0 0 0
786 1 1 0.5897 0.2950460493002173 2.9185628199013336 6.084702319357983 0 0 0
36 1 1 0.5897 1.657231764143123 2.7289466508643296 9.755071898978327 0 0 0
355 1 2 -1.1794 7.788821363110601 1.9598924185466786 10.26586343458975 0 0 0
785 1 1 0.5897 1.159964586128737 3.1536537114224856 7.304977654374718 0 0 0
84 1 1 0.5897 6.260598245145513 2.7728645629107054 6.346242017999675 0 0 0
276 1 1 0.5897 6.231209769082993 2.9044703383154764 9.656677439234356 0 0 0
675 1 1 0.5897 3.0573825455643555 1.382977492383829 9.997214126315528 0 0 0
275 1 1 0.5897 5.419326669358538 3.332144547029419 8.452398375942368 0 0 0
35 1 1 0.5897 0.7743369054113807 3.9334203864349786 9.50625352002416 0 0 0
34 1 2 -1.1794 0.8532884919443239 2.9996157171791356 9.311324670691121 0 0 0
181 1 2 -1.1794 0.5570873995052039 5.8059074167262565 5.7495964218998665 0 0 0
844 1 2 -1.1794 7.723944685529651 1.786259485401222 5.914684959926359 0 0 0
676 1 2 -1.1794 5.255968635130982 5.918454099573343 10.50720555369509 0 0 0
687 1 1 0.5897 4.465504757652279 5.989316376202935 5.80076124512008 0 0 0
487 1 2 -1.1794 3.408544393160761 1.9883336327288983 5.596056890421299 0 0 0
489 1 1 0.5897 3.3156613237659682 1.0770866276886994 5.8740503722245405 0 0 0
166 1 2 -1.1794 2.751123147901193 1.8128301792312222 13.213951630049102 0 0 0
167 1 1 0.5897 2.8947936887838415 1.9779924562640667 12.282038034908783 0 0 0
457 1 2 -1.1794 4.905209137900133 3.3558157857188413 14.273717298597273 0 0 0
458 1 1 0.5897 5.631664724342456 2.940371792414412 13.808843280576397 0 0 0
459 1 1 0.5897 4.125186189677477 2.90083132522944 13.955912041125822 0 0 0
762 1 1 0.5897 5.285297110857683 4.982907878888001 13.780396708100273 0 0 0
594 1 1 0.5897 7.908249445401667 2.6458358915959637 13.258510636145807 0 0 0
168 1 1 0.5897 1.9642635076757424 2.314267668738364 13.428099274284902 0 0 0
365 1 1 0.5897 0.6822537810237038 5.144131151969761 13.209565037805865 0 0 0
133 1 2 -1.1794 0.6212822404349841 3.1617023184541435 16.29562895861728 0 0 0
593 1 1 0.5897 7.204777974055531 1.305814095957659 13.296929564520676 0 0 0
592 1 2 -1.1794 7.160317401664624 2.1727243569712438 12.893534936775861 0 0 0
466 1 2 -1.1794 0.5713748712660699 3.4663211497582735 13.4927234362491 0 0 0
71 1 1 0.5897 4.920367644036083 3.3110402406793678 16.167966446138216 0 0 0
468 1 1 0.5897 0.5547462279789825 3.411993544500573 14.44831344436064 0 0 0
761 1 1 0.5897 5.310618832060577 5.684734158939817 12.439143039371677 0 0 0
760 1 2 -1.1794 5.4725442762282235 5.82797595915104 13.371688259921848 0 0 0
357 1 1 0.5897 7.626430696747223 2.04045203787165 11.205831306869227 0 0 0
113 1 1 0.5897 0.7485634175477922 5.875353736611578 11.212674574231496 0 0 0
754 1 2 -1.1794 7.458961073513331 2.151707610109389 17.46435078337385 0 0 0
19 1 2 -1.1794 0.7722265251431113 3.3118922486604356 21.18783465664169 0 0 0
21 1 1 0.5897 0.788356297345496 4.260031806447301 21.057525173401697 0 0 0
755 1 1 0.5897 7.520256673834449 1.9957211079591433 18.40686256309144 0 0 0
290 1 1 0.5897 2.5208087393440097 0.7475515109566628 16.973665692079347 0 0 0
42 1 1 0.5897 7.441292605688159 1.0586876019940537 20.58357980435036 0 0 0
289 1 2 -1.1794 2.6210807341265454 1.6431835952082243 17.296198466002167 0 0 0
41 1 1 0.5897 6.658461124032652 2.348219616427345 20.455684353684283 0 0 0
143 1 1 0.5897 5.181267501419018 5.021802547554715 20.507756736146984 0 0 0
569 1 1 0.5897 2.1597682526760877 2.5144811592507463 20.32747844332857 0 0 0
599 1 1 0.5897 8.952737104318247 2.9973890623629615 17.162423247750837 0 0 0
570 1 1 0.5897 2.7268067554950393 1.6940926815567368 19.188311190425917 0 0 0
40 1 2 -1.1794 7.48515169454721 1.9362877677159611 20.203940678073508 0 0 0
291 1 1 0.5897 1.98546165328487 2.1520469298821965 16.79275770158881 0 0 0
667 1 2 -1.1794 5.316477543609279 3.2941952826251373 21.017035630801086 0 0 0
70 1 2 -1.1794 4.920295739924943 3.4320660528007223 17.11756902447744 0 0 0
568 1 2 -1.1794 2.9067891282346507 1.9655854060010853 20.08846553758365 0 0 0
756 1 1 0.5897 6.633737995154018 2.623868897584847 17.35241463735815 0 0 0
669 1 1 0.5897 4.48684521968742 2.923515095692719 20.715735980483085 0 0 0
278 1 1 0.5897 4.9051338775053255 5.267991953291646 17.22242279067801 0 0 0
134 1 1 0.5897 0.6775122726480628 4.035664883199793 16.681970187385033 0 0 0
72 1 1 0.5897 4.200025688238772 2.883944561047649 17.429334280959097 0 0 0
81 1 1 0.5897 2.9825866270211785 0.3398611711573777 20.625307399435112 0 1 0
648 1 1 0.5897 0.5766668075827102 5.840915374872344 19.34674019373176 0 0 0
323 1 1 0.5897 7.510117102619104 0.42318653998759315 17.039460853193358 0 1 0
360 1 1 0.5897 8.953637703196941 2.7983169861349855 21.011831483622917 0 0 0
646 1 2 -1.1794 0.5592630938148725 5.920461473694643 20.300546940329124 0 0 0
668 1 1 0.5897 5.278798373744613 3.2230028588136124 21.97092254793486 0 0 -1
571 1 2 -1.1794 0.45157425264919204 5.631936792915656 17.587566987024953 0 0 0
20 1 1 0.5897 0.8563957834003987 3.1982818063687746 22.134615280953813 0 0 -1
142 1 2 -1.1794 5.185066523291606 5.96111072360002 20.323640477710573 0 0 0
253 1 2 -1.1794 3.2495518093257547 7.048675053460002 2.0313369800120307 0 0 0
123 1 1 0.5897 3.0889302086669246 8.797188982468503 2.4623258590027537 0 0 0
121 1 2 -1.1794 3.123872348567944 9.686152069244345 2.8155368286003077 0 0 0
122 1 1 0.5897 3.1876042800052535 9.565648035664578 3.763080520898197 0 0 0
44 1 1 0.5897 1.5299493630758376 10.173017664516834 2.454620858824636 0 0 0
218 1 1 0.5897 6.093124859280206 10.825324597343268 2.3864791434136308 0 0 0
417 1 1 0.5897 8.354446936164248 6.596884596860994 2.3099118363983044 0 0 0
219 1 1 0.5897 4.586386928112101 10.826999619636517 2.5361615368120454 0 0 0
396 1 1 0.5897 0.9321707191071412 10.849864781065698 0.3355223001706463 0 0 0
415 1 2 -1.1794 7.583990601224772 7.0990845335221815 2.0441558573914014 0 0 0
43 1 2 -1.1794 0.7668774141319148 10.636723953114398 2.1094539753462063 0 0 0
254 1 1 0.5897 3.1570454849725933 6.946167200773744 1.0840663755596003 0 0 0
217 1 2 -1.1794 5.324006974298106 11.388166544376924 2.2965347874191475 0 0 0
66 1 1 0.5897 7.36798087517484 9.570231004028365 3.5851638784035265 0 0 0
65 1 1 0.5897 7.53347916781461 8.767306684140932 2.3123384514070686 0 0 0
64 1 2 -1.1794 7.5106673949972045 9.665157742737831 2.6433468180577098 0 0 0
416 1 1 0.5897 6.840741945508417 6.571544667678946 2.33691574968152 0 0 0
255 1 1 0.5897 2.476103225815731 6.618258782819439 2.3959896098066644 0 0 0
138 1 1 0.5897 4.637777174497886 6.0518984899424515 2.5874191886029156 0 0 0
596 1 1 0.5897 0.2813476905915998 6.234733729821705 2.5782915557636694 1 0 0
773 1 1 0.5897 9.03305508903922 10.382677507639649 2.2048469030850613 0 0 0
45 1 1 0.5897 0.8876808781241559 11.542628642965953 2.394041364790264 0 0 0
712 1 2 -1.1794 7.508130484929662 9.684744294345098 5.445149440971552 0 0 0
363 1 1 0.5897 5.063193422399728 10.974956545557491 0.5185617275327704 0 0 1
162 1 1 0.5897 7.298811254336954 7.24971083789288 0.18942541373646193 0 0 1
551 1 1 0.5897 0.8915147955955887 10.836378238970736 7.911752591622923 0 0 0
12 1 1 0.5897 3.0699317884565964 7.648062302048826 6.113637130356373 0 0 0
10 1 2 -1.1794 2.984734839724469 6.752358917592158 6.440281251119448 0 0 0
795 1 1 0.5897 3.78556560995145 9.992733042891274 5.7368802662637846 0 0 0
526 1 2 -1.1794 7.243898713715664 7.326651002362214 9.337841922408842 0 0 0
577 1 2 -1.1794 5.194213073991412 10.786766783606593 6.39018185154039 0 0 0
145 1 2 -1.1794 7.277627916325726 7.179924356809317 6.6204556164453106 0 0 0
13 1 2 -1.1794 0.7804901940873802 10.963908898206094 9.745773262475819 0 0 0
256 1 2 -1.1794 2.9730341877638873 9.417508674507623 10.508246028849342 0 0 0
580 1 2 -1.1794 4.849562541047024 10.861449202369714 9.077067986676314 0 0 0
650 1 1 0.5897 2.965417242659196 6.799175615733846 8.34053950094426 0 0 0
822 1 1 0.5897 7.999182728697196 10.285093901033122 10.027143285885238 0 0 0
527 1 1 0.5897 7.446335557626765 8.211489263736448 9.641708825336382 0 0 0
15 1 1 0.5897 1.506601828237931 10.560104121500084 10.22131944961954 0 0 0
582 1 1 0.5897 4.861610190449372 10.850516859800026 8.119918874460838 0 0 0
820 1 2 -1.1794 7.165454825401811 9.895246650732666 10.2906110761232 0 0 0
581 1 1 0.5897 5.714732626684108 10.54024364497373 9.331662556313084 0 0 0
147 1 1 0.5897 7.342613643022227 7.184662404626161 7.575521401507164 0 0 0
649 1 2 -1.1794 2.867452793934202 6.853617111970508 9.291248267253165 0 0 0
714 1 1 0.5897 7.498512952460847 8.816632485612825 5.848295286349783 0 0 0
794 1 1 0.5897 2.321071014973342 9.824242677824568 6.082576106479726 0 0 0
258 1 1 0.5897 3.630700679843177 9.930035133078706 10.037914752394913 0 0 0
528 1 1 0.5897 8.055993924692038 6.836698850265912 9.467824578792216 0 0 0
257 1 1 0.5897 2.938119838932803 8.58379912436108 10.039250712439461 0 0 0
11 1 1 0.5897 2.1180194443574054 6.471221681213157 6.146557175364478 0 0 0
578 1 1 0.5897 6.03072406914533 10.355557546831207 6.214703737299362 0 0 0
550 1 2 -1.1794 1.0700677324976104 10.7359977003718 6.976641383967565 0 0 0
579 1 1 0.5897 5.349219227725645 11.706906392251284 6.176777188322681 0 0 0
146 1 1 0.5897 6.4926278239164725 6.664040592194917 6.435851262374448 0 0 0
677 1 1 0.5897 5.986577967947151 6.440340614354579 10.175147268856898 0 0 0
651 1 1 0.5897 3.7137797796523047 6.568876991755906 9.636421003885683 0 0 0
713 1 1 0.5897 8.320354360313319 10.084764829895605 5.756187474874583 0 0 0
165 1 1 0.5897 8.764148829889399 6.441541819682585 6.031832560175318 0 0 0
552 1 1 0.5897 1.25398412083595 11.624146023658609 6.67069963484817 0 0 0
114 1 1 0.5897 1.1916227972774576 6.146103322237834 9.790463892966825 0 0 0
793 1 2 -1.1794 3.0383076942522105 9.409574502186256 5.602915907170166 0 0 0
826 1 2 -1.1794 7.721459606201433 7.264511722623216 13.981348051565218 0 0 0
827 1 1 0.5897 6.957376567400123 6.797202232521134 13.64334682671077 0 0 0
332 1 1 0.5897 3.1031410092479845 7.959703941230907 13.730362943098749 0 0 0
797 1 1 0.5897 2.8826223431452194 9.506612333966451 12.174352475987234 0 0 0
796 1 2 -1.1794 3.015098468298797 9.628526897406331 13.114559120193604 0 0 0
798 1 1 0.5897 2.1637803075220465 9.920389338142686 13.441005441046823 0 0 0
722 1 1 0.5897 4.530917595089873 10.446361383146263 13.622420932649444 0 0 0
261 1 1 0.5897 0.7702468542411082 10.663118923906353 14.854312222460232 0 0 0
723 1 1 0.5897 5.46609142656288 10.795925634762154 14.76068718764866 0 0 0
828 1 1 0.5897 7.610388608210633 7.250106008935071 14.932055387607223 0 0 0
259 1 2 -1.1794 0.7347893374928575 10.694962945421276 13.8982131198426 0 0 0
331 1 2 -1.1794 3.1513660355699353 7.096487828302068 14.141182094929166 0 0 0
225 1 1 0.5897 2.8122528887294767 7.331634650229109 15.906080903240564 0 0 0
721 1 2 -1.1794 5.417246088625473 10.758553817216852 13.805385430981083 0 0 0
475 1 2 -1.1794 7.865480640765685 9.873458083643829 13.116530046937497 0 0 0
476 1 1 0.5897 6.974777599889662 10.13468235978538 13.350884150611328 0 0 0
477 1 1 0.5897 7.9442889831712336 8.975046486983679 13.437263424758832 0 0 0
333 1 1 0.5897 3.9446002340556623 6.702039986836653 13.778337121008155 0 0 0
366 1 1 0.5897 1.609473332469007 6.3375000041904945 13.30057889189266 0 0 0
364 1 2 -1.1794 0.7363698711739772 6.077857584188758 13.005997420815682 0 0 0
851 1 1 0.5897 9.049373334099592 6.364246640909577 13.202990129588706 0 0 0
679 1 2 -1.1794 5.464523857633664 10.896279592849332 16.510963837595305 0 0 0
821 1 1 0.5897 7.262780237412802 9.731895198367484 11.228821548553217 0 0 0
462 1 1 0.5897 8.738103736145753 6.46205743957016 20.960889390243647 0 0 0
141 1 1 0.5897 7.37999170136458 9.035670317411997 20.69403517484577 0 0 0
572 1 1 0.5897 1.1052587079721856 6.28284197292858 17.331838841977227 0 0 0
9 1 1 0.5897 6.942264178587448 10.224961672033668 17.439376279534244 0 0 0
4 1 2 -1.1794 2.8435247684311817 6.8628272712327565 21.30656764316246 0 0 0
627 1 1 0.5897 2.4892376309511954 10.250954681455317 17.520557978826364 0 0 0
647 1 1 0.5897 1.365628992002731 6.388812808100975 20.517065285590583 0 0 0
522 1 1 0.5897 7.372394499885799 8.21873256818501 16.99284137802716 0 0 0
140 1 1 0.5897 6.654497339246947 10.356977531782912 20.834978250739802 0 0 0
521 1 1 0.5897 6.493938970142013 6.986082864946624 16.96124224486412 0 0 0
690 1 1 0.5897 2.342174558838688 9.94133972219105 20.845554898767805 0 0 0
625 1 2 -1.1794 3.2685008899944816 9.722898337164862 17.694764622661143 0 0 0
688 1 2 -1.1794 3.0923668029506173 9.468630471518303 20.484664783138328 0 0 0
224 1 1 0.5897 2.5980567567350024 8.286822828793456 17.060999163013314 0 0 0
361 1 2 -1.1794 5.029349713210227 10.840941127956881 21.631944678487855 0 0 0
689 1 1 0.5897 3.856121773511435 9.914522700799552 20.851155168448173 0 0 0
161 1 1 0.5897 6.489057677077466 6.9125775377461744 21.015951072148592 0 0 0
626 1 1 0.5897 3.2654507044869483 9.596361912501623 18.643634669198715 0 0 0
139 1 2 -1.1794 7.441818247402749 9.96180950649023 20.460222665062034 0 0 0
6 1 1 0.5897 2.8352115872899977 7.757742350394068 20.96695390776062 0 0 0
223 1 2 -1.1794 2.465912443105045 7.376175266834478 16.79740898024048 0 0 0
8 1 1 0.5897 7.627193867183172 9.776435623615866 18.7129600429609 0 0 0
7 1 2 -1.1794 7.687291612047068 9.716138429078127 17.759469646550027 0 0 0
160 1 2 -1.1794 7.296780258233438 7.34257466103726 21.29728571475623 0 0 0
394 1 2 -1.1794 0.9810645000909958 10.906124432194265 21.441770722719752 0 0 0
5 1 1 0.5897 3.6542628516310813 6.484446248049406 20.965978314114665 0 0 0
680 1 1 0.5897 4.698586397370696 10.523516844146181 16.94781906534324 0 0 0
445 1 2 -1.1794 0.9485152127214853 10.925018036406117 16.99849239931627 0 0 0
277 1 2 -1.1794 5.021311197528856 6.185506018501844 17.469185185673048 0 0 0
279 1 1 0.5897 4.168305248148221 6.5879371858190225 17.30513038578801 0 0 0
520 1 2 -1.1794 7.376725528175435 7.292172802614493 16.752679554086207 0 0 0
395 1 1 0.5897 0.1899749228418014 10.463223174126272 21.13438964314875 0 0 0
681 1 1 0.5897 5.475149540345812 11.8130223115075 16.786067930169988 0 0 0
711 1 1 0.5897 8.76336764165685 6.401429033883262 17.66467356481875 0 0 0
447 1 1 0.5897 0.1740395404620756 10.550630266537066 17.418589442151568 1 0 0
362 1 1 0.5897 5.112343324166398 11.719875917733667 21.262059803264993 0 0 0
144 1 1 0.5897 5.2772404040008665 6.018917106198132 19.372543067324607 0 0 0
200 1 1 0.5897 5.318463381020389 13.579864544380127 5.013370244409973 0 0 0
173 1 1 0.5897 4.445201776284863 14.278280984922368 2.818095273362738 0 0 0
172 1 2 -1.1794 5.246470621458662 13.896605008607487 3.176923526580903 0 0 0
374 1 1 0.5897 1.0279400529875662 13.148211359940477 3.957740144786366 0 0 0
558 1 1 0.5897 3.0148529670817403 14.941057306896356 1.3060677830987317 0 0 0
556 1 2 -1.1794 2.939011931839783 15.10691948347358 2.2458077653106585 0 0 0
557 1 1 0.5897 2.208891782116228 14.556131931417339 2.528612224909338 0 0 0
478 1 2 -1.1794 7.6357715431847115 14.904397640135462 2.5066422046531516 0 0 0
174 1 1 0.5897 5.264805072079562 13.005406600914545 2.828137385760916 0 0 0
293 1 1 0.5897 3.0149396934505366 16.771694315349684 2.664975702855659 0 0 0
479 1 1 0.5897 8.211190578384109 14.216634873091195 2.8416401184139253 0 0 0
449 1 1 0.5897 7.589416613097108 16.72934296710625 2.8106667681977804 0 0 0
480 1 1 0.5897 6.756702152141651 14.63122863732556 2.7695546811155203 0 0 0
373 1 2 -1.1794 1.0415471226182116 13.27591501203681 3.009119229751652 0 0 0
308 1 1 0.5897 7.533935908611406 17.508923190546177 4.906757818433797 0 0 0
317 1 1 0.5897 7.392560895258287 14.969877731862855 0.5187564153988925 0 0 0
375 1 1 0.5897 0.2597830360876401 13.797174912359317 2.8258970898637603 0 0 0
384 1 1 0.5897 2.896276281180461 16.68740441778462 10.35808938753129 0 0 0
766 1 2 -1.1794 0.9731805103012066 13.572772735016274 10.454543374410454 0 0 0
454 1 2 -1.1794 5.218060595649902 13.438547667390322 9.943701114549343 0 0 0
199 1 2 -1.1794 5.361079134352413 13.499309029488595 5.966312039395295 0 0 0
811 1 2 -1.1794 3.0597265523797046 14.960832733864368 9.280315391938645 0 0 0
456 1 1 0.5897 5.129199642166446 12.606767998751142 9.478402780186403 0 0 0
813 1 1 0.5897 2.3147725298706128 14.40911006497654 9.519194929209737 0 0 0
17 1 1 0.5897 3.1023830224132545 15.0236239923488 7.469914630797421 0 0 0
382 1 2 -1.1794 2.724912535445612 17.556707912325727 10.720277766364683 0 0 0
239 1 1 0.5897 3.243865543575888 16.828231436906464 5.942190767598348 0 0 0
377 1 1 0.5897 6.628255530437934 14.387363864187195 9.62022875695401 0 0 0
657 1 1 0.5897 0.5973274639031937 13.86440902081358 6.052784798994937 1 0 0
519 1 1 0.5897 8.37643803835216 14.536076241684471 6.466805882932405 0 0 0
812 1 1 0.5897 3.8281117882234934 14.453413455927485 9.542143233068249 0 0 0
18 1 1 0.5897 4.1808920919032335 14.725319343654546 6.449946203026265 0 0 0
376 1 2 -1.1794 7.410469677190124 14.90771624912479 9.436349402588498 0 0 0
16 1 2 -1.1794 3.3049449874895402 15.101538412582522 6.5375483639798935 0 0 0
517 1 2 -1.1794 7.55666545960191 14.935921360711006 6.757625270779508 0 0 0
186 1 1 0.5897 7.338718663053735 16.609555333879293 10.07730984649419 0 0 0
378 1 1 0.5897 7.451858653181513 14.949393467124997 8.48087698039094 0 0 0
518 1 1 0.5897 7.529694249295345 15.781178719143675 6.3092320845542265 0 0 0
656 1 1 0.5897 2.096856119691111 13.840369073985732 5.844210289157977 0 0 0
59 1 1 0.5897 8.787304713772295 13.865479907339498 9.686911870962955 0 0 0
201 1 1 0.5897 6.192958812328391 13.908646126612776 6.2048381478511425 0 0 0
184 1 2 -1.1794 7.32365072479616 17.469694861902063 10.497042158827629 0 0 0
655 1 2 -1.1794 1.3034943810198916 13.32557271789099 5.695864413426911 0 0 0
307 1 2 -1.1794 7.503596048274498 17.47911504264971 5.863093585289711 0 0 0
455 1 1 0.5897 5.1420036382622385 13.205307323884774 10.869007072745182 0 0 0
14 1 1 0.5897 0.8662144440322468 11.89991769127363 9.926730608888237 0 0 0
296 1 1 0.5897 7.481768445810824 14.553761974755824 14.693027805991878 0 0 0
232 1 2 -1.1794 2.9578179225885206 14.583787107056946 13.885355801223838 0 0 0
234 1 1 0.5897 3.113459329691718 14.69551036672951 14.823274595113825 0 0 0
606 1 1 0.5897 2.8936512524757334 16.394502921199212 13.477801993409512 0 0 0
427 1 2 -1.1794 5.254619638756166 13.275934305699327 12.689042942888024 0 0 0
233 1 1 0.5897 3.7967688210324866 14.281353012244049 13.537238861045461 0 0 0
639 1 1 0.5897 1.3598153533424162 13.653683868921439 13.44176009173516 0 0 0
429 1 1 0.5897 5.934391564538647 13.836325034306096 13.063595862285368 0 0 0
428 1 1 0.5897 5.325193833252596 12.454945377808984 13.17613203327403 0 0 0
637 1 2 -1.1794 0.5167485982272305 13.329669468982017 13.124359238754774 0 0 0
638 1 1 0.5897 0.5212654938810196 12.397225685754162 13.34057105973164 0 0 0
295 1 2 -1.1794 7.363073519938408 14.60793931342001 13.744682609783473 0 0 0
270 1 1 0.5897 7.364923263233294 16.287318350303494 13.333771538806278 0 0 0
297 1 1 0.5897 8.187227093460766 14.284156245904796 13.38078688539651 0 0 0
269 1 1 0.5897 7.433422150277302 17.401469443271267 12.311030823611995 0 0 0
268 1 2 -1.1794 7.222358102879625 17.22795541795181 13.228488795275316 0 0 0
605 1 1 0.5897 3.020095380579743 17.39148301076336 12.345491141499954 0 0 0
604 1 2 -1.1794 3.05008912602146 17.321894705045864 13.299763547422746 0 0 0
49 1 2 -1.1794 7.4632652038312965 14.584067166755904 16.603077412037667 0 0 0
767 1 1 0.5897 0.8448229331661274 13.539279614303574 11.402593040705593 0 0 0
451 1 2 -1.1794 1.1535833254610068 13.541609415347995 20.44393167977114 0 0 0
664 1 2 -1.1794 3.27762046575568 14.676989065086602 21.669869581605063 0 0 0
54 1 1 0.5897 0.35680417026869493 14.040323071389206 17.36806231938947 0 0 0
157 1 2 -1.1794 7.405907656370189 17.440032771672087 20.632247465202223 0 0 0
51 1 1 0.5897 8.151013711128991 14.137815309277562 17.097327348784397 0 0 0
53 1 1 0.5897 1.0718432147462613 13.52608661571484 18.59955738233728 0 0 0
125 1 1 0.5897 5.574875014819885 13.275500906811923 18.5747629575966 0 0 0
124 1 2 -1.1794 5.392701162707898 13.342207138654823 17.637347707023284 0 0 0
684 1 1 0.5897 4.759434622393802 13.87343459331833 20.82320703171035 0 0 0
50 1 1 0.5897 7.510424984695004 15.494510644319693 16.89481225843542 0 0 0
666 1 1 0.5897 3.1800689140887703 15.577709029796573 21.360975818315357 0 0 0
316 1 2 -1.1794 7.484686315426714 14.844430449240386 21.634844594043887 0 0 0
452 1 1 0.5897 1.1585676787403496 12.61772923140979 20.694236712647147 0 0 0
318 1 1 0.5897 7.347803470638139 15.71557072376205 21.26253659426159 0 0 0
665 1 1 0.5897 2.5532553938924 14.203288805098254 21.26080828121666 0 0 0
584 1 1 0.5897 3.3186912245504723 16.514246874723376 17.612240917877767 0 0 0
683 1 1 0.5897 6.237159933003886 13.642212836711407 21.058925370681298 0 0 0
126 1 1 0.5897 6.1237124532010645 13.851041305671005 17.286438078637406 0 0 0
682 1 2 -1.1794 5.482485628438992 13.293256367981185 20.584413777398623 0 0 0
159 1 1 0.5897 7.33474411865349 17.535428483291774 19.682398381339127 0 0 0
825 1 1 0.5897 2.5242025031731785 14.555075120731576 17.037638546989253 0 0 0
824 1 1 0.5897 4.0348278780084526 14.52829011744494 16.93777081898127 0 0 0
52 1 2 -1.1794 1.1429063531210097 13.56992028887371 17.645928750591636 0 0 0
453 1 1 0.5897 0.301826841696145 13.865207810838337 20.737670242507647 0 0 0
610 1 2 -1.1794 7.501757714629101 17.095709322949155 17.847004880272987 0 0 0
583 1 2 -1.1794 3.3319753385271236 17.360720672581536 18.058951433743413 0 0 0
117 1 1 0.5897 8.988806123505446 14.1676515512639 20.684713449865207 0 0 0
823 1 2 -1.1794 3.2662527237103336 15.02537620587484 16.657349098688822 0 0 0
612 1 1 0.5897 8.2675792307663 17.561044775139266 17.510214683828263 0 0 0
715 1 2 -1.1794 2.972458685433078 17.14400389448663 20.608778881008675 0 0 0
716 1 1 0.5897 3.077056142843851 17.102801102650695 19.658123434775373 0 0 0
611 1 1 0.5897 6.753644629516085 17.586853039760378 17.507100045300387 0 0 0
446 1 1 0.5897 0.9530782958496733 11.840961930662674 17.276439922482407 0 0 0
267 1 1 0.5897 6.173103081943337 21.79972508090868 2.6617310835596144 0 0 0
696 1 1 0.5897 1.4453102170418806 21.568012180789026 2.4639715603941856 0 0 0
266 1 1 0.5897 4.6614125249880685 21.885028247021253 2.646420748320825 0 0 0
265 1 2 -1.1794 5.388729041825487 21.407090856489226 3.0452212289128067 0 0 0
344 1 1 0.5897 1.380806982949734 18.4738420175078 2.181475402237834 0 0 0
228 1 1 0.5897 5.331907095910906 19.733136634466142 2.334576756147298 0 0 0
413 1 1 0.5897 0.7312045303104029 21.553807205901606 4.6444508588077795 0 0 0
817 1 2 -1.1794 7.672436281103631 22.438516876454557 1.8066188976364257 0 0 0
249 1 1 0.5897 5.505796452426136 21.45525009578322 4.849762149119674 0 0 0
226 1 2 -1.1794 5.274346982392281 18.876935197461258 1.9105011147929858 0 0 0
187 1 2 -1.1794 3.228386765113249 22.47983000138084 1.7916509273590788 0 0 0
695 1 1 0.5897 0.5411499936257986 20.357557632877423 2.5610158144606583 0 0 0
448 1 2 -1.1794 7.5208393803769695 17.647158771879532 3.073625937159775 0 0 0
818 1 1 0.5897 8.312828145915901 21.938456754781306 2.312840807542449 0 0 0
694 1 2 -1.1794 0.6214173177913385 21.26727974563564 2.8476986433666784 0 0 0
189 1 1 0.5897 3.307168825731702 22.4847664018587 0.8376168132369965 0 0 0
343 1 2 -1.1794 0.4781617281141906 18.68510094635124 1.942410117708081 0 0 0
227 1 1 0.5897 4.405948888968445 18.550204936271776 2.1463635211791776 0 0 0
345 1 1 0.5897 0.46623552791241857 18.639635598947137 0.9862835353386756 0 0 0
450 1 1 0.5897 6.705211038757789 17.950771258158127 2.674789536358474 0 0 0
292 1 2 -1.1794 2.982428854691072 17.71706315974066 2.8113712976309406 0 0 0
819 1 1 0.5897 7.6993535338511325 23.31673160798089 2.186457056083494 0 -1 0
188 1 1 0.5897 3.179234104438289 23.404746833242022 2.0332160271010595 0 0 0
321 1 1 0.5897 8.912890776726297 18.318006385890584 2.1989315502282833 0 0 0
294 1 1 0.5897 3.077144499203563 17.816629499170624 3.7587377467808767 0 0 0
238 1 2 -1.1794 3.2953989307004017 17.7127323441377 5.579937414301419 0 0 0
602 1 1 0.5897 5.100798390915047 18.91653341656535 0.19708530339647723 0 0 0
555 1 1 0.5897 5.19254984386781 20.447192320997935 10.194189824428712 0 0 0
404 1 1 0.5897 1.3683327082805907 18.160182734087677 9.891633490918341 0 0 0
87 1 1 0.5897 8.28802702832768 22.105493998307516 10.010767098571392 0 0 0
37 1 2 -1.1794 3.141264270762219 22.90069417932618 9.367025201412702 0 0 0
86 1 1 0.5897 7.599792323488667 22.556351908970306 8.739792124145072 0 0 0
414 1 1 0.5897 0.9004077524288523 20.662026006705815 5.856147466883389 0 0 0
32 1 1 0.5897 8.461113604738696 21.90622954835002 6.533841834314172 0 0 0
240 1 1 0.5897 4.056502482407785 18.10385161272655 6.009123347542277 0 0 0
39 1 1 0.5897 3.8043990306948854 22.356762015925426 9.792220872175317 0 0 0
553 1 2 -1.1794 5.166350771910911 21.35955402432451 10.48251287552594 0 0 0
701 1 1 0.5897 3.191344766228766 22.85349534700476 7.591831218759842 0 0 0
94 1 2 -1.1794 1.0089913138728144 21.478915239854906 10.170597344929547 0 0 0
387 1 1 0.5897 5.482631255983302 19.795122496918957 6.313189179474249 0 0 0
102 1 1 0.5897 4.909922859389368 18.902216848832566 8.536304523745263 0 0 0
700 1 2 -1.1794 3.0936174959656744 22.710586600502218 6.6503410108219105 0 0 0
385 1 2 -1.1794 5.401147378890297 18.927680424573133 6.709591980682961 0 0 0
702 1 1 0.5897 2.2065155351898897 22.36458529982442 6.550898733646071 0 0 0
38 1 1 0.5897 2.3083805277981306 22.490632996027387 9.600740176892664 0 0 0
386 1 1 0.5897 6.194097392390311 18.464688154513347 6.438792073279209 0 0 0
342 1 1 0.5897 1.018686635808661 18.815443632823964 7.62080935256774 0 0 0
33 1 1 0.5897 6.971020857815229 22.15365652976096 6.6389903749754495 0 0 0
248 1 1 0.5897 4.654712149916687 21.88553018845242 6.025722352596475 0 0 0
85 1 2 -1.1794 7.497472222436462 22.540836963785587 9.691460310677474 0 0 0
554 1 1 0.5897 5.998254057036125 21.728932718956557 10.18589008509843 0 0 0
101 1 1 0.5897 5.73120754328192 18.346345810759317 9.680343683094316 0 0 0
341 1 1 0.5897 1.91590935036518 18.587359163138757 6.422740704232072 0 0 0
31 1 2 -1.1794 7.818478611446382 22.511577005481712 6.903926317979802 0 0 0
100 1 2 -1.1794 4.889123885455059 18.756339787039856 9.482170815675596 0 0 0
247 1 2 -1.1794 5.497911380444585 21.488795514189682 5.806420237788861 0 0 0
403 1 2 -1.1794 0.7194509313488788 18.66471265288675 9.400911698407327 0 0 0
405 1 1 0.5897 0.7088470827776041 19.52142006596305 9.827738009397425 0 0 0
340 1 2 -1.1794 1.061704948999327 18.94001706260314 6.672650191485228 0 0 0
412 1 2 -1.1794 0.7954739939584473 21.578111403149443 5.599258412481433 0 0 0
185 1 1 0.5897 8.126265781119535 17.896961038725195 10.197498227410627 0 0 0
383 1 1 0.5897 3.3854213409656007 18.11949920474322 10.316041268960753 0 0 0
309 1 1 0.5897 8.343258045118025 17.845176974577754 6.141387436340101 0 0 0
502 1 2 -1.1794 0.9397165014728314 18.761407174481732 14.1964376395968 0 0 0
88 1 2 -1.1794 5.332964761444418 21.36906776785142 13.274624423555474 0 0 0
381 1 1 0.5897 1.4274717253475395 21.617532827327878 13.17620063438158 0 0 0
90 1 1 0.5897 5.385165419220892 20.45397536814285 13.550510370527444 0 0 0
763 1 2 -1.1794 5.149588533327964 18.751751474845662 14.200738286408837 0 0 0
738 1 1 0.5897 3.57433888635146 22.030067440731564 13.711055280008539 0 0 0
89 1 1 0.5897 5.190482249294708 21.326910623897447 12.32894516478201 0 0 0
764 1 1 0.5897 4.318316475135142 18.33730822443672 13.969023239062961 0 0 0