#include		in.partitions
include		in.temp
variable        temperature equal 152.72
variable	tempDamp equal 100.0
include		in.pressure
variable        pressure equal 1862.4
variable        pressureDamp equal 1000.0 # This is 1 ps
include		in.seed
variable        seed equal 745823

units		real
atom_style	full
#include		in.box
read_restart	restart.lmp.${pid}
read_restart	restart.lmp.0
Reading restart file ...
  restart file = 30 Jul 2021, LAMMPS = 30 Jul 2021
  restoring atom style full from restart
  orthogonal box = (-0.0066491970 0.17535053 0.12592953) to (18.214222 23.453827 22.087266)
  2 by 4 by 4 MPI processor grid
  restoring pair style lj/cut/tip4p/long/omp from restart
  restoring bond style harmonic/omp from restart
  restoring angle style harmonic/omp from restart
  864 atoms
  576 bonds
  288 angles
Finding 1-2 1-3 1-4 neighbors ...
  special bond factors lj:    0        0        0       
  special bond factors coul:  0        0        0       
     2 = max # of 1-2 neighbors
     1 = max # of 1-3 neighbors
     1 = max # of 1-4 neighbors
     2 = max # of special neighbors
  special bonds CPU = 0.002 seconds
  read_restart CPU = 0.007 seconds
include 	in.setup
variable	out_freq equal 1000
variable	out_freq2 equal 10000
variable	out_freq3 equal 1000

timestep	2.0

neigh_modify    delay 7 every 1

include		in.tip4p
# This is TIP4P/Ice

# create groups ###
group ox type 2
288 atoms in group ox
group hy type 1
576 atoms in group hy

# set charges - beside manually ###
set group ox charge -1.1794
Setting atom values ...
  288 settings made for charge
set group hy charge 0.5897
Setting atom values ...
  576 settings made for charge

# ### TIP3P Potential Parameters ###
pair_style lj/cut/tip4p/long/omp 2 1 1 1 0.1577 8.5
pair_coeff 1 1*2 0.000 0.000
pair_coeff 2 2 0.21084 3.1668
bond_style  harmonic
bond_coeff  1 450 0.9572
angle_style harmonic
angle_coeff 1 55 104.52
kspace_style pppm/tip4p/omp 1.0e-5
pair_modify tail yes

thermo          ${out_freq}
thermo          1000
thermo_style    custom step temp pe etotal epair emol press lx ly lz vol pxx pyy pzz pxy pxz pyz enthalpy

restart 	${out_freq3} restart.lmp.${pid} restart2.lmp.${pid}
restart 	1000 restart.lmp.${pid} restart2.lmp.${pid}
restart 	1000 restart.lmp.0 restart2.lmp.${pid}
restart 	1000 restart.lmp.0 restart2.lmp.0


include         in.dump
dump            myDump all atom ${out_freq2} dump.water.${pid}
dump            myDump all atom 10000 dump.water.${pid}
dump            myDump all atom 10000 dump.water.0
dump            myDump2 all dcd ${out_freq2} dump.dcd
dump            myDump2 all dcd 10000 dump.dcd
dump_modify     myDump append yes
dump_modify     myDump2 append yes


variable natoms 	equal  "count(all)"                        # NUMBER ATOMS
variable H      	equal  "enthalpy/v_natoms"                 # ENTHALPY-per-atom
variable Vol      	equal  "vol/v_natoms"                 # volume-per-atom
fix AVG all 		ave/time ${out_freq} 1 ${out_freq} v_Vol v_H file vol_enthalpy.dat
fix AVG all 		ave/time 1000 1 ${out_freq} v_Vol v_H file vol_enthalpy.dat
fix AVG all 		ave/time 1000 1 1000 v_Vol v_H file vol_enthalpy.dat


timer           timeout 23:50:00 every 1000
New timer settings: style=normal  mode=nosync  timeout=23:50:00

fix 		1 all shake 1e-6 200 0 b 1 a 1
       0 = # of size 2 clusters
       0 = # of size 3 clusters
       0 = # of size 4 clusters
     288 = # of frozen angles
  find clusters CPU = 0.000 seconds
fix             2 all nph aniso ${pressure} ${pressure} ${pressureDamp}
fix             2 all nph aniso 1862.4 ${pressure} ${pressureDamp}
fix             2 all nph aniso 1862.4 1862.4 ${pressureDamp}
fix             2 all nph aniso 1862.4 1862.4 1000
fix             3 all temp/csvr ${temperature} ${temperature} ${tempDamp} ${seed}
fix             3 all temp/csvr 152.72 ${temperature} ${tempDamp} ${seed}
fix             3 all temp/csvr 152.72 152.72 ${tempDamp} ${seed}
fix             3 all temp/csvr 152.72 152.72 100 ${seed}
fix             3 all temp/csvr 152.72 152.72 100 745823


run             250000
PPPM initialization ...
  extracting TIP4P info from pair style
  using 12-bit tables for long-range coulomb (../kspace.cpp:340)
  G vector (1/distance) = 0.37175141
  grid = 24 27 25
  stencil order = 5
  estimated absolute RMS force accuracy = 0.0031434893
  estimated relative force accuracy = 9.4665245e-06
  using double precision FFTW3
  3d grid and FFT values/proc = 4410 672
Last active /omp style is kspace_style pppm/tip4p/omp
Neighbor list info ...
  update every 1 steps, delay 7 steps, check yes
  max neighbors/atom: 2000, page size: 100000
  master list distance cutoff = 10.8154
  ghost atom cutoff = 10.8154
  binsize = 5.4077, bins = 4 5 5
  1 neighbor lists, perpetual/occasional/extra = 1 0 0
  (1) pair lj/cut/tip4p/long/omp, perpetual
      attributes: half, newton on, omp
      pair build: half/bin/newton/omp
      stencil: half/bin/3d
      bin: standard
Per MPI rank memory allocation (min/avg/max) = 10.19 | 10.21 | 10.23 Mbytes
Step Temp PotEng TotEng E_pair E_mol Press Lx Ly Lz Volume Pxx Pyy Pzz Pxy Pxz Pyz Enthalpy 
20250000    157.12529   -4448.4768   -4179.1694   -4448.4768            0    907.21471    18.220871    23.278477    21.961337    9314.9914    1087.7963    80.574731    1553.2731     149.1357   -377.69943    -707.5304   -4055.9247 
20251000    153.69351   -4457.1167   -4193.6912   -4457.1167            0    2898.5711    17.891615    23.406248    21.902638    9172.2898    3017.7783    2141.1825    3536.7524   -340.40309   -147.56319    526.35797   -3805.9539 
20252000    148.45406   -4453.3476   -4198.9024   -4453.3476            0    1461.9199    18.026157    23.450802    21.949968    9278.8623     392.0316    1875.5354    2118.1927   -609.62011   -168.36232     501.3599   -4001.0715 
20253000    157.83735   -4469.2371   -4198.7093   -4469.2371            0    1073.5091    18.124704    23.304141     21.89762    9249.1313    1243.6701    708.35016     1268.507   -97.111687    238.93645    326.42236   -4053.9046 
20254000    144.74369   -4468.8111   -4220.7254   -4468.8111            0    1715.8523    17.919322    23.561227    21.880841     9238.118    2203.0361    1637.6824    1306.8383   -397.03675   -54.403643    610.08004   -3989.5512 
20255000    154.37384   -4453.9927   -4189.4012   -4453.9927            0     1143.706    18.061374    23.184022     22.15607    9277.5285    721.54336    1622.4634    1087.1113   -196.67782   -212.86533   -421.43813   -4034.6541 
20256000    158.70595   -4461.4315    -4189.415   -4461.4315            0    558.72544    17.894524    23.510335    22.098216    9296.8578     398.6706    611.47067    666.03505   -766.68983    337.09584   -361.24214   -4113.6601 
20257000    155.52154   -4466.5851   -4200.0265   -4466.5851            0     1582.187     18.04974    23.311023    21.986459    9250.9764    1247.5938    1825.5027    1673.4645   -581.23495   -576.28297    53.936859   -3986.5642 
20258000    162.75576   -4468.0511   -4189.0933   -4468.0511            0    2371.8271    18.022793     23.38713    21.864431    9215.8882    1395.9388    2632.9379    3086.6047   -1390.5804   -87.762427    604.75014   -3870.3095 
20259000    159.76987   -4455.9665   -4182.1264   -4455.9665            0    1433.4147    17.905448    23.450739    22.081088    9271.7608    2034.2082    1579.3886    686.64745    423.05007   -249.19557    552.72205   -3988.3013 
20260000    148.46942   -4445.8703   -4191.3988   -4445.8703            0    1590.3624    18.023302    23.265727    21.980772    9217.0925    1177.9203    1378.1634    2215.0035   -812.75919    108.42218   -6.5738636   -3977.6193 
20261000    153.56564   -4461.8306   -4198.6244   -4461.8306            0     1035.192    17.966128    23.591635    21.950639    9303.7856    1880.7971    1302.7944   -78.015444   -1008.9342   -263.81858   -155.45665   -4058.1631 
20262000    158.14004   -4445.8432   -4174.7966   -4445.8432            0    2184.8865     18.18734    23.113124    22.017783    9255.5328    1681.0848    2485.7622    2387.8125   -54.701629    36.582411   -113.47485   -3879.8752 
20263000      159.111   -4457.1717   -4184.4609   -4457.1717            0    1110.4625    17.845106    23.643339    22.019535    9290.4359    1847.2078    615.90818    868.27164   -254.61773    235.07259    164.12606   -4034.0027 
20264000    145.31482    -4461.358   -4212.2933    -4461.358            0    2084.6354    18.008332    23.207209    22.081759    9228.4776    1709.0135    2766.0359    1778.8569    765.74979   -607.10678   -94.825503   -3931.7267 
20265000    155.84439   -4464.3838   -4197.2718   -4464.3838            0    1372.4429    17.919763    23.501902    22.053068    9287.6168    2847.4339   -98.590955    1368.4857   -169.30878    161.71556    487.25442   -4011.3739 
20266000    155.74959   -4463.1297   -4196.1803   -4463.1297            0     1182.876    18.084725    23.362672    21.923522    9262.8527    1672.8746    2059.3502   -183.59685      121.679   -329.92041   -51.861619   -4036.3865 
20267000    149.97002    -4454.172   -4197.1286    -4454.172            0    1973.9165    17.986998    23.391128    21.933279    9228.1239    2010.9232    2146.2744    1764.5519   -208.24112    3.7506321    189.15448   -3931.4735 
20268000    150.10497   -4473.7408    -4216.466   -4473.7408            0    1683.5663    17.967157    23.299357    22.014787    9215.9004    1185.1774    1144.5118    2721.0096    916.64986    -13.40138   -479.01883   -3990.1872 
20269000     158.8736   -4470.4912   -4198.1872   -4470.4912            0    1389.3321    17.994251    23.365579    21.995701    9248.0067    2229.3609    1562.2005    376.43482   -87.412117   -19.453167    313.46891   -4010.8043 
20270000    148.80741   -4465.7422   -4210.6914   -4465.7422            0    1612.4601    17.920414    23.492518     21.94196    9237.4698    2324.6106    1028.3002    1484.4694     302.5463    216.56788    83.697928   -3993.4624 
20271000    157.46372   -4480.3313   -4210.4439   -4480.3313            0    2913.5024    18.082894    23.013476    22.046483    9174.6487    2942.1061    3330.7006    2467.7004    563.86844    279.84585    89.642908    -3820.609 
20272000    155.32802   -4452.2367   -4186.0098   -4452.2367            0     1723.417    17.911102    23.514325    21.964859    9250.8841    2686.8521    1267.2521    1216.1467   -221.57875     52.60102   -308.91459   -3953.4955 
20273000    143.71788   -4451.8521   -4205.5246   -4451.8521            0    1758.2247    18.114958    23.202335    21.955095    9227.9314    470.96199    2533.9497    2269.7624    196.37947   -101.62786    1261.0563   -3968.9028 
20274000    166.43544   -4451.5216    -4166.257   -4451.5216            0    2748.3932    17.897806    23.339414    21.912463    9153.3682    2522.7139    2857.1529    2865.3126    410.76739   -16.826689   -110.42932   -3799.3671 
20275000    164.48911    -4472.522   -4190.5933    -4472.522            0    2907.1774    17.926257    23.193647    21.989375    9142.6383    2335.4775     2933.963    3452.0918   -729.78363     273.5503   -54.137816   -3802.9618 
20276000     154.6085   -4443.0979   -4178.1042   -4443.0979            0    1549.8869    17.986447    23.386945    21.995308    9252.2833    783.95143    1093.1999    2772.5092   -453.45745   -310.73484   -197.62236   -3968.9702 
20277000     160.9422   -4461.8637   -4186.0143   -4461.8637            0     1072.539    17.918712    23.401504    22.114634    9273.2148     923.0753     849.4707    1445.0711    215.50749   -100.88479   -103.94749   -4040.9638 
20278000    145.94592    -4455.589   -4205.4427    -4455.589            0    1905.0978    18.041355    23.227718    22.035089    9234.0132    2703.1829    1402.7278    1609.3828   -64.395243   -402.45879   -338.41975   -3948.8858 
20279000    156.78165   -4488.1667   -4219.4483   -4488.1667            0    1455.4011    17.974098    23.390955    21.942677    9225.3888    1090.3126    1550.0778    1725.8128   -211.93504   -11.006516    120.46498   -4023.6346 
20280000    151.94054   -4441.3477   -4180.9268   -4441.3477            0    2376.8543    18.021875    23.151515    22.059699    9204.0501    2282.9919    2524.1756    2323.3953    374.00661   -196.52787   -500.60624   -3861.8778 
20281000    151.29123   -4433.6576   -4174.3496   -4433.6576            0    1501.2802    17.903374    23.338355    22.087789    9229.0579    1559.0128    1228.6674    1716.1606   -345.98947   -239.84073    84.231262   -3972.2828 
20282000    157.03939   -4454.9519   -4185.7918   -4454.9519            0    1835.9681    18.088462    23.394802    21.722139    9192.2877    1417.0926    1329.7883    2761.0235   -1318.7605   -908.68517    88.935463   -3939.6617 
20283000    155.48639   -4458.5993    -4192.101   -4458.5993            0    2365.3868    17.980915     23.38578    21.846742    9186.5053    1427.3727    2994.2948     2674.493    45.454573   -176.11818    41.432439   -3875.1965 
20284000    147.48431   -4462.9326   -4210.1496   -4462.9326            0    1597.0101    18.027319    23.260495    21.999309    9224.8459    1904.0913    1282.4112    1604.5279    529.22028   -645.07058    29.430858   -3995.2959 
20285000    145.16493   -4468.4908   -4219.6831   -4468.4908            0    3124.6308    17.867437    23.159828    22.152376    9166.8031    2647.5228    3707.3837    3018.9861    603.53244    68.561686    1115.6904   -3801.9561 
20286000    152.72517   -4469.1971   -4207.4314   -4469.1971            0    2735.6331    17.976143     23.47323    21.794129    9196.2101    3329.2569    2563.8085    2313.8339   -144.15854   -117.07022   -345.04271   -3840.5357 
20287000    152.62474   -4454.5303   -4192.9368   -4454.5303            0    1295.5347    18.090084    23.408241    21.915415    9280.2371    1497.2064    1510.0038    879.39377     -437.372    547.23182   -92.525632   -4017.5955 
20288000    154.87659   -4461.8431   -4196.3899   -4461.8431            0    967.32934    18.007987    23.305505    22.143872    9293.4558    716.37936    470.45764     1715.151    264.98145   -19.327086    478.39525   -4065.2824 
20289000    153.50881   -4455.1958   -4192.0869   -4455.1958            0    2304.1916    17.852832    23.350001    22.089651    9208.3723    3958.9896    2469.1822    484.40303   -384.72531   -128.95486   -234.44322   -3882.6463 
20290000     155.7573    -4467.996   -4201.0333    -4467.996            0     1556.818     17.92431     23.38874    21.997597    9221.9869    1597.6074    1153.6244    1919.2221    252.25419   -792.16437    580.98848   -3991.6519 
20291000    149.70022   -4458.1415   -4201.5604   -4458.1415            0    1148.4743    18.089358    23.449902     21.80075      9247.74    494.41179    909.92732    2041.0837    181.36076    237.60623    292.93682   -4046.6671 
20292000    152.66193   -4461.7612   -4200.1039   -4461.7612            0    1778.0637    17.965436    23.422554    21.878924     9206.572    1510.5957       748.47    3075.1255   -428.61469   -826.39251   -18.950321   -3961.3661 
20293000    151.08467   -4450.7781   -4191.8241   -4450.7781            0    1289.0553    17.965924    23.266918    22.065734    9223.7351    1371.1255    1295.4077    1200.6328    132.15135    -100.6368    511.94424   -4018.4221 
20294000     159.8159    -4465.767   -4191.8481    -4465.767            0    1503.8777    17.944252    23.241661     22.12081    9225.5775    2416.2509    1596.3236    499.05875   -149.61299    15.796005    730.03687   -3989.5079 
20295000     148.8483   -4479.3504   -4224.2295   -4479.3504            0    2702.2324    17.974658    23.400762    21.845212    9188.5485    2188.4757    2773.9979    3144.2237    360.83441   -288.69147   -36.395117   -3862.1153 
20296000    158.99821   -4457.7415    -4185.224   -4457.7415            0    3093.6518    18.014027    23.514054    21.677464     9182.201    2860.8661    2486.0958    3933.9936   -219.04949   -457.67337    -657.1137   -3770.9439 
20297000    153.70843   -4468.9631   -4205.5121   -4468.9631            0    2291.0702     17.90256    23.366709    22.018061    9210.6812    2031.7129    2534.8641    2306.6337    -87.01459   -36.907581    -93.68229   -3897.7565 
20298000    158.69018   -4470.6281   -4198.6385   -4470.6281            0    1123.9507    17.894233    23.447543    22.116756    9279.6558    1526.6847    1420.4199    424.74742    590.80496   -85.917213    445.43995   -4046.5295 
20299000    150.90695    -4447.812   -4189.1627    -4447.812            0    2408.0275    18.084154    23.261863    21.931001    9225.7385    1495.2214    3626.9734    2101.8877    583.46417     85.39411   -296.41586   -3865.1675 
20300000    158.84421   -4476.1684   -4203.9148   -4476.1684            0    1431.9307    17.985047    23.348122    22.010329    9242.5128   -151.69097    2644.8319    1802.6513    208.62576   -448.43729   -45.387615   -4010.9012 
20301000    163.75427   -4461.2647   -4180.5955   -4461.2647            0    1569.9748    17.893944    23.339458    22.122034    9238.9344    1021.3729    1871.6746    1816.8767    286.08189    22.603506    689.87155   -3969.0565 
20302000    151.79802   -4462.4413   -4202.2647   -4462.4413            0    1814.5244    18.010424    23.342762    21.994769    9246.8875    3073.0342    1015.8788    1354.6601   -645.29862    232.06901    218.11823   -3957.5645 
20303000    147.28784   -4456.6387   -4204.1923   -4456.6387            0    1857.2727    17.894244    23.427954     22.02613     9233.916    2183.1351    2188.6878    1199.9952    -188.2592   -122.68764    409.96426   -3954.0786 
20304000    149.61994   -4439.3871   -4182.9437   -4439.3871            0    2988.9779     18.10457    23.335965    21.813864    9216.0872    1907.1429    3058.1893    4001.6016   -35.618981    28.784408    266.42546   -3781.2036 
20305000    155.69597   -4466.7297   -4199.8721   -4466.7297            0    1653.7305    17.931421    23.526882    21.898357    9238.2696    1684.2796    1231.9026    2045.0092   -522.34532   -475.67574   -172.70056   -3977.0639 
20306000    158.51233   -4447.5866   -4175.9019   -4447.5866            0    2569.7331    17.966069    23.169698    22.076127    9189.5938    1690.8218    3080.2281    2938.1493    278.96359   -884.44924   -350.76795   -3831.5042 
20307000    154.07191   -4459.9225   -4195.8485   -4459.9225            0    3180.1415    17.950462    23.336446    21.891467    9170.3353    3670.4339    1540.8753    4329.1153   -124.87765   -469.30408    319.05037   -3770.5366 
20308000    143.21407   -4441.8918   -4196.4278   -4441.8918            0    1324.4507    17.993968    23.400658    21.924142    9231.6139    1140.2652    689.68203    2143.4047    -790.3956    -634.0459     172.1721   -4018.1122 
20309000    152.81217   -4455.4752   -4193.5603   -4455.4752            0     2713.289    17.866262    23.217737    22.134658    9181.7695    1794.4994    3600.2481    2745.1194    38.198617    -190.9909    105.55428   -3830.2328 
20310000    143.90018   -4463.5156   -4216.8756   -4463.5156            0     2044.723    17.926774    23.324438    22.010949    9203.4804    2058.5263    2743.3946     1332.248   -987.75036    15.868251   -300.93949   -3942.4261 
20311000    154.41689   -4462.5343    -4197.869   -4462.5343            0    1960.7744    18.017126    23.389833    21.851547    9208.6261    978.17269    1619.0541    3285.0963   -134.76432   -35.371789    236.59169   -3934.5402 
20312000     157.0179   -4459.2345   -4190.1112   -4459.2345            0    1602.7637    18.080189    23.287821    21.942549    9238.8708    368.32521    2199.7504    2240.2154   -266.78988   -52.928293    56.328628   -3974.1557 
20313000    156.38333   -4440.1844   -4172.1487   -4440.1844            0    1897.5951    17.785774    23.668299    21.908989    9222.7864    2457.1021    1705.7944    1529.8887    615.56224    477.14774    60.365745   -3916.9129 
20314000    149.94079   -4454.5747   -4197.5813   -4454.5747            0    1793.1582     18.07186    23.172242    22.037388    9228.4986    1769.5802    1826.7783    1783.1161   -373.39729    36.525899   -160.91226   -3956.2434 
20315000    147.65765   -4464.0352    -4210.955   -4464.0352            0    1508.3245    17.676643    23.717575    21.986809    9217.9059    3069.7682     53.36998    1401.8354   -550.29628   -20.193545    962.11244   -4008.1854 
20316000      157.973   -4453.3394   -4182.5791   -4453.3394            0    1084.2471      18.0835    23.339894    21.992702    9282.3936    1501.5002    459.02173    1292.2193   -11.849315     332.6709   -585.89671      -4035.8 
20317000    154.65223   -4487.7348   -4222.6661   -4487.7348            0     1033.702    17.902872    23.502057    21.960486    9239.9694    1073.9688    620.09908    1407.0382    406.35557    92.367588   -563.35844   -4083.3691 
20318000    150.15574   -4458.8282   -4201.4664   -4458.8282            0    1627.8527    18.034977    23.272134    21.996566    9232.2315    955.08506    2308.5479    1619.9252    -321.4882    283.43703   -428.53941    -3982.288 
20319000    149.18421   -4476.8531   -4221.1564   -4476.8531            0    2087.0156    17.850934    23.292377    22.116768    9195.9462    1941.6547    3355.0605    964.33159   -1117.3156    109.46987   -359.90678   -3941.2596 
20320000    152.22896    -4460.056   -4199.1408    -4460.056            0    2060.6058    18.078635    23.359038     21.79795    9205.2639    1912.7811    962.01769    3307.0185   -497.16086   -40.548178    125.85007   -3922.5059 
20321000    156.74554   -4471.4062   -4202.7497   -4471.4062            0    2185.7284    18.005874    23.430797    21.751784    9176.9031    2764.1521    1527.4122    2265.6208   -344.58426   -530.03351    79.626513   -3910.2212 
20322000    162.98912   -4444.1649   -4164.8071   -4444.1649            0    3102.8358    17.853223    23.269787     22.12916    9193.3537    3762.4066    4606.9231    939.17789   -643.43405    411.29294    668.69748   -3748.7925 
20323000    144.02682   -4463.8606   -4217.0035   -4463.8606            0    2731.6017    17.934118    23.218971    22.042513    9178.7619    3338.0801    2128.9603    2727.7647   -1468.9832   -336.13048    204.96602   -3851.3436 
20324000    148.17301    -4458.222   -4204.2585    -4458.222            0    3069.6482    17.928974    23.477988    21.832014    9189.8857    1439.2372    4076.8928    3692.8148    238.83113   -614.90072   -360.98403   -3792.8487 
20325000    153.87089   -4463.6341   -4199.9046   -4463.6341            0     2091.092    18.144913    23.087042    21.931919    9187.5523    1415.4916     2564.765    2293.0193   -766.76331   -122.93069   -445.98446   -3919.7171 
20326000    149.28554    -4457.719   -4201.8487    -4457.719            0    1618.0104    17.930086    23.512453    22.002776    9275.9373    1500.9633    2207.2549    1145.8128     438.3009     351.2421    546.73722   -3982.9642 
20327000    147.11201   -4463.2904   -4211.1455   -4463.2904            0    651.94211    18.151393    23.277738    22.024458     9305.848    478.52959    1117.8564    359.44038   -225.99567   -385.83795     16.51704   -4122.6663 
20328000    167.09247    -4461.576   -4175.1853    -4461.576            0    1037.1102    17.973254    23.530596    21.932035    9275.5268     905.3827     1407.281    798.66695   -87.565007    265.65779   -74.534529   -4034.8912 
20329000    159.36874   -4474.2785   -4201.1259   -4474.2785            0    2302.6927    18.033181    23.179868    22.066438    9223.9204    2588.7272    2263.6974    2055.6535   -36.146393    350.21055    137.02493   -3891.3644 
20330000     169.4853   -4464.3476   -4173.8556   -4464.3476            0    2278.0923     17.95305    23.338508    21.970476    9205.5725    3106.1688    1988.3365    1739.7718    726.71219    464.09055   -26.372041    -3868.013 
20331000    150.42352   -4452.8601   -4195.0393   -4452.8601            0    2770.0091    18.046638     23.45957    21.637471    9160.5777    1401.3782    3023.0991    3885.5499   -932.06822   -94.181359    335.16203   -3824.9726 
20332000    146.24388   -4464.7022   -4214.0452   -4464.7022            0    621.40794    18.007768    23.369859    22.098172     9299.772    1026.0934    1081.0631   -242.93268   -405.26484     64.83815    171.39741   -4129.7651 
20333000    147.71599    -4468.212   -4215.0319    -4468.212            0    2114.5191    17.980098    23.491414    21.830423    9220.6887    1569.9598    1600.7881    3172.8095   -225.44136    194.54237    189.92843   -3930.6834 
20334000    166.65045   -4458.9136   -4173.2804   -4458.9136            0     1741.412    18.101563    23.348651    21.844471    9232.5015    834.38874    1845.5467    2544.3004   -53.497167   -519.98346   -131.90039   -3938.8053 
20335000    151.83806   -4464.3315   -4204.0862   -4464.3315            0    2346.4264     17.80525    23.602191    21.963293     9229.918    3040.0582    981.10181    3018.1194   -352.69849   -263.17752   -459.93563   -3888.2364 
20336000    148.98199   -4454.3969   -4199.0468   -4454.3969            0    1292.4331    18.093211    23.150671     22.11924    9265.0859    1247.1353    1386.5428    1243.6211   -182.62872     877.4435    142.49561    -4024.411 
20337000    150.46658   -4466.9526    -4209.058   -4466.9526            0    1723.9371    17.955188     23.49718    21.874003    9228.5608    1815.3175    438.65487    2917.8389    336.40181    -301.2399   -145.55516   -3977.0349 
20338000    154.03931   -4443.0786   -4179.0605   -4443.0786            0    1024.3017    18.129738    23.347478    21.943417    9288.2897    715.78016    1656.8435     700.2815   -679.04974   -5.1436077   -111.86441   -4040.3084 
20339000    146.46512   -4469.5258   -4218.4896   -4469.5258            0    1141.7122    17.987698    23.363615    22.046598    9265.2513    977.50908    1038.3812    1409.2462    311.08812    163.87776    42.007143   -4064.2166 
20340000    150.26253   -4451.0918    -4193.547   -4451.0918            0    2280.7754    17.863674     23.37187    22.128269    9238.7179    2800.6683    2745.1402    1296.5176   -1172.8796    -278.4611    401.95482   -3886.2416 
20341000    144.37504   -4461.4658   -4214.0119   -4461.4658            0     1852.621    18.086651    23.291636    21.870484    9213.3285    1452.1461    1655.7363    2449.9806    178.48085    -109.2636    313.14763   -3965.0809 
20342000     160.2754   -4461.5277   -4186.8212   -4461.5277            0    1776.9717    17.962177    23.495553     21.87861    9233.4572    1636.8196    1544.3823    2149.7134   -77.468733    157.14932   -606.01187   -3947.5333 
20343000    148.09977   -4463.8476   -4210.0097   -4463.8476            0    2034.5973    17.981376    23.041098    22.142726    9173.9669      1119.24    2999.5723    1984.9796    22.383862   -188.58952    164.98194    -3937.795 
20344000    150.78903   -4462.6122    -4204.165   -4462.6122            0     1618.978    17.817942    23.533696    22.033303    9239.0495    2330.1297    989.27983    1537.5246   -475.79142    -138.0488    551.38381   -3986.0205 
20345000    146.05967    -4460.146   -4209.8047    -4460.146            0    1373.6311    18.130538    23.239119    22.011303    9274.1928     1418.912    1434.6005     1267.381    543.23195    242.59699   -119.25289   -4024.0148 
20346000    143.51131   -4433.8034   -4187.8299   -4433.8034            0    1062.1944    17.954313    23.513451     21.96591    9273.3012    664.38676    2123.0231    399.17334    426.79734   -357.76678   -144.39545   -4044.1771 
20347000    155.98907   -4463.8915   -4196.5316   -4463.8915            0    1766.3539    18.031885    23.195262     22.14089    9260.5222    3079.4055    1474.6018    745.05441   -669.90557   -356.46318    267.77339   -3957.9763 
20348000     153.0949   -4482.0248   -4219.6254   -4482.0248            0    1663.1958    17.925813    23.494195    21.993525    9262.6292    2695.3706    1681.3829    612.83388   -645.54306    384.89082     279.1292    -3994.951 
20349000    153.63288    -4454.436   -4191.1145    -4454.436            0     3044.399    17.935191    23.318293    21.918477    9166.7027    2880.3661    3884.7194    2368.1115   -143.01234   -129.67621   -231.83089   -3784.1181 
20350000    151.29002   -4469.2067   -4209.9008   -4469.2067            0    2632.2571      17.9909    23.332465    21.908576    9196.6079    2673.0423    3046.8164    2176.9126   -47.113799   -104.24419    102.25815   -3856.8543 
20351000    147.79331   -4472.7782   -4219.4655   -4472.7782            0    1666.6332    17.925332    23.381696    22.044982    9239.5953    862.34686    1875.2257    2262.3269   -611.50277   -92.456717     642.7283   -3994.8867 
20352000    152.09444   -4447.4755   -4186.7908   -4447.4755            0    2160.8363    18.045461    23.373361    21.885185    9230.8008    1573.6623    2775.1895    2133.6571   -405.33499    410.82626    112.43931   -3895.8952 
20353000    157.41552   -4461.6866   -4191.8818   -4461.6866            0    1622.4177    17.949229    23.429045    21.967369      9238.01    2283.5678    728.00395    1855.6813   -249.09133   -121.21521    563.91395   -3973.2985 
20354000    148.56544   -4450.7073   -4196.0713   -4450.7073            0    1496.5663    17.993448    23.387906    21.990891    9254.4063    1315.9213    615.54279    2558.2347    187.37686   -342.46289    40.613114   -3994.0857 
20355000    146.49953   -4437.4247   -4186.3295   -4437.4247            0    2266.7064    17.990057    23.279081    22.029911    9225.9506     1699.361    2850.2493     2250.509    113.83251   -349.23458    783.13078   -3881.3419 
20356000    146.36726   -4467.4873   -4216.6189   -4467.4873            0    1712.6123    17.850668    23.526482    22.035547    9254.1237     1274.456    938.63757    2924.7432    651.38116   -288.64231     173.4509   -3985.4815 
20357000    151.46334   -4471.0757   -4211.4727   -4471.0757            0    2032.7687    18.108685    23.222337    21.955875     9233.016    1021.8997    2411.2337    2665.1727   -689.42367    164.49895    466.65436   -3937.7521 
20358000    152.09476   -4459.2324   -4198.5472   -4459.2324            0    1012.3777    17.895318    23.546294    22.032652    9283.8638    1335.5174    1197.2015    504.41421   -774.97339   -517.01071    622.40918   -4061.4757 
20359000    151.72333   -4467.7874   -4207.7388   -4467.7874            0    1931.3508    18.118659    23.081816    22.109172    9246.3111    1709.1365    2691.0152    1393.9006    260.32169    34.630365   -386.99669   -3947.3001 
20360000    150.05341   -4462.8311   -4205.6447   -4462.8311            0    1552.0178    17.924822    23.476913     21.99998    9258.0203    1773.6847    709.34641    2173.0225   -217.08213   -92.220277   -17.688958   -3996.0932 
20361000    155.31453   -4461.3781   -4195.1743   -4461.3781            0    430.86798    17.976763    23.461998    22.052669    9301.1711     705.8621    11.961103    574.78074    268.36626    5.3412862   -110.66391   -4136.7279 
20362000    156.36682   -4468.4367   -4200.4293   -4468.4367            0    1653.7783    18.122454     23.21788    21.936081    9229.9344    2234.2134    1775.4915    951.62997   -684.64959   -116.12653    282.40876   -3977.8156 
20363000    150.72113   -4460.3553   -4202.0245   -4460.3553            0    1778.3386    17.920259    23.536019    21.887698    9231.6082    1544.0822    1583.1456     2207.788    169.00098    147.49143    531.89691   -3962.6005 
20364000    156.18353   -4442.4294   -4174.7362   -4442.4294            0     1773.844    18.081818    23.203104    22.039302    9246.6842    1655.0632    2794.8689    871.59985   -313.85312   -426.25932    170.71437   -3935.5273 
20365000    162.55169   -4461.6745   -4183.0664   -4461.6745            0    1953.1668     17.76793    23.559596     22.02952     9221.673    2450.1821    1434.3515    1974.9667    191.29567    292.35239   -239.29884   -3920.3877 
20366000    149.98515   -4469.7155   -4212.6461   -4469.7155            0    2352.4026    18.083969    23.245482    21.953798    9228.7307    3151.5991    2468.9663    1436.6424    327.22184     162.3466    206.78247   -3896.0325 
20367000    150.48668   -4479.3904   -4221.4614   -4479.3904            0    559.48716    17.986013    23.396459    22.087752    9294.7246    388.71359    661.42066    628.32722   -296.81511    221.43411    16.765743   -4145.6207 
20368000    146.27196   -4462.7362   -4212.0311   -4462.7362            0    2110.3764    17.983494    23.412998    21.913692    9226.7058    1957.1858    2535.2191    1838.7242    1135.0062    151.56196    562.66218   -3928.0545 
20369000    154.41227   -4457.3303    -4192.673   -4457.3303            0     1290.126    18.107085     23.29338    21.978715    9270.0773    175.44653    2202.8002    1492.1312    -422.5186    226.51399   -112.64905    -4018.255 
20370000    141.24949   -4448.3821   -4206.2853   -4448.3821            0    1780.2345    17.740901    23.616224    22.032913    9231.1978    2053.4228    1265.8499    2021.4307    489.58828    703.20174   -733.95635   -3966.6167 
20371000    151.79818   -4467.2868   -4207.1099   -4467.2868            0    2411.3311    18.100444     23.20625     21.91834     9206.655    2486.3995     2357.294    2390.2998     417.4245    621.44999    438.85837   -3883.3414 
20372000    155.10635   -4448.0767   -4182.2298   -4448.0767            0    1328.8945    17.954732    23.550779    21.901271    9260.9067    2054.3007    224.34273    1708.0402   -807.79635    -354.6868   -90.222273   -4002.7482 
20373000     145.3731   -4470.2582   -4221.0937   -4470.2582            0    1089.4967    18.093947    23.311979    21.981481    9271.9141    70.375106    2166.2147    1031.9003    58.502341    274.57804    321.66788   -4073.7704 
20374000    155.78615   -4453.4753   -4186.4632   -4453.4753            0    2283.9751    17.873493    23.350166    22.050969    9202.9503     3046.167    2872.4548    933.30357   -749.42178    118.68189    430.54361   -3879.9181 
20375000    156.39036   -4446.7445   -4178.6968   -4446.7445            0    1705.0293    17.969436    23.415222    22.026205    9267.7093    1923.0299    2617.1696    574.88846   -378.25928     464.4183    319.87414   -3948.2449 
20376000    158.88797   -4472.2314   -4199.9028   -4472.2314            0    1997.7624    18.177929    23.131321    22.001219    9251.0616    817.92202    3264.1056    1911.2595   -711.79371   -321.79204   -114.87726   -3930.3702 
20377000    157.03165   -4460.8755   -4191.7286   -4460.8755            0     1596.757    17.849257    23.523759    22.014688    9243.5633    2874.4297    1182.2471    733.59432   -277.96718    474.39251    492.89039   -3976.4732 
20378000    156.87192   -4464.9465   -4196.0734   -4464.9465            0    2556.0968    18.043881     23.22152    21.934357    9190.6347    1869.7563    2893.3059    2905.2281   -297.57469    793.58975   -135.87396   -3853.4644 
20379000    155.41437   -4444.7892   -4178.4143   -4444.7892            0    2426.4667    17.769572    23.555016    21.960083    9191.6683    3497.1588    1955.3756    1826.8658   -444.76449   -179.46052   -345.99977   -3853.1438 
20380000      150.823   -4474.7035   -4216.1981   -4474.7035            0    1281.6871    18.076904    23.276329    21.949231    9235.4456    949.57814    1420.5189    1474.9642    426.98213   -843.88046   -170.99146   -4043.5683 
20381000    147.05227   -4470.7792   -4218.7366   -4470.7792            0    1273.2362    17.972107    23.459346     21.96387    9260.2722    1528.2821    1572.2772    719.14928   -447.02195   -19.674273   -66.269087   -4046.7841 
20382000    158.75365   -4453.2437   -4181.1454   -4453.2437            0    1122.0049    18.125681    23.163881    22.091037    9275.1675    491.95228    2189.0384    685.02393    450.08497   -112.94521    68.005475   -4029.3731 
20383000    148.51093   -4462.5017   -4207.9591   -4462.5017            0    1501.1602    17.779333    23.686977    22.007101    9268.0412    2671.6731    1176.0147     655.7927    -501.7327    171.14065    447.28549    -4005.055 
20384000    142.42364    -4459.152   -4215.0428    -4459.152            0    1748.2007    18.010698    23.387347     21.95069    9246.1231    2343.7742   -50.767044    2951.5948   -189.89955    554.04035    231.59424   -3979.3063 
20385000    145.42887   -4469.7421    -4220.482   -4469.7421            0    645.97583    18.061629    23.474898    21.897218    9284.3083    187.34861    1042.1607    708.41817    21.650502    289.82924    395.91623   -4133.0155 
20386000    148.00013   -4455.3755   -4201.7083   -4455.3755            0    1055.2346    18.129937    23.293433    21.924048    9258.7111    429.61198    1860.5207    875.57116   -530.08127   -271.23715    154.49423   -4059.2212 
20387000    154.71398   -4477.1152   -4211.9408   -4477.1152            0    2355.4985    17.823208    23.387364    22.055604    9193.6107    3200.7262    1973.4811    1892.2883    135.08827    115.00405    131.82679    -3896.117 
20388000    152.77331   -4458.8201   -4196.9719   -4458.8201            0     2980.364    18.001942    23.160071    21.980942    9164.4321    2504.4007    3703.0647    2733.6266    655.08407    44.021877   -236.19855   -3798.6348 
20389000    138.10047   -4467.8908   -4231.1913   -4467.8908            0     1053.955    17.919549    23.522836    21.990108    9269.2397    722.67786     855.9473    1583.2399    807.53766    516.76334  -0.20561784   -4088.7152 
20390000     142.0278   -4443.2128    -4199.782   -4443.2128            0    2421.4383    17.917043    23.438612    21.903432    9198.3601    3282.5055    852.56445     3129.245   -756.74737   -718.67797    241.06507   -3874.9493 
20391000     148.8709   -4471.6369   -4216.4773   -4471.6369            0    2299.8875    17.966026    23.356187     21.90743    9192.7486    3598.3094    1065.8495    2235.5035    130.71395    310.75897   -447.19117   -3908.1387 
20392000    142.73669    -4453.259   -4208.6132    -4453.259            0     2675.269    17.974216    23.223885    21.967678    9169.9929    2208.9979    2429.8995    3386.9097   -788.48182     -231.713    512.47832   -3850.8362 
20393000    148.66824   -4461.5445   -4206.7322   -4461.5445            0    3719.1705    17.833191    23.328043    21.980347      9144.12    4460.8109    3073.6547     3623.046    120.68454    331.68718    382.02762   -3710.7525 
20394000    156.25424   -4470.4669   -4202.6525   -4470.4669            0      3320.11    18.108584    23.201958    21.762596     9143.655    1482.7152    3892.1873    4585.4275    586.73584    212.33599   -580.23649   -3759.9131 
20395000    157.06842   -4457.7793   -4188.5694   -4457.7793            0    1966.3739    17.956834    23.387527     21.94882     9217.757     2220.483    1978.9798     1699.659   -442.06047   -86.019867    8.9501596   -3924.2267 
20396000    152.55224   -4470.1778   -4208.7085   -4470.1778            0    668.03888    17.838483    23.433303    22.130723    9250.9649    1042.9895    526.95576    434.17133   -721.31751   -116.17687    132.73517   -4118.5795 
20397000    141.50754    -4462.682   -4220.1429    -4462.682            0    1708.2413    18.047565    23.308417     21.92145    9221.4806    2118.4563    1043.2107     1963.057    -694.9929    220.81722    449.67808   -3990.4087 
20398000    150.86982   -4480.7047    -4222.119   -4480.7047            0    1492.0976    18.052897     23.46006    21.844238    9251.5165    784.22061    688.81592    3003.2563    1083.1868   -338.65737   -64.774313   -4020.7994 
20399000    157.15175    -4443.913   -4174.5603    -4443.913            0    1766.4593    18.073766    23.226865     22.03184    9248.8987    2730.2104    1715.3147     853.8528   -165.18469    -556.6075   -103.65889   -3936.2902 
20400000    154.44609   -4472.8772   -4208.1618   -4472.8772            0    1447.6228    17.899513    23.373608    22.131108    9259.1288    1888.7511    1526.7875    927.32967    155.70763   -309.32625    172.57548   -4012.6823 
20401000    162.25619   -4464.7663   -4186.6647   -4464.7663            0    1294.1402    17.959209    23.367111    22.019425     9240.558    2178.0517    595.08562    1109.2835   -342.12092   -78.744944   -406.62951   -4012.2611 
20402000    149.38536   -4476.9295   -4220.8881   -4476.9295            0    1876.1112    18.024793    23.368627    21.856946    9206.4662    1994.2577    1876.2503    1757.8256   -210.99421   -486.77741    126.44264   -3968.9885 
20403000    150.45463   -4451.7688   -4193.8947   -4451.7688            0    2070.8901    17.971876    23.500712    21.834216    9221.7221    2614.0669    1170.4128    2428.1906    31.186888    762.17162    150.79341    -3915.382 
20404000     147.7474   -4468.5302   -4215.2962   -4468.5302            0    1671.8103    17.998073    23.392248    21.971669    9250.4106    1369.0703    562.59923    3083.7615    535.24059   -252.40529   -322.91132    -3989.756 
20405000    153.90629   -4466.5057   -4202.7156   -4466.5057            0    2699.3665    17.815321    23.477336    21.852367    9139.8896    2767.7432    1367.2351    3963.1211    570.82526   -654.64236    597.99111   -3842.9011 
20406000    139.58714   -4466.6345    -4227.387   -4466.6345            0     2437.835    18.022212    23.227902    21.962905    9194.0713    2543.1818    2568.5459    2201.7772   -425.55232     194.8526   -441.80457   -3900.5072 
20407000    149.83872   -4468.1626   -4211.3442   -4468.1626            0    1167.3725    17.944646    23.391629    22.017024    9241.7446    1368.7974    1577.6322    555.68798     409.1628    164.25595   -361.40749   -4054.0041 
20408000    152.46793   -4467.1693   -4205.8445   -4467.1693            0    3435.4289    17.979358    23.220713    21.924365    9153.2805    3664.8821    4594.6534    2046.7513    114.08285   -181.39283    311.03669    -3747.245 
20409000    151.78143   -4463.0861    -4202.938   -4463.0861            0    2168.2773    17.971455    23.486639    21.845907    9220.9184    1444.0306    2184.1494     2876.652    316.32653    613.22939    1004.7011   -3911.3531 
20410000    159.46067   -4455.6852   -4182.3751   -4455.6852            0    3209.9107    18.097698    23.237805    21.779766    9159.4976    3170.1056    2913.5434    3546.0832   -129.57519    239.91332   -597.89148   -3753.5892 
20411000    148.07276   -4474.9544   -4221.1628   -4474.9544            0    2577.0363    17.890643    23.325761    21.961831    9164.9543    2398.9813    3344.1118    1988.0158    472.89847   -295.44537   -556.47521   -3876.7123 
20412000    151.58976   -4472.2214   -4212.4018   -4472.2214            0    1458.9505    17.856962    23.361944    22.111001    9224.1202    1974.6489    1748.7509    653.45164    -1011.801     232.0587   -707.39233   -4016.1374 
20413000     148.4541   -4452.9024   -4198.4572   -4452.9024            0    1626.0573    18.052287    23.237311    22.021032    9237.5278    2097.1602    1202.7142    1578.2975   -260.29832    87.730113   -48.407462    -3979.395 
20414000    155.54811    -4474.548   -4207.9439    -4474.548            0    2956.1647    18.018445     23.42007    21.751242    9178.8773    3146.3491    2454.9898    3267.1553    84.466055    225.16318   -152.06309   -3812.2184 
20415000    147.06897   -4454.6828   -4202.6116   -4454.6828            0    1735.9428    18.034666    23.275977    21.996589    9233.6062    227.63903     2659.325    2320.8644   -170.26929   -579.13359   -220.11884   -3968.8449 
20416000    156.90359   -4458.2351   -4189.3077   -4458.2351            0    2275.2065    17.803195     23.51817    22.049018    9231.8924    3331.1975    1999.8987    1494.5232    768.25562   -451.18837     333.8972   -3882.9792 
20417000    146.32387   -4471.9262   -4221.1321   -4471.9262            0    2320.8539     18.09589    23.313204    21.843013    9214.9811    2135.6475     2826.741    2000.1732   -501.98759   -411.29445    189.49341   -3909.2301 
20418000    164.44579   -4453.2461   -4171.3916   -4453.2461            0    1708.7782    17.910177    23.449981    21.924333    9208.0733    2289.7232    1374.5066    1462.1048    18.496878    312.71949    261.64969   -3941.9193 
20419000    157.48534   -4450.8577   -4180.9332   -4450.8577            0    2537.7839    17.974379    23.306222    21.994926    9214.0018    3461.4727    2448.1833    1703.6957    317.42634   -744.61576    33.831911    -3839.914 
20420000    157.47883    -4472.321   -4202.4076    -4472.321            0    1693.9628    18.029059     23.46622    21.859354    9248.1213    1390.6308      2096.21    1595.0476    721.86623    -302.0015    695.67079   -3973.9355 
20421000    145.53301   -4447.5558   -4198.1172   -4447.5558            0     2405.181    17.943091    23.276261    21.985079    9182.0262    1880.3556    2415.8726    2919.3149     62.40926   -186.24382    42.372566   -3876.0384 
20422000    158.04603   -4480.3867   -4209.5012   -4480.3867            0    2259.1224    17.974013    23.234737    22.107817    9232.6987    1408.8284    2941.1608     2427.378   -711.19709   -167.85171    855.19017   -3905.3116 
20423000    151.14845    -4464.014   -4204.9507    -4464.014            0    2401.0801     17.91064    23.562561    21.760637    9183.4361    2899.5729    1976.1091    2327.5583    656.16265    208.15611    647.58281   -3883.3716 
20424000    149.34195   -4467.6027   -4211.6357   -4467.6027            0    2041.5241    18.084444    23.344728     21.87346    9234.4594    1414.0581    1102.1267    3608.3875    606.21899    375.47175   -348.32397   -3936.6932 
20425000    155.62483   -4458.6953   -4191.9597   -4458.6953            0    1558.5127    17.964809    23.511491     21.92191    9259.3637    2538.9713    1562.6187    573.94816    359.97503     -2.73336   -381.90651   -3981.5008 
20426000    146.77358   -4456.9336   -4205.3687   -4456.9336            0    2739.0783    18.016985    23.175423    22.026003    9196.9852    1810.9263    3102.1606    3304.1481     631.2425   -117.04516    344.32501     -3837.98 
20427000    161.86225   -4462.9593   -4185.5329   -4462.9593            0     1893.923     17.81971    23.470204    22.054512    9223.9078    2778.5009    1331.5352    1571.7329    531.52337   -202.05884    558.56501   -3930.7601 
20428000    158.45718   -4461.9828   -4190.3926   -4461.9828            0    2068.5729    18.006562    23.317021    21.918885    9202.8496    2060.7372    1543.4208    2601.5606    -208.7608    206.20686    -249.3483   -3912.7609 
20429000    154.70653   -4468.0393   -4202.8776   -4468.0393            0    2222.6218    17.989028    23.360589    21.899303    9202.8381    1898.9307     3253.754    1515.1808   -2.4036016    377.06609   -14.740387   -3904.5708 
20430000    150.83535   -4465.2694   -4206.7428   -4465.2694            0    1211.7321    17.989121    23.304681     22.04312     9241.153    1366.1648    962.07899    1306.9525    436.49247   -122.59898    129.93973   -4043.4344 
20431000    152.47168   -4454.8492    -4193.518   -4454.8492            0    1419.7236    17.987133     23.27753    22.021735    9220.4129    1674.0604    1388.5508    1196.5598    977.42304    247.21617   -343.79584   -4002.6074 
20432000    157.12244   -4448.5692   -4179.2667   -4448.5692            0    1843.2582     18.05185    23.500225    21.755297    9229.0874    1611.0953    1733.1937    2185.4855   -605.74661    415.34042    120.88979   -3931.1701 
20433000    149.17717   -4466.2954   -4210.6108   -4466.2954            0    1425.4686    18.040633    23.186416    22.045716    9221.6706    1034.8853    2876.0119    365.50864   -571.47357    50.935156   -119.06601   -4018.9016 
20434000    155.00037   -4483.5914   -4217.9261   -4483.5914            0    1538.1454    17.769235    23.474414    22.126295     9229.373    1172.5336    1544.4568    1897.4456    -228.6242   -326.44908   -25.313075   -4010.8903 
20435000    159.99631   -4461.0076   -4186.7794   -4461.0076            0    2625.5845    18.061742    23.315129    21.837011    9195.8239    1747.7472    2142.7879    3986.2184    244.95873     176.6571    136.27015   -3834.6579 
20436000    155.49417   -4452.8753   -4186.3636   -4452.8753            0    2368.5924    17.900055    23.524971    21.787406    9174.6389    2107.0297    1942.1628    3056.5847   -925.66705   -255.47533    345.71562   -3869.4396 
20437000    146.71248   -4462.4715   -4211.0114   -4462.4715            0     1227.874    17.976344    23.391723    22.075525    9282.7064    2273.3891    1818.7915   -408.55857   -513.51391    -319.7445    147.70003   -4044.7833 
20438000    152.36639   -4439.9557    -4178.805   -4439.9557            0    1752.1454    17.957906    23.418498    21.926222    9221.0113    825.00788    1884.4643    2546.9641   -1368.7602   -35.770945   -52.816251   -3943.1782 
20439000    149.28493   -4474.2294   -4218.3602   -4474.2294            0    1273.1254    18.114839    23.294792    21.872244    9229.6804    1073.6293    730.90161    2014.8452   -535.01814     467.0023    -301.9866   -4046.9906 
20440000    153.33006   -4438.1546   -4175.3521   -4438.1546            0     1546.266    17.839139     23.62208    21.920158    9237.1013    2092.9473    300.64438    2245.2062   -205.86323      -663.67   -392.90322    -3967.049 
20441000    153.41898   -4454.4197   -4191.4648   -4454.4197            0    1523.3839    18.044227    23.269831    22.000319    9237.6289    1204.4952    1595.4847    1770.1717     -1083.32   -471.66911   -317.18249   -3986.2325 
20442000    145.08849   -4443.1097    -4194.433   -4443.1097            0    2121.5548    17.914406    23.410335    21.998121    9225.6218    2794.1147    1820.8273    1749.7225   -464.76603   -222.40506   -187.99061   -3908.9858 
20443000    154.82918   -4464.1408   -4198.7689   -4464.1408            0    1180.0781    18.087045    23.365713    21.911354    9260.1044    987.35641    1104.5986    1448.2793    342.75595    680.38671    194.36214   -4039.4004 
20444000    155.96156   -4451.1254   -4183.8126   -4451.1254            0    1159.6179    17.964911    23.330647    22.118793     9270.716    1399.3759    485.70284     1593.775   -16.936325    133.87613    118.18605   -4027.0278 
20445000    149.45796     -4463.07   -4206.9041     -4463.07            0    1109.6019    17.987226    23.440685    22.018343    9283.6578    1049.2299    505.57714    1773.9987    156.58041   -420.09833     749.8251   -4056.6722 
20446000     156.7453   -4467.9815   -4199.3254   -4467.9815            0    2723.3028    18.076071     23.25572    21.764326    9149.1145     2626.428    3109.3285    2434.1521   -721.92986    203.17379    263.90565   -3835.9539 
20447000    148.00475   -4451.3761    -4197.701   -4451.3761            0    998.28937    17.994205    23.574219    21.845244    9266.7379   -45.697129     438.2436    2602.3216    925.93388    148.66942    49.224759   -4062.7863 
20448000    150.58732   -4455.5647   -4197.4632   -4455.5647            0    2341.0817    18.096764    23.189945    21.939448    9207.1738      2626.36    2370.3065    2026.5785    366.99343    368.99486    139.81447   -3883.1093 
20449000    153.96681    -4451.171   -4187.2772    -4451.171            0    2330.4064    17.856906    23.457558    22.015674    9221.9123    2553.1127    1671.5935    2766.5129   -462.64606    320.56343    640.50813   -3873.8559 
20450000     148.9875   -4459.3411   -4203.9816   -4459.3411            0    1535.6035    18.048281    23.337671    22.011456    9271.3318     1441.717    2498.3202    666.77323   -1427.8774    86.386278    -238.6967   -3996.3483 
20451000    149.21955   -4453.0801   -4197.3228   -4453.0801            0    1863.7112     18.01579    23.340189    21.885315    9202.5981    1061.5608    2221.3852    2308.1876   -864.99295    267.70933    137.22376   -3947.1933 
20452000    153.75198   -4458.9245   -4195.3989   -4458.9245            0    1343.4968    17.913851    23.546021     21.94969    9258.3778    1110.9696    276.34862    2643.1722   -229.72243   -308.17717    720.97085   -4013.9947 
20453000    149.05489   -4469.3646   -4213.8896   -4469.3646            0    1448.3537    18.061897    23.223092    22.068823    9256.8363    613.17712     1337.108    2394.7761    3.1937067   -10.344502    117.61906   -4018.3597 
20454000     143.9283   -4458.4496   -4211.7615   -4458.4496            0    1917.7722    17.862519    23.464581    21.997752    9220.0615    2231.4781    930.04998    2591.7885    1564.9631   -390.26105    263.15602    -3953.888 
20455000     152.1258   -4480.9669   -4220.2285   -4480.9669            0     1285.922    18.164374    23.213524    21.936534    9249.7397    229.29735    2027.0981    1601.3705    562.24849   -133.83655    -571.1436   -4046.7602 
20456000    144.54592   -4458.2788    -4210.532   -4458.2788            0    3232.0863    17.788642    23.612853    21.858633    9181.5127    3945.7451    3514.2224    2236.2913    632.01633   -408.59511    31.514958   -3777.7462 
20457000    149.76801   -4464.1185   -4207.4213   -4464.1185            0    1176.3326    18.054411     23.31136     22.06264    9285.5665    1171.8604     367.5218    1989.6156    252.13399   -19.507843    459.77633   -4048.1218 
20458000    164.88826   -4470.6108   -4187.9979   -4470.6108            0    2272.5717    17.781927    23.539523    22.013879    9214.5273    2560.3473    2833.7864    1423.5813    783.25997   -91.849388     72.05339   -3882.5997 
20459000    150.00697   -4459.3991   -4202.2923   -4459.3991            0    2655.9281    18.024801    23.221277    22.010346    9212.6264    1391.9291    4907.8961     1667.959   -122.11117    197.72105    254.44858   -3845.4506 
20460000     159.9112   -4458.5238   -4184.4415   -4458.5238            0    1480.2822    17.915044    23.426294    22.024935    9243.4932    1266.2733    2059.7179    1114.8553    124.07168   -169.73349   -79.310938   -3984.8893 
20461000     151.4901     -4470.69   -4211.0412     -4470.69            0    1068.3846    18.009663    23.432745    21.981151    9276.3939    1397.0023   -23.628739    1831.7802   -1037.2949    -478.4885    446.42118    -4066.503 
20462000    155.54517   -4466.3478   -4199.7487   -4466.3478            0    1350.0167    18.118098    23.309977    21.937933    9265.1005    28.987537    1738.8916     2282.171    91.804101   -1448.2143   -150.99633   -4017.3317 
20463000     169.0754   -4476.3697   -4186.5803   -4476.3697            0    3030.2568    17.694183    23.586176    21.992693    9178.3887    2716.6525    3957.4345    2416.6835   -42.533412   -220.17629    476.02264    -3780.958 
20464000    151.72951   -4465.4868   -4205.4276   -4465.4868            0    894.18113    18.157364    23.199484    22.011725    9272.2516    1269.2838    716.37281    696.88676   -18.786034    403.23112    454.63508   -4084.5108 
20465000    150.39865   -4492.3507   -4234.5726   -4492.3507            0    1209.9579    17.884367    23.448998    22.032216    9239.6608    1830.7563    644.26325    1154.8542    101.33668    735.21966    941.42648   -4071.5296 
20466000    154.64746   -4474.7172   -4209.6567   -4474.7172            0    1864.8266     17.97843    23.301699    22.053965    9239.0228    1394.2907    1899.9289    2300.2602    517.88906    373.05648    387.47506   -3958.3869 
20467000    154.43521   -4485.5905   -4220.8939   -4485.5905            0    1892.5981    17.869737      23.4376    22.032511    9227.7391    2392.3176    1788.1057    1497.3711     1021.404    12.734377    21.395287   -3966.1935 
20468000    150.86224   -4453.1087    -4194.536   -4453.1087            0       2707.8    18.029755    23.376818    21.858282    9212.7918    2279.9499    3483.4315    2360.0187   -163.98933   -580.65336   -56.835098   -3830.7184 
20469000     154.2986   -4457.9907   -4193.5282   -4457.9907            0    2095.8585    17.963055    23.487205    21.838003    9213.4962    2167.2339     2967.628    1152.7134    400.56378    17.253369   -309.33709    -3911.909 
20470000    148.06806   -4470.4211   -4216.6375   -4470.4211            0    1209.1192    18.001903    23.209596    22.140534    9250.6892    931.58516     533.1215    2162.6508   -684.88849   -390.35769     75.16622    -4053.513 
20471000     146.4311   -4452.0988   -4201.1209   -4452.0988            0    2774.8282    17.872498    23.401465    22.007038    9204.2814    1970.3867    2588.0246    3766.0734   -305.11193    384.68743   -709.71516   -3828.6419 
20472000    155.06755   -4479.1964    -4213.416   -4479.1964            0    2299.0041    18.014475    23.318695    21.920707    9208.3201    2077.0487    1903.0611    2916.9025   -116.59189   -884.54025    232.26233   -3904.6737 
20473000     143.0569   -4455.6182   -4210.4236   -4455.6182            0    1902.6479    18.029241    23.318709    21.994806    9247.0261    2039.4035    2445.0365    1223.5039    376.66985    425.41142   -222.15782   -3953.8355 
20474000    160.58803   -4477.2916   -4202.0492   -4477.2916            0    1283.5895     18.03748    23.366608    21.947237    9250.2057    1533.9729    2162.9079    153.88773    561.50881    350.57359    13.679991   -4028.8869 
20475000    147.02134     -4463.94   -4211.9505     -4463.94            0    2425.2429    18.089518    23.374478    21.809513    9221.7827    2093.3777    2355.5575    2826.7934   -680.48049   -293.81751   -427.86476    -3885.779 
20476000    153.61816   -4464.1256   -4200.8293   -4464.1256            0    1727.1695    17.902265    23.497352    21.991464    9250.8374    2326.9567    1023.5448    1831.0071    299.81608    550.91793   -117.43672     -3967.81 
20477000    164.74777   -4450.2085   -4167.8365   -4450.2085            0    1344.0635     18.06067     23.25903     22.06988    9270.9754      1070.47    1655.8424     1305.878   -423.30011   -308.18838   -89.909955   -3986.1088 
20478000    155.42293   -4455.8635   -4189.4739   -4455.8635            0    2060.5098    17.861774    23.475697    22.017985    9232.5287    2553.6117    2617.3838    1010.5339   -602.45744    96.416032    230.15018   -3912.0325 
20479000    150.70809   -4450.1206   -4191.8121   -4450.1206            0    2195.5334    18.166261    23.106514    21.988508    9229.8732    2228.2489    1732.8633    2625.4881    789.23409   -244.19282    36.761891   -3896.2752 
20480000    151.34906   -4440.3009   -4180.8938   -4440.3009            0    1470.3774    17.907709    23.545214    21.922337    9243.3526    1426.0817    1670.3899    1314.6607    426.16682   -245.39238   -64.001971   -3982.6799 
20481000     158.0425   -4460.4131   -4189.5336   -4460.4131            0    2546.5221    18.124262    23.168444    21.924438    9206.3114    2918.9903    2373.2311     2347.345    466.23995    979.44094    33.605114   -3847.6258 
20482000    149.25888   -4456.0827   -4200.2581   -4456.0827            0     1665.104    17.944242    23.501543     21.94488    9254.5372    95.130625    3003.5197    1896.6618    187.37915    507.11074   -188.09459   -3975.5224 
20483000     146.8949   -4462.8236   -4211.0507   -4462.8236            0       2366.8    17.967781    23.251221    22.053477    9213.3438    2410.0414    3790.6529    899.70577   -919.63103    42.880373    592.91124   -3893.0305 
20484000    151.94895     -4451.09   -4190.6547     -4451.09            0    1570.2349    17.928671    23.503941    22.014158    9276.6434    2455.2733    421.85904    1833.5724    -615.2792    21.795355    69.552259   -3978.2171 
20485000     153.3364   -4481.7341   -4218.9208   -4481.7341            0    1696.8685    18.044067    23.370203    21.970101    9264.6492    1647.4421    1591.5245    1851.6387    300.30503    223.83484    424.76992   -3989.6477 
20486000    148.88746   -4457.6727   -4202.4847   -4457.6727            0     2245.242     18.03859     23.12544    22.086946    9213.5767    1776.8562    2382.2925    2576.5773    402.68446   -182.76685   -9.1027769   -3900.7902 
20487000    150.12103     -4465.02   -4207.7177     -4465.02            0    525.93473    17.927088    23.545352    22.028162    9298.0781     882.7469    845.89114   -150.83386     51.24096   -262.96447    67.921076   -4136.3994 
20488000    155.79758   -4458.6425   -4191.6108   -4458.6425            0    1214.4833    18.118736    23.252147    21.984676     9262.133    316.79589    2108.7617    1217.8923   -110.46072    419.76048    380.00795     -4027.56 
20489000    155.62586   -4466.7257   -4199.9883   -4466.7257            0    996.33968    17.774437    23.590799    22.075753    9256.6537    2016.0181    977.34272   -4.3417685    157.17554   -401.10469    411.40305   -4065.4837 
20490000    151.33314   -4457.3995   -4198.0197   -4457.3995            0    1468.7101    18.114026     23.21425    22.010374      9255.44    584.40902    3125.6135     696.1078    378.17814    125.08518    233.72694   -3999.7716 
20491000    149.77927   -4473.0611   -4216.3445   -4473.0611            0    106.21978    17.926698    23.673055    21.937754    9309.9378    127.84762    -234.4621    425.27382    670.52789     238.5721    -263.0798   -4201.9224 
20492000    151.09139   -4462.8949   -4203.9295   -4462.8949            0    1564.4341    17.999751     23.26113    22.057216    9235.2358    1408.2497    1869.1777     1415.875   -582.94227   -71.649156    324.13487   -3993.2214 
20493000    158.33096   -4456.1349   -4184.7611   -4456.1349            0    2436.9672    17.954466    23.368716    21.969212    9217.6846    3157.7268    938.11623    3215.0587   -445.48224    340.40223   -104.35183   -3857.1584 
20494000    147.42792   -4444.4371   -4191.7507   -4444.4371            0    1878.2243    17.967323    23.463597    21.849996    9211.4783    1362.8255    1560.0747    2711.7726   -47.567503    231.38591    438.11447   -3939.4301 
20495000    151.78743   -4443.2609   -4183.1024   -4443.2609            0    2294.5396    18.017284    23.207475    22.026635    9210.1215    2336.4329    2727.1717    1820.0143    25.545725    131.48921    335.48276   -3874.8994 
20496000    156.75533   -4471.2627   -4202.5895   -4471.2627            0    810.92932     17.83444    23.487612    22.089028    9252.8376    1490.4604    754.65975    187.66781   -610.56519    867.55482    271.58241   -4093.1601 
20497000    146.73782   -4451.0894   -4199.5858   -4451.0894            0    2349.4417    18.043421    23.320136    21.861944    9198.9603    1921.7245    2014.0138    3112.5868    355.18615    278.80362    197.25662   -3884.3908 
20498000    154.37954   -4444.6825   -4180.0812   -4444.6825            0    2071.2868    17.990902      23.3969    21.848957    9196.9105    2177.7445    3233.4292    802.68668   -517.38486   -81.164449   -43.971946   -3902.2647 
20499000    144.59562   -4466.2186   -4218.3866   -4466.2186            0    880.42537    17.992418    23.352948    22.104211    9287.6591    661.05311     670.0161    1310.2069     841.5257    40.153462    76.608679   -4099.1321 
20500000     157.1284   -4446.5708   -4177.2581   -4446.5708            0    2633.3201    17.882484    23.292944    22.060628    9189.0393    3727.2527    2633.7495    1538.9582     246.6146   -455.20161    869.55744   -3824.3598 
Loop time of 385.36 on 64 procs for 250000 steps with 864 atoms

Performance: 112.103 ns/day, 0.214 hours/ns, 648.744 timesteps/s
191.8% CPU use with 32 MPI tasks x 2 OpenMP threads

MPI task timing breakdown:
Section |  min time  |  avg time  |  max time  |%varavg| %total
---------------------------------------------------------------
Pair    | 17.372     | 25.252     | 36.178     | 109.2 |  6.55
Bond    | 1.0629     | 1.2231     | 2.3605     |  20.5 |  0.32
Kspace  | 189.88     | 200.72     | 209.31     |  41.9 | 52.09
Neigh   | 0.85402    | 0.94437    | 1.0138     |   3.5 |  0.25
Comm    | 58.344     | 61.847     | 65.512     |  21.8 | 16.05
Output  | 0.55867    | 0.55897    | 0.56042    |   0.0 |  0.15
Modify  | 69.331     | 72.279     | 76.198     |  19.4 | 18.76
Other   |            | 22.54      |            |       |  5.85

Nlocal:        27.0000 ave          39 max          17 min
Histogram: 7 2 5 1 2 5 1 2 4 3
Nghost:        2149.84 ave        2261 max        2046 min
Histogram: 8 4 4 0 0 0 0 6 4 6
Neighs:        6607.19 ave        9698 max        4295 min
Histogram: 8 1 6 1 2 4 3 2 3 2

Total # of neighbors = 211430
Ave neighs/atom = 244.71065
Ave special neighs/atom = 2.0000000
Neighbor list builds = 3249
Dangerous builds = 0

unfix		3
unfix		2
unfix		1

write_data	data.final.${pid} nocoeff
write_data	data.final.0 nocoeff
System init for write_data ...
PPPM initialization ...
  extracting TIP4P info from pair style
  using 12-bit tables for long-range coulomb (../kspace.cpp:340)
  G vector (1/distance) = 0.37185373
  grid = 24 27 25
  stencil order = 5
  estimated absolute RMS force accuracy = 0.0031476369
  estimated relative force accuracy = 9.479015e-06
  using double precision FFTW3
  3d grid and FFT values/proc = 4410 672
Last active /omp style is kspace_style pppm/tip4p/omp

write_restart   restart.lmp.${pid}
write_restart   restart.lmp.0
System init for write_restart ...
PPPM initialization ...
  extracting TIP4P info from pair style
  using 12-bit tables for long-range coulomb (../kspace.cpp:340)
  G vector (1/distance) = 0.37185373
  grid = 24 27 25
  stencil order = 5
  estimated absolute RMS force accuracy = 0.0031476369
  estimated relative force accuracy = 9.479015e-06
  using double precision FFTW3
  3d grid and FFT values/proc = 4410 672
Last active /omp style is kspace_style pppm/tip4p/omp
Total wall time: 0:06:25
