LAMMPS (30 Jul 2021)
Processor partition = 1
  using 2 OpenMP thread(s) per MPI task
using multi-threaded neighbor list subroutines
variable        pid world 0 1
variable        phase world IceV IceIII

shell cd ${phase}
shell cd IceIII
include Restart.lmp
echo both
log log.lammps
#include		in.partitions
include		in.temp
variable        temperature equal 231.47
variable	tempDamp equal 100.0
include		in.pressure
variable        pressure equal 7643.3
variable        pressureDamp equal 1000.0 # This is 1 ps
include		in.seed
variable        seed equal 745823

units		real
atom_style	full

read_restart	restart.lmp.${pid}
read_restart	restart.lmp.1
Reading restart file ...
  restart file = 30 Jul 2021, LAMMPS = 30 Jul 2021
  restoring atom style full from restart
  orthogonal box = (0.10127582 0.15881026 -0.0022855569) to (19.898725 19.841191 20.702284)
  4 by 2 by 4 MPI processor grid
  restoring pair style lj/cut/tip4p/long/omp from restart
  restoring bond style harmonic/omp from restart
  restoring angle style harmonic/omp from restart
  972 atoms
  648 bonds
  324 angles
Finding 1-2 1-3 1-4 neighbors ...
  special bond factors lj:    0        0        0       
  special bond factors coul:  0        0        0       
     2 = max # of 1-2 neighbors
     1 = max # of 1-3 neighbors
     1 = max # of 1-4 neighbors
     2 = max # of special neighbors
  special bonds CPU = 0.002 seconds
  read_restart CPU = 0.008 seconds
include 	in.setup
variable	out_freq equal 1000
variable	out_freq2 equal 10000
variable	out_freq3 equal 1000

timestep	2.0

neigh_modify    delay 7 every 1

include		in.tip4p
# This is TIP4P/Ice

# create groups ###
group ox type 2
324 atoms in group ox
group hy type 1
648 atoms in group hy

# set charges - beside manually ###
set group ox charge -1.1794
Setting atom values ...
  324 settings made for charge
set group hy charge 0.5897
Setting atom values ...
  648 settings made for charge

# ### TIP3P Potential Parameters ###
pair_style lj/cut/tip4p/long/omp 2 1 1 1 0.1577 8.5
pair_coeff 1 1*2 0.000 0.000
pair_coeff 2 2 0.21084 3.1668
bond_style  harmonic
bond_coeff  1 450 0.9572
angle_style harmonic
angle_coeff 1 55 104.52
kspace_style pppm/tip4p/omp 1.0e-5
pair_modify tail yes

thermo          ${out_freq}
thermo          1000
thermo_style    custom step temp pe etotal epair emol press lx ly lz vol pxx pyy pzz pxy pxz pyz enthalpy

restart 	${out_freq3} restart.lmp.${pid} restart2.lmp.${pid}
restart 	1000 restart.lmp.${pid} restart2.lmp.${pid}
restart 	1000 restart.lmp.1 restart2.lmp.${pid}
restart 	1000 restart.lmp.1 restart2.lmp.1


include         in.dump
dump            myDump all atom ${out_freq2} dump.water.${pid}
dump            myDump all atom 10000 dump.water.${pid}
dump            myDump all atom 10000 dump.water.1
dump            myDump2 all dcd ${out_freq2} dump.dcd
dump            myDump2 all dcd 10000 dump.dcd
dump_modify     myDump append yes
dump_modify     myDump2 append yes


variable natoms 	equal  "count(all)"                        # NUMBER ATOMS
variable H      	equal  "enthalpy/v_natoms"                 # ENTHALPY-per-atom
variable Vol      	equal  "vol/v_natoms"                 # volume-per-atom
fix AVG all 		ave/time ${out_freq} 1 ${out_freq} v_Vol v_H file vol_enthalpy.dat
fix AVG all 		ave/time 1000 1 ${out_freq} v_Vol v_H file vol_enthalpy.dat
fix AVG all 		ave/time 1000 1 1000 v_Vol v_H file vol_enthalpy.dat


timer           timeout 02:55:00 every 1000
New timer settings: style=normal  mode=nosync  timeout=02:55:00

fix 		1 all shake 1e-6 200 0 b 1 a 1
Finding SHAKE clusters ...
       0 = # of size 2 clusters
       0 = # of size 3 clusters
       0 = # of size 4 clusters
     324 = # of frozen angles
  find clusters CPU = 0.001 seconds
fix             2 all nph aniso ${pressure} ${pressure} ${pressureDamp}
fix             2 all nph aniso 7643.3 ${pressure} ${pressureDamp}
fix             2 all nph aniso 7643.3 7643.3 ${pressureDamp}
fix             2 all nph aniso 7643.3 7643.3 1000
fix             3 all temp/csvr ${temperature} ${temperature} ${tempDamp} ${seed}
fix             3 all temp/csvr 231.47 ${temperature} ${tempDamp} ${seed}
fix             3 all temp/csvr 231.47 231.47 ${tempDamp} ${seed}
fix             3 all temp/csvr 231.47 231.47 100 ${seed}
fix             3 all temp/csvr 231.47 231.47 100 745823


run             250000
PPPM initialization ...
  extracting TIP4P info from pair style
  using 12-bit tables for long-range coulomb (../kspace.cpp:340)
  G vector (1/distance) = 0.37325101
  grid = 24 24 25
  stencil order = 5
  estimated absolute RMS force accuracy = 0.0033056797
  estimated relative force accuracy = 9.9549563e-06
  using double precision FFTW3
  3d grid and FFT values/proc = 3458 576
Last active /omp style is kspace_style pppm/tip4p/omp
Neighbor list info ...
  update every 1 steps, delay 7 steps, check yes
  max neighbors/atom: 2000, page size: 100000
  master list distance cutoff = 10.8154
  ghost atom cutoff = 10.8154
  binsize = 5.4077, bins = 4 4 4
  1 neighbor lists, perpetual/occasional/extra = 1 0 0
  (1) pair lj/cut/tip4p/long/omp, perpetual
      attributes: half, newton on, omp
      pair build: half/bin/newton/omp
      stencil: half/bin/3d
      bin: standard
Setting up Verlet run ...
  Unit style    : real
  Current step  : 6250000
  Time step     : 2
  Walltime left : 2:54:59.93
Per MPI rank memory allocation (min/avg/max) = 10.19 | 10.20 | 10.21 Mbytes
Step Temp PotEng TotEng E_pair E_mol Press Lx Ly Lz Volume Pxx Pyy Pzz Pxy Pxz Pyz Enthalpy 
 6250000    246.51349   -4747.5028   -4272.0809   -4747.5028            0    9405.5129    19.797449     19.68238    20.704569    8067.7617    9949.5548     9192.874    9074.1097    163.16208   -771.44009     1122.644   -3165.4279 
 6251000    232.48531   -4768.3649   -4319.9974   -4768.3649            0    7368.0563    19.831748    20.004238    20.398027    8092.2853     6946.891    7232.3067    7924.9711    -535.0651   -765.56117   -6.5330297   -3450.4365 
 6252000     229.5552   -4754.1578   -4311.4413   -4754.1578            0    7777.4606    19.816128    19.845613    20.719328    8148.1492    7431.0323    8625.5116     7275.838    447.10052     97.66785   -289.04966    -3387.227 
 6253000    228.04485    -4756.337   -4316.5333    -4756.337            0    7892.2631    19.917596    20.007563    20.272577    8078.6737    7655.4754    6598.0819     9423.232    62.946201    821.75479   -176.02913   -3386.6734 
 6254000    224.59295   -4780.5276   -4347.3812   -4780.5276            0    6912.6518    19.883104      19.9062    20.496866    8112.5989    5799.3436    7093.8011    7844.8106   -560.80029     157.6191    -73.62873   -3529.5182 
 6255000    228.78858    -4753.804    -4312.566    -4753.804            0    6904.2859    19.726586    19.861164     20.81277    8154.2963    7475.8122    7300.2376     5936.808   -75.660313    755.90455    1151.0158   -3491.4941 
 6256000    237.90227   -4756.9178   -4298.1032   -4756.9178            0    7526.4578     19.96402    19.946821    20.414887    8129.5906    7047.3549    6649.1026    8882.9158    433.70927    989.53947    1240.3832   -3405.7533 
 6257000    236.32108   -4766.6753   -4310.9102   -4766.6753            0    7744.6056    19.723607    19.968601    20.625914    8123.5748    10257.995    5507.5857     7468.236   -36.837905    1894.0954   -776.46111   -3393.3757 
 6258000    230.72073   -4753.7755   -4308.8112   -4753.7755            0    8472.1215    19.887945    19.947115    20.514816    8138.3739    10117.582    7784.5782    7514.2043    284.02545    451.64285   -46.723347   -3303.2564 
 6259000    236.82956   -4740.1678   -4283.4221   -4740.1678            0    9814.3934     19.84716    19.845713    20.579504    8105.8761    10875.072    9025.2922    9542.8159    -205.2229   -1115.3044    119.01238   -3123.2049 
 6260000    236.74107        -4744   -4287.4249        -4744            0    8448.4465     20.01653    19.783468    20.413058    8083.4971    6652.4041    9579.5282    9113.4071   -104.13472   -564.27273   -10.232069   -3291.4417 
 6261000    236.05041   -4773.7742   -4318.5311   -4773.7742            0    8327.1422    19.717943    19.881622    20.563196    8061.2802    6959.3069    10071.391    7950.7292     226.6059   -641.55483     252.2088   -3339.5465 
 6262000    243.11478   -4738.4644   -4269.5971   -4738.4644            0    6958.8739    19.899933    19.711244    20.737653    8134.3951     7700.968    6799.3687     6376.285   -272.74884    550.91949    34.157436   -3444.0533 
 6263000    239.83288   -4739.9109    -4277.373   -4739.9109            0    7359.7665      19.8876    19.972557    20.456347    8125.3883    7860.4423    4724.0439    9494.8132   -50.120571    310.86125   -615.04569   -3405.2373 
 6264000      227.901   -4769.7106   -4330.1844   -4769.7106            0    6549.8366     20.03254    19.897342    20.445382    8149.4128    6674.3391    6230.3913    6744.7794   -203.72058   -22.457089   -1244.3255   -3551.7309 
 6265000    227.73148   -4759.7938   -4320.5945   -4759.7938            0    6749.1211    19.659512     20.06424     20.68227    8158.1866     7206.572    7028.2229    6012.5684    587.97955   -965.27622   -837.55365   -3517.5922 
 6266000    238.07323   -4775.0826   -4315.9384   -4775.0826            0    8101.5304    19.837311    19.792654    20.632245    8100.9011    7687.7313     9563.829     7053.031    144.86114   -622.31817   -367.73196   -3358.7965 
 6267000    227.25603   -4752.0774   -4313.7951   -4752.0774            0    7475.6709    19.897911    19.914089    20.524831    8132.9391    7327.8604     7412.152    7687.0004    -349.8168    195.80496   -259.83157   -3427.1015 
 6268000    222.40231   -4765.5213   -4336.5997   -4765.5213            0    6611.3034     19.95831    19.756295    20.742888    8178.9674    5549.2872    7350.3803    6934.2427   -196.12095    925.43397    1791.0777   -3547.9912 
 6269000    231.18946   -4766.7909   -4320.9226   -4766.7909            0    6048.2618    20.076095    19.899463     20.49827    8189.1312    5551.0261    5995.6058    6598.1534   -386.94333    295.20507   -321.25504   -3598.5782 
 6270000    220.84033   -4739.8533   -4313.9441   -4739.8533            0    7385.4437    19.637471    19.940864    20.609696    8070.5125    7850.4586    7602.7032    6703.1692    127.64056      417.758   -444.74641   -3444.6763 
 6271000    227.01437   -4766.2071   -4328.3908   -4766.2071            0    9564.4169    19.854757    19.799141    20.515005    8064.5945    10236.461    8685.9076    9770.8816    174.93792    280.41142    775.03702    -3203.483 
 6272000    225.70139   -4749.4058   -4314.1217   -4749.4058            0    7281.9104     19.97057     20.12164    20.292281    8154.2624    6856.9707    6699.0113    8289.7494    334.39348    1949.2532   -222.60006   -3448.1456 
 6273000     227.4823   -4774.2934   -4335.5747   -4774.2934            0     7304.565    19.805268    19.695763    20.775113    8103.9534    8876.3869    6427.5138    6609.7944    18.988449   -599.14501    255.47853   -3472.2638 
 6274000    239.10628   -4728.0798   -4266.9432   -4728.0798            0    8494.9174     20.08446     19.64198    20.521533    8095.7154    8191.4979    8851.5004     8441.754    236.00526    1620.9731    819.20024   -3263.9678 
 6275000     229.7721   -4722.7376   -4279.6028   -4722.7376            0    7311.8509     19.76707    19.799725     20.71661    8108.1199     6902.311    9408.6093    5624.6326   -201.30454    382.10635   -990.56024   -3414.9866 
 6276000    240.31162   -4738.7379   -4275.2768   -4738.7379            0    8776.4447    20.225251     19.78731    20.279207    8115.8058    9396.9774    8503.8108     8428.546    797.90012   -1471.4463   -473.22084   -3236.4906 
 6277000    234.11423    -4728.281    -4276.772    -4728.281            0    8256.0101    19.868082    19.987898    20.449007    8120.7344    8584.7321    7679.1749    8504.1234    269.00895    167.48067    661.88265   -3298.9914 
 6278000     230.7386   -4769.1454   -4324.1467   -4769.1454            0    8781.1862    19.767398    19.789963    20.674649    8087.8414    10261.323    8519.3926    7562.8428   -830.16685    250.86101    1632.4028   -3288.3805 
 6279000     231.2825   -4750.3224   -4304.2747   -4750.3224            0    6982.9376    20.032516    19.784236    20.442575    8101.9652     5803.102    7332.7895    7812.9213   -475.00013   -114.87803   -678.44827   -3479.1788 
 6280000    239.96274   -4759.5683   -4296.7799   -4759.5683            0    6860.1153    20.032544    19.746228    20.613072    8153.8549    6835.4993    6091.5897    7653.2569   -586.18998    203.31533   -996.00022   -3481.0052 
 6281000    237.18979   -4749.2596   -4291.8192   -4749.2596            0    7638.7317    19.852595    19.910725    20.603854    8144.2822    7021.6932    8833.9357     7060.566   -815.54939   -330.22768    623.93225   -3384.5212 
 6282000     234.4827   -4752.3402   -4300.1206   -4752.3402            0    7810.4868    19.745488    19.849831    20.630779    8086.1226    7575.5558    8241.8372    7614.0675    306.49029    313.63508     1045.641    -3379.047 
 6283000    234.94526   -4778.1253   -4325.0136   -4778.1253            0    5845.9547    19.892187    19.988938    20.634793    8204.8828    4512.1853    6083.5263    6942.1524    554.20335    395.64591   -330.37945   -3625.4878 
 6284000    233.26723   -4776.2493   -4326.3738   -4776.2493            0     8597.901    20.019969    19.582918    20.748371    8134.3867    6913.7158     11291.13    7588.8571    -220.5479    851.66645    1172.7657   -3306.3903 
 6285000    231.62132   -4797.6396   -4350.9384   -4797.6396            0    7116.2498    19.787875    19.954354    20.512591    8099.4843     7827.828    6025.0154     7495.906   -350.94601   -712.14339   -384.20206   -3510.3479 
 6286000    230.85557   -4785.0467   -4339.8223   -4785.0467            0    5769.5849    20.159008    19.784713    20.408457    8139.7127    5445.4598    6163.5714    5699.7236   -95.149567    113.08504   -726.09963   -3654.9185 
 6287000    243.90831   -4782.6292   -4312.2315   -4782.6292            0    6865.9903    19.683707    19.885208    20.737781    8117.0701     8018.486    6101.6162    6477.8688    132.65136   -256.64594   -427.06415   -3499.4415 
 6288000    240.82496   -4752.0856   -4287.6345   -4752.0856            0    8905.4959    19.821727     19.84237    20.577977    8093.5252    8446.7497    8755.1344    9514.6036    239.18551   -1323.9288   -534.63256   -3236.4674 
 6289000    234.12622    -4778.905   -4327.3729    -4778.905            0    8886.8717    19.863991    20.085532    20.237086    8074.1687    8918.8935    8181.0491    9560.6726    800.53343    465.82615     760.0323   -3280.9129 
 6290000    229.76459   -4758.4935   -4315.3731   -4758.4935            0    5873.7209     20.04389     19.70814    20.623822    8146.9829    4643.1187    7122.0803    5855.9638    9.7038351   -155.37665   -1387.0357   -3617.4847 
 6291000    242.79055   -4777.6954   -4309.4534   -4777.6954            0    7391.0736    19.781654    19.896054    20.592029    8104.5462    7858.0498    7049.1058    7266.0652   -177.66716     1494.244     601.6246   -3435.8544 
 6292000    235.39983   -4774.4979   -4320.5095   -4774.4979            0    8455.4944    19.868997    20.072311     20.28145    8088.5808    7230.8488    8278.7773    9856.8571    4.0027898     1021.402    404.63405   -3323.0685 
 6293000    232.66115   -4750.4407   -4301.7341   -4750.4407            0    8377.8428    20.013496    19.652555    20.668112    8129.1063    7234.1498    10404.297    7495.0815   -444.51382   -564.49029   -960.52839   -3308.5017 
 6294000    223.90003   -4766.4122   -4334.6022   -4766.4122            0    7799.9605    19.949438     19.69597    20.646345    8112.4345     7828.775    8860.7585    6710.3481    18.665163    621.26316   -140.78609   -3411.7768 
 6295000    221.60321     -4774.86   -4347.4796     -4774.86            0    7278.7017    19.847333    20.018727    20.366956    8092.1651    8077.5787    5649.3514    8109.1748   -68.972495     797.7868   -895.37448   -3488.4769 
 6296000    224.19224   -4750.7165   -4318.3429   -4750.7165            0    11738.805     19.82879    19.648552    20.475663    7977.4616    12536.017    11379.543    11300.854    201.88347    632.91808   -932.09679    -2952.614 
 6297000    226.78784   -4742.3297   -4304.9503   -4742.3297            0    9419.1631    19.740392     19.91174    20.463599    8043.5357    9987.3437    9056.1163    9214.0293   -1154.2022   -482.57713   -201.31289   -3200.0192 
 6298000    226.84307   -4774.0057   -4336.5197   -4774.0057            0    7490.4944    19.825607    19.929666    20.418899    8067.8692    7814.8884     6595.462    8061.1329    -347.7672   -427.05219   -219.11537   -3455.1762 
 6299000     230.8008    -4748.958   -4303.8392    -4748.958            0    7525.2532    19.971753    19.732949    20.607952    8121.6269    7111.2193    6778.8976    8685.6429   -339.04098    1114.4482    181.73011   -3412.5061 
 6300000    232.18218   -4788.3505   -4340.5676   -4788.3505            0    7008.4973    19.871423    19.793726    20.666036    8128.5615    8977.5598    5439.2603    6608.6717    757.87694    2119.1418    96.192019   -3509.7332 
 6301000    246.81561   -4735.4035   -4259.3989   -4735.4035            0    6300.4349    19.834299    19.844188    20.829147    8198.2598    3788.1309    7986.3161    7126.8577   -156.39712    661.03554   -138.62123   -3506.0986 
 6302000    218.71402   -4750.8613   -4329.0529   -4750.8613            0    8849.8187    19.746264    19.951052    20.431195    8049.0475    8625.1627     8862.744    9061.5496   -467.14444     498.5243   -1371.5199   -3290.1983 
 6303000    226.36358   -4771.6816   -4335.1204   -4771.6816            0    8874.3337    20.074415    19.615812    20.430213    8044.9267    7515.2992    10167.379    8940.3227    453.58465    844.57842   -483.40259   -3293.9214 
 6304000    234.73367   -4737.1147    -4284.411   -4737.1147            0    8246.7167    19.790803    19.870579    20.532613    8074.5467    6218.5908    9140.8582     9380.701    115.71454   -448.38345   -431.73617   -3313.2861 
 6305000    243.37068   -4777.7743   -4308.4135   -4777.7743            0    8276.5349    19.893714     19.77824    20.594728    8103.2564    7424.9124     8685.632    8719.0604    28.768188   -85.459786    1705.1377   -3330.3118 
 6306000    235.71794   -4726.2743   -4271.6725   -4726.2743            0    7676.1304    19.976423     19.87466    20.390302    8095.4517    8754.6523    7030.8453    7242.8935     166.7575     24.29803   -1147.7297   -3365.3989 
 6307000    218.63079   -4766.4633   -4344.8155   -4766.4633            0    7851.5608    19.917453    19.659434     20.70332    8106.7129    7760.9041    8871.1829    6922.5953   -166.39191   -1728.9714    1136.3831   -3416.5404 
 6308000    232.17768    -4755.947   -4308.1728    -4755.947            0    6360.2812    19.933906    19.668331     20.78367    8148.5843    5136.7531    7785.0922    6158.9985    516.79188   -325.99579    276.33052    -3552.325 
 6309000    222.52814   -4745.1042     -4315.94   -4745.1042            0    7145.0243     19.97561    19.703323    20.679633    8139.2121    8519.6743    4414.9994    8500.3992    160.64945    216.04207    602.51609   -3467.8109 
 6310000    230.80572   -4750.6879   -4305.5596   -4750.6879            0    7843.6593    20.072742    19.815077    20.323487    8083.5235    9997.7461    5324.6902    8208.5415    145.13563    189.56705    666.31492   -3380.8714 
 6311000    227.63143    -4735.706   -4296.6996    -4735.706            0    7689.9953    19.884913    19.722112    20.634215    8092.1713    7847.1853    7631.1792    7591.6214    759.31216    696.91422    826.00677    -3389.157 
 6312000    241.74628   -4742.8958   -4276.6677   -4742.8958            0    6099.0242    19.928547    19.780622    20.703169    8161.1694    4725.5246    7897.3879    5674.1602    233.78173    498.16944    558.18066   -3550.7479 
 6313000    232.94467   -4740.7016   -4291.4482   -4740.7016            0    6291.4872    19.819263    19.937034    20.694896    8177.3259     8441.277    5375.5533    5057.6312   -49.620342   -651.20542   -477.37311   -3541.1386 
 6314000    235.49672   -4767.1587   -4312.9834   -4767.1587            0    6025.7341    19.976248    19.881066    20.516851    8148.2494    5057.1522    6339.5904    6680.4599   -475.08067    1546.6714    283.72861   -3596.9222 
 6315000    230.13165   -4764.4233   -4320.5951   -4764.4233            0    8119.1152    19.956776    19.910011    20.380939    8098.1551    7500.9931      7796.76    9059.5926    41.553166    477.88052   -724.59332   -3361.7009 
 6316000    235.77055   -4729.4511   -4274.7477   -4729.4511            0    6824.3936    19.865627    20.119288    20.362341     8138.467    9845.2019    4811.1221    5816.8568    248.40147    430.41589    662.77762   -3464.7523 
 6317000    225.42843    -4767.161   -4332.4033    -4767.161            0    8963.5522    19.940316    19.870771    20.628713    8173.7033    9283.3726    10676.111    6931.1727   -243.97344    684.53286   -779.19636   -3263.9024 
 6318000    231.89956   -4763.4735   -4316.2357   -4763.4735            0    6660.4879    19.797818    20.188521    20.332612    8126.7143    7434.3642    4322.1659    8224.9335    466.82888    1051.8097   -710.23108   -3526.8361 
 6319000    214.85869    -4760.381   -4346.0079    -4760.381            0    7400.3075    19.964383    19.738409    20.579118    8109.5133    8042.6817    8339.9932    5818.2478    669.19709    271.81326   -980.57882   -3470.7815 
 6320000    234.67093   -4758.8314   -4306.2488   -4758.8314            0    7585.5637    19.793701     19.99142    20.528941    8123.3882    7652.9776     6902.702    8201.0116    130.19861   -66.700525     791.8092   -3407.5773 
 6321000    234.23659   -4752.7717   -4301.0267   -4752.7717            0    8912.6878    19.922412    19.817915    20.449127     8073.738     7668.913    10490.964    8578.1867   -639.95474   -540.79167    259.21985   -3251.5828 
 6322000    248.35862   -4742.1658   -4263.1853   -4742.1658            0    7341.9869    19.967235    19.939215    20.494845    8159.6328    5932.7891    9401.1482    6692.0234   -111.08869   -12.389246    1127.2266   -3389.4898 
 6323000    231.88308   -4791.6385   -4344.4325   -4791.6385            0    6261.6854    20.140767    19.933427    20.343492    8167.3936    4200.7043    7350.5559    7233.7961   -388.94069    557.21435   -374.02656    -3598.584 
 6324000    220.91685   -4754.5431   -4328.4863   -4754.5431            0    8740.0364    19.676815    19.849321    20.544727    8024.1831    8204.3467    9229.6003    8786.1621   -187.59761   -599.35861   -118.14246   -3305.6881 
 6325000    228.98684   -4776.2415   -4334.6211   -4776.2415            0    5698.3978    19.876962    19.980491    20.565709    8167.7017    5083.9492     6172.938    5838.3061   -708.82377   -561.35547   -693.34392   -3655.8419 
 6326000    219.30475   -4737.2484   -4314.3008   -4737.2484            0    6943.6744    19.756164    19.782825    20.843685    8146.3945    7231.0151    6216.7146    7383.2937    480.30182    438.32117    676.94628    -3489.345 
 6327000    222.54036   -4777.1926   -4348.0048   -4777.1926            0    9535.3927    19.957602    19.799529    20.438076    8076.1288    9139.0263    9819.0985    9648.0533   -700.52437   -1117.4612   -2678.5468   -3224.9067 
 6328000    236.32922   -4742.9944   -4287.2136   -4742.9944            0    8076.5858    20.014648    20.043959    20.262645    8128.8216    6664.9343    9189.9983    8374.8249      258.776   -207.79013    1404.3745   -3329.7301 
 6329000    217.76365   -4758.1401   -4338.1646   -4758.1401            0    7204.8925    19.944694    19.629174    20.774864    8133.3151    5845.8549    8435.5881    7333.2345    631.35845    107.86846    30.305408   -3483.5487 
 6330000    242.68204   -4759.4375   -4291.4048   -4759.4375            0     7253.757     20.16546     19.89369    20.296562    8142.2787    8108.0286    5180.0491    8473.1931   -708.45467    668.82642    507.79236   -3430.0445 
 6331000    234.60259   -4767.2008     -4314.75   -4767.2008            0    6718.8106    19.814344    20.044333     20.51968    8149.7052    5464.2182    6608.5611    8083.6525   -645.69644    432.80299    505.91307   -3516.1851 
 6332000    229.43416   -4768.8705   -4326.3875   -4768.8705            0    7977.7472    20.028171    19.537186    20.602578    8061.6673    8179.1999    8971.4438     6782.598   -182.68079    929.98737    -195.6986   -3388.4346 
 6333000    225.95069   -4744.7825   -4309.0175   -4744.7825            0    6123.3627    19.780356    19.977645    20.676171    8170.4977    6668.3475    5488.5872    6213.1535   -292.10499    328.44214    544.04327   -3579.3679 
 6334000    245.77181   -4749.9509   -4275.9593   -4749.9509            0    6564.0138    19.897247    20.017607    20.427598     8136.216    4887.8929    6296.4555     8507.693   -159.25091   -165.22145   -287.05152   -3497.0841 
 6335000    226.59267   -4773.3575   -4336.3545   -4773.3575            0    7061.4729    19.944238    19.935447    20.395267     8109.103    7823.4208    6068.7263    7292.2717   -302.05871     921.0451    657.74998   -3501.2439 
 6336000    223.19268   -4746.0436   -4315.5977   -4746.0436            0    6282.6651    19.886213    19.603533    20.615725    8036.8348    5572.1455    7431.7768    5844.0729   -172.72888    951.36896   -152.66223   -3579.2129 
 6337000    231.28616   -4769.1366   -4323.0818   -4769.1366            0    7757.9932    19.846683    19.909001    20.387805    8055.7851    8316.4349    6911.5342    8046.0105    197.12512    620.62305    384.48085   -3411.6311 
 6338000     220.8182   -4742.2684   -4316.4019   -4742.2684            0     8284.055     19.96052    19.906815    20.433348    8119.1986    7364.1788    8004.4244    9483.5617   -120.49189   -709.20152   -864.54561   -3335.4854 
 6339000    221.60631   -4783.7093   -4356.3229   -4783.7093            0     6961.279    19.936662    19.607654    20.742213    8108.3627     4895.926    10082.232    5905.6787   -122.34686    258.73254   -544.34668   -3533.1366 
 6340000    223.42774   -4753.9212    -4323.022   -4753.9212            0    7602.7318    19.806271      19.9683    20.531557    8120.1812    6663.6245    9460.3283    6684.2425    162.57643    -205.3457    1060.4878   -3422.6722 
 6341000    232.80523   -4775.6313   -4326.6468   -4775.6313            0    7694.8332    19.730831    19.786454    20.703937    8082.8831     8121.558    7800.7383    7162.2034    484.65601   -518.29541   -1567.1183   -3419.5756 
 6342000    229.31841   -4763.0681   -4320.8082   -4763.0681            0    8419.5938    20.189101    19.758543    20.276124    8088.2923      9022.14    7612.0673    8624.5742    494.97615   -467.44119   -65.964872   -3327.6376 
 6343000    232.33376   -4740.0642    -4291.989   -4740.0642            0    6928.5523    19.743443    19.902596    20.650709    8114.6084    7632.0729     6272.234    6881.3499   -991.38445    101.52196   -52.856778   -3472.0417 
 6344000    220.09673   -4744.2065   -4319.7315   -4744.2065            0    7819.5941    20.033541    19.692775     20.50213    8088.4183    7445.6244    8681.6144    7331.5435   -419.22714    453.42343    -366.1099   -3397.3221 
 6345000    228.87244   -4793.2929   -4351.8932   -4793.2929            0     9077.202    19.881692    19.797967    20.555946    8091.1714    7287.9656    10739.536     9204.104    384.88605    438.19088   -162.21256   -3280.7703 
 6346000    232.41589   -4747.9794   -4299.7458   -4747.9794            0      8502.03    19.813019    19.822402    20.570379    8078.8439    8698.4871    8535.6601    8271.9428   -91.414354   -983.62455    1260.9964   -3298.0226 
 6347000    232.26777   -4759.5267   -4311.5788   -4759.5267            0    8886.9561    20.118143    19.593224    20.492476    8077.7093    7376.6729    9734.8934     9549.302   -622.38237    -399.7688      1325.77     -3264.65 
 6348000    236.39534    -4764.293   -4308.3847    -4764.293            0    9488.7049    19.745872    19.933438    20.404526    8031.2848    9336.7928     9550.544     9578.778    141.88135     -525.911    1226.7237   -3196.9912 
 6349000    220.19798   -4752.1564   -4327.4861   -4752.1564            0    4854.6087    19.993883    19.972566    20.594371    8223.9324    5643.1255    3937.9539    4982.7467    226.69536   -180.91173     141.6678   -3745.2359 
 6350000    239.57889   -4764.0252   -4301.9771   -4764.0252            0    9589.5496    19.832715     19.77204     20.42161    8007.9917     10318.35     9092.511    9357.7877   -220.20195    527.37489    -19.10149   -3182.0295 
 6351000    225.38209   -4789.0898   -4354.4215   -4789.0898            0    8487.8067    19.748102    19.942627     20.53946    8089.0359    8554.9259    8620.6585    8287.8358    432.38778    1199.6484   -821.61344   -3353.1125 
 6352000    227.85336   -4755.1862   -4315.7519   -4755.1862            0    6376.7231    20.047514    19.936109    20.424704    8163.1297    6140.2696    6490.5428     6499.357   -505.33845    1436.3853    1010.1749   -3556.5974 
 6353000    232.07092   -4738.0901   -4290.5218   -4738.0901            0    8652.1824    19.828983    19.878329    20.504641    8082.2538     7116.129    9528.2091    9312.2091    323.68091    256.28413    383.24011   -3270.6771 
 6354000    235.46878   -4745.1389   -4291.0176   -4745.1389            0    10316.826    19.727854    19.792683    20.591442    8040.2817    10897.008    10614.763    9438.7081    21.591688    150.12532   -46.474639   -3081.2741 
 6355000    247.89207   -4748.5733   -4270.4926   -4748.5733            0    8072.4311    20.063403    19.733044    20.414963    8082.5291    5579.5562    9649.1826    8988.5544   -881.66889   -408.79545   -994.24074   -3318.9516 
 6356000    227.50375   -4779.5131    -4340.753   -4779.5131            0    5762.8235    19.706022     20.04192    20.569389    8123.8083    5506.4583    6877.9928    4904.0194    200.66374    411.47107   -410.90635   -3657.9886 
 6357000     236.1293    -4761.858   -4306.4628    -4761.858            0    7878.5656    19.965758     19.78478    20.473268    8087.3118    6738.9881    8240.3276    8656.3809    581.64004   -597.31094    27.376447   -3377.2242 
 6358000    231.04783   -4736.7556   -4291.1604   -4736.7556            0    7299.5927     19.82277    19.943476    20.564228    8129.7579    9236.0992    6034.3661    6628.3128    239.46032   -265.84238   -689.36574   -3425.6902 
 6359000    241.33831   -4781.0706   -4315.6294   -4781.0706            0    7771.9277     19.75042     19.99903    20.583963    8130.4442    8204.4775    8405.9178    6705.3878    -307.8828     1510.993    174.83516   -3394.0793 
 6360000    234.48605   -4744.3042   -4292.0782   -4744.3042            0    8055.8914    19.783456    19.848481    20.691008    8124.7701    8457.6858      6965.88    8744.1084   -562.16866    282.12425   -373.21162    -3337.524 
 6361000     235.4324   -4736.6516   -4282.6004   -4736.6516            0    6213.4356    19.857172    19.990882    20.551719    8158.2591    5655.8331     7125.348    5859.1257   -327.43666   -40.313727    1333.6268   -3543.3268 
 6362000    235.88712   -4747.8324   -4292.9042   -4747.8324            0    6454.9201    19.790791    19.857921    20.556527    8078.7969    5724.5548    7820.2076    5819.9979   -671.32102   -671.53412    249.66833   -3532.3793 
 6363000    223.76248    -4776.448   -4344.9032    -4776.448            0    6088.9197    19.786747    19.996306    20.556751    8133.5223    5109.5666    5959.8415    7197.3511    296.02445    563.46933   -1370.1985   -3622.6412 
 6364000    228.49353   -4738.9531   -4298.2841   -4738.9531            0    7916.7788    19.968341    19.510209     20.70863    8067.8028    8188.4941    8908.5931    6653.2492    460.87385   -512.92493   -417.51593   -3366.7909 
 6365000    221.72123   -4743.4344   -4315.8263   -4743.4344            0    7342.3291     19.75371    20.004133    20.626527    8150.6924    6625.5006     7717.232    7684.2548    579.76166    27.704805    266.39885   -3443.0474 
 6366000    227.84317   -4776.1974   -4336.7827   -4776.1974            0    7782.7307    20.065681    19.880911    20.307644    8101.2071    6930.5584    8112.0639      8305.57   -77.514274   -456.90937    11.684717   -3417.2702 
 6367000    216.52177    -4759.449   -4341.8685    -4759.449            0    8110.0169    19.763195    19.858324    20.620277    8092.7149    9461.0012    7757.7261    7111.3234    516.98745    1028.1574    274.71179   -3384.6923 
 6368000    222.39968   -4756.3109   -4327.3944   -4756.3109            0    7568.5965    19.743538    19.681822    20.740656    8059.5864    9066.3994    6710.6242    6928.7661    179.17834   -151.73996    1308.3642   -3437.7755 
 6369000    224.77479   -4771.2568   -4337.7597   -4771.2568            0    7706.5559    19.983121    20.019189    20.316693    8127.6096    6663.4711    8742.0438    7714.1528    15.821297    1293.1363   -210.00742   -3424.2797 
 6370000    231.55722   -4760.9855    -4314.408   -4760.9855            0      7138.17     20.01658    19.735209     20.57918    8129.4221    6866.6741    7400.1127    7147.7233     332.2802    1361.8977    9.4043281   -3468.1117 
 6371000    223.34025   -4776.9338   -4346.2034   -4776.9338            0    8412.4984    19.829729    19.792112    20.589289    8080.7239    7176.4795    10051.428    8009.5877    378.96987   -1486.6927    583.15117   -3354.7982 
 6372000    243.23792   -4761.6198    -4292.515   -4761.6198            0     7980.074    20.188694    19.899989    20.199483    8115.2392    5994.2359    8848.3864    9097.5997   -62.798331    214.49325   -1406.8068   -3348.0538 
 6373000    240.55112   -4779.5423   -4315.6192   -4779.5423            0    7267.1883    19.962633    19.684725    20.645653    8112.8937    6775.3093    7942.4784    7083.7771    109.71219   -532.91519   -325.40458   -3455.7783 
 6374000    235.37668   -4758.6982   -4304.7545   -4758.6982            0    7877.7898    19.707428    20.099283     20.48136    8112.7725    11700.829    4235.4031    7697.1372    415.35281   -703.81179    683.70963   -3372.6822 
 6375000    235.39863   -4743.2777   -4289.2916   -4743.2777            0    7799.4246    19.961766    19.915419    20.483093    8142.9907    7277.0179     7271.316    8849.9399   -715.30107     56.45416   -653.42041   -3363.0541 
 6376000    228.29531    -4776.524   -4336.2373    -4776.524            0    8701.0437    19.866629    19.474469    20.757699    8030.9887    10388.119    8657.7043    7057.3078   -32.058405    1315.0127   -890.28879   -3317.1385 
 6377000    240.79803   -4776.0938   -4311.6946   -4776.0938            0    7910.0801    19.860632    19.967176    20.298529    8049.5996    8990.3657    5220.2249    9519.6497    412.35724    515.34283    810.39965   -3383.0895 
 6378000    227.30281   -4769.8395   -4331.4669   -4769.8395            0    8183.1176     19.83113    19.793328    20.652834    8106.7346    8634.3951    8635.8957     7279.062   -637.96067   -696.71397    1488.6775   -3363.9899 
 6379000    231.98709    -4723.802   -4276.3954    -4723.802            0    5082.6892    19.934164    19.935907    20.600451    8186.7353    3675.4547    6378.8895    5193.7235   -816.76048    904.78138    13.815703    -3669.547 
 6380000    215.13592   -4769.1065   -4354.1988   -4769.1065            0    8167.1262    19.635829    19.970632    20.567158    8065.2037    7587.7025    8816.3413    8097.3348     197.0026    802.51276   -418.84268   -3393.5591 
 6381000    221.93394   -4777.4375   -4349.4192   -4777.4375            0    9042.8306    19.732343    19.690336    20.745246    8060.2844    9106.2376    9564.6245    8457.6296    226.45742    1275.2069   -803.69693   -3286.4256 
 6382000    227.16654   -4729.6864   -4291.5766   -4729.6864            0    7414.8614    19.802845    20.062241    20.557198    8167.1578    6027.4936    7521.0025    8696.0882   -22.169517     768.3061    1119.5483   -3408.3953 
 6383000    236.61884   -4743.5956   -4287.2563   -4743.5956            0    8562.5266    19.989956    19.797968    20.539801    8128.8421    7855.7652    8703.2279    9128.5866    183.58366   -435.31163    156.30566   -3272.1617 
 6384000    218.37564   -4748.9849   -4327.8291   -4748.9849            0    8045.1589     19.87146    19.761318    20.589851    8085.3514    9575.2933    5800.0792     8760.104   -187.53253    52.487124    840.94633   -3379.1717 
 6385000    224.11101   -4761.2889    -4329.072   -4761.2889            0     7056.224    19.974615    19.858523    20.515534    8137.8218    7830.0588    6217.5044    7121.1088   -542.26033    -982.7176    117.14388   -3491.6267 
 6386000     242.6883   -4774.6204   -4306.5756   -4774.6204            0    5624.3571    19.915642    19.997996    20.494178    8162.2763    5364.7491    4838.7386    6669.5837   -336.80722   -530.64857   -976.45409   -3637.0609 
 6387000    240.70923   -4793.9946   -4329.7666   -4793.9946            0    7110.1785    20.016414    19.939764    20.285336    8096.3353    6029.4531    7144.9194     8156.163    88.004822   -16.189142   -597.76546   -3490.2198 
 6388000    231.36067   -4777.1289   -4330.9304   -4777.1289            0    7325.8351    19.818519    19.856442    20.660012    8130.2371    8991.2871    6065.8402    6920.3782    140.00274    1148.5004   -1145.6845   -3462.2975 
 6389000    213.65545   -4768.7236   -4356.6711   -4768.7236            0    7597.9663    19.825913    19.895334    20.569535    8113.5125    6353.4474    9313.3606     7127.091    314.96054   -55.935536   -692.14244   -3457.6246 
 6390000    222.73564   -4735.2132   -4305.6488   -4735.2132            0    6120.4934     19.98144    19.920176    20.430315    8131.9562    6215.5004     6053.791    6092.1887    55.550287   -203.25246   -270.62891   -3579.7813 
 6391000    231.94666   -4765.2938   -4317.9652   -4765.2938            0    7305.4887    19.811012    19.918192    20.445161    8067.6512    6687.8106    7742.2222    7486.4333   -527.76104   -581.24342    357.63681    -3458.413 
 6392000    230.45986    -4756.858   -4312.3968    -4756.858            0    9225.2294    19.788174    19.686209    20.597856      8023.98    9495.6199    9997.7658    8182.3026   -44.973053    1008.2408   -128.86508   -3232.8464 
 6393000    238.13068   -4787.5204   -4328.2654   -4787.5204            0    7019.5905    19.829852    19.907078    20.623388    8141.1735    8278.1527    6819.7542    5960.8647   -213.34092    -1.356743     407.9884   -3494.8247 
 6394000    240.08645   -4781.2911   -4318.2641   -4781.2911            0    7963.5002    19.941379    19.944405    20.495353    8151.3901    6248.3153    9656.6499    7985.5354    199.04317     587.6167    885.33154   -3371.5659 
 6395000     234.2126   -4770.5182   -4318.8195   -4770.5182            0    6584.2247    19.901288    19.695899    20.857312     8175.519    6323.1481    7610.9405    5818.5855   -79.774123   -1106.3931    515.11778   -3533.7721 
 6396000    233.90211   -4786.5597   -4335.4598   -4786.5597            0     7130.089    19.880683    19.829755    20.537361     8096.425    6900.0183      6514.36    7975.8886   -169.62489     477.2973    299.88679   -3493.5527 
 6397000    222.66544     -4768.01    -4338.581     -4768.01            0    8960.7767    19.943423    19.797538    20.407459    8057.4909    7130.4006    10270.706    9481.2238    150.54701   -709.92137   -50.701658   -3285.5979 
 6398000    229.62613   -4773.3736   -4330.5203   -4773.3736            0    9002.6933    19.817645    19.756465    20.571016    8054.1001    12094.174    6786.1748    8127.7316   -99.000926    310.41003    23.488145   -3273.0568 
 6399000    242.40276    -4770.248   -4302.7539    -4770.248            0    6538.1465    19.666233    19.853509    20.782958    8114.5757    6331.4467     6274.856    7008.1368   -140.19609   -21.835819   -710.54949   -3529.0116 
 6400000    232.94427   -4778.9898   -4329.7372   -4778.9898            0    5554.3953    19.794013    20.040876    20.555048    8153.9688    6274.7227    4220.1753    6168.2879    569.87409   -104.03224    1403.0695   -3669.2237 
 6401000    238.77391   -4737.8711   -4277.3755   -4737.8711            0    7967.6054      19.7975    19.778903    20.671329    8094.3308    9178.6647    8131.7718    6592.3797    652.31487   -464.31698     980.2195   -3336.8195 
 6402000    234.99379   -4746.9084   -4293.7031   -4746.9084            0    7643.9086    19.748176    19.824462    20.523069    8034.7192    6094.8543    8881.1781    7955.6935   -168.59686     965.0449   -181.88335   -3398.0041 
 6403000    234.24965    -4783.053   -4331.2829    -4783.053            0    7023.1714    19.988292    19.661826    20.659885    8119.4652    7403.8974    8073.8614    5591.7554    265.30744   -567.63455    1170.1603   -3499.6405 
 6404000    229.55626   -4758.4775    -4315.759   -4758.4775            0    8087.3379      19.9123    19.749237     20.50613    8064.0917    10666.983    5330.3177    8264.7133   -1002.4855    426.79204   -1382.1569   -3364.6354 
 6405000     231.6034   -4770.4256   -4323.7589   -4770.4256            0     7208.953    19.859942    20.056439    20.499691    8165.4309    6522.8099    7627.8464    7476.2027   -764.35805   -151.90102    1087.9468   -3465.2848 
 6406000    228.43693   -4779.3084   -4338.7486   -4779.3084            0    6562.4179    20.083146    19.655004    20.603831    8133.0391     6014.817    7484.8696    6187.5671   -182.37537   -96.045295   -939.44256   -3560.3668 
 6407000     229.4239   -4747.3299   -4304.8666   -4747.3299            0    8055.0271    19.937562    19.972473    20.344648    8101.2877    6635.2268    9322.4992    8207.3553   -412.13679   -14.804207     519.8331   -3353.1734 
 6408000     229.8542   -4783.9076   -4340.6144   -4783.9076            0     8200.487    19.898137    19.635044    20.610766    8052.6433    10440.178    7593.2562    6568.0266     288.4809    773.34534   -63.284035    -3377.553 
 6409000    219.48073   -4765.2388   -4341.9518   -4765.2388            0    7438.2734    19.979606    19.841426    20.495697    8124.9837     7602.412    8503.4776    6208.9304   -400.51452   -280.28047    1406.9445   -3460.5569 
 6410000    236.30289   -4763.0432   -4307.3132   -4763.0432            0    8434.0403    19.943837    19.966826    20.314872    8089.6892     9834.909    7191.8692    8275.3427    1608.9847    176.08241   -371.99333   -3312.2666 
 6411000    225.38166   -4765.2252   -4330.5577   -4765.2252            0    7380.3317    19.944686    19.665678      20.7127    8124.0551    7070.4141    9326.6007    5743.9803   -214.86585   -750.70216   -1030.2258   -3456.1286 
 6412000    231.36615   -4754.6183   -4308.4092   -4754.6183            0     5794.596    19.991102    19.940459    20.471831    8160.7217    6188.0121    5558.8533    5636.9225    522.77995   -350.88312    1356.8517    -3618.761 
 6413000    235.52522   -4765.2983   -4311.0681   -4765.2983            0    5774.8211    19.998276    19.785309    20.637635    8165.7358     6438.058    6093.0395    4793.3657    864.36075   -660.38339    117.23401   -3623.3511 
 6414000    232.91594   -4779.8348   -4330.6368   -4779.8348            0    8157.0167    19.765372    19.958004    20.523908    8096.2176    9711.1327    6953.4995    7806.4178    624.67994      819.461   -585.84948   -3367.4968 
 6415000    239.00805   -4782.7993   -4321.8521   -4782.7993            0    8891.6574    19.867972    19.851789    20.497669    8084.5837    7478.1257    10543.271    8653.5752    568.84356    230.96892    532.41989   -3273.4781 
 6416000     225.7687    -4729.873   -4294.4591    -4729.873            0    8687.0889    19.844302    19.724339     20.66401    8088.2184     8946.416    8711.0237     8403.827     643.4431    -561.5947    645.64349   -3269.7442 
 6417000    226.24449   -4745.7141   -4309.3826   -4745.7141            0    9440.3983    19.898415    19.936563    20.377347    8083.8157    10493.278    7086.1377     10741.78    2.0852339    516.71273    214.93663   -3196.4148 
 6418000    247.37414   -4753.8395   -4276.7577   -4753.8395            0    7763.3424     19.90213    19.702587    20.602556    8078.7449    7128.3815    8055.9397     8105.706   -688.21761    1217.3663   -80.656062    -3362.079 
 6419000    238.68709   -4742.9323   -4282.6042   -4742.9323            0    7516.8015    20.002422    19.715833    20.542333    8101.1653    6715.3889    7412.2125    8422.8031   -422.56658    1577.3337    -1668.869   -3394.5153 
 6420000    233.58129     -4761.03   -4310.5488     -4761.03            0    6556.7366     19.98165    19.939785    20.483614    8161.2824    6283.8243    6228.0672    7158.3183   -289.13975    146.33515    211.36657   -3530.1403 
 6421000    227.11851   -4743.6723   -4305.6551   -4743.6723            0    6160.3122     19.90917    19.962335    20.567572    8174.2427    6528.8283    5219.5838    6732.5246     126.8198    1448.0119   -322.33357   -3571.2662 
 6422000    234.99583   -4781.8149   -4328.6057   -4781.8149            0    6179.2002    19.792485    19.813378    20.769545    8144.9019     6505.154    6379.9882    5652.4584    272.67367     2030.301   -312.09984   -3594.6091 
 6423000    236.22376   -4783.7007   -4328.1233   -4783.7007            0    9525.3852     19.96363    19.814739    20.304785    8032.0474    9789.1315    8811.5501     9975.474   -174.05466   -367.94931   -1084.8661   -3212.3276 
 6424000    233.98651   -4761.6056   -4310.3429   -4761.6056            0    8338.1998    19.687458    19.924139    20.615615    8086.5913    7780.9563    7808.2472     9425.396    73.703828    414.86846    1908.7612   -3326.9804 
 6425000    229.02605   -4759.4297   -4317.7337   -4759.4297            0    8530.8836    19.933267    19.752828    20.496876    8070.4071    8381.2507    9045.1606    8166.2396   -386.88107   -1769.4496    953.68149   -3313.6606 
 6426000    218.24221   -4761.8392   -4340.9408   -4761.8392            0    7158.4804     19.89408    20.048183    20.389028    8131.9631    7716.5457    6551.9195    7206.9761    99.398623    1025.4949    1206.7866   -3491.9712 
 6427000    225.85037    -4745.963   -4310.3916    -4745.963            0    6993.8827    19.580927    19.907377    20.785833    8102.4193    7915.5834    7307.7054    5758.3593    294.47069   -468.16714    -218.0266   -3483.9561 
 6428000    233.37824   -4762.0247   -4311.9351   -4762.0247            0    8273.0929    20.032034    19.770234    20.435879    8093.3845    7214.4381    8003.0723    9601.7682   -197.76282    1112.3079   -226.45929   -3335.4313 
 6429000    234.28483   -4737.7154   -4285.8774   -4737.7154            0    9411.2441    19.779798    20.055059    20.325711    8062.9047    10476.967    7831.4182    9925.3475   -502.16984   -147.67941   -851.48149   -3179.2168 
 6430000     232.0047   -4746.8067   -4299.3661   -4746.8067            0    7224.7858    20.073842    19.698336    20.495913    8104.5203     5496.155    8430.6702    7747.5322   -247.69838    329.43053    1070.0917   -3445.4245 
 6431000    233.38422   -4778.1617   -4328.0606   -4778.1617            0    5734.1593    19.946412    19.889167    20.522469    8141.6229      6064.32    5146.8418     5991.316     117.4137    528.83937    1654.1459   -3647.2025 
 6432000    239.38014   -4776.4339   -4314.7692   -4776.4339            0    7116.7108    19.879588    20.010918    20.384864    8109.2787    7017.3126     7374.607    6958.2128   -391.79897    689.87981   -685.44955   -3473.1078 
 6433000    227.86236   -4783.0633   -4343.6115   -4783.0633            0    7489.4019    19.967171    19.724949    20.544873    8091.6273    6014.7686    9973.6221    6479.8149    477.62821    91.805032    176.64788   -3459.8016 
 6434000    229.66452    -4787.943   -4345.0157    -4787.943            0    7501.8405    19.900079    19.999489    20.448312    8138.2524    6566.0811    7742.3708    8197.0696   -630.09893   -1375.1051   -588.05418   -3454.6367 
 6435000      232.994   -4740.4196   -4291.0711   -4740.4196            0    8046.4258    20.142055    19.735367    20.402101    8110.0559    6796.6488    8311.6829    9030.9458    476.42891    62.420823     2025.439   -3339.3652 
 6436000    231.57542   -4743.0868   -4296.4741   -4743.0868            0    7709.9837    19.682227    19.889978    20.832631     8155.539     7143.436    8942.1839    7044.3311    332.11824    533.43868    140.96665   -3379.4473 
 6437000    230.25713   -4774.3697   -4330.2994   -4774.3697            0    5929.5019    19.781728     19.95952    20.620373    8141.6204    5594.0602    6411.6775     5782.768   -439.22594   -687.04736    93.581658   -3626.2471 
 6438000    236.71435   -4755.6921   -4299.1685   -4755.6921            0    7279.6136    19.858308    19.805455    20.565312    8088.3954    5767.0913    9528.1221    6543.6274    22.827718   -1765.6206     872.9698   -3440.4584 
 6439000    229.56598    -4786.171   -4343.4337    -4786.171            0     7734.269    19.815863    19.846226     20.62184    8109.9531    9475.0799    5944.5435    7783.1836   -372.77719    1457.4056   -615.85497   -3428.6604 
 6440000     238.7215   -4733.4913   -4273.0969   -4733.4913            0    8190.9472    20.227135    19.354988    20.562944    8050.3092    7392.7008    8274.1512    8905.9895    248.69832    40.586344    315.06168   -3311.4346 
 6441000    222.30742   -4736.5032   -4307.7647   -4736.5032            0    8161.1187    19.797057    20.050912    20.402301    8098.6739    6702.0836    8364.2723    9417.0002   -170.46642     415.1003     441.2112    -3343.848 
 6442000    237.33087   -4755.9931   -4298.2806   -4755.9931            0    10434.653    19.848823    19.722188    20.551196     8045.017    11176.074    11264.965    8862.9198     365.9803    365.33958    87.742716   -3074.0003 
 6443000    241.58719   -4775.7294   -4309.8082   -4775.7294            0    7182.1943    20.080857    19.903587    20.350389    8133.6653    7146.8657    6677.1012    7722.6158   -568.31255    173.72152   -78.204185   -3457.8479 
 6444000    232.76638   -4735.7361   -4286.8266   -4735.7361            0    7471.1605    19.967668    19.605413    20.677382     8094.665    7234.9588     8273.337    6905.1858   -577.65047    424.68242    1782.3545   -3404.8383 
 6445000    240.56396   -4776.5207   -4312.5729   -4776.5207            0    7406.7103    19.852583    20.108568    20.373046    8133.0628    8707.8499    5406.3297    8105.9513    348.93066    1438.1019    226.02234   -3434.0454 
 6446000    227.91717   -4755.1764    -4315.619   -4755.1764            0    8227.8827    19.907856    19.941198    20.523266    8147.4597    8422.6474     8274.555    7986.4457   -59.881831    861.69973   -1253.3469   -3337.9627 
 6447000    223.18875   -4754.8493    -4324.411   -4754.8493            0     7981.755    19.949891    19.735446    20.638596    8125.8278       6292.8    9933.7224    7718.7427    277.35728    544.92813    1825.2497   -3378.5182 
 6448000    234.21072   -4766.1403   -4314.4452   -4766.1403            0    7345.2871    19.755518    20.002975    20.530761    8113.1231    7164.3873    7175.2461    7696.2279    504.17814   -341.39522    -281.7501   -3445.3392 
 6449000    228.60129   -4724.8239   -4283.9471   -4724.8239            0    8365.1085    19.904093     19.81699    20.405883    8048.8803    6780.6707    9495.6146    8819.0402    257.29391    919.95713   -1512.4386   -3302.0116 
 6450000     230.5557   -4766.0806   -4321.4345   -4766.0806            0     6993.834    19.779252    19.968306    20.490917    8093.0548    7454.6947    6517.8895    7008.9179    674.90478    976.95887    1516.6078     -3495.96 
 6451000     222.0006    -4759.363   -4331.2162    -4759.363            0    6469.8624    19.871086    19.959797     20.68427    8203.8541    8544.1811    5387.6635    5477.7427    169.30814   -1075.7458    230.82805   -3557.1308 
 6452000    233.17247   -4769.5696   -4319.8769   -4769.5696            0    6538.1758    20.229486    19.906017    20.303287    8175.8999    5479.7359    6376.2871    7758.5045    581.64629    261.17941    1270.7307   -3540.2837 
 6453000    229.45157   -4780.9151   -4338.3985   -4780.9151            0    7632.4139    19.888386    19.818209    20.544747    8097.7571    9537.2468    5958.6699    7401.3249   -276.89942    54.708694    382.61058   -3437.0296 
 6454000    231.92895   -4773.5903   -4326.2958   -4773.5903            0    8360.0995    19.719776    19.819168    20.550358    8031.6868    9326.5676    6792.0516    8961.6792   -371.70493    245.51965    1946.5993   -3347.0446 
 6455000     226.6808   -4782.9939   -4345.8209   -4782.9939            0    8607.5653    19.903008     19.90163    20.262898    8026.1806    7477.0958    9057.6788    9287.9214   -683.53381   -83.554934   -329.44952   -3338.2743 
 6456000    232.92557      -4780.8   -4331.5834      -4780.8            0    8072.8339    19.829521    19.857747    20.488747    8067.8458    7184.8745    8092.6728    8940.9542    332.44564    816.31335    188.63486   -3381.7236 
 6457000    230.24508   -4760.3699   -4316.3229   -4760.3699            0    8354.9794    19.854246    19.869564    20.481255     8079.757    8024.0607     7687.902    9352.9754    67.006971   -19.365407   -918.77522   -3331.8142 
 6458000    238.95913   -4761.9483   -4301.0955   -4761.9483            0    6501.2652    19.871057    19.503215    20.941067    8115.6999    6353.2116    8450.0407    4700.5433   -381.96088    1769.3733    103.17389   -3531.6112 
 6459000    229.45288   -4766.4227   -4323.9035   -4766.4227            0    6445.2626    19.865414    20.085286    20.450216    8159.6881    8288.0387    4774.0223    6273.7266   -246.20593    93.468742    -490.0238   -3556.9129 
 6460000    239.95003    -4742.736   -4279.9722    -4742.736            0    7723.8491    19.833865    19.814727    20.574911    8085.9939     8093.689    8117.8482    6960.0101   -256.59253    235.25224    73.813452   -3369.1302 
 6461000    233.15004   -4766.1711   -4316.5216   -4766.1711            0    7623.2407    19.839124    19.948105    20.580406    8144.7557    8179.8669    7629.0281    7060.8272    446.27999    237.05219    598.72261   -3411.0109 
 6462000    219.95555   -4736.3382   -4312.1355   -4736.3382            0     10196.49    19.831416    19.668098    20.727951    8084.8591    9141.1227    12388.289    9060.0565   -265.69389    1716.6993    1190.6662   -3109.8737 
 6463000    240.51639   -4748.3172   -4284.4611   -4748.3172            0     8747.425    19.921103    19.910155    20.403584    8092.7194     9750.657    7325.6092    9166.0088   -16.432188   -280.25529    182.50287   -3252.0549 
 6464000    227.42208     -4744.48   -4305.8773     -4744.48            0    7055.4958    19.983516    19.973828     20.40791    8145.7624    7581.1307    5496.9462    8088.4106    281.47046    833.25203    499.75631   -3467.7014 
 6465000    220.54621   -4784.3443   -4359.0024   -4784.3443            0    7356.5235    19.918862    19.601051    20.704251    8083.5739    6659.0689    8208.5928    7201.9089    107.29827    2058.8588   -316.80114   -3491.7372 
 6466000    224.13116   -4756.8608    -4324.605   -4756.8608            0    8900.3245    19.922074    19.718242    20.601451    8092.8324    7665.8064     10568.73    8466.4368    528.19422   -199.39496    55.176107   -3274.1383 
 6467000    223.84306   -4782.5383   -4350.8381   -4782.5383            0    7609.8903    19.806123    20.073241    20.316332    8077.2265    7723.3114    5817.6032    9288.7561   -65.564495   -93.543335    -48.36648   -3454.4078 
 6468000    240.37438   -4756.4369   -4292.8547   -4756.4369            0    8870.4735    19.881031    19.706144    20.596267    8069.1738    7265.8829    10444.962    8900.5756    60.566164   -36.487269    437.66863   -3248.9719 
 6469000    236.25724    -4767.669   -4312.0271    -4767.669            0    7737.6493     19.74598     19.85947    20.710047    8121.3348    8712.5025    6864.5218    7635.9235   -249.30904   -1106.6729   -51.222403   -3395.5695 
 6470000    224.02057   -4772.0338   -4339.9913   -4772.0338            0    7321.2356    19.849408    19.948182    20.524347    8126.8122    6381.1148    8960.7169    6621.8753   -650.76742   -630.33215   -275.77603   -3472.2696 
 6471000    225.69285   -4761.1592   -4325.8916   -4761.1592            0    8685.0012    19.811223    19.959776    20.470519    8094.6078    7937.1007    9859.0164    8258.8866    576.98199    1025.2845     170.7697   -3300.6137 
 6472000    227.67873   -4770.2597   -4331.1621   -4770.2597            0    8240.5111    19.927683    19.835529    20.522406    8112.0174    5784.3029    10494.897    8442.3332   -792.55661    1022.7176   -623.96349   -3356.2647 
 6473000    231.42561    -4778.721   -4332.3972    -4778.721            0    6496.2816      19.7605    19.904369    20.568391    8089.9653    6879.6648    5711.8907    6897.2893    -1038.093     1246.422    -1284.441   -3565.9409 
 6474000    235.22136   -4762.5939   -4308.9497   -4762.5939            0    9880.7782    19.999588    19.834784    20.324172    8062.3452    11991.851    8148.0368    9502.4464   -155.67948   -351.38343    77.324975   -3147.1576 
 6475000     222.0585   -4766.0243   -4337.7658   -4766.0243            0    7777.2494    19.886503    19.739821    20.730871    8138.0282    8409.2011    7788.8221     7133.725    879.16068   -832.33631   -1127.0055   -3414.7246 
 6476000    229.12945    -4758.572   -4316.6766    -4758.572            0    8892.7606    20.112183    19.739985    20.411787     8103.769    9099.3611    8421.5232    9157.3975   -503.17419   -717.02724    885.37559   -3265.6843 
 6477000    248.52749   -4740.4779   -4261.1717   -4740.4779            0    5772.8353    19.699413    20.027651    20.780809    8198.7143    6076.2466    5685.5087    5556.7506    203.24699    457.56269    453.90549   -3570.9147 
 6478000    225.29828   -4721.5918   -4287.0851   -4721.5918            0    8237.1018    19.738759    19.812022    20.728925    8106.3518    8286.5932    8717.9868    7706.7254    11.564047    1259.5566    871.89182   -3313.2717 
 6479000    230.44357   -4748.4276   -4303.9978   -4748.4276            0    7365.2704    20.000146    19.931077    20.376003    8122.3729    6768.1259    7170.1172    8157.5682    352.75337   -677.18657   -180.97636   -3431.5338 
 6480000    233.01714   -4734.9995   -4285.6064   -4734.9995            0     8067.299    20.109075    19.753141    20.434057    8116.7629    5104.6277    10776.864    8320.4053    688.45314    1069.2714    322.94006   -3330.6426 
 6481000    244.01548   -4749.5881   -4278.9838   -4749.5881            0    10672.482    19.902268    19.753378    20.380996    8012.5241    10305.854    11445.646    10265.944    309.79819   -1639.1342    -146.4324   -3031.8568 
 6482000    234.03822   -4763.3777   -4312.0153   -4763.3777            0    6798.5888     19.60094    19.980864    20.736733    8121.4113     10073.76    4605.5736    5716.4326    209.01197    444.04946   -649.18421   -3506.7738 
 6483000     232.4736   -4775.9086   -4327.5637   -4775.9086            0    8155.0316    19.966658    19.992143     20.32919    8114.9305    7870.3695    7338.0926    9256.6328   -390.82288    -568.6715   -120.29393   -3362.4325 
 6484000    235.47793   -4748.1415   -4294.0025   -4748.1415            0    8559.7006    19.819647    19.721852    20.658066    8074.8281    7141.5011    11340.651    7196.9497    182.80239    1405.9892    275.20868   -3285.9858 
 6485000    223.21921   -4771.7197   -4341.2227   -4771.7197            0      8008.02    19.850885    19.970947    20.490028     8123.087    9052.2395    7049.2322    7922.5882    243.31584   -484.04103    24.438374   -3392.5375 
 6486000    221.45358   -4751.9105   -4324.8187   -4751.9105            0     7828.802     19.93524    19.830969    20.434237    8078.3713    8163.4987    7394.0778    7928.8294    310.53711    204.39674    455.79872   -3402.4703 
 6487000    230.71124   -4759.7902   -4314.8442   -4759.7902            0     7870.049     19.84884    19.771976     20.57194    8073.4744    8256.5656    8138.2661    7215.3154    273.56536   -472.14339   -252.31661   -3388.1983 
 6488000    228.76575   -4742.8693   -4301.6753   -4742.8693            0    9045.0112    19.731035    19.815429    20.656986    8076.4463    7548.9214    10484.606    9101.5065   -620.12904    927.61349    28.321192   -3236.2934 
 6489000    226.24301   -4758.7483   -4322.4196   -4758.7483            0    6195.7892     19.86074    19.811202    20.648495    8124.4632    6653.4679    5196.8177    6737.0821    3.2220537    370.90007   -519.73276   -3588.2994 
 6490000    241.51854   -4759.1659   -4293.3771   -4759.1659            0     7965.344    19.753532    19.834979    20.510119    8036.0879    8928.8938    7001.9035    7965.2345    -1103.812    1781.0137    694.42087   -3359.8539 
 6491000    226.46105   -4768.4515   -4331.7024   -4768.4515            0    7768.8574    19.739913    20.023341     20.41802    8070.4067    8593.3205    7298.2937     7414.958   -200.70593    -1871.346   -1158.2969   -3417.3187 
 6492000    227.03736   -4748.8104   -4310.9497   -4748.8104            0    5919.6363    19.739845    20.010701    20.563929    8122.9195    6947.4046    5576.1836    5235.3206    264.87484    26.072636    119.76996   -3609.6833 
 6493000    239.81126   -4757.8145   -4295.3183   -4757.8145            0    7635.2705    19.985839    19.760376    20.461961    8080.9948    7491.7129    7606.8521    7807.2465    24.622953   -1327.8016    628.04717   -3395.4786 
 6494000    238.23853   -4766.6289   -4307.1658   -4766.6289            0    6806.5604    19.806683    19.894921    20.706764    8159.5502    6763.7669    8700.5117    4955.4027   -368.84223   -1144.8776   -1012.9819   -3497.1942 
 6495000    245.97387   -4750.0491   -4275.6678   -4750.0491            0     6695.189    19.744458    20.011099    20.470368    8088.0124    6617.6366    7659.6187    5808.3117    350.25692    177.31113    1224.3187   -3485.9343 
 6496000    237.91063   -4762.9228   -4304.0921   -4762.9228            0    6616.8881     19.87791    19.985989    20.547875    8163.2539    6431.8755    6181.2233    7237.5655   -935.47485    531.55391   -383.00442   -3516.3338 
 6497000    240.44543   -4774.7295   -4311.0103   -4774.7295            0    7591.1405     19.96307    19.474571    20.650642    8028.3958    6418.2962    8618.6616    7736.4639   -153.34978   -259.09074    264.69458   -3422.1946 
 6498000    230.60053   -4739.0132   -4294.2806   -4739.0132            0    6832.8917    19.810229     20.17579    20.385357    8147.7624    5662.0232    6454.6196    8382.0323   -39.970094    268.74341    165.51118   -3482.3503 
 6499000    223.91456   -4772.7112   -4340.8731   -4772.7112            0    5987.3922    19.946692    19.826961     20.63031     8158.922    4763.4454    6097.7305    7101.0007   -218.74262   -380.13729    791.22369   -3628.4362 
 6500000     240.9991   -4737.8036   -4273.0166   -4737.8036            0    7563.7489    20.018488    19.718063    20.565902    8117.8924    5790.9166    8659.9714    8240.3588    1029.5139   -695.85501   -606.11031   -3377.5358 
Loop time of 398.877 on 64 procs for 250000 steps with 972 atoms

Performance: 108.304 ns/day, 0.222 hours/ns, 626.760 timesteps/s
195.0% CPU use with 32 MPI tasks x 2 OpenMP threads

MPI task timing breakdown:
Section |  min time  |  avg time  |  max time  |%varavg| %total
---------------------------------------------------------------
Pair    | 27.859     | 37.139     | 45.516     |  71.1 |  9.31
Bond    | 1.0593     | 1.2892     | 2.1108     |  15.9 |  0.32
Kspace  | 178.37     | 184.89     | 197.12     |  34.5 | 46.35
Neigh   | 1.9965     | 2.265      | 2.6725     |  14.6 |  0.57
Comm    | 68.986     | 77.716     | 83.841     |  49.9 | 19.48
Output  | 0.54234    | 0.54263    | 0.54423    |   0.0 |  0.14
Modify  | 77.95      | 79.951     | 83.113     |  15.7 | 20.04
Other   |            | 15.09      |            |       |  3.78

Nlocal:        30.3750 ave          35 max          21 min
Histogram: 1 0 0 2 2 7 6 4 6 4
Nghost:        2662.62 ave        2684 max        2645 min
Histogram: 5 2 3 4 3 4 5 3 1 2
Neighs:        9680.38 ave       12346 max        6118 min
Histogram: 1 1 0 4 3 10 5 3 2 3

Total # of neighbors = 309772
Ave neighs/atom = 318.69547
Ave special neighs/atom = 2.0000000
Neighbor list builds = 6326
Dangerous builds = 0

unfix		3
unfix		2
unfix		1

write_data	data.final.${pid}
write_data	data.final.1
System init for write_data ...
PPPM initialization ...
  extracting TIP4P info from pair style
  using 12-bit tables for long-range coulomb (../kspace.cpp:340)
  G vector (1/distance) = 0.37187435
  grid = 24 24 24
  stencil order = 5
  estimated absolute RMS force accuracy = 0.0035496814
  estimated relative force accuracy = 1.068976e-05
  using double precision FFTW3
  3d grid and FFT values/proc = 3211 432
Last active /omp style is kspace_style pppm/tip4p/omp
WARNING: Not all mixed pair coeffs generated from mixing. Use write_data with 'pair ij' option to store all pair coeffs. (../write_data.cpp:312)

write_restart   restart.lmp.${pid}
write_restart   restart.lmp.1
System init for write_restart ...
PPPM initialization ...
  extracting TIP4P info from pair style
  using 12-bit tables for long-range coulomb (../kspace.cpp:340)
  G vector (1/distance) = 0.37187435
  grid = 24 24 24
  stencil order = 5
  estimated absolute RMS force accuracy = 0.0035496814
  estimated relative force accuracy = 1.068976e-05
  using double precision FFTW3
  3d grid and FFT values/proc = 3211 432
Last active /omp style is kspace_style pppm/tip4p/omp
Total wall time: 0:06:39
