LAMMPS data file via write_data, version 30 Jul 2021, timestep = 15000000

864 atoms
2 atom types
576 bonds
1 bond types
288 angles
1 angle types

0.34468833585276215 17.86288406414313 xlo xhi
1.4975286001106394 22.13164919989027 ylo yhi
0.42051896464704264 21.79267683534822 zlo zhi

Masses

1 1.00794
2 15.9994

Pair Coeffs # lj/cut/tip4p/long/omp

1 0 0
2 0.21084 3.1668

Bond Coeffs # harmonic/omp

1 450 0.9572

Angle Coeffs # harmonic/omp

1 55 104.52

Atoms # full

368 1 1 0.5897 3.8603419097467135 5.870268804699371 3.8259528584053695 3 5 0
367 1 2 -1.1794 3.5302923379850557 5.096436075065862 4.282451997350595 3 5 0
103 1 2 -1.1794 0.6099161929437928 4.834104756751556 3.414805285954973 1 2 4
363 1 1 0.5897 2.574313372439306 6.060793761536151 1.0090086992172296 -2 -5 2
822 1 1 0.5897 3.6172566297891335 3.1821568216776432 3.816965447372052 2 3 2
105 1 1 0.5897 1.5024566168289442 5.172684205768254 3.485509104128321 1 2 4
448 1 2 -1.1794 1.4219196567119634 2.712247537932223 1.666893143475308 8 -1 -3
361 1 2 -1.1794 2.8741899213824706 6.6270120425206045 1.7200751880028513 -2 -5 2
449 1 1 0.5897 2.085000602693131 2.53284293125572 2.333445336170948 8 -1 -3
821 1 1 0.5897 2.6895619844365943 2.1531038322220057 4.426980357354283 2 3 2
820 1 2 -1.1794 3.23681899752525 2.318130652439696 3.6592409791413267 2 3 2
369 1 1 0.5897 3.152086233955801 5.438703020095513 5.0923633577779 3 5 -1
177 1 1 0.5897 1.7891826657653527 4.086479244408771 0.5682894959343975 -2 -2 10
450 1 1 0.5897 0.6351563123580564 2.2702575488439054 1.9859818601137065 8 -1 -3
104 1 1 0.5897 0.703929378401129 4.006328572684533 2.9435378657939486 1 2 4
240 1 1 0.5897 3.232418003044938 5.047937526761129 8.343484469139172 -7 -4 -3
148 1 2 -1.1794 1.9653742540658734 2.3184867569719025 9.715027101062706 -3 -1 2
238 1 2 -1.1794 2.494113433771003 5.010527152911254 8.951490089578702 -7 -4 -3
660 1 1 0.5897 0.4899304282290262 5.142607055673611 8.887551860500757 2 -3 1
149 1 1 0.5897 2.547543120943322 1.8513034341523742 9.115893953326294 -3 -1 2
29 1 1 0.5897 1.1648883910928882 1.7849272061078274 6.177840526492392 -6 4 7
239 1 1 0.5897 2.5209345419798925 4.122318465683255 9.307173992275652 -7 -4 -3
855 1 1 0.5897 0.9038598303427156 6.48770283565789 6.489483242915868 -3 1 1
150 1 1 0.5897 2.38656267847723 2.2376076679916075 10.57072617661912 -3 -1 2
22 1 2 -1.1794 1.0188862845426918 4.895211459876419 15.78708988230751 -6 5 1
24 1 1 0.5897 1.4817945898225036 4.511063656322736 15.04255955667492 -6 5 1
486 1 1 0.5897 4.2980800880772785 4.482295041222123 15.61278937166249 -3 0 -2
526 1 2 -1.1794 4.210007951754527 4.845381092283008 11.791685365044163 -3 -4 -3
120 1 1 0.5897 1.5614664270742737 5.165160574364583 12.922965027890276 0 -5 -2
485 1 1 0.5897 4.03599734370186 3.041062157379754 15.230865281925084 -3 0 -2
357 1 1 0.5897 4.266487253537862 6.1526755898806815 13.274577299225626 0 0 2
810 1 1 0.5897 2.3752975715558504 2.7273397840966 12.781704617000877 4 -1 0
118 1 2 -1.1794 1.3155021404544822 4.243654020710808 13.003513620787492 0 -5 -2
484 1 2 -1.1794 4.251085608403137 3.895867098031326 14.857772374222682 -3 0 -2
119 1 1 0.5897 0.6615615263150456 4.109013987721884 12.317661391213353 0 -5 -2
527 1 1 0.5897 3.9707033054340974 4.001417162396555 12.17457171366187 -3 -4 -3
808 1 2 -1.1794 2.9271184871240776 2.104233209947327 12.309069282389945 4 -1 0
514 1 2 -1.1794 2.935183338866126 2.129463619544023 16.572949814700365 -7 -2 -1
817 1 2 -1.1794 4.317576065082969 2.133320754020484 20.67103113499853 2 -3 1
857 1 1 0.5897 2.8622460714911786 4.849368709123032 19.669166110932437 -2 1 -2
175 1 2 -1.1794 1.9149430131704497 4.854885572378349 21.383752416445283 -2 -2 9
858 1 1 0.5897 2.1490167432346934 4.259359664045883 18.471297224690574 -2 1 -2
818 1 1 0.5897 4.567717306974249 2.1209111317942133 19.7472179306166 2 -3 1
856 1 2 -1.1794 2.9881999640137673 4.6284534370026265 18.7464045374846 -2 1 -2
515 1 1 0.5897 2.1607886457598955 2.377148764114839 17.078030694238258 -7 -2 -1
732 1 1 0.5897 4.449209213071262 5.068856145245529 17.771359990268316 2 1 -3
176 1 1 0.5897 1.0309623557163883 5.190129146249127 21.234240387346233 -2 -2 9
588 1 1 0.5897 0.7531498309211699 3.7524833638076975 17.133286881886 3 3 6
179 1 1 0.5897 4.548235241535461 1.6988025807825171 17.523356116862146 -4 1 -4
586 1 2 -1.1794 0.7282072420091745 3.2217449681823322 17.929434547074003 3 3 6
636 1 1 0.5897 1.7691619206937461 6.573335257087564 16.79196291054329 -6 1 3
819 1 1 0.5897 3.422887914212129 1.793369448695389 20.681980868404196 2 -4 1
80 1 1 0.5897 3.9273257407110704 10.689728385464132 1.8646521735583341 3 0 -3
70 1 2 -1.1794 3.012972381196162 8.81222002813067 4.5526718744285954 4 0 -6
200 1 1 0.5897 1.1633788701584613 9.190028292388403 4.326455276645392 2 -3 -1
71 1 1 0.5897 3.1139443272367147 9.616483000671478 5.061718324410507 4 0 -6
72 1 1 0.5897 3.367697307064732 9.027930216526784 3.6902241660731363 4 0 -6
362 1 1 0.5897 3.709615742275994 6.97774332185254 1.4115054392001953 -2 -5 2
249 1 1 0.5897 1.3551317556954539 7.224625780579341 1.882456007308703 0 2 -2
79 1 2 -1.1794 4.335706422778665 10.17578027792734 2.5612385423753685 3 0 -3
248 1 1 0.5897 0.7601297736082194 8.543693805899778 1.4378052764098999 0 2 -2
615 1 1 0.5897 4.675554941005631 11.611564529137887 3.640742646606123 -7 3 5
247 1 2 -1.1794 0.5197359422655157 7.676564331444256 1.7640666611095166 0 2 -2
726 1 1 0.5897 1.7976852275332014 10.654730127676519 0.7123226261516136 3 -4 4
724 1 2 -1.1794 0.9614416279240364 10.190913600630434 0.6709127634339476 3 -4 4
141 1 1 0.5897 0.6442832771625638 9.574058257963319 10.52665234885156 -1 -3 -1
578 1 1 0.5897 1.2605323595039089 7.700683751255882 9.76346386728613 2 1 -1
676 1 2 -1.1794 2.938492126284404 7.567915558183404 10.717229528502767 3 -4 -1
139 1 2 -1.1794 0.6397704767337897 10.440756421849171 10.932802361723429 -1 -3 -1
678 1 1 0.5897 3.689423751095518 8.034115307582821 11.084528035199298 3 -4 -1
577 1 2 -1.1794 0.512922369011759 8.110975136726434 9.328810462848065 2 1 -1
8 1 1 0.5897 0.6538712239419644 9.007244461157672 7.764627706625307 5 -1 -3
796 1 2 -1.1794 3.322218179269568 10.438789071914915 6.842017702505597 2 -2 -4
798 1 1 0.5897 2.423522842040096 10.269869658873017 7.124804672205123 2 -2 -4
797 1 1 0.5897 3.847114485931611 9.789477883941846 7.310021769791133 2 -2 -4
196 1 2 -1.1794 2.835498344813361 6.882632810893239 6.320751650215313 -1 -2 -1
677 1 1 0.5897 3.2786041871708536 6.700687102638008 10.497261601049464 3 -4 -1
7 1 2 -1.1794 0.7990179412634839 9.795040530167789 7.240740326196834 5 -1 -3
266 1 1 0.5897 4.262978484616246 11.813216169892515 7.3961854427164 -4 -4 2
197 1 1 0.5897 3.6630917732473196 6.811579705892655 6.796340409882914 -1 -2 -1
198 1 1 0.5897 2.9032668280712794 7.70953680920046 5.843424131542207 -1 -2 -1
400 1 2 -1.1794 2.0907106087878624 9.02179771363852 14.905217735284781 -4 -1 0
401 1 1 0.5897 2.207700095865696 8.324311252351002 14.260260236121143 -4 -1 0
402 1 1 0.5897 1.332387991033896 9.514250357155502 14.591241680126833 -4 -1 0
59 1 1 0.5897 1.9851347822587113 7.378288830004652 12.3093514917508 1 3 -1
144 1 1 0.5897 3.813238097625929 10.155675079169612 11.474502417314982 4 2 3
60 1 1 0.5897 0.5858203609669094 6.800711905302235 12.30737453446257 1 3 -1
58 1 2 -1.1794 1.318764301231465 7.006875829341108 12.887409966441247 1 3 -1
627 1 1 0.5897 3.6143182293378233 10.229692320781426 14.890372867438726 -5 -2 5
625 1 2 -1.1794 4.179211486486983 10.90985844320561 14.523752399589826 -5 -2 5
355 1 2 -1.1794 4.518413528169537 6.950042461826079 13.740303346737786 0 0 2
341 1 1 0.5897 0.5267717056631748 11.517305694487876 13.689540692699092 2 3 2
143 1 1 0.5897 3.547215977278004 11.055511232217585 12.66246038068522 4 2 3
142 1 2 -1.1794 3.4047807279864517 10.986216698870578 11.718502220273603 4 2 3
140 1 1 0.5897 1.5470561155590417 10.584448126915632 11.201820669421473 -1 -3 -1
725 1 1 0.5897 0.7018800844767137 10.245792400237665 21.123409446511616 3 -4 3
634 1 2 -1.1794 1.6300133978861429 7.410596548705829 17.234501586220404 -6 1 3
205 1 2 -1.1794 3.39342907669897 8.03543993545603 19.66791304084917 -8 4 -2
453 1 1 0.5897 4.559531419009503 7.540242662107876 21.070004564070004 0 0 0
657 1 1 0.5897 2.8805357203318795 10.802713683039396 17.478608423820077 -1 2 -1
206 1 1 0.5897 3.326275240743618 8.902573990320237 19.268270631922668 -8 4 -2
207 1 1 0.5897 2.766096722173546 7.498747658351902 19.183571134556416 -8 4 -2
655 1 2 -1.1794 3.7257852097069026 10.518408046062955 17.82629884073443 -2 2 -1
289 1 2 -1.1794 1.367595071690924 11.302848815406406 16.973359724032555 -9 -4 -8
656 1 1 0.5897 4.202636488299886 10.194030705818879 17.06240148896795 -2 2 -1
45 1 1 0.5897 0.6346575769523723 10.713705716850754 18.533290197501188 0 5 -2
290 1 1 0.5897 0.7218509952478767 10.628319368728727 16.763151229555753 -9 -4 -8
635 1 1 0.5897 1.7441864866985575 8.06708297206728 16.547383480229406 -6 1 3
269 1 1 0.5897 2.5942144422170785 15.010307338684743 2.2617824618402533 2 3 4
830 1 1 0.5897 2.9619878972441946 14.96195815026745 5.618751610308053 7 3 3
576 1 1 0.5897 1.1019888001659797 16.664196388999038 4.966766405832389 3 1 2
829 1 2 -1.1794 2.8240240286173774 14.070438653248088 5.298836704674056 7 3 3
268 1 2 -1.1794 2.7655813937361327 14.091002972326917 2.4658884790800153 2 3 4
780 1 1 0.5897 3.222755026991707 12.69813511849961 1.2660680640945443 -5 -5 2
831 1 1 0.5897 3.70563093871395 13.708943653268864 5.208078683750895 7 3 3
270 1 1 0.5897 2.5919934945664185 14.017125682070871 3.4042674729722013 2 3 4
549 1 1 0.5897 1.0373220450559426 13.595228877714886 5.38942172385756 6 -2 8
440 1 1 0.5897 1.1949771471007677 12.942782930697017 1.7722793714352731 4 1 2
574 1 2 -1.1794 2.024173631072154 16.853449243422652 5.139736163263644 3 1 2
569 1 1 0.5897 0.38551884251322044 15.411698570122077 0.9387346755769188 1 -1 -2
712 1 2 -1.1794 2.992243318617152 16.921157504098076 2.3890150320807875 -4 -3 5
778 1 2 -1.1794 3.382277978695835 11.992874813643441 0.6389114244134737 -5 -5 2
353 1 1 0.5897 1.9151049896926202 13.447008372314292 8.87320905151398 6 0 -1
828 1 1 0.5897 2.12470045921933 16.298698510536422 7.133405558300817 -2 2 1
354 1 1 0.5897 2.600738058772207 14.787170366488919 8.713324306641436 6 0 -1
827 1 1 0.5897 0.8564606522316381 16.50980783475873 7.932644375709992 -2 2 1
352 1 2 -1.1794 2.617722706922966 13.98590641679905 9.236618853604925 6 0 -1
265 1 2 -1.1794 4.517542318382968 12.600072425507362 7.878068362483156 -4 -4 2
267 1 1 0.5897 3.705407503436598 12.908709741989831 8.279764229417736 -4 -4 2
826 1 2 -1.1794 1.8104725831131292 16.522274247093506 8.00946635927761 -2 2 1
745 1 2 -1.1794 0.49176963679317853 12.507775547664414 8.216462885848937 2 1 -6
848 1 1 0.5897 1.8570576163085597 14.344762629420392 10.7702758316283 3 -2 6
183 1 1 0.5897 4.607022570207946 14.442610165414598 7.453092652678311 -3 5 -2
513 1 1 0.5897 3.3386226276693334 16.331533169417757 13.889582937264711 2 0 -5
306 1 1 0.5897 2.220756034779585 13.491818151904232 14.50571840290215 2 -7 -7
304 1 2 -1.1794 1.5250817620519321 13.147987796106115 13.945373428633944 2 -7 -7
849 1 1 0.5897 1.6356680603388316 13.900670775266983 12.200473509059858 3 -2 6
512 1 1 0.5897 3.2506750784729888 15.596096728674844 12.569294156715566 2 0 -5
847 1 2 -1.1794 1.7788260247990721 14.679917676336837 11.663424710521646 3 -2 6
305 1 1 0.5897 0.8065885807023845 13.772598637678573 14.04421692468099 2 -7 -7
673 1 2 -1.1794 3.4946496392734407 14.342296583112232 15.730040691266256 -4 -5 -1
674 1 1 0.5897 3.7605637885386134 15.23480267622443 15.951111362671343 -4 -5 -1
21 1 1 0.5897 4.650067823081917 12.492531952896282 11.288590331940503 -1 -3 1
511 1 2 -1.1794 3.8636793199115047 16.06599127794159 13.134606242278398 2 0 -5
285 1 1 0.5897 0.7230267159009768 15.950349942215063 11.376665359117201 7 1 -3
498 1 1 0.5897 1.5500132061176688 16.188323594837897 16.369517194561027 -2 1 -1
584 1 1 0.5897 3.3780185604051334 13.437604798902905 18.596598293036813 3 -5 -1
297 1 1 0.5897 1.876683038751475 16.20873878125058 20.585451974394537 -2 2 0
585 1 1 0.5897 4.2590462060096925 12.258070922574422 18.244194086705114 3 -5 -1
430 1 2 -1.1794 1.5489561558560478 13.832182570606106 19.019443809272147 -5 2 -3
145 1 2 -1.1794 4.361579474829171 16.042724728933408 17.86439972869993 0 2 -2
496 1 2 -1.1794 1.1430417323904076 15.76745008505853 17.126740442222932 -2 1 0
583 1 2 -1.1794 4.276917130466858 13.207872991995972 18.36132768054661 3 -5 -1
296 1 1 0.5897 1.939179171802393 14.696555304371747 20.552810827058018 -2 2 0
497 1 1 0.5897 1.409709246752746 16.305212025196113 17.872288521068917 -2 1 0
146 1 1 0.5897 4.3304380956799 15.202560687232818 18.321896157544316 0 2 -2
295 1 2 -1.1794 1.9467331755029416 15.441635006401238 21.153594942568716 -2 2 0
431 1 1 0.5897 1.2897123471410228 14.358103796673683 18.262904039690056 -5 2 -3
291 1 1 0.5897 0.9232945913035551 12.128588975275267 16.78124391748306 -9 -4 -8
432 1 1 0.5897 0.7230424181844081 13.520430401239762 19.389346895762344 -5 2 -3
675 1 1 0.5897 3.751962772254209 13.820081686300718 16.489794148304284 -4 -5 -1
779 1 1 0.5897 4.264555235701193 12.160970628845314 21.68019622915356 -5 -5 1
713 1 1 0.5897 3.6463502652009727 17.436121962002183 2.861386421750527 -4 -3 5
532 1 2 -1.1794 1.2744360975354598 19.47805293658387 5.296222467281509 -10 -4 -1
325 1 2 -1.1794 1.6823581425184349 18.80614679398594 0.778898793541871 1 1 -1
533 1 1 0.5897 1.6719800213664526 18.607557938558223 5.3147326519239 -10 -4 -1
714 1 1 0.5897 2.610062571910436 17.535434293356005 1.7623211959625706 -4 -3 5
534 1 1 0.5897 1.0069861833900267 19.600415390760837 4.3853730321576405 -10 -4 -1
326 1 1 0.5897 0.8459889963738527 18.480933644843567 0.44592664386330394 1 1 -1
339 1 1 0.5897 0.6444827620606683 19.509887531934936 2.2402886102931987 -2 -1 8
98 1 1 0.5897 4.430704846583555 21.49195738396056 3.672616294513546 5 -6 7
575 1 1 0.5897 2.363776963334368 17.175465619002722 4.304797573633614 3 1 2
490 1 2 -1.1794 4.6963940576236345 18.09556204145609 4.080081502879645 3 7 5
491 1 1 0.5897 4.553043901334675 18.244988675214394 5.01457287465562 3 7 5
262 1 2 -1.1794 2.808626640549921 19.01766349997864 8.90971884790695 6 -2 5
301 1 2 -1.1794 3.761621651014603 21.715939242000587 8.222122274225264 -5 0 10
263 1 1 0.5897 2.4854506559142076 18.226414768922034 8.478875372309208 6 -2 5
303 1 1 0.5897 3.3645822884543035 21.95026486461674 7.383253726225219 -5 0 10
15 1 1 0.5897 1.3076190551950986 18.90010910931796 9.952695817850866 -2 -6 -4
30 1 1 0.5897 1.7865213110420042 21.08981994307416 5.805820164845924 -6 3 7
264 1 1 0.5897 3.29869875603453 18.695832033772795 9.666287952458429 6 -2 5
302 1 1 0.5897 3.4532134744240564 20.826138162909913 8.393316394637473 -5 0 10
473 1 1 0.5897 4.272401047969262 18.49005172472627 7.669555936143108 2 1 -3
28 1 2 -1.1794 2.0088434581149697 21.99551111394448 6.021319734265329 -6 3 7
13 1 2 -1.1794 0.43701416979453467 18.967507306985787 10.34468696982577 -2 -6 -4
184 1 2 -1.1794 4.3678665219162465 18.976970042566883 15.607349470609865 0 7 4
212 1 1 0.5897 2.6569168833162706 19.57235174124166 12.279983712111067 5 1 -1
601 1 2 -1.1794 1.6784352663206261 20.845923713295257 15.123602654940449 6 0 0
211 1 2 -1.1794 1.9553263979101136 20.19480186579345 12.470984233188153 5 1 -1
741 1 1 0.5897 1.506807449801784 17.51350722228493 14.604745830394727 -2 -4 2
740 1 1 0.5897 2.855856432795643 17.85129688894849 15.20277640281668 -2 -4 2
602 1 1 0.5897 1.930122292334863 20.454317108220835 14.287246877494477 6 0 -1
739 1 2 -1.1794 2.276116793902989 17.114253113122082 15.010854801732064 -2 -4 2
162 1 1 0.5897 3.905773790512853 17.458538330093116 11.25058715740862 6 4 3
213 1 1 0.5897 1.194789494838795 19.85020251401422 12.003001988627899 5 1 -1
516 1 1 0.5897 2.6575162864878905 22.00008541268207 16.06686961870408 -7 -3 -1
809 1 1 0.5897 2.470333255829742 21.90143343265779 12.393114195197096 4 -2 0
160 1 2 -1.1794 3.910774719078918 18.411977510679897 11.334688578708931 6 4 3
603 1 1 0.5897 0.8108447554648095 21.21707551796915 14.96335325180388 6 0 0
645 1 1 0.5897 4.205423225483933 21.58295049917305 13.422663911025708 2 -2 0
185 1 1 0.5897 4.525341492009366 19.6934246145491 14.992492389310245 0 7 4
309 1 1 0.5897 4.414581355433888 19.242423033021517 17.428472458686677 1 2 1
241 1 2 -1.1794 1.7188419983991674 21.32190541038436 21.089500312903866 -1 -3 0
823 1 2 -1.1794 1.9045502289850658 17.46238919466979 19.101470626023016 -2 3 2
151 1 2 -1.1794 0.9725379186132372 19.25476011530295 17.396218987526602 3 0 -2
824 1 1 0.5897 1.628071117300215 18.177642839527323 18.528658264654695 -2 3 2
242 1 1 0.5897 1.0288210755960643 21.431493975703155 20.43526666577914 -1 -3 0
596 1 1 0.5897 3.422916289765523 18.504657598192146 21.151369064984728 5 -5 -1
595 1 2 -1.1794 4.373717608510594 18.47232874458885 21.045964608301567 4 -5 -1
152 1 1 0.5897 1.1603332661536347 19.53710501797795 16.501137773304258 3 0 -3
825 1 1 0.5897 2.8267423122709037 17.32461676048005 18.885315255893616 -2 3 2
597 1 1 0.5897 4.524059190674949 18.74260953799437 20.14015503165907 4 -5 -1
327 1 1 0.5897 1.7893005947702187 19.66209274467358 21.736252571812614 1 1 -2
243 1 1 0.5897 1.523760884664397 21.979991941383567 21.75660955206334 -1 -3 0
763 1 2 -1.1794 6.0843732670353 4.114049786993183 4.236657863440245 -5 1 -5
188 1 1 0.5897 6.857629029815901 3.288474805353627 2.477194611705731 -4 2 1
765 1 1 0.5897 6.09664577937858 3.412738332831699 4.887928530686873 -5 1 -5
53 1 1 0.5897 8.026770883299847 4.774475642517743 4.209964591470613 -5 -4 4
764 1 1 0.5897 5.3089617513008625 4.63091507383488 4.455157872086379 -5 1 -5
189 1 1 0.5897 8.002914470054765 2.7405300002594273 1.6527263613057914 -4 2 1
221 1 1 0.5897 7.68643830287785 5.094785353747452 1.9475107105534852 4 -6 5
187 1 2 -1.1794 7.3668157889682515 3.4550515131104262 1.6840219015737687 -4 2 1
222 1 1 0.5897 8.666534435248918 6.202674078845854 2.2694760612727922 4 -6 5
220 1 2 -1.1794 7.783142438958887 6.046965069548091 1.9355379719430632 4 -6 5
89 1 1 0.5897 6.271818414960383 4.161258100693663 0.5277675917340771 6 -1 4
52 1 2 -1.1794 8.972194159156121 4.867526355311851 4.3269554628513855 -5 -4 4
683 1 1 0.5897 7.222258654731283 4.139918168414599 10.824698084368128 4 2 -5
594 1 1 0.5897 7.657955370534174 3.3168464601410346 6.939011003591801 -3 -3 -1
293 1 1 0.5897 5.558452830590133 5.569724461040161 8.348335433291691 0 0 2
592 1 2 -1.1794 6.827128931103105 2.871430606230096 6.773132426503571 -3 -3 -1
593 1 1 0.5897 6.631533613891356 2.4156591271408776 7.591772355162511 -3 -3 -1
294 1 1 0.5897 5.960670550321607 4.54964435197256 7.304621079636762 0 0 2
766 1 2 -1.1794 8.52535379592804 5.6715848912697595 10.653819671511954 2 0 -1
257 1 1 0.5897 6.15047862200953 2.277538285221764 9.65451563540549 -4 -1 -1
806 1 1 0.5897 8.580437041696038 5.419214081750326 7.311321304535602 -2 -2 -2
682 1 2 -1.1794 6.489281739065347 3.529623520938216 10.904922672093154 4 2 -5
805 1 2 -1.1794 8.992370567683102 4.565914944739463 7.175889612930912 -2 -2 -2
292 1 2 -1.1794 5.235623289362783 5.115222454323343 7.570273604388415 0 0 2
256 1 2 -1.1794 6.320939555634517 1.5769720665189015 9.024993051878177 -4 -1 -1
684 1 1 0.5897 6.851843206617773 2.7798848686322106 11.376853462122538 4 2 -5
572 1 1 0.5897 7.080044072163468 3.594623926586489 15.1337088100397 1 -4 -2
571 1 2 -1.1794 6.866141326995756 4.089554520293813 14.342861954013093 1 -4 -2
767 1 1 0.5897 8.63000414433784 6.103644252735929 11.50148196050303 2 0 -1
389 1 1 0.5897 7.314882708300909 2.638181143192474 13.414430501792587 4 6 5
573 1 1 0.5897 5.910093009195411 4.135553731134367 14.339796133477424 1 -4 -2
609 1 1 0.5897 6.864386081030719 5.889098870987993 14.87319740218124 7 2 2
388 1 2 -1.1794 7.427069653423445 1.8849175273678935 12.834645280290154 4 6 6
390 1 1 0.5897 8.290183185406988 1.5365860142941132 13.058049592705082 4 6 6
528 1 1 0.5897 5.056326326964554 4.687758397728385 11.373282139419757 -3 -4 -3
608 1 1 0.5897 6.1935267921069395 6.588083190077019 16.0364194922827 7 2 2
65 1 1 0.5897 6.6431509590721625 4.333727065570575 19.94027277012335 1 3 -5
64 1 2 -1.1794 7.188294122726959 4.387769742173736 19.15538717209813 1 3 -5
78 1 1 0.5897 6.5186494672628825 2.1122109040819876 17.12008617173705 -3 -3 -5
66 1 1 0.5897 7.743352580924026 5.153837199927509 19.301001594423532 1 3 -5
716 1 1 0.5897 8.461343075840624 3.0898198373948857 19.259760744770105 1 -9 -1
77 1 1 0.5897 7.73550620707958 2.9849350016888287 16.897893532535946 -3 -3 -5
88 1 2 -1.1794 5.585521058691553 4.557575326526857 21.363194528553976 6 -1 3
128 1 1 0.5897 8.912293610874501 6.447199727247859 21.312744687353074 0 0 -6
731 1 1 0.5897 5.960079065267186 5.0200153956519245 17.852730232672172 2 1 -3
127 1 2 -1.1794 9.072297167298075 6.009456527400264 20.47672540972674 0 0 -6
90 1 1 0.5897 4.940621648751578 3.860238059886406 21.24491917501728 6 -1 3
452 1 1 0.5897 5.405273352658173 6.402447150009195 21.600910594563977 0 0 0
730 1 2 -1.1794 5.241215216251876 5.298982345717931 17.28564711266842 2 1 -3
446 1 1 0.5897 8.516871925260968 6.470252968767197 17.189589018336683 1 -2 0
715 1 2 -1.1794 9.011744849488277 2.3727972750894564 19.574542958961842 1 -9 -1
76 1 2 -1.1794 7.184359646570431 2.330971928837991 16.468062748908736 -3 -3 -5
376 1 2 -1.1794 5.704554611952735 7.131645635721061 3.4649813463198917 3 5 3
377 1 1 0.5897 5.437000928421237 7.751941717082703 2.7868978164933593 3 5 3
333 1 1 0.5897 7.685173541332091 9.276291368802013 1.8519507856446145 -4 -2 -3
81 1 1 0.5897 5.174795989522033 9.897867302321492 2.1940005094416017 3 0 -3
770 1 1 0.5897 7.927929972125815 11.356692939231644 5.505886250803031 1 -2 -1
378 1 1 0.5897 6.517026961323432 6.7493778083621505 3.1334572284901867 3 5 3
332 1 1 0.5897 6.632152881618336 8.521200117756393 1.0692123494854666 -4 -2 -3
769 1 2 -1.1794 7.133268629176496 11.281656321031218 4.977624414373792 1 -2 -1
744 1 1 0.5897 6.400093910722293 8.19202197474544 5.013547567587828 2 -4 4
771 1 1 0.5897 7.425795876898949 11.440607576881431 4.080230837549069 1 -2 -1
743 1 1 0.5897 7.264378344677661 9.387274295221403 5.354247945932851 2 -4 4
331 1 2 -1.1794 6.768833920069121 9.319812672497298 1.5788028315630271 -4 -2 -3
742 1 2 -1.1794 6.998331305699662 8.527847851473334 5.68098729345752 2 -4 4
481 1 2 -1.1794 6.265540595876159 7.022001406973996 9.693452826858575 1 2 2
226 1 2 -1.1794 6.928987850172694 11.195507456739218 9.015416573436887 3 -3 -3
727 1 2 -1.1794 8.482461397207306 9.11167870865174 9.907535108593654 -3 1 0
518 1 1 0.5897 8.235094115392492 7.75807034680538 8.423661706637498 0 0 -3
86 1 1 0.5897 5.84456023264573 8.511626174226205 6.995584525122891 3 8 0
517 1 2 -1.1794 8.50733491878277 7.281488564810398 7.639500211136606 0 0 -3
519 1 1 0.5897 7.996877917648209 7.673559900162976 6.931072131853666 0 0 -3
728 1 1 0.5897 7.968274725713226 9.862960551479302 9.611968398322835 -3 1 0
483 1 1 0.5897 5.814975984126686 7.516224602980243 10.378202515036564 1 2 2
85 1 2 -1.1794 5.160990918959633 8.551741768425336 7.664369281919769 3 8 0
227 1 1 0.5897 6.043624379779952 11.314175052644828 8.671617443783791 3 -3 -3
87 1 1 0.5897 5.458352671366802 7.951175247290284 8.347776594006916 3 8 0
348 1 1 0.5897 8.214112745715644 11.558498220486987 7.87897505707 -7 4 -5
346 1 2 -1.1794 8.932689118373412 11.615845313993653 7.2492920795677005 -7 4 -5
482 1 1 0.5897 7.079882633206622 6.731110115079931 10.10379906094588 1 2 2
396 1 1 0.5897 8.20994769215908 9.875093213672988 11.718524683969044 5 1 2
254 1 1 0.5897 5.996815465996744 9.261119759307093 11.815626415816837 3 4 -3
561 1 1 0.5897 8.806830933476336 11.689428824191502 12.342325290811566 6 1 3
394 1 2 -1.1794 7.651665899202814 10.162432848076701 12.440949881272614 5 1 3
255 1 1 0.5897 5.161738776565419 8.205068237409595 12.50777844136157 3 4 -3
494 1 1 0.5897 7.193577191531149 9.812203945238643 15.676405510276593 -1 -2 -1
356 1 1 0.5897 5.276833738534523 6.692418141971346 14.264309848417504 0 0 2
618 1 1 0.5897 7.774383985883708 8.19347058561176 14.97093585775104 0 4 2
626 1 1 0.5897 5.0617236893545705 10.664105150541165 14.801093940073168 -5 -2 5
616 1 2 -1.1794 8.382191382540205 8.917410399578502 14.820509966509178 0 4 2
493 1 2 -1.1794 6.343844963650467 10.01198436313339 16.06907679115625 -1 -2 -1
395 1 1 0.5897 7.872959252306175 9.575037518745344 13.163542041137475 5 1 3
253 1 2 -1.1794 5.2602655949383506 8.666279765060072 11.67487874115489 3 4 -3
607 1 2 -1.1794 6.720972382908006 6.754883108619831 15.255303112776426 7 2 2
447 1 1 0.5897 7.602113418694941 7.4258882924296135 17.925557084670707 2 -2 0
96 1 1 0.5897 5.114638233867316 7.514988055157066 18.475747615585824 -3 -2 -2
669 1 1 0.5897 6.9486702667236 9.781347227138113 21.140463819266103 -10 -2 0
451 1 2 -1.1794 5.3048847711783695 7.353494366075552 21.640769247094504 0 0 0
668 1 1 0.5897 6.3246850683014895 10.867914472358347 20.290892907073903 -10 -2 -1
495 1 1 0.5897 6.353192108570908 9.551887621336776 16.908342224793998 -1 -2 -1
95 1 1 0.5897 5.9351003333142955 8.662764757759167 19.024554177213567 -2 -2 -2
94 1 2 -1.1794 5.92073641526803 8.008809896899407 18.325763866912233 -3 -2 -2
667 1 2 -1.1794 6.76600034606443 10.02062404073 20.231854568091237 -10 -2 0
56 1 1 0.5897 8.711993481794803 9.108048023737474 18.230653647012282 -5 1 0
57 1 1 0.5897 8.077494178381333 10.170221812703568 19.102933616868206 -5 1 0
445 1 2 -1.1794 8.522832174074772 7.269898804669705 17.71558719175588 1 -2 0
55 1 2 -1.1794 8.720134558050583 10.049349216908643 18.403970938237265 -5 1 0
649 1 2 -1.1794 7.855981976621824 12.705944356667768 2.3665233941411907 3 2 1
530 1 1 0.5897 6.274568888923399 13.763890003771394 1.9673956278082716 -1 1 -3
852 1 1 0.5897 6.415859714702299 15.627909006141584 2.8140735913909287 -2 1 -1
614 1 1 0.5897 5.540383991528017 12.298046312346317 4.676365322832047 -7 3 4
850 1 2 -1.1794 6.935124267550691 16.22513149833074 3.3524348440915968 -2 1 -1
425 1 1 0.5897 8.00424195450118 15.448841030498553 4.369655534064368 4 -4 3
529 1 2 -1.1794 5.5956308063020925 14.407258779565387 1.7642382149944664 -1 1 -3
424 1 2 -1.1794 8.77612229670418 15.035965953242085 4.75680411450662 4 -4 3
651 1 1 0.5897 8.66828092786914 12.645254257093507 2.8691491095032724 3 2 1
650 1 1 0.5897 8.111108880753825 12.485806615698303 1.4706427528583825 3 2 1
851 1 1 0.5897 6.3015361759188595 16.86087351766962 3.684938670710663 -2 1 -1
613 1 2 -1.1794 4.833259781151282 12.461226021826654 4.052265395420291 -7 3 5
531 1 1 0.5897 4.87728293522933 14.194319473438366 2.359952437154502 -1 1 -3
426 1 1 0.5897 8.596347154205352 15.025025002447363 5.696862416779259 4 -5 3
344 1 1 0.5897 6.904733522401146 13.486536128676468 10.424201506095338 -2 1 0
343 1 2 -1.1794 7.682794316811626 13.649363492626648 9.891011699453852 -2 1 0
345 1 1 0.5897 8.412740312779768 13.354280061637173 10.435312795877461 -2 1 0
154 1 2 -1.1794 4.849248726091904 15.967010923982828 10.221248181091882 2 3 -6
182 1 1 0.5897 5.669777046799789 15.465708746112321 7.113242741786793 -2 5 -2
156 1 1 0.5897 5.740102657560824 16.280667014377215 10.37666758152622 2 3 -6
790 1 2 -1.1794 7.4725103153332295 15.258658516967031 7.564166908361087 3 5 0
791 1 1 0.5897 7.707011420051098 14.46992835526113 8.053101194476577 3 5 0
792 1 1 0.5897 7.441860416831111 15.95040847811543 8.22498726139234 3 5 0
155 1 1 0.5897 4.871028220412558 15.613490370580148 9.332023665898767 2 3 -6
861 1 1 0.5897 8.147725992415324 16.947934952420773 10.237562443996284 1 -1 0
228 1 1 0.5897 7.169953833807232 12.055434409016417 9.359816208374022 3 -3 -3
181 1 2 -1.1794 4.742425126584744 15.382789676843938 7.335265495152641 -3 5 -2
20 1 1 0.5897 4.844760637593562 13.911884720622353 10.799472282437788 -1 -3 0
722 1 1 0.5897 8.528490315901536 14.935937724004784 14.048512739852455 0 4 -3
245 1 1 0.5897 6.034321525934916 16.197367106565846 14.434371310594948 -5 4 -1
158 1 1 0.5897 6.306379702458995 13.205013197754278 15.504063006883037 6 3 -4
318 1 1 0.5897 5.504533538543022 13.443654043120741 13.14664234214292 -1 -8 1
723 1 1 0.5897 7.309595786461092 14.312456019989579 13.402569888782871 0 4 -3
721 1 2 -1.1794 8.201085062560805 14.604403406212075 13.212418919856736 0 4 -3
19 1 2 -1.1794 5.303383405939105 13.189451515923388 11.228319319752206 -1 -3 1
316 1 2 -1.1794 5.6483411828643115 13.748345620153462 14.042574218872 -1 -8 1
443 1 1 0.5897 8.991748576017004 15.578077683879616 11.753165748431691 7 6 -1
317 1 1 0.5897 4.776790727651049 13.98811409809754 14.357298856481894 -1 -8 0
246 1 1 0.5897 6.599826139336846 16.39174541754955 15.825105702806908 -5 4 -1
244 1 2 -1.1794 6.366320742971186 16.86964771174904 15.029325627866788 -5 4 -1
506 1 1 0.5897 8.560216399078765 12.127909766035465 15.280243846412251 2 2 -3
159 1 1 0.5897 6.540956426691903 11.987657552786915 16.372790087620956 6 3 -4
157 1 2 -1.1794 6.863969163645013 12.87343696338765 16.20783695843837 6 3 -4
709 1 2 -1.1794 6.012570584446791 16.329878598476377 20.96870657021421 -8 -2 -5
25 1 2 -1.1794 6.999948800572563 16.48542650828124 18.45898980258682 0 6 4
27 1 1 0.5897 6.7051171970396215 16.46204888943364 19.369305038340116 0 6 4
663 1 1 0.5897 7.932475272831772 14.755220524730973 18.419095653475345 -7 -2 1
134 1 1 0.5897 8.464073968929263 13.010917303946785 20.242950992610268 4 -6 -1
662 1 1 0.5897 7.629543719726985 13.395229803976628 17.82721214765064 -7 -2 1
843 1 1 0.5897 5.773084658354527 13.330859524775533 21.236706961751096 -2 4 -1
661 1 2 -1.1794 8.182446655764693 13.832942189915126 18.47439642054026 -7 -2 1
147 1 1 0.5897 5.274406869876773 16.321511997018142 17.936474507238444 0 2 -2
841 1 2 -1.1794 5.623650527363969 12.631683610151356 20.60032767498754 -2 4 -1
842 1 1 0.5897 5.141904635294055 13.05364270373512 19.888955235898443 -2 4 -1
133 1 2 -1.1794 8.847485209058664 12.946780287584131 21.11761192463058 4 -6 -1
711 1 1 0.5897 5.9042498922798865 15.765240735859729 21.733948979358388 -8 -2 -5
435 1 1 0.5897 8.900277077752168 16.72954929558184 21.730882331893795 1 2 -2
468 1 1 0.5897 8.972649350517496 21.15930592733764 1.8543750286959437 5 -1 6