LAMMPS data file via write_data, version 30 Jul 2021, timestep = 22500000

864 atoms
2 atom types
576 bonds
1 bond types
288 angles
1 angle types

0.6679155254077287 17.53965687457202 xlo xhi
1.878247534513795 21.750930265473336 ylo yhi
0.8148553809260353 21.39834041906692 zlo zhi

Masses

1 1.00794
2 15.9994

Pair Coeffs # lj/cut/tip4p/long/omp

1 0 0
2 0.21084 3.1668

Bond Coeffs # harmonic/omp

1 450 0.9572

Angle Coeffs # harmonic/omp

1 55 104.52

Atoms # full

33 1 1 0.5897 2.8556451781400782 4.752854047398765 2.3642267340393506 4 5 4
187 1 2 -1.1794 2.5734136315170897 5.7792490719372935 4.113912192839255 -4 4 3
189 1 1 0.5897 1.6972420919886444 6.022016493626977 4.41331996904276 -4 4 3
51 1 1 0.5897 2.6933499397699547 3.4270043589835453 4.431222443272723 9 -3 -2
49 1 2 -1.1794 2.9339067415187436 2.8591415281689025 3.699151559213919 9 -3 -2
188 1 1 0.5897 2.990251998076626 6.611736010577111 3.891449406651931 -4 4 3
50 1 1 0.5897 2.1228735820131748 2.7516464701786907 3.2022188944638637 9 -3 -2
77 1 1 0.5897 4.667367365684669 2.984198327808736 3.746057296227801 -8 -6 0
31 1 2 -1.1794 2.9145982333902567 4.6848461840086575 1.4112476594588488 4 5 4
654 1 1 0.5897 1.0378182546013974 3.2877110080949064 1.6444377640730672 -4 0 3
32 1 1 0.5897 2.0870126005169594 5.045736703117232 1.0932562100460197 4 5 4
788 1 1 0.5897 0.6942931075602772 5.034875490685804 5.75427024220455 -2 -1 7
264 1 1 0.5897 1.4762749679894485 3.963957163663366 7.458593563937549 4 1 6
346 1 2 -1.1794 2.8288257089802746 1.996375951756499 9.198836897020048 -1 5 -2
92 1 1 0.5897 4.254963288405232 5.94206571241267 8.33986243344367 -1 -5 6
262 1 2 -1.1794 1.591489053935783 3.6762105267354004 6.552950043479235 4 1 6
607 1 2 -1.1794 4.2210503009100195 3.256725916023127 6.8921085708117245 14 2 -2
91 1 2 -1.1794 4.28534479160596 6.209434721409489 9.258472445675539 -1 -5 6
378 1 1 0.5897 2.649578635933591 5.220388898373534 9.381422748433849 3 2 2
608 1 1 0.5897 4.242794985484614 3.0072129077366654 7.815977636014367 14 2 -2
376 1 2 -1.1794 2.0243111352435887 4.545446616343138 9.117320151778472 3 2 2
377 1 1 0.5897 1.1749917637945468 4.878502320313345 9.407119231674653 3 2 2
348 1 1 0.5897 2.5780826233112863 2.918526650706233 9.254024384141628 -1 5 -2
303 1 1 0.5897 4.641755054015061 4.914894351593535 6.455436772681412 -2 6 5
302 1 1 0.5897 3.878917398200813 6.207719172933528 6.258878929516574 -2 6 5
93 1 1 0.5897 4.560632704264434 5.422338323752806 9.728538458338397 -1 -5 6
301 1 2 -1.1794 4.747173492637927 5.866127110136237 6.472657614957552 -2 6 5
263 1 1 0.5897 0.8881818856396175 3.0425641017868994 6.411139913510099 4 1 6
609 1 1 0.5897 3.3112127842163566 3.5078039716127467 6.732677931183055 14 2 -2
750 1 1 0.5897 2.6613532972737657 4.0159449465784185 15.760392441391017 -2 5 1
731 1 1 0.5897 3.025238033306158 4.342267700880257 13.194274003994435 5 -2 -3
749 1 1 0.5897 2.9012095930723176 5.393927157623002 15.181099574825849 -2 5 1
629 1 1 0.5897 1.3545203210656909 4.4455083238832085 12.344018898480803 -2 -1 6
748 1 2 -1.1794 2.7217919202925533 4.487885988484783 14.929797476024833 -2 5 1
730 1 2 -1.1794 3.018027369014547 4.381684655996555 12.237895097527064 5 -2 -3
732 1 1 0.5897 3.9072163293319364 4.137616687229308 11.980940306758043 5 -2 -3
779 1 1 0.5897 4.516987058227038 3.6167032944159887 14.781721740068104 -2 4 -5
710 1 1 0.5897 1.0556689221437943 2.799423687370777 13.146978838540193 -4 5 0
222 1 1 0.5897 0.8574478602474566 2.559172571285692 15.220105965741208 4 -4 5
44 1 1 0.5897 2.8947683296578557 6.152839102604146 12.051782665879417 6 8 -1
709 1 2 -1.1794 1.5663485308820686 2.0602100727913943 13.477206889242343 -4 5 0
711 1 1 0.5897 2.2687980827517604 1.9485738528675043 12.836589788808796 -4 5 0
558 1 1 0.5897 2.5722322105330813 2.1525081520239415 20.169670278124343 0 1 2
227 1 1 0.5897 4.250736927554669 2.4020637358290164 17.52382789683002 4 0 0
228 1 1 0.5897 2.745085429700771 2.4830916664809237 17.659750100679645 4 0 0
542 1 1 0.5897 4.179161221083538 5.565661980711497 18.623179962832147 3 1 6
556 1 2 -1.1794 3.1445145084662545 2.0537202945511788 20.93059991995355 0 1 2
543 1 1 0.5897 4.2504774335369095 4.171342725987705 18.03773063761983 3 1 6
83 1 1 0.5897 1.93892851751112 6.030234972195682 18.250355485944382 -5 -4 -1
226 1 2 -1.1794 3.485564722860363 2.8752508900850255 17.196931054546745 4 0 0
256 1 2 -1.1794 0.7648511471245372 5.179632425901099 17.2644335195143 -6 5 -1
557 1 1 0.5897 3.0740953189380646 2.88842246608175 21.393811765157267 0 1 2
515 1 1 0.5897 4.7847085041641675 1.902091585497884 19.758703284093755 -4 1 -3
541 1 2 -1.1794 4.731276300184546 4.784268774499077 18.59397796860275 3 1 6
82 1 2 -1.1794 2.632640537800235 6.604834379996841 18.574191121565242 -5 -4 -1
565 1 2 -1.1794 1.5207220343095442 1.884679576652104 18.746973873795476 -1 4 -10
497 1 1 0.5897 4.622628192815482 4.374263807634268 21.364238292242042 5 9 0
214 1 2 -1.1794 3.7141168402699356 7.992987782273115 2.9261416706683394 -1 3 5
133 1 2 -1.1794 4.434783395400289 9.50789487136161 5.484405498876154 -1 -5 2
216 1 1 0.5897 4.505350240231709 7.67569391299035 2.4907733860906798 -1 3 5
582 1 1 0.5897 2.4193039764315127 8.065857182797398 1.651092006610928 -3 -1 4
470 1 1 0.5897 2.242635245158123 9.86109670344057 3.4681416215278933 6 -7 6
469 1 2 -1.1794 2.498552347355882 10.688375857619219 3.06026008645363 6 -7 6
471 1 1 0.5897 1.8532177888490924 10.82355748580205 2.366327022838727 6 -7 6
65 1 1 0.5897 4.480139373929012 10.261910738813503 1.5922090090816337 2 -1 -4
215 1 1 0.5897 4.0333253132164115 8.612106897822088 3.5827045872111714 -1 3 5
581 1 1 0.5897 1.1956451282083465 7.580862735720988 0.9031625690946804 -3 -1 4
181 1 2 -1.1794 1.2991348801166605 8.622722588121674 4.532064824446847 -10 4 -1
580 1 2 -1.1794 1.7560733041818533 8.347851093604284 1.0211136462763888 -3 -1 4
2 1 1 0.5897 2.011546036781227 7.674431936824509 5.959652978774389 5 -2 3
182 1 1 0.5897 0.8455772955963425 8.190991071653487 3.8080611521979355 -9 4 -1
726 1 1 0.5897 2.6522851268660323 11.551384377066276 4.610493797316015 7 -6 2
600 1 1 0.5897 2.7459258375995677 11.213071740306127 8.343492850567312 -1 -5 -5
112 1 2 -1.1794 2.8329057176811854 9.195102003980509 10.64741321605796 -4 -4 2
178 1 2 -1.1794 1.5126955030215798 9.639159313276105 8.35299667974803 -9 0 1
3 1 1 0.5897 2.750428969982208 7.915496594432193 7.258839052603351 5 -2 3
335 1 1 0.5897 4.394421779534967 9.995543572501981 10.24693947891423 8 -2 7
1 1 2 -1.1794 2.2405543407298056 7.255377294361017 6.7892355631181145 5 -2 3
180 1 1 0.5897 1.8060169021854533 9.563936918913672 9.261055991640877 -9 0 1
179 1 1 0.5897 0.8173065663964025 8.986546967315126 8.270567619624995 -9 0 1
134 1 1 0.5897 4.6976646609648185 9.088593353835055 6.303756605773705 -1 -5 2
212 1 1 0.5897 1.28081456109338 9.391598420241072 14.09904052132195 2 -4 4
835 1 2 -1.1794 4.6441026624725446 8.929447125193025 13.798936312367292 2 3 0
439 1 2 -1.1794 2.7503849059543124 7.088104817483706 15.822593074039261 3 -2 0
529 1 2 -1.1794 1.5756292229328108 10.658724503776256 12.358137391928853 -2 1 -6
531 1 1 0.5897 1.8487996448124355 11.44184123358144 12.836036149573115 -2 1 -6
43 1 2 -1.1794 2.8817163319580765 7.085895665157975 12.265067158033899 6 8 -1
400 1 2 -1.1794 3.128346344273033 11.42036114616051 15.628085589257632 -3 -1 -4
45 1 1 0.5897 2.003737727776648 7.240101848526014 12.613836700761773 6 8 -1
213 1 1 0.5897 1.9209263302820612 10.18737020013287 15.21662052767634 2 -4 4
211 1 2 -1.1794 1.3829197056351066 9.41325286465035 15.05055077854005 2 -4 4
402 1 1 0.5897 3.91496936887447 11.494090180256817 15.087675349614326 -3 -1 -4
836 1 1 0.5897 4.219072114827383 8.231216385471782 13.300859788662843 2 3 0
440 1 1 0.5897 2.3162188744747483 7.848665232989471 15.436192672534155 3 -2 0
113 1 1 0.5897 2.3557612459992185 9.761105468867646 11.254228341633855 -4 -4 2
114 1 1 0.5897 2.9468727265988965 8.37337009747537 11.124925386003827 -4 -4 2
305 1 1 0.5897 4.714070353614553 6.867733752219036 16.08208570178305 6 1 -6
42 1 1 0.5897 3.0937494497548 9.808910192757743 17.1322607898542 -4 2 2
372 1 1 0.5897 3.2841998200072013 9.990334412951773 19.30936684084851 -4 6 -3
433 1 2 -1.1794 0.824260718994185 11.529001288094815 21.316267993477936 -5 4 -6
84 1 1 0.5897 2.2358214022922036 7.06787207072053 19.312024409089247 -5 -4 -1
371 1 1 0.5897 2.5751389601721435 9.666603857248894 20.607214477857063 -4 6 -3
40 1 2 -1.1794 3.7741784348729297 9.408488816328427 17.6735046956029 -4 2 2
41 1 1 0.5897 3.783804439494871 8.489485061756394 17.405939548363328 -4 2 2
800 1 1 0.5897 1.3269405836294834 10.453989089812454 18.376507145693232 -1 0 1
370 1 2 -1.1794 3.024600030544459 10.375148978935405 20.146515599565177 -4 6 -3
435 1 1 0.5897 1.4890477471909696 11.426767630656443 20.635195878097058 -5 4 -6
662 1 1 0.5897 4.828083644192589 11.315492506502453 17.045874843056744 1 -6 -2
441 1 1 0.5897 2.3585302443536387 7.0040090326169375 16.6918629367025 3 -2 0
438 1 1 0.5897 3.7547463837127424 15.724150205375269 4.968329113898645 -1 6 4
552 1 1 0.5897 2.8934342966203364 13.671331361888178 1.3078151906768172 3 14 -5
724 1 2 -1.1794 2.5265743336724267 12.187149776635048 5.314945059741459 7 -6 2
48 1 1 0.5897 2.0522631657601 15.415510914482914 1.6613723895050407 4 -2 0
725 1 1 0.5897 3.0886081160281185 12.924254150732994 5.076102232518028 7 -6 2
551 1 1 0.5897 3.482925472422031 13.629172955317927 2.701615958404834 3 14 -5
550 1 2 -1.1794 2.685445589840768 13.856697871577826 2.223586752181548 3 14 -5
436 1 2 -1.1794 3.651321959599654 14.866974786030518 5.381668952409348 -1 6 4
684 1 1 0.5897 1.3648525586138873 15.648445143559531 4.99649187683119 6 -1 -5
740 1 1 0.5897 0.6948324441433625 12.90081836097459 3.077503753807942 -1 0 7
46 1 2 -1.1794 1.7465396446400963 16.234521010414024 1.2714886112510781 4 -2 0
695 1 1 0.5897 4.778872034682612 16.733827159547836 3.2985098441321017 3 -6 3
12 1 1 0.5897 0.6931407458001528 12.478108860059045 5.863767105070151 -1 -2 3
201 1 1 0.5897 2.652196771241626 15.943753079574408 7.856671473667495 2 0 1
534 1 1 0.5897 1.9939587340795903 14.493471125573333 10.06338743098334 -4 -1 0
532 1 2 -1.1794 2.1729044333172207 14.960457681277443 10.879573997094235 -4 -1 0
622 1 2 -1.1794 1.2074475486499896 13.451788446015371 8.757387788783243 1 -1 -6
298 1 2 -1.1794 3.9876887355869557 14.80273881815659 8.38011782692632 -5 -1 0
599 1 1 0.5897 3.1786793489696157 11.896358989007975 7.063733941362299 -1 -5 -5
319 1 2 -1.1794 4.391333264599996 12.937000423805229 10.644849833931678 2 -1 -4
624 1 1 0.5897 2.0325304295950026 13.048533664451044 8.487427253803345 1 -1 -6
533 1 1 0.5897 2.935418549115541 15.50453724005604 10.682550453516447 -4 -1 0
437 1 1 0.5897 3.3431366262035724 15.062826771333285 6.266493643148622 -1 6 4
598 1 2 -1.1794 3.3154561364772337 11.906887202939389 8.01106461808017 -1 -5 -5
300 1 1 0.5897 3.8901154968491847 14.11961469138488 9.043497321095533 -5 -1 0
320 1 1 0.5897 4.7396705824952985 12.045434590817091 10.6357296103964 2 -1 -4
199 1 2 -1.1794 2.3075520611716827 16.601461083945754 7.2525739050293945 2 0 1
299 1 1 0.5897 4.830575123759705 15.210903348620485 8.578126166420835 -5 -1 0
395 1 1 0.5897 2.7855339592480073 13.433348194853085 12.136138929068139 1 0 3
278 1 1 0.5897 1.5823569803751087 15.586804969249489 12.514197222691156 -5 -1 -2
277 1 2 -1.1794 1.5902264153889314 15.852329569385748 13.433820035930292 -5 -1 -2
394 1 2 -1.1794 2.7295370127405105 13.316702513080127 13.084615414574055 1 0 3
401 1 1 0.5897 2.7899988061685725 12.314163571523313 15.682631128337645 -3 -1 -4
458 1 1 0.5897 4.3206029626410904 12.57158093458618 13.350669443486337 -4 -2 -1
396 1 1 0.5897 2.5018873117816627 14.18383881478862 13.420073190107342 1 0 2
578 1 1 0.5897 1.8361002962514001 14.706171906102796 16.17694944973974 6 4 -5
483 1 1 0.5897 4.2600505654123495 16.53049458564379 14.250392883444087 -4 1 1
184 1 2 -1.1794 4.49250519408002 16.3982918414372 11.21557831528671 -3 8 3
481 1 2 -1.1794 4.5687042851518385 15.68478880008221 13.925139796688418 -4 1 1
482 1 1 0.5897 4.692481723202 15.819674523510189 12.985595940303657 -4 1 1
577 1 2 -1.1794 1.435822824625841 13.854203443026016 16.00310335736689 6 4 -5
279 1 1 0.5897 2.359865044440307 16.415757125892778 13.514363855763346 -5 -1 -2
456 1 1 0.5897 1.3339136787160633 13.077518749150085 17.761140079945555 -5 3 -1
47 1 1 0.5897 1.72977645684653 16.06071203561261 20.91381321320005 4 -2 -1
88 1 2 -1.1794 3.493066855239605 13.964500846799064 20.1261536893444 7 -3 1
397 1 2 -1.1794 3.023979643731118 16.425374645159792 16.709410212274037 4 5 -5
89 1 1 0.5897 4.1623237921061484 13.281236774193859 20.087474653075297 7 -3 1
521 1 1 0.5897 3.859044045448765 14.918783346594944 16.807472103505862 -2 2 -2
638 1 1 0.5897 4.747155681385626 15.354114080414986 20.060107339316936 -10 -4 4
90 1 1 0.5897 2.7315593759517416 13.57937232495182 19.692490003991267 7 -3 1
520 1 2 -1.1794 4.208796444000095 14.16709368093738 17.28591399678988 -2 2 -2
522 1 1 0.5897 3.7552929841299623 14.186858814652854 18.128645661445447 -2 2 -2
553 1 2 -1.1794 1.3145640353787877 16.624588740180947 19.1146732994805 -7 -6 6
454 1 2 -1.1794 1.4131268669794013 12.72823913803847 18.648828430297357 -5 3 -1
398 1 1 0.5897 2.868874608237138 16.61886586517491 17.633939074445074 4 5 -5
639 1 1 0.5897 4.831142651617637 16.76460642037918 20.60363220378514 -10 -4 4
57 1 1 0.5897 2.981553540464297 21.362664503877376 4.788371607522167 -7 -2 4
506 1 1 0.5897 1.9639308204479315 20.44251135203794 0.9570637902472096 0 4 -3
507 1 1 0.5897 1.9758311717292796 19.392633154745702 2.0477496612791444 0 4 -3
56 1 1 0.5897 2.4893966888525965 19.938977952989127 4.637144050723746 -7 -2 4
468 1 1 0.5897 1.48662764428946 17.463298044308267 3.803999629778623 8 -6 4
55 1 2 -1.1794 2.9709070193872225 20.514320467524676 5.23160877960052 -7 -2 4
17 1 1 0.5897 3.2050502132289655 17.40469033184123 1.1280032944503742 -5 7 4
467 1 1 0.5897 2.9231860909063454 17.940319726341784 3.776998839997484 8 -6 4
466 1 2 -1.1794 2.024476315561532 18.236184690009544 3.631898958351999 8 -6 4
505 1 2 -1.1794 1.39621275146602 19.82872325946291 1.4231416892101 0 4 -3
686 1 1 0.5897 4.874448454165673 19.64639856491398 1.6078336135620594 3 -6 -6
694 1 2 -1.1794 4.40784724092325 17.210559709195785 4.041019405214843 3 -6 3
16 1 2 -1.1794 3.8323231724738274 18.10061970099823 0.9318073882875787 -5 7 4
21 1 1 0.5897 3.096650602139432 18.354122741815267 9.949560115160237 -5 -7 1
200 1 1 0.5897 2.812987027806106 17.39147271772974 7.444076183840009 2 0 1
601 1 2 -1.1794 4.266590050352566 18.95791588054832 7.071472491838778 0 3 1
19 1 2 -1.1794 3.7771486393277707 19.02519885058031 9.896215312812133 -5 -7 1
602 1 1 0.5897 3.971393840263226 19.43935222002738 6.2985999488395015 0 3 0
347 1 1 0.5897 3.393884977507102 21.728152637894517 9.958527514741803 -1 4 -2
525 1 1 0.5897 1.2548998624751289 20.96281240640573 9.675340549079483 2 -3 -1
20 1 1 0.5897 3.948260545571832 19.11951960993018 8.959152060844104 -5 -7 0
388 1 2 -1.1794 1.0064043028143053 19.52521812365128 7.169405924991959 6 4 6
390 1 1 0.5897 1.8795858245948698 19.858244948282753 6.962178647259896 6 4 6
154 1 2 -1.1794 1.1841228977046216 17.957217615376997 11.017312671273537 6 2 -2
389 1 1 0.5897 0.8371371376646799 19.833295717878777 8.059739267605007 6 4 5
327 1 1 0.5897 4.55386394715306 21.2765593470821 14.506475810719131 3 1 -4
67 1 2 -1.1794 0.8258950014004036 19.25523180060864 13.390686751913304 8 -3 -8
176 1 1 0.5897 3.697978832259792 18.844824303207943 14.703716296523977 7 -2 3
175 1 2 -1.1794 3.1569255437749826 18.098912936390953 14.444565482604968 7 -2 3
325 1 2 -1.1794 4.683565750438277 20.46541888839876 14.997886966513153 3 1 -4
155 1 1 0.5897 0.7402472331203794 17.24531141549943 11.478216913442703 6 2 -2
35 1 1 0.5897 4.484007835707819 21.301590403916904 11.956272660196229 -6 2 -1
69 1 1 0.5897 1.074504689785382 20.177658749438486 13.450606263554217 8 -3 -8
177 1 1 0.5897 2.380478089415893 18.492462071124407 14.04641778393986 7 -2 3
34 1 2 -1.1794 3.5483638045295547 21.106307275198965 11.904322199793755 -6 2 -1
36 1 1 0.5897 3.5035379411852143 20.26627311059834 11.447606149361677 -6 2 -1
186 1 1 0.5897 4.490911253926723 17.32226123025913 11.465715231973919 -3 8 3
68 1 1 0.5897 0.733158276342999 19.092165413037108 12.452036022040305 8 -3 -8
666 1 1 0.5897 2.75548870854714 20.28701661828258 16.20425208650194 3 1 -2
138 1 1 0.5897 3.941873309492206 20.072711586961915 18.851033594210847 6 -6 -3
137 1 1 0.5897 4.45870308956317 18.657231428955292 18.70506945343879 6 -6 -3
664 1 2 -1.1794 2.2060171967837316 19.70488261978433 16.729090910012875 3 1 -2
554 1 1 0.5897 0.9900796604181966 17.522465760521477 19.18382409555386 -7 -6 6
566 1 1 0.5897 1.5572740197358979 20.81231180339205 18.599332852786645 -1 3 -10
136 1 2 -1.1794 3.688368305954377 19.157878185397415 18.973802981242258 6 -6 -3
665 1 1 0.5897 2.7552742952465286 19.464598301569886 17.475308104161073 3 1 -2
18 1 1 0.5897 3.5120096729597425 18.490030940576162 20.701628734143597 -5 7 3
399 1 1 0.5897 2.881270225110977 17.25967565937655 16.2623867241286 4 5 -5
569 1 1 0.5897 8.785617436144099 5.911174554556176 3.045354030835367 3 -3 2
843 1 1 0.5897 6.491212577668665 3.994713326087857 5.050406808318941 -1 6 2
642 1 1 0.5897 8.730317436216545 4.489412688537818 4.512231792196227 8 2 -4
841 1 2 -1.1794 7.032980532018612 4.609628513722333 5.545004026977473 -1 6 2
76 1 2 -1.1794 5.6029337157073025 3.1241364378501064 3.59952141128198 -8 -6 0
670 1 2 -1.1794 8.164359124178603 2.517188007193173 2.554848388933509 16 4 2
782 1 1 0.5897 5.842820773341289 6.080586531514232 1.4313185616861763 -6 -2 4
78 1 1 0.5897 5.643472983835166 3.6780853177994963 2.819906374669709 -8 -6 0
568 1 2 -1.1794 8.464545345010942 6.802396046850737 3.1828389165799686 3 -3 2
496 1 2 -1.1794 5.55156401829339 4.170551619849251 0.8895309691592288 5 9 1
672 1 1 0.5897 7.286588391006878 2.6048290736760804 2.9264499599487275 16 4 2
570 1 1 0.5897 7.918913074763923 6.742618464937947 3.9670403846790783 3 -3 2
671 1 1 0.5897 8.631377055655904 1.954428703209615 3.172529765114721 16 4 2
842 1 1 0.5897 6.410035192572831 5.237090648440084 5.9117286647860015 -1 6 2
584 1 1 0.5897 6.087403343695566 4.307590086629343 10.806888459897404 -5 -8 3
583 1 2 -1.1794 5.231898528820252 3.941104816672108 10.58302896014365 -5 -8 3
502 1 2 -1.1794 8.34123645179556 4.001025139218258 8.355496761355425 -10 -3 4
504 1 1 0.5897 8.008470716588917 4.425941171290857 7.564941779225 -10 -3 4
746 1 1 0.5897 7.004296778919838 2.564271026051789 8.853976583900412 3 3 -5
585 1 1 0.5897 5.433168428531552 3.1439517411451545 10.092823240633217 -5 -8 3
745 1 2 -1.1794 6.145348671026048 2.1421761724691004 8.83657178344654 3 3 -5
353 1 1 0.5897 8.721110782640427 6.593133607703665 7.1380618449577105 6 3 -2
198 1 1 0.5897 8.228597098065078 4.419462901057367 10.458945551346318 -3 -6 0
24 1 1 0.5897 5.535808429017601 2.107789996654887 6.12897843678771 -3 -1 2
197 1 1 0.5897 7.699046056084614 5.663504644106927 11.140052654722638 -3 -6 0
103 1 2 -1.1794 8.48587151946033 3.282431916202979 13.583339419689702 7 1 7
105 1 1 0.5897 8.326923189260466 2.340913398115682 13.515921584864508 7 1 7
615 1 1 0.5897 6.062082996805787 6.457192952195889 14.086122997273156 -7 -1 5
851 1 1 0.5897 8.92306190714393 4.850017608603478 15.06960746673613 -10 0 -3
104 1 1 0.5897 8.249379696882428 3.6279920139551 12.722574534675148 7 1 7
850 1 2 -1.1794 8.419223159464563 5.3656544252194625 15.699304973068116 -10 0 -3
614 1 1 0.5897 5.7258514197802395 5.16001240995552 13.381680849086374 -7 -1 4
613 1 2 -1.1794 5.8681692687686 6.093084806977161 13.222365590787156 -7 -1 5
780 1 1 0.5897 5.998087096604969 3.380697213887554 14.988104676384067 -2 4 -5
778 1 2 -1.1794 5.318958704555942 3.3844623613511695 14.313548645515235 -2 4 -5
363 1 1 0.5897 6.141828894976545 2.242704575437663 12.702045417340967 4 0 -5
196 1 2 -1.1794 7.802668474647077 4.719738739037279 11.261870512138621 -3 -6 0
813 1 1 0.5897 5.922795556539823 6.8196745273118 11.644176973671673 -1 5 -3
236 1 1 0.5897 6.066279349225096 4.084585744883066 17.285925030614308 -3 -2 -4
760 1 2 -1.1794 7.689790378545846 2.1606489132779405 20.347176361498526 3 -3 -1
237 1 1 0.5897 7.240542095017235 4.271623417946486 16.348871067399685 -3 -2 -4
677 1 1 0.5897 7.732260689119743 6.363293946435435 18.224839605281204 -3 0 -6
235 1 2 -1.1794 6.6606793758786695 3.601908411820709 16.711490204486715 -3 -2 -4
498 1 1 0.5897 5.910257867792953 4.205065709907946 20.586189920758137 5 9 -1
243 1 1 0.5897 8.387348011779768 4.641544699078976 18.756645168129594 2 -3 4
242 1 1 0.5897 8.480075006529907 5.016871340897706 20.220369577345025 2 -3 4
762 1 1 0.5897 7.9843855806558 2.990358424274347 19.971615446785236 3 -3 -1
241 1 2 -1.1794 7.84958778032782 4.86532504097108 19.516257135926566 2 -3 4
761 1 1 0.5897 7.764704625205894 2.285417918259611 21.29326252771827 3 -3 -1
852 1 1 0.5897 9.076053065551507 5.723622450132439 16.29653904655789 -10 0 -3
318 1 1 0.5897 6.607331849063306 10.998713409198366 5.024150231830423 -4 -2 1
316 1 2 -1.1794 6.0172534347214155 11.702518098307404 5.293889672503751 -4 -2 1
9 1 1 0.5897 6.835768138984389 9.899272765042566 2.9024458435343305 1 -2 -1
273 1 1 0.5897 7.0140914605781095 7.194169817937716 5.947189965238293 -2 -1 0
7 1 2 -1.1794 7.377302631418711 9.828798640915675 3.6886013428548554 1 -2 -1
781 1 2 -1.1794 5.953500811523619 6.997970932846785 1.6811450064126725 -6 -2 4
8 1 1 0.5897 7.120492585916106 8.995267770080009 4.082995631000294 1 -2 -1
783 1 1 0.5897 6.872669358137255 7.067208893419438 1.9391945899691356 -6 -2 4
271 1 2 -1.1794 6.680135676866486 7.445252815353192 5.085971965164313 -2 -1 0
794 1 1 0.5897 8.814815559392263 9.993856529941672 2.5344946084836355 -1 2 6
272 1 1 0.5897 5.782101115099655 7.114214429074511 5.070928964596443 -2 -1 0
64 1 2 -1.1794 5.427730930593996 10.283616653204133 1.4584098591709993 2 -1 -4
135 1 1 0.5897 4.993041835485877 10.282914871352958 5.421540264549207 -1 -5 2
127 1 2 -1.1794 5.520273663604961 8.661779880073563 7.779503589844576 1 0 -7
128 1 1 0.5897 6.104717167035441 7.904868541490001 7.737451383665677 1 0 -7
821 1 1 0.5897 7.6901950635082805 10.545172561886092 7.125621356553143 3 7 11
336 1 1 0.5897 5.665542230896895 9.827275406440883 11.051867164165042 8 -2 7
494 1 1 0.5897 9.023698943827494 8.25501362844804 10.249254963687775 -2 -3 3
822 1 1 0.5897 8.153456426993802 9.124924486416731 7.371053951448798 3 7 11
820 1 2 -1.1794 8.353847216722421 9.908775643626232 6.859504622695099 3 7 11
334 1 2 -1.1794 5.236745797003923 10.412805897551387 10.427730249594383 8 -2 7
129 1 1 0.5897 5.683539241699772 9.043422393145097 8.64202498391866 1 0 -7
811 1 2 -1.1794 6.154722574988911 7.2854862024587925 10.840753366444863 -1 5 -3
495 1 1 0.5897 7.821175934012455 7.3369002959458065 10.304051902231757 -2 -3 3
352 1 2 -1.1794 7.885063673221282 6.937576203616568 7.45212841508261 6 3 -2
812 1 1 0.5897 5.390895336590971 7.180514137139675 10.273460595981094 -1 5 -3
354 1 1 0.5897 7.960452526557192 6.917615884007103 8.406159966647138 6 3 -2
493 1 2 -1.1794 8.747518469593446 7.357464584220945 10.063721109041431 -2 -3 3
28 1 2 -1.1794 9.096405211879606 10.109499193557868 10.400262234765265 -10 -1 4
317 1 1 0.5897 6.178626321510619 11.804738737532508 6.231867948278517 -4 -2 0
776 1 1 0.5897 8.262974550199063 11.583893058801003 10.212171006903052 3 -3 2
618 1 1 0.5897 7.46908844425464 10.252051863595902 12.76153441112178 -3 3 0
617 1 1 0.5897 7.23731315868151 8.758935186652753 12.85559680646017 -3 3 0
459 1 1 0.5897 5.257344946204482 11.384050553210997 13.285541415741704 -4 -2 -1
824 1 1 0.5897 7.941540324789518 10.654898674388685 15.100966112473952 2 -2 6
125 1 1 0.5897 8.013594703521761 8.455592864142973 15.052992515899668 2 3 6
616 1 2 -1.1794 6.852630897248556 9.564383551518489 12.50985367348073 -3 3 0
837 1 1 0.5897 5.436535888252213 9.131069024649843 13.301286634042185 2 3 0
124 1 2 -1.1794 8.255552324675563 7.8271004805696975 14.372762504750288 2 3 6
306 1 1 0.5897 5.492682127190892 7.951776550476756 15.36751028609936 6 1 -6
823 1 2 -1.1794 7.581694580351302 10.096892775934707 15.790468755851142 2 -2 6
304 1 2 -1.1794 5.603700484583868 7.1889999114558405 15.935057567747663 6 1 -6
379 1 2 -1.1794 8.428936582110065 11.65622328976321 13.71852171894869 9 2 3
126 1 1 0.5897 8.350266473314047 6.995444332440453 14.837135089544304 2 3 6
825 1 1 0.5897 6.786811235530777 10.548452013588868 16.074243660185317 2 -2 6
232 1 2 -1.1794 8.074535713157882 10.414998564611054 19.924089414248463 -3 2 1
678 1 1 0.5897 6.929754098644729 7.164827728918544 17.222081757103396 -3 0 -6
252 1 1 0.5897 5.71392427886494 7.980704122743319 20.573956091766007 6 1 5
251 1 1 0.5897 6.206160986916741 8.127880451816843 19.14988145065032 6 1 5
234 1 1 0.5897 8.456573773778825 10.355197867716203 20.7997335467551 -3 2 1
233 1 1 0.5897 7.5058827152248035 9.647880900992897 19.857423362730025 -3 2 1
250 1 2 -1.1794 5.786764292946269 8.613967028701765 19.85986529857091 6 1 5
66 1 1 0.5897 5.574560529866946 9.729488855160792 21.275292965050348 2 -1 -5
661 1 2 -1.1794 5.662519301929668 11.776299731189093 16.958523231135814 1 -6 -2
527 1 1 0.5897 8.933381518025065 8.371891268312755 17.83778138654216 -3 -6 2
676 1 2 -1.1794 7.496193659798406 7.26015421505493 17.987804808169123 -3 0 -6
315 1 1 0.5897 5.385497217373023 11.380160852297047 20.15406950887511 3 -1 -1
528 1 1 0.5897 9.082219791883938 9.513149905484097 16.854257038074678 -3 -6 2
859 1 2 -1.1794 7.9048852262750176 13.769768925467158 3.969771430419965 -6 0 3
840 1 1 0.5897 5.303643083808728 12.646230468662349 3.724133214451378 -8 -3 -4
374 1 1 0.5897 8.592163862474447 16.2163890492401 5.155775233929544 1 6 -3
563 1 1 0.5897 5.948417264687813 14.751355816083558 2.0388090980816704 1 2 4
562 1 2 -1.1794 5.88171920495053 15.705757420123101 2.0701784897603686 1 2 4
838 1 2 -1.1794 5.261985057322915 12.813487469934032 2.782551912034637 -8 -3 -4
839 1 1 0.5897 5.418764373250414 11.959331243536198 2.379897360214187 -8 -3 -4
861 1 1 0.5897 8.417024234765922 12.96803174478617 4.075656014544574 -6 0 3
860 1 1 0.5897 7.167452374394079 13.512167144322952 3.416510516195954 -6 0 3
369 1 1 0.5897 6.8786212461915355 14.071983931164244 5.601740386523675 4 2 -6
564 1 1 0.5897 6.706320176100925 15.99117114157072 2.4637558458408964 1 2 4
368 1 1 0.5897 5.579607610646051 14.819061087076149 5.8171063734554505 4 2 -5
419 1 1 0.5897 7.0746985528287105 15.761919088100663 8.957280447049522 -14 -1 4
647 1 1 0.5897 6.481204060131177 16.423881419704664 6.326719734793978 -5 -2 -2
144 1 1 0.5897 8.657295259881 14.2343584625852 8.680802699662653 -5 -1 3
775 1 2 -1.1794 8.048801762363475 12.462356478366429 9.898027998868816 3 -3 2
777 1 1 0.5897 7.399263175144382 12.319324283166436 9.209629156792653 3 -3 2
771 1 1 0.5897 6.292293358289877 13.044995888608838 7.626071451601068 3 2 1
418 1 2 -1.1794 6.2195473897329006 16.18210109500917 9.049072516211497 -14 -1 4
185 1 1 0.5897 5.277984014082322 16.296520558269613 10.678012147269694 -3 8 3
143 1 1 0.5897 8.610733885454454 15.377820075687975 7.689690680048536 -5 -1 3
367 1 2 -1.1794 6.388596192434349 14.563932613210035 6.260613144910069 4 2 -5
770 1 1 0.5897 5.476751123940938 11.998480506107803 8.35522680261651 3 2 1
769 1 2 -1.1794 6.322602055157462 12.13756732840782 7.9292548669067795 3 2 1
142 1 2 -1.1794 8.682279861699756 15.189645758364017 8.62550156923374 -5 -1 3
321 1 1 0.5897 5.165081942729404 13.496248426161449 10.714201979353717 2 -1 -4
713 1 1 0.5897 6.157984773223714 13.615713124309606 14.596906459060449 -9 -3 2
297 1 1 0.5897 7.451643792971998 13.794259546857305 11.61201181654862 4 3 2
712 1 2 -1.1794 7.013893030897048 14.032064322549479 14.698623110975033 -9 -3 2
834 1 1 0.5897 7.302362663952941 16.227241264567176 11.769889301719077 1 -4 3
714 1 1 0.5897 7.007128669865931 14.379823109218938 15.59040469676499 -9 -3 2
296 1 1 0.5897 6.787357734259332 14.189297084278051 12.913796895811448 4 3 2
380 1 1 0.5897 7.981807292473655 12.48033122994186 13.911366043729032 9 2 3
295 1 2 -1.1794 6.752975924131695 14.342268543200154 11.96950425170526 4 3 2
457 1 2 -1.1794 5.02929495829412 12.139453893387824 13.827402872264727 -4 -2 -1
357 1 1 0.5897 6.056928711403313 16.672965290907705 14.80464017141919 -4 -1 5
773 1 1 0.5897 7.1810063290948785 16.068883727699223 19.836546073063587 5 0 1
742 1 2 -1.1794 8.38064052279536 12.733058423264701 17.821547584721458 -5 -1 6
408 1 1 0.5897 6.249612469098237 14.785881509822646 17.592522164068114 -5 -3 2
772 1 2 -1.1794 7.931397292637137 15.817306076089624 20.374948550018246 5 0 1
406 1 2 -1.1794 7.150889622494555 15.054622718471512 17.41437668007522 -5 -3 2
655 1 2 -1.1794 7.521385921050664 13.37994543259516 21.171578021822192 -2 6 -6
656 1 1 0.5897 6.87905071810082 13.069889173623345 20.533199244765953 -2 6 -6
637 1 2 -1.1794 4.9516118737286074 16.253320086235362 19.803427139175135 -10 -4 4
792 1 1 0.5897 8.307890425728917 16.657847941940716 17.392065494546202 0 2 -2
407 1 1 0.5897 7.675256342771729 14.276605113074575 17.604120328391808 -5 -3 2
657 1 1 0.5897 7.574949406149507 14.323464703749112 21.019271779819775 -1 6 -6
663 1 1 0.5897 5.417780765015798 12.688999704735961 16.80569930932081 1 -6 -2
313 1 2 -1.1794 5.489335287324689 12.186511537860111 19.648795524087575 3 -1 -1
314 1 1 0.5897 5.734833017712773 11.890528846320139 18.77222114133155 3 -1 -1
743 1 1 0.5897 9.08816213266654 12.407754399071763 17.264912266947313 -5 -1 6
774 1 1 0.5897 7.956980604610608 16.472648808202308 21.07217541934449 5 0 1
744 1 1 0.5897 8.08779849235071 11.96446152124305 18.31119469250475 -5 -1 6
632 1 1 0.5897 6.34662017384138 19.62765172316748 4.968017001823992 1 -1 4
845 1 1 0.5897 7.668960776384904 17.819527822105293 3.626780452998636 2 -1 2
631 1 2 -1.1794 6.340025587158683 19.1273370094342 4.151994729538179 1 -1 4
844 1 2 -1.1794 8.144139652956447 16.998522403079658 3.4986970979410486 2 -1 2
633 1 1 0.5897 6.1324247467859045 19.77288648962456 3.4763729804324766 1 -1 4