LAMMPS data file via write_data, version 30 Jul 2021, timestep = 20000000

864 atoms
2 atom types
576 bonds
1 bond types
288 angles
1 angle types

0.4903131264499976 17.71725927354971 xlo xhi
1.6690553679289906 21.960122432068673 ylo yhi
0.5981808690258248 21.615014930986526 zlo zhi

Masses

1 1.00794
2 15.9994

Pair Coeffs # lj/cut/tip4p/long/omp

1 0 0
2 0.21084 3.1668

Bond Coeffs # harmonic/omp

1 450 0.9572

Angle Coeffs # harmonic/omp

1 55 104.52

Atoms # full

279 1 1 0.5897 2.4793904785830816 4.272240791423304 5.07016114369073 0 3 4
277 1 2 -1.1794 3.1791907433454623 3.7310158129048783 4.704628800353001 0 3 4
87 1 1 0.5897 2.3903476097164154 6.49411116668427 1.9456197134573179 -2 6 3
278 1 1 0.5897 2.8920135375769966 3.538027976901711 3.8121294128509655 0 3 4
731 1 1 0.5897 4.062492326141693 2.3416942589609926 5.257010059837695 1 5 -2
26 1 1 0.5897 2.05040924196218 2.2697814992731336 2.364230934118886 4 4 6
27 1 1 0.5897 3.4633054382658393 2.679346088278626 2.006562178610309 4 4 6
25 1 2 -1.1794 2.5857077770381545 3.0337580425327877 2.14961872889823 4 4 6
691 1 2 -1.1794 0.8639176571997986 1.6973752806413385 5.301161231188798 3 2 4
86 1 1 0.5897 1.6097810604328022 5.325075876534669 1.383478284874798 -2 6 3
108 1 1 0.5897 4.374885914623667 5.143023202263272 5.096744440349237 -3 2 4
85 1 2 -1.1794 2.275068153408319 5.972876042650055 1.15109873848573 -2 6 3
106 1 2 -1.1794 4.6576645100983125 5.978494680778363 5.468581735579501 -3 2 4
30 1 1 0.5897 1.493398922685509 6.347231314487102 5.678178466692287 -9 2 7
28 1 2 -1.1794 1.2683732822817095 5.4217723839918275 5.5824728320633845 -9 2 7
789 1 1 0.5897 1.1854087219197813 2.799243003601535 8.428849368933196 2 -4 5
9 1 1 0.5897 2.8762007279670163 4.608664140440517 10.376391291728007 3 2 0
29 1 1 0.5897 0.5950303034899895 5.268737770233016 6.245370832809561 -9 2 7
40 1 2 -1.1794 3.6370182338552266 6.401451930651653 7.992833912382206 3 -3 3
788 1 1 0.5897 2.5384908560485453 3.437512680084952 8.196901071354254 2 -4 5
23 1 1 0.5897 1.0639700022462504 2.6931270274966774 11.056087845507236 -5 4 0
692 1 1 0.5897 1.3910596724438657 2.1918998692691574 5.928703858739691 3 2 4
787 1 2 -1.1794 1.8793823437948907 2.8860269725198338 7.775299808875919 2 -4 5
7 1 2 -1.1794 3.550621083728172 4.41168471742378 9.726282243678924 3 2 0
42 1 1 0.5897 3.9593686075664407 6.240989130398687 7.105934200941676 3 -3 3
22 1 2 -1.1794 0.5394413378635551 2.8210912291740753 10.265676902384287 -5 4 0
780 1 1 0.5897 1.1772418870801307 6.2119463372590165 10.168285231476913 -1 -1 -2
778 1 2 -1.1794 1.0550394516818717 6.666708508976134 9.334914176445405 -1 -1 -2
8 1 1 0.5897 3.574376315310576 5.185357663339483 9.163161864652167 3 2 0
779 1 1 0.5897 1.756467621992737 6.334065661303855 8.774906652531989 -1 -1 -2
90 1 1 0.5897 3.837285161545318 4.607050110839037 16.306385360673207 9 -3 5
506 1 1 0.5897 2.858361407830135 5.958305528875599 12.40567940788958 6 -1 -4
864 1 1 0.5897 1.2905463054043262 2.831673715907554 13.013824035508211 2 -1 -1
862 1 2 -1.1794 1.8208964568091257 2.239350535160307 12.480785589725892 2 -1 -1
507 1 1 0.5897 1.692346004245216 4.9933460167936605 12.439950331561926 6 -1 -4
688 1 2 -1.1794 0.7984278921066945 4.478204062465592 14.164734802516985 4 -1 2
863 1 1 0.5897 2.720605925073682 2.538211521459311 12.612897507510068 2 -1 -1
88 1 2 -1.1794 2.9694692399815814 4.326247903259203 16.016066188385274 9 -3 5
690 1 1 0.5897 1.5455589963836696 4.679934070540556 14.72808284058671 4 -1 2
63 1 1 0.5897 4.389960060816315 6.3002424653765745 14.298100764758262 -1 5 3
505 1 2 -1.1794 2.1158887742716512 5.649473958646181 11.886433054037315 6 -1 -4
61 1 2 -1.1794 4.515032800017437 6.043517829273356 13.384480377305527 -1 5 3
225 1 1 0.5897 2.602286654964611 2.322622356459874 15.88563648938095 7 5 -7
585 1 1 0.5897 4.368475254422723 4.184797183743006 12.986792995583354 4 1 3
583 1 2 -1.1794 4.365195132916744 3.2276935590975384 12.973361346341823 4 1 3
435 1 1 0.5897 4.612692431427977 1.8229336468906865 11.76816465551273 -3 2 -4
232 1 2 -1.1794 3.361220244232748 2.606614798856052 19.095881345789397 0 4 0
303 1 1 0.5897 4.508725720300921 5.486436051140178 20.053705186853218 0 3 4
658 1 2 -1.1794 0.8406068604899968 3.5341908417640093 18.006057640080957 1 -1 -1
233 1 1 0.5897 3.5463487505374047 3.348400375863638 19.671849244579775 0 4 0
89 1 1 0.5897 2.379972532522579 4.605887092876982 16.71645101016831 9 -3 5
234 1 1 0.5897 2.5153897173862476 2.815760077199498 18.699521026529798 0 4 0
301 1 2 -1.1794 4.310600864087849 4.675169418563132 20.521517294514545 0 3 4
302 1 1 0.5897 3.7762100131682885 4.95178212313648 21.265933211641645 0 3 4
660 1 1 0.5897 0.6723044659569047 4.40776363879171 18.3593475396221 1 -1 -1
678 1 1 0.5897 1.9147491076670162 1.9526646060519854 20.300273884297777 -1 -1 -3
75 1 1 0.5897 4.280261476081198 1.723780331098601 20.369534523448884 3 -3 0
160 1 2 -1.1794 1.918907149996391 9.908224401216028 1.9348099901262985 1 5 2
289 1 2 -1.1794 3.786728852592082 8.52872656045241 4.374146840306412 -8 -5 -11
162 1 1 0.5897 1.2139327786924765 9.449091308693447 1.4782501881803443 1 5 2
570 1 1 0.5897 2.342616764288115 8.343694006299732 5.27377479192121 4 -1 -1
819 1 1 0.5897 3.6466140000703637 9.626647933368698 1.9019669052393666 4 0 4
161 1 1 0.5897 1.4906857997420757 10.66138419167607 2.341769098729679 1 5 2
569 1 1 0.5897 0.8576062231681015 8.538932355691138 5.494150822515497 4 -1 -1
290 1 1 0.5897 4.097839608291405 8.802826701026156 3.5114071108951044 -8 -5 -11
817 1 2 -1.1794 4.5958907238441675 9.51736328686125 1.9583911175317248 4 1 4
291 1 1 0.5897 4.0351137906002155 7.606447038914532 4.436962416264415 -8 -5 -11
198 1 1 0.5897 4.738120150462813 11.179265997681226 3.153771831536193 0 -6 -1
379 1 2 -1.1794 1.1858549450382951 10.053044075153878 7.552026815219442 10 4 -2
227 1 1 0.5897 0.8024658242188301 11.274588657733892 6.180598959309855 4 -2 1
80 1 1 0.5897 1.7600317306074875 10.855302940376689 10.55156048404969 1 -1 -2
79 1 2 -1.1794 2.474451095039922 10.33271735266571 10.187206960889178 1 -1 -2
18 1 1 0.5897 4.5496734731684665 8.413499498026058 10.617932717632765 2 3 0
380 1 1 0.5897 1.5897419136770041 9.377895156575534 7.006761582350635 10 4 -2
81 1 1 0.5897 2.169601241104913 10.084985616780633 9.31431385729672 1 -1 -2
456 1 1 0.5897 4.517625179841328 11.772660248596548 7.795199921340078 -2 0 2
568 1 2 -1.1794 1.6245678982098732 8.094801918735634 5.855761050625933 4 -1 -1
17 1 1 0.5897 4.788714810177437 9.206814530351666 9.350849472257798 2 3 0
41 1 1 0.5897 4.2641845251097905 7.019670590484688 8.367952679269736 3 -3 3
307 1 2 -1.1794 0.8002079819497947 11.798721898354046 12.456170745433848 3 5 -2
771 1 1 0.5897 1.5440690245544535 11.062482267647031 13.790225141857748 3 0 -2
65 1 1 0.5897 4.41453107376489 8.147738183842115 15.916730980181677 5 2 -4
298 1 2 -1.1794 3.6240721230503463 9.246470499380104 12.45536491806855 -5 -1 0
770 1 1 0.5897 2.4718243388288705 9.873310003764399 13.659068847782786 3 0 -2
299 1 1 0.5897 3.1605840027559196 9.612450440234802 11.702054353431516 -5 -1 0
552 1 1 0.5897 1.2102259288318358 9.528368173009286 15.624276289692995 -1 2 -4
769 1 2 -1.1794 1.9448169554744905 10.355611625870894 14.296195304193553 3 0 -2
64 1 2 -1.1794 4.203127403670239 7.215704484691852 15.9705136233944 5 2 -4
347 1 1 0.5897 1.0264844221836649 7.761155432356691 12.404747886022893 1 4 0
146 1 1 0.5897 4.5832808982960325 10.545479614092313 14.96012116820503 -1 3 -6
300 1 1 0.5897 4.460597989689706 9.711447700882568 12.47152119486953 -5 -1 0
66 1 1 0.5897 3.277614910528149 7.193162176441879 16.213811378741767 5 2 -4
368 1 1 0.5897 2.5919288355447825 8.356361375515913 19.83863850555269 0 10 -2
546 1 1 0.5897 4.6254145169926 10.452567173508594 17.17978509703781 -3 5 5
246 1 1 0.5897 3.076427456851548 10.351431917085995 19.33794938615041 2 4 -1
795 1 1 0.5897 1.5866910045328133 7.8758359734536265 16.937246127841572 -2 1 5
218 1 1 0.5897 4.305957022636628 7.204063871837942 18.956346285017037 3 2 -1
544 1 2 -1.1794 4.393372087224723 10.608005067097091 18.09534063545123 -3 5 5
244 1 2 -1.1794 2.3177528143608064 10.122638251193088 19.874890141532255 2 4 -1
369 1 1 0.5897 2.326639567122066 6.971047610215761 20.388589686225092 0 10 -3
551 1 1 0.5897 0.7705557794079856 10.101393619009379 16.954815615121372 -1 2 -4
367 1 2 -1.1794 2.7987578685135075 7.432756915857558 19.695628071905617 0 10 -2
545 1 1 0.5897 4.251232639376999 11.553034740763199 18.14978878024069 -3 5 5
245 1 1 0.5897 2.2803188743167198 10.808141311946315 20.54191890246924 2 4 -1
550 1 2 -1.1794 0.7560015175689726 9.297923937964388 16.4347414731901 -1 2 -4
793 1 2 -1.1794 1.8280967651551032 7.007012034233001 17.258400839562793 -2 1 5
794 1 1 0.5897 2.2098352303611737 7.167665257724684 18.12136446443858 -2 1 5
437 1 1 0.5897 1.8699435387457066 12.833647794032153 2.3732411088408623 -3 7 3
436 1 2 -1.1794 2.6392574863193543 12.897113616750165 1.8072246202291502 -3 7 3
453 1 1 0.5897 0.9659913511836705 15.065606113652704 1.9601813398336059 -1 -2 7
152 1 1 0.5897 3.977175160164713 12.92863385740589 4.798279917681395 -1 -4 0
438 1 1 0.5897 3.364288920454819 12.591830035424918 2.3525626031832854 -3 7 3
226 1 2 -1.1794 0.867280209998326 12.069709363897074 5.651616572742133 4 -2 1
151 1 2 -1.1794 3.4540942425791368 13.369071810918568 5.468101930222562 -1 -4 1
707 1 1 0.5897 2.7237311171781653 15.770072226112047 3.1729216110867022 -2 -5 -4
708 1 1 0.5897 3.9343740570313295 15.713417536475509 4.080155216034244 -2 -5 -4
706 1 2 -1.1794 3.6212741872496745 16.09155888756092 3.2584380836134668 -2 -5 -4
196 1 2 -1.1794 4.5941780666401435 12.100160292499014 3.3716566772012624 0 -6 -1
228 1 1 0.5897 1.750873473224021 12.397732815459134 5.818669653346109 4 -2 1
451 1 2 -1.1794 0.8337904267088426 15.39065787567324 2.8507537076021894 -1 -2 7
578 1 1 0.5897 0.5620010886554709 11.996383825585387 3.8759955455827155 5 -1 -1
452 1 1 0.5897 0.6887727111454723 16.330780416867725 2.7440352060314988 -1 -2 7
488 1 1 0.5897 4.78204945650749 15.275742965952151 1.7655651510167625 -1 -4 5
503 1 1 0.5897 4.481370152304603 14.831119246415954 5.845685407941953 -6 2 4
504 1 1 0.5897 4.062063338143856 16.28523600759212 5.804587154246196 -6 2 4
614 1 1 0.5897 3.881870864893977 11.934223646470041 10.729355576439854 -5 -1 4
535 1 2 -1.1794 1.4847201558147978 13.236566005178728 9.233301324016406 5 5 4
537 1 1 0.5897 1.5333519755966658 14.042246863033132 8.718757619841151 5 5 4
153 1 1 0.5897 3.8510173374390275 13.101446336170243 6.296998198643878 -1 -4 1
593 1 1 0.5897 1.9047771217738134 16.03139683119887 7.3481381864039825 -3 -3 -1
259 1 2 -1.1794 4.321017964540562 14.826011860949368 9.783635040443933 3 -2 3
536 1 1 0.5897 2.1084458562979567 12.644950015610682 8.812344929103066 5 5 4
454 1 2 -1.1794 3.823346619111006 12.41355959589598 7.948384560734428 -2 0 2
592 1 2 -1.1794 1.242541317165213 15.440270871162372 7.706297317129716 -3 -3 -1
261 1 1 0.5897 4.3918806397440475 15.767255358796632 9.624644985520659 3 -2 3
455 1 1 0.5897 4.265562740629122 13.150172951561036 8.370397556495053 -2 0 2
594 1 1 0.5897 0.7658477099043419 15.121346776117182 6.939927658775078 -3 -3 -1
661 1 2 -1.1794 3.540077554282989 16.037719366692667 15.52269259973351 -3 -4 -2
406 1 2 -1.1794 2.204080390844852 13.808305774726913 14.656357966008121 -5 -2 2
663 1 1 0.5897 3.0094440748349562 15.24162058078596 15.492705168903486 -3 -4 -2
662 1 1 0.5897 4.20173790991422 15.91084554538887 14.842694495588718 -3 -4 -2
832 1 2 -1.1794 4.539826077170998 12.138984434524636 14.043997238830446 2 -1 -3
408 1 1 0.5897 1.9666149146273786 14.149117494906621 13.793979819489607 -5 -2 2
407 1 1 0.5897 2.944222347856348 13.225004992252055 14.488405456527019 -5 -2 2
138 1 1 0.5897 3.9532894588855703 15.561350355292516 12.121633821767023 6 -10 3
655 1 2 -1.1794 1.7545101712012734 14.202293808469117 11.984759303910879 -1 3 -1
308 1 1 0.5897 1.0560191308686613 12.691905060169132 12.225883074513732 3 5 -2
136 1 2 -1.1794 4.52858919225381 15.934516178008822 12.789527178442695 6 -10 3
657 1 1 0.5897 1.0103227185116204 14.803398615070149 11.951200336999689 0 3 -1
613 1 2 -1.1794 4.09623540237504 12.508535309770368 11.464516163716421 -5 -1 5
834 1 1 0.5897 4.452264578672689 12.193942689045862 13.092386755548555 2 -1 -3
804 1 1 0.5897 0.644871928866344 13.13152848442469 14.982573422348924 7 -1 -2
485 1 1 0.5897 2.1432910576736397 16.670109303648182 14.171093360455405 -3 0 -4
137 1 1 0.5897 4.397387961191603 16.880008608081926 12.718245436814037 6 -10 3
615 1 1 0.5897 3.8131787425511523 13.377712914506068 11.180525195957085 -5 -1 5
656 1 1 0.5897 1.7794256736324032 13.80241906585414 11.115431803630196 -1 3 -1
448 1 2 -1.1794 1.2678002205372092 14.677526735677267 21.168519659261246 6 1 -2
34 1 2 -1.1794 0.6191555906632171 12.099561351094813 17.540749996485893 -2 0 0
208 1 2 -1.1794 2.108898924388292 14.286938852844042 18.412570106490797 -1 -2 1
209 1 1 0.5897 1.9814547920788412 14.3393679049048 19.35982093072718 -1 -2 1
210 1 1 0.5897 3.036373723650877 14.075238457184627 18.30655217192418 -1 -2 1
387 1 1 0.5897 4.061058332647727 16.1789944255081 20.921943042564052 -6 -3 0
449 1 1 0.5897 1.959310786257695 15.31959427344448 21.007858633500877 6 1 -2
826 1 2 -1.1794 4.6864736472080395 13.377299154777026 17.65770158878351 1 -2 3
91 1 2 -1.1794 4.569897821845343 12.755988093332281 20.873760444005597 2 -8 0
35 1 1 0.5897 1.1138289557964276 12.853856972842166 17.861045953426796 -2 0 0
386 1 1 0.5897 3.639842621858971 16.387730436625638 19.482856152184542 -6 -3 0
385 1 2 -1.1794 3.3263905936488283 16.47286700608032 20.383267727174765 -6 -3 0
762 1 1 0.5897 1.3463903895135 15.98200652489416 17.61330817098161 0 -6 0
760 1 2 -1.1794 0.85929787211425 16.803493470511498 17.677685951145072 0 -6 0
92 1 1 0.5897 3.8932132965271675 12.795596937260683 21.549630380682842 2 -8 0
173 1 1 0.5897 4.203016219557451 16.816268261558033 17.101438798891156 7 4 -3
450 1 1 0.5897 1.721069745381646 13.928328340451085 21.555157153480682 6 1 -2
835 1 2 -1.1794 3.8731624902552624 18.884818794633716 2.958206082894753 -1 3 1
325 1 2 -1.1794 2.724434738545155 19.877888451841947 5.231043411258346 3 -3 -2
837 1 1 0.5897 3.751276495839402 17.939068111716512 3.041617092105546 -1 3 1
836 1 1 0.5897 3.4519578150471766 19.108800064105196 2.128345984165872 -1 3 1
326 1 1 0.5897 3.07805796287003 19.58493210470656 4.391182447950583 3 -3 -2
693 1 1 0.5897 1.3839899967004432 21.206889507665377 5.114136811827824 3 1 4
327 1 1 0.5897 3.3350552429761136 20.55344809310421 5.5260216617760785 3 -3 -2
797 1 1 0.5897 0.7935504098164281 20.12693391529714 2.5787631607691717 2 -7 -4
798 1 1 0.5897 1.2021801433824124 21.0781735642693 1.4741880717967155 2 -7 -4
796 1 2 -1.1794 0.9588423106261241 21.052579152818637 2.399591384669785 2 -7 -4
740 1 1 0.5897 1.8484622333881136 17.549214065966538 5.598227577633214 0 -1 2
730 1 2 -1.1794 4.495070847565051 21.938767517696245 5.754548511441599 1 4 -2
858 1 1 0.5897 2.922516223542603 18.24668714783811 10.649317872785069 -1 -2 -2
401 1 1 0.5897 4.433647242511569 19.518689494101007 7.463564130811816 -4 0 5
268 1 2 -1.1794 3.309982844579538 20.813312556013404 8.656729135132096 -2 1 7
254 1 1 0.5897 1.803252359626728 20.110257071684398 8.276017107366641 5 5 -8
270 1 1 0.5897 3.3074273223670314 21.739317652301136 8.414243302373901 -2 1 7
741 1 1 0.5897 3.111384713321205 18.025174539535488 6.2842251375048646 0 -1 2
520 1 2 -1.1794 4.796949751731635 17.55846839412472 9.919107339429896 -1 0 0
269 1 1 0.5897 3.504118147275398 20.811249701947663 9.594052020255347 -2 1 7
253 1 2 -1.1794 0.9686163354685862 19.64210743179244 8.254254057828064 5 5 -8
739 1 2 -1.1794 2.6525364835780625 17.231437688032436 6.009052369050922 0 -1 2
857 1 1 0.5897 1.4348420225550194 17.98049177176037 10.560475786360154 -1 -2 -2
755 1 1 0.5897 3.214298452651174 20.176799693314162 15.344173967865292 -4 -4 0
756 1 1 0.5897 3.0176736529386043 18.81261605608303 14.717841101617736 -4 -4 0
224 1 1 0.5897 1.4138929664673274 21.88577251115767 15.294212551768137 7 4 -7
494 1 1 0.5897 0.6137780221814564 18.481502594894952 14.684786924449833 -3 -2 -1
754 1 2 -1.1794 3.6723718050138543 19.358180494299877 15.15372059352689 -4 -4 0
223 1 2 -1.1794 2.210986125358435 21.74385491524459 15.804865210989755 7 4 -7
484 1 2 -1.1794 1.7764805753517126 17.520888436155232 13.930491574108117 -3 0 -4
99 1 1 0.5897 1.129267654232227 19.64362913454654 11.8429521375319 4 -3 8
486 1 1 0.5897 1.9338395404577786 17.592484235562033 12.98901751354645 -3 0 -4
98 1 1 0.5897 0.7122520623720955 20.876246003583734 12.616735230878039 4 -3 8
856 1 2 -1.1794 2.098296629166123 18.393086562963408 11.113505310270561 -1 -2 -2
600 1 1 0.5897 4.704775250613615 19.119907743534863 13.708686709168532 -1 -3 -6
433 1 2 -1.1794 4.472919638644735 21.361849840858568 11.192807438171103 -3 1 -4
676 1 2 -1.1794 1.2028496652672236 21.676918043805777 20.597227900831555 -1 -2 -3
358 1 2 -1.1794 1.604021030431469 20.300811034703962 18.17123251107959 4 0 -3
172 1 2 -1.1794 4.467545017752334 17.147970768236767 17.959482492697845 7 4 -3
165 1 1 0.5897 3.1542566057762986 18.231516417866345 21.263403027992297 -4 -1 -1
360 1 1 0.5897 1.3205024697461911 20.846758351792893 18.90458016940179 4 0 -3
212 1 1 0.5897 4.070562015467992 19.429810104680925 19.63678281951747 4 1 2
359 1 1 0.5897 1.8702460021952985 20.92505654390413 17.496180141281116 4 0 -3
163 1 2 -1.1794 3.0008630458100054 19.15190293149965 21.04985752041441 -4 -1 -1
164 1 1 0.5897 2.158462818641264 19.15563896377548 20.5953317703874 -4 -1 -1
761 1 1 0.5897 1.5280489727169162 17.48497412530471 17.60986012372025 0 -6 0
73 1 2 -1.1794 4.369060151078338 21.66330541292565 21.255408676201444 3 -4 0
74 1 1 0.5897 3.925629580220984 20.815627048059618 21.22278881925657 3 -4 0
527 1 1 0.5897 7.537785592156176 6.18703134530166 5.356239766431207 -4 -5 3
841 1 2 -1.1794 6.140226598267082 4.387315146746575 1.7011504578138088 -2 -2 3
67 1 2 -1.1794 5.32665368627665 2.0031504702575997 2.697769733762078 2 -4 -3
842 1 1 0.5897 5.804099725974337 4.335358985877187 0.8064101965885769 -2 -2 3
69 1 1 0.5897 5.642878039889814 2.897227459056949 2.5678629756469054 2 -4 -3
107 1 1 0.5897 5.613576323540504 5.92883734353384 5.470985315835876 -3 2 4
653 1 1 0.5897 8.02933441741271 4.593615675994465 2.241381644413093 -2 1 -2
654 1 1 0.5897 8.50880782307197 5.2838816806333835 3.500597253439515 -2 1 -2
843 1 1 0.5897 6.0284195394259354 5.305744371946789 1.9465638773391658 -2 -2 3
652 1 2 -1.1794 8.813310931773053 4.955350960532924 2.654658196976993 -2 1 -2
526 1 2 -1.1794 7.221953930193695 5.3722188696531425 4.965584888671655 -4 -5 3
528 1 1 0.5897 7.749841723442192 4.688159321081442 5.377483930255217 -4 -5 3
637 1 2 -1.1794 9.09932415943099 2.3367624455785916 3.0861343182482175 -6 2 3
68 1 1 0.5897 5.138278162186557 1.6845810112353057 1.8150032533448364 2 -4 -3
508 1 2 -1.1794 6.33594201414047 4.14800245999249 9.874509907261688 0 -1 3
801 1 1 0.5897 9.044613178025939 3.6100610572733896 11.055295413516843 -2 -1 7
628 1 2 -1.1794 6.661570149174295 6.646909611914743 8.762872297182222 -3 -4 4
630 1 1 0.5897 6.540980644406928 5.80680090104434 9.205528067019022 -3 -4 4
328 1 2 -1.1794 8.799185734878288 3.8939079476652543 6.766218831303015 1 7 1
510 1 1 0.5897 6.4294403907080735 3.644654367161005 9.065701923111622 0 -1 3
509 1 1 0.5897 5.3907905790809485 4.200528819335927 10.016595236149541 0 -1 3
442 1 2 -1.1794 6.152526867515921 2.8422229922442503 7.673190898490861 5 7 -2
444 1 1 0.5897 5.6058539715302045 2.377360012386152 7.039713793987053 5 7 -2
443 1 1 0.5897 6.809692651484541 3.2898250006126117 7.140247950980211 5 7 -2
413 1 1 0.5897 5.694958361968164 3.602984438501699 16.029177557511915 7 2 1
799 1 2 -1.1794 8.316692208391682 3.06421369462612 11.352668106369878 -2 -1 7
62 1 1 0.5897 5.325110427296882 6.4802285251397365 13.121229948694307 -1 5 3
651 1 1 0.5897 6.943366451019677 5.669110294692181 15.461285480400766 0 -1 -3
650 1 1 0.5897 7.308761480217383 6.399796639001415 14.186716849230628 0 -1 -3
77 1 1 0.5897 8.987290780438219 2.6572604400999853 15.182070876328565 -4 -6 -2
584 1 1 0.5897 4.910917519074484 2.9753567679485684 13.718182127844896 4 1 3
513 1 1 0.5897 8.797666625671983 3.785050830826501 13.146503021560342 1 1 -5
649 1 2 -1.1794 7.494546318942112 6.375966848028756 15.125420015623831 0 -1 -3
352 1 2 -1.1794 5.908932795704751 2.1399255686365874 15.124864742110942 7 5 -5
412 1 2 -1.1794 5.709321215660009 4.528608136750864 16.272605921661334 7 2 1
353 1 1 0.5897 5.642728634154244 1.726277179117766 15.946005702591137 7 5 -5
354 1 1 0.5897 6.766485189607599 1.7608373888170554 14.932152008997159 7 5 -5
800 1 1 0.5897 7.5327589785088005 3.560037970373231 11.116333366336871 -2 -1 7
181 1 2 -1.1794 7.937102665005672 1.8973934935482877 19.82438408853653 -6 3 0
176 1 1 0.5897 6.818685865684322 4.674499083720953 19.394806422956872 0 -4 6
175 1 2 -1.1794 7.1283641046868675 4.144507642093766 18.660302727256106 0 -4 6
177 1 1 0.5897 7.242495113668187 3.2681553279230515 19.028031095915537 0 -4 6
465 1 1 0.5897 4.843298352713778 1.9985889155680274 18.005253063912974 3 3 -1
414 1 1 0.5897 6.178128074841877 4.550100654915119 17.106897463351288 7 2 1
122 1 1 0.5897 8.922348203619393 4.7415218612551575 19.042164720732305 1 2 -2
556 1 2 -1.1794 8.478411029279329 8.17091454064715 3.4306500638787036 2 3 3
818 1 1 0.5897 4.90601999265508 9.646491113339744 1.0620660299743863 4 1 4
420 1 1 0.5897 7.220489509177269 10.757111611409348 4.086620409814346 -10 -3 6
683 1 1 0.5897 5.806661424061081 8.164067862322996 1.7777448171012697 4 0 -7
682 1 2 -1.1794 6.292533334654757 7.339334461309961 1.7764914083306858 4 0 -7
222 1 1 0.5897 5.327889026955127 9.382643665540225 5.009375606229649 0 -6 5
558 1 1 0.5897 8.633786861181616 9.104209450148701 3.5757979135051556 2 3 3
418 1 2 -1.1794 7.896213282942984 11.183142759567266 3.559223942288623 -10 -3 6
684 1 1 0.5897 6.932095287579853 7.436503632042771 2.4820128491868596 4 0 -7
220 1 2 -1.1794 6.21083061415158 9.735256994760002 5.1203840112103745 0 -6 5
221 1 1 0.5897 6.717758380485955 9.00538858213394 5.4761312714365 0 -6 5
596 1 1 0.5897 9.082725725864583 11.008236029634757 0.9624072730908775 4 -7 0
581 1 1 0.5897 8.140376885715487 10.975903617552138 9.121915604146745 -4 -4 2
580 1 2 -1.1794 7.401851166159978 11.221146274964847 9.679320803330839 -4 -4 2
169 1 2 -1.1794 7.368604103659062 7.690678523967245 6.3711455314819565 -4 5 -3
170 1 1 0.5897 7.150497469557533 7.2844627790909415 7.209988069489053 -4 5 -3
440 1 1 0.5897 5.928097880419396 10.278429059075021 7.010521290732508 0 -3 -2
441 1 1 0.5897 6.110017828729245 10.762627268022843 8.433362909789345 0 -3 -2
171 1 1 0.5897 8.225000800391923 8.093357812105026 6.514964745139055 -4 5 -3
439 1 2 -1.1794 5.4624936692073005 10.381076996611363 7.84055794865144 0 -3 -2
262 1 2 -1.1794 8.871985246077674 6.854502939798809 10.666282212265896 -1 -4 6
629 1 1 0.5897 6.098751319103429 7.254198078844642 9.243157742545977 -3 -4 4
16 1 2 -1.1794 4.877137147006556 8.32911481770677 9.722425166670554 2 3 0
264 1 1 0.5897 8.04933173649626 6.987872006747306 10.19543976297078 -1 -4 6
646 1 2 -1.1794 7.660307933371526 9.467281147511912 15.147415523668 -9 -1 2
240 1 1 0.5897 6.839055456449535 8.193580609479543 12.478688509710404 -4 -5 -2
647 1 1 0.5897 7.7146668940533125 8.514339413445706 15.219523791171216 -9 -1 2
685 1 2 -1.1794 6.46649063881147 10.061656959790728 11.971116329682662 7 -7 -4
687 1 1 0.5897 6.682653080173629 10.801654768163667 12.538512009639236 7 -7 -4
462 1 1 0.5897 8.963474357182639 9.487091712879735 13.408266298191853 3 2 -2
147 1 1 0.5897 5.774982055118643 9.648648808431322 15.220042928277193 -1 3 -6
239 1 1 0.5897 7.678297630052269 7.023221320877475 12.011852153782868 -4 -5 -2
145 1 2 -1.1794 4.908122859150451 9.87270608083034 15.558573052615147 -1 3 -6
648 1 1 0.5897 7.348710707008586 9.755492090538464 16.005367200835458 -9 -1 2
238 1 2 -1.1794 6.912818425600099 7.241426300945711 12.543570443617176 -4 -5 -2
671 1 1 0.5897 8.924814455418783 6.834697546342295 16.160575472787514 5 2 -1
686 1 1 0.5897 6.81946112014424 10.304485891102951 11.115116005983941 7 -7 -4
673 1 2 -1.1794 5.982206917556657 10.412003612790235 20.646284151014562 -5 -2 -6
248 1 1 0.5897 8.647528326511129 7.768136927038014 19.48784931454016 -8 3 -2
390 1 1 0.5897 6.94081259318304 7.196009681736565 20.914686624125395 1 6 2
565 1 2 -1.1794 7.244894600124397 10.098686791276227 17.861259384965987 -1 7 -7
567 1 1 0.5897 7.851970699061668 9.588090162066196 18.396978765012665 -1 7 -7
595 1 2 -1.1794 8.85323074565994 10.561000223689401 21.1646528340958 3 -7 -1
566 1 1 0.5897 6.432754737478812 10.114319513161067 18.367670399377555 -1 7 -7
675 1 1 0.5897 5.720290053070713 11.329553330033661 20.57035305627946 -5 -2 -6
674 1 1 0.5897 6.904673775025739 10.445948998388209 20.899581649970393 -5 -2 -6
389 1 1 0.5897 6.626204264796644 6.907171941404001 19.462261558013516 1 6 1
388 1 2 -1.1794 7.30813005139565 6.7985252186562075 20.125150276827387 1 6 2
219 1 1 0.5897 4.923750516288364 6.813318473369286 17.630608240454944 3 2 -1
217 1 2 -1.1794 5.1105912964055085 6.860300766980996 18.568230982890544 3 2 -1
487 1 2 -1.1794 5.259408683021136 15.16126798442027 0.9438078595791062 -1 -4 5
519 1 1 0.5897 8.321132254979565 16.52497088753408 3.4224446583565613 -1 -3 -6
197 1 1 0.5897 5.458320198639447 12.503830320837011 3.2907172310783985 0 -6 -1
355 1 2 -1.1794 6.893484440435352 13.729772337317778 2.967421563777456 4 0 -2
357 1 1 0.5897 6.892583563326507 13.924713008713216 2.030271002439072 4 0 -2
356 1 1 0.5897 7.482379284567056 14.381641636075251 3.3475738123225933 4 0 -2
489 1 1 0.5897 5.860032022271297 15.905804761261734 0.9094318704711752 -1 -4 5
729 1 1 0.5897 6.815389178969949 13.498964509494165 5.349158417624675 -1 6 1
502 1 2 -1.1794 4.828328999444742 15.716073178981933 5.732836900203675 -6 2 4
419 1 1 0.5897 7.5876093671952445 12.08327248686368 3.4553932393002205 -10 -3 6
582 1 1 0.5897 7.366769720661601 12.176157945111958 9.624807362277656 -4 -4 2
587 1 1 0.5897 7.629768836772389 16.63329681131789 6.922936625043836 1 2 1
586 1 2 -1.1794 7.213658682953935 15.812107273712057 7.185207073280984 1 2 1
364 1 2 -1.1794 6.90999123692032 13.92170448087958 9.531961720417712 -2 3 3
714 1 1 0.5897 8.53701199714486 14.635006331040868 7.043597717360475 -5 -3 3
588 1 1 0.5897 6.37173649691666 15.813534780349059 6.729790344414687 1 2 1
365 1 1 0.5897 7.466135542800584 14.422265007460426 8.934963499385562 -2 3 3
366 1 1 0.5897 7.105721616655994 14.278583450624001 10.398324519336224 -2 3 3
260 1 1 0.5897 5.199599606227517 14.48687632293545 9.612361237352022 3 -2 3
728 1 1 0.5897 7.154953200735031 12.988638049147413 6.733434518270547 -1 6 1
727 1 2 -1.1794 6.435993236445267 13.049670174293347 6.104439697863963 -1 6 1
634 1 2 -1.1794 6.094782893334144 13.980953489927401 15.130019464283787 -8 0 1
187 1 2 -1.1794 7.741207050988394 12.399444380846989 13.055749979866386 0 5 3
422 1 1 0.5897 6.048209068536551 15.216914115116476 12.508225811249032 -3 3 6
188 1 1 0.5897 7.295171310222194 13.195629101834571 12.766962320155356 0 5 3
635 1 1 0.5897 6.8666191375317345 13.61449544572981 15.56156314045337 -8 0 1
423 1 1 0.5897 7.49824555268526 15.630689386913387 12.373698743103994 -3 3 6
636 1 1 0.5897 6.198912425449154 14.928568832013553 15.216164168686932 -8 0 1
421 1 2 -1.1794 6.91171377811554 14.88183334599284 12.266687764376755 -3 3 6
189 1 1 0.5897 7.7834275052694535 12.480191403167936 14.008624929461636 0 5 3
833 1 1 0.5897 5.1565784949287705 12.835634221127963 14.268877593393507 2 -1 -3
590 1 1 0.5897 9.075721404253848 13.74622124559414 15.283748237812011 4 5 1
733 1 2 -1.1794 6.8648063922741 16.696246855907997 15.41326095649104 4 0 -3
589 1 2 -1.1794 8.571233314274044 13.1948686945385 15.88186975007492 4 5 1
476 1 1 0.5897 9.05147881968925 11.848828191375082 11.85158264562784 8 0 -2
828 1 1 0.5897 5.574698577977582 13.26447046932626 17.996178929019756 1 -2 3
283 1 2 -1.1794 7.889450555353977 13.640805853540932 21.242584420126306 4 3 -3
411 1 1 0.5897 7.272257629213501 16.068517364774245 18.924688482698926 3 -1 -10
186 1 1 0.5897 7.42834706743164 13.670815329189603 18.462737963403576 0 4 4
410 1 1 0.5897 7.449047700187922 16.060447384498488 17.421139878607928 3 -1 -10
174 1 1 0.5897 5.31604046761472 16.73681004863218 18.124562125856627 7 4 -3
185 1 1 0.5897 7.429761205772674 12.156989977909987 18.44682386394008 0 4 4
184 1 2 -1.1794 7.060813022495195 12.908768666462057 18.910451113947175 0 4 4
409 1 2 -1.1794 6.914392780157996 15.688220392303334 18.122469847921582 3 -1 -10
284 1 1 0.5897 7.453107959321527 13.289294114002082 20.466511615297335 4 3 -3
285 1 1 0.5897 8.069504354686842 14.55498791350224 21.023281696004144 4 3 -3
13 1 2 -1.1794 7.718842927652023 16.46617310871111 20.62220763920615 1 -5 -5
93 1 1 0.5897 5.052158147065059 13.577399536464576 20.96854382433548 2 -8 0
15 1 1 0.5897 8.597437592577034 16.816305220687035 20.47482384110134 1 -5 -5
827 1 1 0.5897 4.807986295717721 13.749644256309493 16.78428927629605 1 -2 3
848 1 1 0.5897 8.383140539093711 18.447406813111293 2.3290146440315485 -3 -3 5
56 1 1 0.5897 6.13583956367953 19.067184406487787 0.9849384406024917 0 0 4
808 1 2 -1.1794 7.264251276859786 20.938609488869353 1.1923445235768688 4 -4 -2
623 1 1 0.5897 5.358233584910027 18.706735119194477 4.221433354554074 6 -2 0
315 1 1 0.5897 7.808874903521267 21.750087965421642 4.373773376214814 -1 -2 2
517 1 2 -1.1794 7.597605917757825 16.946157846095442 2.9583813567725157 -1 -3 -6
518 1 1 0.5897 6.9937289887659 17.21641440422424 3.6501678410268723 -1 -3 -6
622 1 2 -1.1794 6.095156614305946 18.736670336145036 4.831647241370023 6 -2 0
809 1 1 0.5897 7.095762838467419 21.705145816495687 1.7403190592063031 4 -4 -2
810 1 1 0.5897 7.90909490347585 20.429523253307366 1.6835305185903207 4 -4 -2
624 1 1 0.5897 6.474351733387063 19.60675228495307 4.7075077011726485 6 -2 0
732 1 1 0.5897 5.314130545298512 21.781559196696296 5.284756288321553 1 4 -2
313 1 2 -1.1794 6.920081221138259 21.581534505272415 4.686641234104005 -1 -2 2