LAMMPS (30 Jul 2021)
Processor partition = 1
  using 1 OpenMP thread(s) per MPI task
using multi-threaded neighbor list subroutines
variable        pid world 0 1
variable        phase world IceII IceIII

shell cd ${phase}
shell cd IceIII
include Restart.lmp
echo both
log log.lammps
#include		in.partitions
include		in.temp
variable        temperature equal 10.24
variable	tempDamp equal 100.0
include		in.pressure
variable        pressure equal -1331.2
variable        pressureDamp equal 1000.0 # This is 1 ps
include		in.seed
variable        seed equal 745823

units		real
atom_style	full

read_restart	restart.lmp.${pid}
read_restart	restart.lmp.1
Reading restart file ...
  restart file = 30 Jul 2021, LAMMPS = 30 Jul 2021
  restoring atom style full from restart
  orthogonal box = (0.023677265 0.0013934034 -0.18908423) to (19.976324 19.998608 20.889082)
  4 by 4 by 4 MPI processor grid
  restoring pair style lj/cut/tip4p/long/omp from restart
  restoring bond style harmonic/omp from restart
  restoring angle style harmonic/omp from restart
  972 atoms
  648 bonds
  324 angles
Finding 1-2 1-3 1-4 neighbors ...
  special bond factors lj:    0        0        0       
  special bond factors coul:  0        0        0       
     2 = max # of 1-2 neighbors
     1 = max # of 1-3 neighbors
     1 = max # of 1-4 neighbors
     2 = max # of special neighbors
  special bonds CPU = 0.005 seconds
  read_restart CPU = 0.017 seconds
include 	in.setup
variable	out_freq equal 1000
variable	out_freq2 equal 10000
variable	out_freq3 equal 1000

timestep	2.0

neigh_modify    delay 7 every 1

include		in.tip4p
# This is TIP4P/Ice

# create groups ###
group ox type 2
324 atoms in group ox
group hy type 1
648 atoms in group hy

# set charges - beside manually ###
set group ox charge -1.1794
Setting atom values ...
  324 settings made for charge
set group hy charge 0.5897
Setting atom values ...
  648 settings made for charge

# ### TIP3P Potential Parameters ###
pair_style lj/cut/tip4p/long/omp 2 1 1 1 0.1577 8.5
pair_coeff 1 1*2 0.000 0.000
pair_coeff 2 2 0.21084 3.1668
bond_style  harmonic
bond_coeff  1 450 0.9572
angle_style harmonic
angle_coeff 1 55 104.52
kspace_style pppm/tip4p/omp 1.0e-5
pair_modify tail yes

thermo          ${out_freq}
thermo          1000
thermo_style    custom step temp pe etotal epair emol press lx ly lz vol pxx pyy pzz pxy pxz pyz enthalpy

restart 	${out_freq3} restart.lmp.${pid} restart2.lmp.${pid}
restart 	1000 restart.lmp.${pid} restart2.lmp.${pid}
restart 	1000 restart.lmp.1 restart2.lmp.${pid}
restart 	1000 restart.lmp.1 restart2.lmp.1


include         in.dump
dump            myDump all atom ${out_freq2} dump.water.${pid}
dump            myDump all atom 10000 dump.water.${pid}
dump            myDump all atom 10000 dump.water.1
dump            myDump2 all dcd ${out_freq2} dump.dcd
dump            myDump2 all dcd 10000 dump.dcd
dump_modify     myDump append yes
dump_modify     myDump2 append yes


variable natoms 	equal  "count(all)"                        # NUMBER ATOMS
variable H      	equal  "enthalpy/v_natoms"                 # ENTHALPY-per-atom
variable Vol      	equal  "vol/v_natoms"                 # volume-per-atom
fix AVG all 		ave/time ${out_freq} 1 ${out_freq} v_Vol v_H file vol_enthalpy.dat
fix AVG all 		ave/time 1000 1 ${out_freq} v_Vol v_H file vol_enthalpy.dat
fix AVG all 		ave/time 1000 1 1000 v_Vol v_H file vol_enthalpy.dat


timer           timeout 02:55:00 every 1000
New timer settings: style=normal  mode=nosync  timeout=02:55:00

fix 		1 all shake 1e-6 200 0 b 1 a 1
Finding SHAKE clusters ...
       0 = # of size 2 clusters
       0 = # of size 3 clusters
       0 = # of size 4 clusters
     324 = # of frozen angles
  find clusters CPU = 0.001 seconds
fix             2 all nph aniso ${pressure} ${pressure} ${pressureDamp}
fix             2 all nph aniso -1331.2 ${pressure} ${pressureDamp}
fix             2 all nph aniso -1331.2 -1331.2 ${pressureDamp}
fix             2 all nph aniso -1331.2 -1331.2 1000
fix             3 all temp/csvr ${temperature} ${temperature} ${tempDamp} ${seed}
fix             3 all temp/csvr 10.24 ${temperature} ${tempDamp} ${seed}
fix             3 all temp/csvr 10.24 10.24 ${tempDamp} ${seed}
fix             3 all temp/csvr 10.24 10.24 100 ${seed}
fix             3 all temp/csvr 10.24 10.24 100 745823


run             250000
PPPM initialization ...
  extracting TIP4P info from pair style
  using 12-bit tables for long-range coulomb (../kspace.cpp:340)
  G vector (1/distance) = 0.3721098
  grid = 24 24 25
  stencil order = 5
  estimated absolute RMS force accuracy = 0.0034433576
  estimated relative force accuracy = 1.0369569e-05
  using double precision FFTW3
  3d grid and FFT values/proc = 2366 288
Last active /omp style is kspace_style pppm/tip4p/omp
Neighbor list info ...
  update every 1 steps, delay 7 steps, check yes
  max neighbors/atom: 2000, page size: 100000
  master list distance cutoff = 10.8154
  ghost atom cutoff = 10.8154
  binsize = 5.4077, bins = 4 4 4
  1 neighbor lists, perpetual/occasional/extra = 1 0 0
  (1) pair lj/cut/tip4p/long/omp, perpetual
      attributes: half, newton on, omp
      pair build: half/bin/newton/omp
      stencil: half/bin/3d
      bin: standard
Setting up Verlet run ...
  Unit style    : real
  Current step  : 13500000
  Time step     : 2
  Walltime left : 2:54:59.90
Per MPI rank memory allocation (min/avg/max) = 9.228 | 9.231 | 9.237 Mbytes
Step Temp PotEng TotEng E_pair E_mol Press Lx Ly Lz Volume Pxx Pyy Pzz Pxy Pxz Pyz Enthalpy 
13500000    17.052681   -5221.1051   -5188.2176   -5221.1051            0   -1072.0229    19.952646    19.997214    21.078166    8410.1325   -743.45089   -1033.3179      -1439.3   -15.940737   -230.10239    230.33696   -5319.7046 
13501000    10.336181   -5232.7408   -5212.8066   -5232.7408            0    -1382.776    20.028958     19.98281    21.049548    8424.7631   -1754.2407   -1226.5215   -1167.5658   -78.015708    223.68981   -30.847667   -5382.7034 
13502000    9.9984592   -5232.3602   -5213.0773   -5232.3602            0   -1260.2962    19.990425     19.96382    21.056826    8403.4686   -1332.4835   -1154.3208   -1294.0842    32.807116    379.38797    122.68152   -5367.5341 
13503000    10.160903   -5233.5933   -5213.9972   -5233.5933            0   -1331.1524     19.99286    19.994327    21.035937    8408.9851    -997.6328   -1633.8271   -1361.9972   -56.305408    285.71539    93.255546   -5377.2449 
13504000    10.152436   -5233.8536   -5214.2737   -5233.8536            0   -1429.5753    20.004312    20.000788    21.033934    8415.7191   -1572.8352    -1619.537   -1096.3538   -73.624944    537.53846    149.81755   -5389.7321 
13505000    10.096729   -5232.2716   -5212.7992   -5232.2716            0   -1418.1958    19.987897    19.925838    21.145308    8421.6599   -1559.6007   -1177.3133   -1517.6733   -146.99275    296.41307    32.243951   -5386.9838 
13506000    10.533261   -5233.3688   -5213.0545   -5233.3688            0   -1256.7889    19.959497    20.034663    21.026919    8408.2819   -1189.1468   -1384.4487   -1196.7712   -130.56476     -24.0747    104.70971   -5367.1697 
13507000    10.449078   -5232.9805   -5212.8285   -5232.9805            0   -1473.3335     19.99278    20.005969    21.094449    8437.2509   -1613.1505   -1393.3534   -1413.4965   -113.62946    223.68372     61.05892   -5394.1202 
13508000    9.9795855   -5233.0494   -5213.8029   -5233.0494            0   -1339.3927     19.97975    19.941982     21.08364    8400.4775   -1379.9421   -901.71615   -1736.5199   -125.56203    50.165887    162.69151   -5377.8951 
13509000    10.713677   -5232.5946   -5211.9324   -5232.5946            0   -1325.7647    20.036612    19.987177    21.058023    8433.2182   -1418.9529   -1416.8505   -1141.4907   -138.84249    21.160745   -211.36318    -5374.988 
13510000    10.262265   -5232.0256   -5212.2339   -5232.0256            0   -1207.5247    19.992318    19.971151    21.089671    8420.4643   -1130.5308   -1204.5115   -1287.5319   -179.30255    203.30669   -95.929841   -5360.5226 
13511000    10.001366    -5233.099   -5213.8105    -5233.099            0   -1386.2837    19.951757    19.967645    21.157896    8429.0855   -1200.0652    -1074.604    -1884.182   -156.76401    357.71292   -6.4450162   -5384.2257 
13512000    10.502639   -5232.7156   -5212.4603   -5232.7156            0   -1328.3242    20.056221    19.990668    20.976874    8410.4101   -1444.8478   -1471.0457   -1069.0792     60.79011    296.55469   -47.189062   -5375.3889 
13513000    10.853756   -5232.4121   -5211.4797   -5232.4121            0    -1120.645    20.060053    19.954752    21.039488    8421.9682   -1393.4532   -946.35788   -1022.1238     17.44394    328.22532     82.76736   -5349.1238 
13514000    10.203826   -5233.6445   -5213.9656   -5233.6445            0    -1312.656    19.975298    19.956653    21.069167    8399.0146   -1270.9476   -1334.3441   -1332.6762   -45.831096    482.17317    328.40025   -5374.7541 
13515000    10.076477   -5232.9342   -5213.5008   -5232.9342            0   -1357.1062    20.011068    20.014925    21.043975    8428.5335   -1013.5716   -1813.5129   -1244.2342   -140.92578    372.32425     171.9707   -5380.3184 
13516000    9.9687042    -5232.277   -5213.0515    -5232.277            0   -1517.4516    20.001838    19.960015     21.09598    8422.2953   -1441.6229   -1434.9004   -1675.8315   -84.300675     230.7213    85.659527   -5399.4409 
13517000    11.034845   -5234.8914   -5213.6098   -5234.8914            0   -1331.9583    20.014177    19.956569    21.049301    8407.3914   -1274.3038   -1025.3848   -1696.1862    39.321912    323.64078   -124.25965   -5376.9254 
13518000    10.103981   -5233.2651   -5213.7787   -5233.2651            0   -1204.0262    19.997257    20.026721    21.005177    8412.1422   -764.96497   -1809.2604   -1037.8532   -122.14577    244.75442    314.61592   -5361.4916 
13519000    10.174581   -5233.2452   -5213.6227   -5233.2452            0   -1329.8725    20.022213    19.926637    21.067892      8405.57   -1342.4233   -1200.7453   -1446.4489    1.3167378   -23.933197   -52.556533   -5376.6473 
13520000    10.328322   -5234.2689   -5214.3499   -5234.2689            0   -1349.9488    20.003093    19.972651     21.05865    8413.2421   -1214.3129   -1427.1949   -1408.3386   -158.01126    244.39793     59.79766   -5379.9866 
13521000    9.6403011   -5232.7254   -5214.1332   -5232.7254            0   -1350.3351     20.01973    19.978603    21.054924    8421.2588   -1151.3717   -1684.4342   -1215.1995   -110.51319      341.211     175.2052   -5379.9752 
13522000    10.247531   -5233.2391   -5213.4759   -5233.2391            0   -1197.7323    19.964877    19.961317    21.108167    8412.1372   -1084.0276   -1142.1807   -1366.9886   -106.58871    83.449715   -100.69811   -5360.4165 
13523000    10.125524   -5234.4277   -5214.8998   -5234.4277            0   -1430.6276    20.033005    19.972252    21.036699    8416.8723   -1497.0927   -1286.1497   -1508.6405   -21.083618    197.51854    35.464588   -5390.5114 
13524000    10.806466   -5231.5573   -5210.7161   -5231.5573            0   -1403.6713    20.036848    19.987011    21.026404    8420.5847   -1572.8166    -1351.537   -1286.6603   -113.37543    -65.44434    193.46132   -5383.0948 
13525000    10.379324   -5231.7362   -5211.7188   -5231.7362            0   -1810.0837    19.991401    19.951749     21.12737    8426.9352   -1997.6707   -1686.7132   -1745.8674   -100.69959    595.58617   -249.96666   -5434.1748 
13526000    10.226565   -5232.3093   -5212.5865   -5232.3093            0   -1499.1385     20.01437    19.999485    21.071116    8434.2852   -1473.3087    -1640.587   -1383.5198   -193.81787    337.72599    58.710241   -5396.9887 
13527000    10.849937   -5232.7779   -5211.8529   -5232.7779            0   -1352.2601    20.014575    20.004041    21.035275    8421.9433   -1260.7963   -1420.3593   -1375.6247   -36.166131    459.79294   -204.05459   -5377.9448 
13528000    10.132048   -5233.8039   -5214.2634   -5233.8039            0   -1082.7832    20.017949     19.92903    21.035905    8392.0283   -1126.8145   -895.75013    -1225.785   -106.45439     166.7179    361.25263   -5346.7843 
13529000    10.663953   -5233.3246   -5212.7582   -5233.3246            0    -1139.063    20.017255    19.967458    21.038545     8408.974   -1517.1151   -954.02638   -946.04755   -77.991357   -60.434857     16.10042   -5352.4487 
13530000    10.541447   -5233.8162   -5213.4861   -5233.8162            0   -1320.7625    20.019156    19.974134    21.022501    8406.1686   -1542.7147   -1300.1616   -1119.4112   -110.88409     434.5051    60.443373   -5375.4055 
13531000    10.924469   -5233.5357   -5212.4669   -5233.5357            0   -1344.3216    20.012742    19.953598    21.075768    8416.1064   -1395.9054   -1208.7829   -1428.2766   -121.93297    262.96116    71.413648   -5377.4693 
13532000    10.365122    -5232.021    -5212.031    -5232.021            0   -1315.9179    20.054763     20.00893    21.007816     8429.898   -1220.9412   -1597.3886    -1129.424   -133.84564    379.11091    271.19868   -5373.8118 
13533000    10.031393   -5231.5797   -5212.2333   -5231.5797            0    -1310.608    20.048221    19.931695    21.086092    8425.8974   -1323.1753    -977.2456   -1631.4032   -129.49533    324.55341    270.53141   -5373.2848 
13534000    10.338397   -5233.5999   -5213.6614   -5233.5999            0   -1173.1256    19.998079    19.948273    21.084623    8411.2279   -1282.4616   -953.53774   -1283.3775   -257.11848    234.03431    264.03875   -5357.5677 
13535000    9.3034865   -5233.4859   -5215.5433   -5233.4859            0   -1296.4894    20.012923    20.016319    21.037257    8427.2108   -1364.2551   -1444.9359   -1080.2772   -170.66449    27.570543    80.521389   -5374.8848 
13536000    10.150397   -5233.8954   -5214.3195   -5233.8954            0   -1356.8758    20.012313    19.944548    21.041973    8398.6199   -1328.8858   -1367.6527   -1374.0889   -72.900941    181.28971    282.78278   -5380.5168 
13537000     10.10919   -5234.0362   -5214.5397   -5234.0362            0   -997.76553    19.983823    19.972153    21.052603    8402.5142   -811.69305   -1110.0048   -1071.5987   -205.20336   -106.33064    272.83656    -5336.808 
13538000    10.385728   -5232.6432   -5212.6135   -5232.6432            0   -1346.6905      20.0016    20.030127     21.06123    8437.8569   -1399.8273   -1603.4295   -1036.8148   -71.745275    30.444361    20.137398   -5378.3338 
13539000    9.9880918   -5233.8149    -5214.552   -5233.8149            0    -1066.434    19.972376    19.899708    21.132067     8398.823   -1102.1082   -736.38003   -1360.8137   -181.03498     28.15661    75.430436   -5345.1776 
13540000    9.7407643   -5231.6645   -5212.8787   -5231.6645            0   -1377.4469    19.998009    19.977201    21.115515    8435.7377   -1365.4633   -1443.1615    -1323.716   -216.65574     158.1594   -36.420069   -5382.3413 
13541000    10.612868    -5233.949   -5213.4812    -5233.949            0   -1260.4545    19.984713    19.992564     21.03496    8404.4272   -926.31654   -1584.2469   -1270.8001   -191.14937    463.04392   -182.85966    -5367.975 
13542000    9.7906151   -5232.5827   -5213.7007   -5232.5827            0   -1253.3395    19.989903    19.960531    21.060797    8403.4494   -1094.2324   -1338.6644   -1327.1217   -188.41537    149.13872   -53.603895   -5367.3046 
13543000    10.753274   -5232.6534   -5211.9148   -5232.6534            0    -1528.243    19.985474    20.017628     21.03916    8416.9641   -1769.2069   -1385.9303   -1429.5919    -202.7518     241.1185    190.51658   -5399.5109 
13544000    10.238215   -5233.9227   -5214.1774   -5233.9227            0   -1405.9267    20.035258    19.941703    21.094871    8428.1848   -1721.5455   -903.91623   -1592.3183   -43.429233    103.42201     184.4837   -5386.9889 
13545000    9.9386468    -5234.004   -5214.8365    -5234.004            0    -1491.881    20.057175    19.950513    21.010916    8407.5376   -1740.3996   -1383.5252   -1351.7182   -66.632092    292.23711    4.8500349   -5397.7639 
13546000     10.12796    -5233.842   -5214.3094    -5233.842            0   -1217.8833    20.030587    20.007496    20.988445    8411.3688   -1341.4576   -1479.0874    -833.1051   -81.022925     347.7171   -102.99963   -5363.7086 
13547000    10.341003   -5233.1564   -5213.2129   -5233.1564            0     -1288.84    20.051484    19.924781    21.050048    8409.9453   -1738.3898   -747.46053   -1380.6696   -53.112813    332.56198    173.74194   -5371.2897 
13548000    9.8230762    -5233.831   -5214.8864    -5233.831            0   -1496.0742    20.029104    19.995209    21.026965    8421.0076   -1619.9169   -1318.0899   -1550.2158   -88.092239    351.30247   -257.81163   -5398.6219 
13549000    10.511262   -5233.3631   -5213.0912   -5233.3631            0   -1090.7349    19.997439    20.009725    21.008845    8406.5475   -931.88017   -1380.1464   -960.17807   -156.93845     114.0461   -274.91909   -5346.8163 
13550000    9.3299039   -5231.9709   -5213.9774   -5231.9709            0   -1246.7766    19.973741    19.936422     21.14301    8419.2506   -700.97585   -1406.1789   -1633.1751   -155.52448    295.31776   -126.82024   -5367.0643 
13551000     10.96944   -5232.3128   -5211.1573   -5232.3128            0    -1203.551    20.055169    19.971567    20.999121    8410.8442   -1429.7067   -1235.6128   -945.33372   -83.678741    192.49214    140.94968   -5358.7891 
13552000    10.150652   -5232.9441   -5213.3677   -5232.9441            0   -1215.1903    20.038398    19.982905    21.013856    8414.4816   -1414.2621   -1374.9697   -856.33906   -96.812134     408.9426    108.11477   -5362.4917 
13553000    9.8354355   -5233.7423   -5214.7739   -5233.7423            0    -1133.909    19.991635     19.91037    21.108211    8401.9301   -1370.1516   -709.20904   -1322.3663   -112.67081    168.56609    37.143332   -5353.7157 
13554000    10.572153   -5232.9082   -5212.5189   -5232.9082            0   -1419.0185    20.013349    19.999559    21.042604    8422.4739   -1307.0876   -1693.2146   -1256.7533   -121.62973    174.59279    255.60997   -5386.8214 
13555000    10.212033   -5231.8174   -5212.1226   -5231.8174            0   -1454.5662    20.028813    19.954179    21.089783    8428.7116   -1444.8831   -1525.7526   -1393.0628   -204.51149    183.84015    305.06542   -5390.9239 
13556000    10.683706   -5232.4077   -5211.8033   -5232.4077            0   -1077.8625    19.983548    19.947652    21.075939    8401.3934   -1177.7644   -790.37939   -1265.4437   -123.84223    15.634063     328.8512   -5343.8691 
13557000    9.4391994   -5233.2162   -5215.0119   -5233.2162            0    -1377.016    19.975228    20.044895    21.031767    8421.1479   -1197.9255    -1776.993   -1156.1296   -79.547749    169.82146   -37.465541   -5384.1285 
13558000    10.458872    -5233.554   -5213.3832    -5233.554            0   -1371.0771    20.008642    19.961412    21.081309    8419.8908   -1190.7184   -1549.8209    -1372.692   -56.485504    322.01485      5.54274   -5381.7453 
13559000    10.506363   -5234.5581   -5214.2957   -5234.5581            0   -1439.2866    20.045294     19.94936    21.077443    8428.6754    -1642.368   -1397.8298    -1277.662   -280.62705    128.71453   -315.24717    -5391.218 
13560000    10.321891   -5233.0752   -5213.1686   -5233.0752            0   -1358.3864    20.032361    19.985941    21.033737    8421.1842   -1321.1137   -1383.2159   -1370.8297   -182.59444   -133.54239    104.10027   -5379.9979 
13561000    10.252018   -5232.5656   -5212.7937   -5232.5656            0    -1396.039    20.010222    19.950256    21.049567    8403.1773   -1728.5128   -944.15451   -1515.4496   -210.78053    142.93303   -247.46929   -5383.8807 
13562000    10.763453   -5232.4905   -5211.7323   -5232.4905            0   -1445.9794    20.039687    19.964148    21.060582     8425.818   -1506.8063   -1348.2192   -1482.9127   -154.65181    215.79053   -183.02828    -5389.417 
13563000    10.524349   -5232.4339   -5212.1368   -5232.4339            0   -1408.3484    20.035694    20.016639    21.013286    8427.3206   -1865.6446    -1350.378   -1009.0225     -238.908   -5.9105843   -21.748968   -5385.2282 
13564000    10.481711   -5232.9542   -5212.7393   -5232.9542            0   -1232.7246    19.958124    19.944627    21.143212    8416.2107   -1101.3389    -1025.933   -1570.9018   -92.801925    232.99766   -385.61787   -5364.0462 
13565000    9.9067005   -5232.8503   -5213.7444   -5232.8503            0   -1370.5265    20.021769    19.981831    21.015952    8407.8857   -1574.5987   -1396.9812   -1139.9995   -139.07839    -89.91718   -369.61337   -5381.7989 
13566000    10.475252   -5230.9935   -5210.7911   -5230.9935            0   -1190.9313    19.997882    20.009544    21.022418    8412.0894   -1205.2646   -1263.1846   -1104.3448   -82.821896    183.87983   -84.728639   -5356.8966 
13567000    9.8114974   -5232.3309   -5213.4086   -5232.3309            0    -1383.262    20.005035    19.900566    21.127929     8411.272   -1525.4437   -832.04828   -1792.2941   -216.90747    301.20405    282.03657    -5383.093 
13568000    10.458648   -5233.4229   -5213.2525   -5233.4229            0    -1418.916    20.030578    19.974378    21.051616    8422.7166   -1715.5598   -1153.5129   -1387.6754   -142.58285    96.538993     7.465724   -5387.5474 
13569000    9.9483966   -5233.1766   -5213.9903   -5233.1766            0   -1370.9764    19.984523    20.034294    21.061051    8432.3352   -1173.6121   -1644.5349   -1294.7823   -230.66574    288.37302    160.63667   -5382.5888 
13570000     10.41143   -5234.3199   -5214.2406   -5234.3199            0    -1280.123    20.002285    19.894561    21.127683    8407.4799   -1507.9147   -773.65327    -1558.801   -242.97075    452.67574   -185.33162   -5371.2022 
13571000     10.52394    -5232.584   -5212.2877    -5232.584            0   -1379.7619    20.023006    20.045647    21.035808    8443.2285   -1170.2864    -1882.191   -1086.8082   -77.649164    393.06505   -450.85413   -5382.1859 
13572000    11.200877   -5232.7344   -5211.1326   -5232.7344            0   -998.26587    19.945983    19.987244    21.086388    8406.4099   -762.29464   -1281.1379   -951.36511   -180.38693    40.759784   -226.26307   -5333.5189 
13573000    9.5370663   -5233.6205   -5215.2274   -5233.6205            0   -1318.3002    19.976165    19.958211    21.076371    8402.9068   -964.90819   -1456.5871   -1533.4054    18.409121    148.26174    85.590866   -5376.7822 
13574000    10.133943   -5233.7275   -5214.1833   -5233.7275            0   -1525.5636    20.028924    20.025094    20.974584    8412.5086   -1325.5208   -1912.1693   -1339.0006    63.323977    26.615694    79.592633   -5401.3514 
13575000    9.8659482   -5231.9955   -5212.9682   -5231.9955            0   -1541.1122    20.029513    19.935426    21.145358    8443.2755   -1642.4208   -1075.3995   -1905.5162   -175.90728    281.61271   -95.829131   -5402.7354 
13576000    10.726725   -5234.0388   -5213.3514   -5234.0388            0   -1342.7582    20.008617    19.948283    21.095854    8420.1478   -1624.2459   -802.48996   -1601.5389   -141.59529    288.76054    -85.60022   -5378.2411 
13577000    10.281676   -5234.6474   -5214.8183   -5234.6474            0   -1413.6815    20.006954    20.008125    21.054057    8427.9737   -1416.2098   -1537.6981   -1287.1367   -147.13337    388.72236   -14.493247   -5388.5786 
13578000    10.665738   -5232.6935   -5212.1238   -5232.6935            0   -1331.3241    20.029664     19.91656    21.119129    8424.8855   -1772.1397    -693.6423   -1528.1902   -120.97889    253.06339     8.391815   -5375.7013 
13579000    9.6627109   -5233.3793    -5214.744   -5233.3793            0   -1365.5303    20.008097    19.975203    21.012477    8397.9682   -1625.5462   -1077.7679   -1393.2767   -88.461733   -31.083401   -124.77998   -5381.9883 
13580000    10.011863   -5231.2509   -5211.9421   -5231.2509            0   -1449.5196     20.02461    19.998868    21.072505    8438.8963    -1530.418   -1369.7201   -1448.4208    18.460344    59.542332   -18.277682   -5390.3384 
13581000    10.034443   -5232.0576   -5212.7053   -5232.0576            0    -1549.841    20.019245     19.91208    21.119414    8418.7221   -1376.5295   -1563.5772   -1709.4164   -19.599984    7.4746683   -145.90472   -5402.9924 
13582000    9.7607904   -5234.0628   -5215.2383   -5234.0628            0   -1320.0019    20.043321    19.962152    21.055388    8424.4253   -1806.5129   -921.00613   -1232.4866   -150.64305    84.786007   -180.21709   -5377.4158 
13583000    10.488957   -5233.5377   -5213.3089   -5233.5377            0   -1210.3287    20.028859    20.013914    20.958632    8401.3902   -1252.9775   -1157.1129   -1220.8958   -108.37745    473.23518    250.19625   -5361.6052 
13584000    10.447532   -5231.7444   -5211.5955   -5231.7444            0   -1064.1122    19.956701    19.950333    21.083699    8394.3238   -839.50049   -995.61025   -1357.2259   -117.39488    241.85235    295.41526   -5341.8669 
13585000    10.088973   -5234.0361   -5214.5787   -5234.0361            0   -1363.9134    20.032264    19.952181    21.082508     8426.412   -1170.1113   -1543.0586   -1378.5702    -162.8571    112.74351    322.63962   -5382.1908 
13586000    9.6721962   -5232.9044   -5214.2507   -5232.9044            0   -1154.7085    20.030924    19.933896    21.025959     8395.547   -1405.7921    -850.5837   -1207.7496   -207.26249    504.65565   -128.06835   -5355.6337 
13587000    10.106674   -5233.7945    -5214.303   -5233.7945            0   -1193.8029    19.998206    19.951952     21.04574    8397.3183   -1078.3673   -978.74872   -1524.2927   -58.287753     143.1879   -151.73739   -5360.5035 
13588000    10.345004   -5233.2974   -5213.3462   -5233.2974            0   -1007.1844    19.983017    20.019653     21.04076    8417.4206    -709.2756   -1478.8256   -833.45196   -29.539868    495.67583    52.092482   -5336.9876 
13589000    9.4806696   -5232.8133    -5214.529   -5232.8133            0   -1302.1983    20.008569    19.973577    21.088507    8427.8676   -1311.7039   -1156.7957   -1438.0953   -103.79483   -46.767441   -95.854695   -5374.5846 
13590000    10.098111   -5232.6719   -5213.1968   -5232.6719            0   -1234.9297    19.993432    19.973361    21.074439    8415.7827   -1129.9443   -1283.2374   -1291.6074   -128.33826    304.35274   -3.1721773   -5364.7666 
13591000    9.9381022   -5233.4371   -5214.2707   -5233.4371            0   -1475.8693    20.061771    19.995218    21.026881    8434.7122   -1544.7468   -1777.0194   -1105.8417   -86.521084    132.30174    41.481487   -5395.8198 
13592000    10.233062   -5233.1958   -5213.4605   -5233.1958            0   -1228.5943    20.013808    19.905777    21.137923    8421.1461   -1476.4971   -954.52054   -1254.7653   -129.81402    352.51029    77.789067   -5364.3488 
13593000     11.04605   -5234.1935   -5212.8903   -5234.1935            0   -1344.5584    19.971497    19.963412    21.128175    8423.7874   -1293.0505   -1271.2745   -1469.3503   -178.03106    314.25021    71.219278   -5378.0724 
13594000    9.8731649   -5232.6009   -5213.5596   -5232.6009            0   -1335.7925    20.040254    20.013782    20.995898    8421.0614   -1788.9084   -1312.6611   -905.80807   -176.90562    78.337063    79.440078   -5377.6117 
13595000    10.102771    -5234.397    -5214.913    -5234.397            0   -1447.4354    19.992624    19.925793    21.149655    8425.3648   -1252.1833   -1293.1112   -1797.0117   -213.96759     142.5314   -184.41803    -5392.767 
13596000    10.338778   -5233.9292     -5213.99   -5233.9292            0   -1402.6988    20.033176     19.94322        21.15    8449.9755   -1591.1828   -1199.6928   -1417.2208   -58.023546    22.285741   -162.10196   -5386.8505 
13597000    10.275584   -5233.1722   -5213.3549   -5233.1722            0   -1358.9311    20.034044    20.003969     21.01381    8421.5027   -1534.1636   -1471.1969   -1071.4328   -146.57307    -52.37153    72.438197   -5380.2574 
13598000    9.6659983   -5233.0518   -5214.4101   -5233.0518            0   -1166.9477    19.987994    19.941435    21.056812    8393.0198   -931.82982   -1103.2868   -1465.7265   -118.47424    106.91885    234.41328   -5357.2487 
13599000    9.9690417    -5232.991   -5213.7649    -5232.991            0   -1602.1085    20.023628    20.007364    21.004972    8415.0123   -1562.1196   -1926.5663   -1317.6396    7.9361507    234.39036    27.856962   -5410.3826 
13600000    10.326969   -5233.0636   -5213.1472   -5233.0636            0   -1266.9668    20.039835    19.990127    21.017686    8419.6607   -1290.8501   -1442.0726   -1067.9778   -50.980685    58.246267    35.811489   -5368.7207 
13601000    10.018089   -5234.8939   -5215.5732   -5234.8939            0   -1230.4205     19.97218    19.952554    21.081132    8400.7465   -757.01864   -1589.0878   -1345.1551   -90.279348    199.68897    225.74437   -5366.3197 
13602000    10.170445   -5232.9221   -5213.3075   -5232.9221            0   -1349.9346    20.007209    20.002468    21.042661    8421.1373   -1297.9594   -1528.3891   -1223.4554   -123.80462    366.48202   -118.50536   -5379.0979 
13603000     10.51414   -5233.1302   -5212.8528   -5233.1302            0   -1269.4995    20.016192    19.934585    21.062858    8404.3854   -1115.1198   -1276.0997   -1417.2789   -112.75191    374.89232     79.16666   -5368.4545 
13604000    9.7941843   -5231.5988   -5212.7099   -5231.5988            0   -1299.0325    20.020604    19.933785     21.09914    8420.3802   -1352.3316   -1088.4979   -1456.2679   -27.060795    498.27305    166.58436   -5372.2345 
13605000    10.368776   -5231.7608   -5211.7637   -5231.7608            0   -1359.9705    19.997873    20.040441    21.018588    8423.5396   -957.81591   -1908.8614   -1213.2343   -150.40854    128.92814    130.26306   -5378.8343 
13606000    10.187269   -5233.9236   -5214.2766   -5233.9236            0   -1365.7895    19.982853    19.946873    21.139749    8426.2077   -1367.8567   -1423.8029    -1305.709   -159.82854    238.52413    17.192167   -5382.1152 
13607000    10.024652   -5233.7549   -5214.4215   -5233.7549            0   -1266.5963    19.982296    20.004047    21.035321    8408.3815   -1118.9541   -1340.2053   -1340.6293      -184.85    316.66741     61.04728   -5369.7412 
13608000    10.157135   -5232.1439   -5212.5551   -5232.1439            0   -1338.0212     20.02741    19.992664    21.035202    8422.5217   -1510.4315   -1293.7288   -1209.9032   -161.78109    274.85589   -44.258567   -5376.9093 
13609000    9.8303568   -5232.1857    -5213.227   -5232.1857            0   -1422.9744    19.992126    19.920393    21.182569    8435.9793    -1268.766   -1400.2193   -1599.9379      -23.589    238.52758    223.34891   -5388.2957 
13610000    10.711046   -5233.0997   -5212.4426   -5233.0997            0   -1173.7382     20.00398    19.973575    21.099486    8430.3203   -1369.5536   -971.97053   -1179.6907   -101.14523    398.67668    13.715234   -5356.7508 
13611000    10.804755   -5233.3096   -5212.4717   -5233.3096            0   -1241.1691     19.99939    19.986554    21.058458    8417.4634   -1045.5552   -1494.8263   -1183.1257   -98.446084    121.48023   -262.48105   -5364.8378 
13612000    10.187533   -5231.7004   -5212.0529   -5231.7004            0   -1374.7821    19.988179     19.95231    21.109864    8418.8326   -1382.9138   -1224.5711   -1516.8615   -176.63164   -27.809043   -143.11331   -5380.8487 
13613000    9.7999077   -5232.6715   -5213.7715   -5232.6715            0   -1359.0844    20.043219     19.99875    21.015343     8423.776   -1353.8602   -1478.5338   -1244.8593   -118.95889     48.72734    86.029369   -5380.7379 
13614000     10.83341   -5233.5018   -5212.6086   -5233.5018            0   -1462.3225    20.016277    20.008652    21.033713    8423.9752   -1355.3296   -1577.7513   -1453.8866    106.24624    251.24092   -140.61122   -5392.2623 
13615000    10.381635   -5233.4994   -5213.4775   -5233.4994            0   -1184.6123     19.98461    19.912336    21.141516    8413.0609   -1288.8775   -779.78494   -1485.1745   -63.686992    109.21049    249.26641   -5358.8245 
13616000    10.027464   -5233.7383   -5214.3995   -5233.7383            0   -1300.8996    20.008438    20.000943    21.046526    8422.5593   -1277.4495   -1571.5444   -1053.7048   -96.928977    372.34554   -363.31893   -5374.1947 
13617000     10.07297    -5233.746   -5214.3195    -5233.746            0   -1216.2191    20.026288    19.972105    21.030329    8411.4406   -1574.5717   -1046.7185   -1027.3671    27.023529    272.90131    407.21628   -5363.5158 
13618000    9.5459927   -5232.9816   -5214.5713   -5232.9816            0   -1042.0879    19.984834    19.956354    21.086162    8409.6766   -1108.9816   -592.14444   -1425.1378    -12.81599    492.88871    31.449494   -5342.3798 
13619000    9.9746075   -5233.1549   -5213.9181   -5233.1549            0   -1230.4786    20.004891    20.024319    21.022282    8421.1965   -914.01486   -1797.5882   -979.83275    -131.7434    454.69895   -192.12957   -5365.0387 
13620000    10.058145   -5232.3094   -5212.9115   -5232.3094            0   -1369.8554    19.975742    19.968341    21.097426    8415.3923    -1004.356   -1347.4319   -1757.7783   -127.09892    409.81416    75.817485   -5381.0336 
13621000    9.8416165   -5234.1955   -5215.2151   -5234.1955            0   -1354.7118    20.003916    19.948401    21.102242    8420.7681   -1538.1855   -1081.3701   -1444.5797   -234.42207    433.64593    294.58907   -5381.5849 
13622000     10.41413   -5232.5732   -5212.4887   -5232.5732            0    -1477.508    20.030622    20.003679    21.032767    8427.5383   -1380.8266   -1753.2463   -1298.4511   -17.192653    25.147008   -146.01997   -5394.0848 
13623000    10.305785   -5233.6109   -5213.7353   -5233.6109            0   -1408.4834     20.02803    19.948997     21.04216    8407.1662   -1688.2992   -1077.4612   -1459.6899   -21.398023    185.60741   -210.74169   -5386.4293 
13624000    10.614554   -5234.1811     -5213.71   -5234.1811            0   -1145.3518    20.028193    19.964428    20.964516    8382.6912    -1428.287   -981.44283   -1026.3256   -78.265813     207.0935   -203.08089   -5353.7326 
13625000    10.195006   -5231.3388   -5211.6769   -5231.3388            0   -1359.4589    20.023267    19.997922    21.096038    8447.3543   -1528.5676   -1326.6535   -1223.1555   -24.494629    24.169398   -365.58574   -5379.1568 
13626000     9.851253   -5233.7793   -5214.7803   -5233.7793            0   -1455.4156    19.998044    19.911007    21.097077    8400.4595    -1506.676    -1051.082   -1808.4889   -75.494502     188.5369   -71.772386   -5393.0863 
13627000    10.470671   -5234.1617   -5213.9681   -5234.1617            0   -1420.9601    19.994778    19.987503    21.079642    8424.3878   -1656.3046   -1248.4358   -1358.1399   -231.36401    211.83808    139.78294   -5388.5488 
13628000    10.163953   -5233.4673   -5213.8653   -5233.4673            0   -1385.1334    19.988133    20.029778    21.032974    8420.7167    -1448.416   -1418.6766   -1288.3077   -86.695967    313.41771    166.36466   -5383.9701 
13629000    10.730865   -5232.1484    -5211.453   -5232.1484            0    -1314.846     20.02368    19.945111    21.057365    8409.7749   -1298.6716   -953.59984   -1692.2667   -201.45513    228.50316   -20.316865   -5372.7161 
13630000    9.6225175   -5233.8645   -5215.3067   -5233.8645            0   -1255.0354    20.021062    19.988749    21.074058    8433.7534   -1195.2362   -1420.6335   -1149.2364   -188.07941    113.98632    -21.12076   -5369.6731 
13631000    9.7750875    -5233.444   -5214.5919    -5233.444            0   -1378.4487      19.9933     19.97887    21.105051    8430.2766   -1294.5698   -1446.3931   -1394.3834   -192.32321     165.3203   -22.698282   -5384.0679 
13632000    10.408576   -5231.6887   -5211.6149   -5231.6887            0   -1387.7503    19.999907    19.949296    21.121759    8427.2454   -1523.9989   -1056.2764   -1582.9757   -96.677518   -12.462267    108.16286   -5382.1732 
13633000    10.711182   -5232.0753   -5211.4179   -5232.0753            0    -1441.349    20.077173    20.024814    20.974772    8432.7318   -1653.5696   -1807.3222   -863.15518   -91.181106    389.50056    86.806703    -5388.679 
13634000    9.8081601   -5233.1324   -5214.2165   -5233.1324            0   -1299.7019    19.998915    19.979055    21.069707    8418.6003   -1386.6141   -1203.1979   -1309.2937   -181.52043    148.86556   -128.42639   -5373.7896 
13635000    10.072781   -5233.6244   -5214.1982   -5233.6244            0   -1248.0797    19.966923    19.964624    21.098906    8410.7017   -879.63137   -1351.4937   -1513.1138    2.7955059    161.63615   -147.99254   -5367.2895 
13636000    10.773308    -5234.166   -5213.3887    -5234.166            0    -1537.945    20.023333    20.008484    21.028006    8424.5879    -1344.855    -1873.192    -1395.788   -212.05909    105.62018    42.102495   -5402.3468 
13637000    10.449799   -5234.2725   -5214.1191   -5234.2725            0   -1097.7231    20.054923    19.944837     21.00429    8401.5518   -1432.0749   -794.11275   -1066.9817    -101.9016    237.17619     42.87191    -5348.621 
13638000    9.8732379   -5233.9398   -5214.8984   -5233.9398            0   -1499.2423     19.98158    19.991373    21.059268    8412.3185   -1547.3727   -1398.2574   -1552.0969   -58.144938    134.52328   -91.494149    -5398.833 
13639000    9.9083875   -5233.9422    -5214.833   -5233.9422            0   -1393.1121    20.008384    20.023159     21.01838    8420.6159   -1193.6748   -1652.2242   -1333.4371   -170.76566    339.28309    7.1920433   -5385.9156 
13640000    10.320847   -5233.3142   -5213.4096   -5233.3142            0   -1217.6031    20.010568    19.906221     21.06073    8389.2213   -1041.8734   -934.55118   -1676.3849   -103.60939    127.14846    52.312638   -5362.3811 
13641000    10.084023   -5233.7092   -5214.2613   -5233.7092            0    -1348.616    19.980979    19.997244    21.084649    8424.6775   -940.04402   -1520.4275   -1585.3764   -192.12781    399.59281    10.792591   -5379.9594 
13642000     10.43025   -5233.7017   -5213.5861   -5233.7017            0   -1586.6364    20.006142    20.054329    20.981395    8417.9404   -1130.1889   -2369.0823   -1260.6378   -100.17137    267.36859     351.8163   -5408.3727 
13643000    10.051717    -5232.177   -5212.7914    -5232.177            0   -1446.1234    20.003009    19.928564    21.152863    8432.1924   -1694.2077   -847.41834   -1796.7442    -24.79036    421.45252   -28.372819   -5390.6283 
13644000    10.293804   -5234.2979   -5214.4455   -5234.2979            0   -1103.3323    20.021161    20.006574    20.973574    8401.0667   -1078.4234   -1479.0618    -752.5116    -195.5401    157.97292    97.073792   -5349.6268 
13645000    9.7303354   -5231.4772   -5212.7114   -5231.4772            0   -1394.0504    20.010438    19.978684    21.083163    8428.6737   -1582.8143   -1354.2053   -1245.1316   -83.435284    90.430948   -53.821332   -5384.0731 
13646000    10.187339   -5233.8484   -5214.2013   -5233.8484            0   -1284.6318    19.976271     19.91111    21.156521    8415.0004   -1084.7959   -1062.3993   -1706.7002   -87.974553    172.04776    210.69739   -5371.8566 
13647000    10.115437   -5233.9806   -5214.4722   -5233.9806            0    -1582.322    20.004683    20.001465    21.080131    8434.6445   -1551.2645   -1687.3592   -1508.3424   -85.086355    210.47907    210.46045   -5409.1146 
13648000    9.6937109   -5233.4076   -5214.7125   -5233.4076            0   -1307.8967     20.02761    19.947287    21.033003    8402.6106   -1189.1752   -1388.5788   -1345.9361   -185.76291    146.91317     4.823207   -5374.9867 
13649000    10.345228   -5232.7539   -5212.8022   -5232.7539            0   -1465.5288    19.977033    19.961753     21.06016     8398.299   -1334.8727   -1367.5928   -1694.1209   -60.407016     141.9927   -214.78547    -5392.301 
13650000    10.305221   -5233.4376   -5213.5631   -5233.4376            0   -1404.6287    19.982385    20.038174    21.022461    8417.6144   -1347.5511   -1708.8037   -1157.5315   -148.81898    116.50463   -142.17991   -5385.9985 
13651000    10.290823   -5231.7606   -5211.9139   -5231.7606            0   -1163.2506    20.026321    19.922582    21.073208    8407.7045   -1023.7968   -1070.9293   -1395.0258   -200.98516   -51.553254    56.405462    -5354.549 
13652000    10.512436   -5233.1038   -5212.8296   -5233.1038            0   -1220.1636    19.993821    19.977172    21.055644    8410.0452   -1132.9731   -1298.7437   -1228.7741   -208.03498    314.62743   -10.045753    -5362.485 
13653000    10.313866   -5233.5348   -5213.6437   -5233.5348            0   -1272.8438    20.025084    19.983113    21.036223    8417.9292    -1333.985   -1311.5211   -1173.0253   -155.31562    293.73066   -628.34828   -5369.9067 
13654000    10.306314   -5232.8929   -5213.0163   -5232.8929            0   -1185.8205    19.986762     19.91593    21.083554    8392.4131   -1136.0959   -906.99426   -1514.3714   -88.634609    109.78689    74.742019   -5358.1545 
13655000    10.126927   -5233.1363   -5213.6057   -5233.1363            0   -1378.6915    20.043791    19.948442    21.068371    8424.0279   -1380.0523    -1347.221   -1408.8012   -232.57256    177.87975   -278.48942   -5382.9859 
13656000     9.836221   -5232.3484   -5213.3784   -5232.3484            0   -1418.0667    20.018756     19.99124    21.075908    8434.5731   -1269.4621   -1603.7392   -1380.9986   -156.44538   -8.7587219    126.34061   -5387.8142 
13657000    10.331532   -5232.6362   -5212.7109   -5232.6362            0   -1106.4653    19.977967    19.952185    21.086862    8405.3094   -1058.7925   -1038.0958   -1222.5077   -123.03965    295.17231    192.48308   -5348.3446 
13658000    9.3542883   -5233.2981   -5215.2575   -5233.2981            0   -1222.5803     20.01357     19.97126    21.005662    8395.8834     -1103.17   -1347.5705   -1217.0003   -44.707013    45.604164    73.915802   -5364.9568 
13659000    10.331919   -5233.9323   -5214.0064   -5233.9323            0   -1305.6133    20.019874     19.95595    21.087724    8424.8747   -1469.8557   -1322.9013    -1124.083   -245.94249    487.60454   -39.762426   -5374.4247 
13660000     10.11076   -5233.0411   -5213.5416   -5233.0411            0   -1199.5949    20.007204    19.937986     21.06861    8404.3391   -1210.8571   -1241.0275      -1146.9   -50.617639    465.73117    111.58614   -5360.5744 
13661000    10.273441   -5233.5587   -5213.7455   -5233.5587            0    -1134.852    19.988985    19.986584    21.066664    8416.3756   -1244.5987   -1054.7876   -1105.1697   -175.86133    785.95528    15.266261    -5353.042 
13662000    10.094404   -5232.1925   -5212.7246   -5232.1925            0   -1128.0207    20.022859    19.962841    21.032957    8407.1491   -992.37733   -1210.3013   -1181.3835     -166.421    369.28182    123.83546   -5351.0308 
13663000    10.799672      -5233.9   -5213.0719      -5233.9            0   -1501.7435    20.019983    19.933339    21.115717    8426.5459   -1544.4256   -1342.7289    -1618.076   -142.90272    149.87099    169.77172    -5397.625 
13664000    10.020735   -5233.0457   -5213.7199   -5233.0457            0   -1632.7124    20.017587    20.025243    21.045271    8436.1449   -1864.5137   -1701.3412   -1332.2822   -66.718725    297.43807   -91.236353   -5414.5966 
13665000    9.9178034   -5231.9848   -5212.8575   -5231.9848            0   -1317.4804    20.003192    19.943983    21.110005    8421.6959   -1522.7693    -991.3983   -1438.2735   -152.98602    254.44274   -46.371412   -5374.6728 
13666000      10.5122   -5232.2415   -5211.9678   -5232.2415            0   -1233.9413    20.003453    19.945116    21.123288    8427.5832    -1144.124   -1293.8297   -1263.8702   -110.63748    116.35908   -96.996334   -5363.6287 
13667000    10.441753   -5232.7589   -5212.6211   -5232.7589            0    -1270.333      20.0157    20.016282     21.01892    8421.0181   -1199.6965   -1675.1989   -936.10365    126.19024    251.01907   -256.04548   -5368.6331 
13668000    10.511102   -5232.1796    -5211.908   -5232.1796            0   -1208.3851    20.001967    19.946472    21.085148    8412.3133   -1091.3003   -1336.2185   -1197.6367   -80.446257    351.57107   -118.03368   -5360.1587 
13669000     10.92909    -5234.302   -5213.2244    -5234.302            0   -1160.9432    20.006087    19.952509    21.061685    8407.2273   -1057.5475   -1270.0515   -1155.2306   -201.36533    350.68105   -232.98106   -5355.5685 
13670000    10.118044   -5232.4505    -5212.937   -5232.4505            0   -1410.6552    20.024836    19.981727    21.043379    8420.1044   -966.35987   -1813.2925   -1452.3131    -386.6979    2.6254048   -29.777974   -5386.1635 
13671000    10.124959    -5232.889   -5213.3621    -5232.889            0   -1306.9222    20.049167    19.903064    21.034781    8393.7158    -1655.099   -777.71656   -1487.9508   -170.62529    293.42214   -8.9687041   -5373.3474 
13672000    10.058822   -5234.3723    -5214.973   -5234.3723            0   -1237.9259    20.025324    19.956849    21.012646    8397.5436    -1502.762   -1009.2701   -1201.7456   -150.41219     332.7845   -206.60376   -5366.5813 
13673000    9.9881439    -5233.896    -5214.633    -5233.896            0   -1427.5084    20.019523    19.954133    21.043652    8406.3542   -1452.6257   -1328.4367   -1501.4629   -186.04983    88.442944   -155.50612   -5389.6427 
13674000    10.472465   -5234.2049   -5214.0079   -5234.2049            0   -1130.5664    19.994911    19.940484    21.069837    8400.7167   -814.63734   -1317.9213   -1259.1406   -95.110836   -25.354156   -29.717037   -5352.5202 
13675000    10.061809   -5233.9001   -5214.4951   -5233.9001            0   -1237.0193    20.021812    20.002175    20.950934    8390.4253   -1204.7268    -1456.563    -1049.768    -101.1227    8.4979289   -39.643066   -5365.8639 
13676000     10.02829   -5233.6025   -5214.2621   -5233.6025            0   -1377.1502     20.01104    19.938266    21.099286    8418.3082   -1116.0739   -1570.2937   -1445.0829   -153.83053    271.00059   -19.965635   -5383.3381 
13677000    10.402703    -5233.038   -5212.9755    -5233.038            0   -1304.2119    20.016276    19.964795    21.059569    8415.8429   -1014.3507   -1759.6606   -1138.6244   -67.726564    268.10867    11.724432   -5373.0498 
13678000      10.2448   -5232.8375   -5213.0795   -5232.8375            0   -1200.0679    20.000471     20.00769    21.055391    8425.5931    -1441.049   -1138.2584   -1020.8964    -54.05172    481.23776   -25.164913   -5360.5422 
13679000    10.266356   -5231.9071   -5212.1076   -5231.9071            0   -1234.1036    19.980736    19.943495    21.095162    8406.1206   -1408.4138   -971.09245   -1322.8046   -159.20948    329.95208   -80.413746   -5363.4021 
13680000    10.361799   -5233.4205   -5213.4369   -5233.4205            0   -1208.6023      19.9835    19.972768    21.091286    8418.0766   -1501.8456   -932.29539    -1191.666   -106.22338    174.99022   -216.84312   -5361.8158 
13681000    10.214167   -5233.5185   -5213.8196   -5233.5185            0   -1466.2826     20.01796    19.984839    21.059401    8424.9333   -1406.6483   -1650.6728   -1341.5268    87.769858    248.98791   -84.480673   -5393.9803 
13682000    10.074747   -5232.9834   -5213.5534   -5232.9834            0   -1109.7241    19.979645    19.882784    21.138931    8397.4606   -1077.3735   -649.82712   -1601.9716   -67.318916    210.62726   -266.24154   -5349.4595 
13683000    9.8083169   -5233.8678   -5214.9516   -5233.8678            0   -1359.2052    19.978931    20.004747    21.039591    8408.9664   -1269.5998   -1472.2744   -1335.7413   -214.50766    278.60801   -46.490716   -5381.6393 
13684000    9.6660767   -5232.5703   -5213.9285   -5232.5703            0   -1596.9403    20.014464    20.001305    21.027789    8417.7476   -1808.1537   -1482.8172   -1499.8501   -38.771858    243.26204   -56.279532   -5409.9756 
13685000    10.716138   -5233.4256   -5212.7586   -5233.4256            0   -1344.7397    20.005262    19.958861    21.076022    8415.2818   -1297.1616   -1481.1967   -1255.8608   -134.04732    421.20397   -239.52903   -5377.7962 
13686000    10.452955   -5231.7983   -5211.6389   -5231.7983            0    -1473.015    20.024583    20.027356    21.038272    8437.1772   -1513.6309   -1676.8115   -1228.6028   -285.44441    267.33063    -284.7816   -5392.8898 
13687000    9.8264331   -5232.7514   -5213.8003   -5232.7514            0   -1560.6557    20.023448    19.954855    21.062994    8416.0354   -1625.6959   -1521.1833   -1535.0878   -110.52701    402.75069    233.35786    -5405.354 
13688000    10.508841   -5233.9976   -5213.7304   -5233.9976            0   -1229.6299    19.991998    19.947444    21.069883    8402.4433   -918.50573   -1372.6065   -1397.7775   -85.246148    56.217195    48.159465   -5364.4105 
13689000    9.6148098   -5232.1361   -5213.5931   -5232.1361            0   -1607.8277    20.019859    20.029441    21.068276    8448.0961   -1512.0517   -1787.8283   -1523.6032   -287.63605    195.01995    156.32627   -5411.6885 
13690000    10.298123   -5231.0739   -5211.2131   -5231.0739            0   -1416.0512    20.014454    19.939512    21.087305     8415.489   -1388.5142   -1013.3074    -1846.332   -68.274371    318.06469    19.696383   -5385.0068 
13691000    9.7319263    -5232.157   -5213.3882    -5232.157            0   -1318.6206    19.982949    19.992658    21.063753    8415.2281   -1089.1657   -1465.3742   -1401.3218   -176.78433    267.56004   -55.018877   -5375.2192 
13692000    9.9089828   -5232.2896   -5213.1793   -5232.2896            0   -1362.4629    20.014026    20.014263    20.999915    8411.8514   -1234.5616    -1765.492   -1087.3351   -116.17899    357.78667    133.71227   -5380.3239 
13693000    10.119104   -5232.8257   -5213.3101   -5232.8257            0   -1412.5315    20.009615    19.939178    21.088875    8413.9398   -1159.9109   -1398.4047   -1679.2789   -215.36918    81.087865   -116.84248     -5386.64 
13694000    10.937302   -5234.6275    -5213.534   -5234.6275            0   -1368.7633     20.02858    20.013761    20.998289    8417.1055   -1320.1213   -1677.4825    -1108.686    -239.2374    319.53293   -225.97639   -5381.5563 
13695000    10.291196   -5233.5614    -5213.714   -5233.5614            0   -1304.9898     20.01121    20.003503    21.001933    8406.9536   -1334.1017   -1524.6798   -1056.1877   -132.27756    416.63337    99.715212   -5373.7146 
13696000    10.238869   -5233.8474   -5214.1008   -5233.8474            0   -1197.8699    19.981081    19.956533     21.04124    8390.2598   -1043.1911   -1311.9252   -1238.4934   -63.662936    291.47503   -132.93936   -5360.6762 
13697000    10.518779   -5232.5882   -5212.3019   -5232.5882            0   -1378.7096    19.976316    20.013908    21.088232    8431.1622   -1099.2844   -1675.8665   -1360.9778   -81.894786    236.79219   -79.211197   -5381.8278 
13698000    10.083542   -5232.5416   -5213.0947   -5232.5416            0   -1386.6746    19.987332    19.992038    21.042648    8408.3792   -1576.9403   -1254.6048   -1328.4787   -192.83707    184.26153   -25.311095   -5383.1392 
13699000    10.168118   -5232.3146   -5212.7045   -5232.3146            0   -1152.6692    19.979148    19.919578    21.107037    8400.0981   -908.31558   -1048.6441   -1501.0478    -76.27762    329.48511   -120.41122   -5353.9144 
13700000    9.9661608   -5232.9415   -5213.7209   -5232.9415            0   -1412.3578    20.029218     20.02884    20.999008    8424.0041   -1383.8051   -1607.9709   -1245.2973   -150.53872    153.65889    104.85214   -5387.2367 
13701000    9.8053836   -5231.9879   -5213.0774   -5231.9879            0    -1262.131    19.965143    19.956814     21.10037    8407.2451   -1102.9727   -1115.0014   -1568.4188    -39.29864   -107.31654   -123.41183   -5367.8286 
13702000     10.15181   -5233.0864   -5213.5077   -5233.0864            0   -1497.6592    20.010079    19.956761     21.09767    8425.0665   -1519.5995   -1269.7403   -1703.6377   -107.11384     15.88673   -44.978046   -5397.5266 
13703000    10.051959   -5233.0951    -5213.709   -5233.0951            0   -1467.8103    20.037465     20.05256    21.001584    8438.4887   -1691.2713   -1685.8712   -1026.2884    -82.75609    246.12965   -119.09733   -5394.3476 
13704000     10.34168   -5234.1379   -5214.1931   -5234.1379            0   -1313.5422    20.006106    19.933219    21.136501    8428.9431   -1222.6907   -1017.6125   -1700.3234    -107.9135    77.739586    173.38634   -5375.6636 
13705000     9.695275   -5233.4314   -5214.7332   -5233.4314            0   -1479.2395    20.017789     19.98637    21.056993    8424.5437   -1621.5231   -1327.1998   -1488.9957   -51.682055    323.98418   -60.365119   -5396.4775 
13706000    9.6953195   -5233.4631   -5214.7649   -5233.4631            0   -1484.7384    20.027747    20.027372    20.985711    8417.4346   -1443.9465    -1811.429   -1198.8396   -144.60481    162.75914    490.45229   -5397.0308 
13707000    9.9731684   -5232.6599   -5213.4258   -5232.6599            0   -1504.1535    19.992272    19.935241    21.119735    8417.2866   -1236.3707    -1558.127   -1717.9626   -174.61919    198.92774   -135.81237    -5398.072 
13708000    10.138198   -5233.5438   -5213.9914   -5233.5438            0   -1179.5439    20.002117     19.99253    21.000467    8397.9381   -962.66225   -1358.0337   -1217.9357   -183.50825   -129.98557   -77.219324   -5358.4564 
13709000    10.193889   -5232.8382   -5213.1784   -5232.8382            0   -1320.1047    20.009591    20.023243    21.032278    8426.7273   -1091.8301     -1666.46   -1202.0241   -167.45899   -55.052577    -232.7328   -5375.4129 
13710000    10.776032   -5233.3205   -5212.5381   -5233.3205            0   -1246.4549    20.022567    19.887682    21.097771    8401.1842   -1368.7707   -751.06728   -1619.5266   -225.24744    230.91754   -61.682258    -5365.257 
13711000     10.39102   -5233.7449   -5213.7049   -5233.7449            0   -1384.2171    19.976942     20.02391    21.035183    8414.4203   -1109.3894   -1641.6686   -1401.5934   -111.77494    469.00561    311.87092   -5383.5701 
13712000    10.260423   -5233.2808   -5213.4927   -5233.2808            0   -1449.4093    20.015459    19.983455    21.028292    8410.8548   -2047.6408   -1054.8662    -1245.721   -184.16783    114.65594    92.802967   -5391.2826 
13713000    10.483495   -5232.6363    -5212.418   -5232.6363            0   -1177.1218    19.967301     19.93877    21.107936    8403.5639   -986.33504   -1083.9915   -1461.0388   -95.727267     170.3063    66.661558   -5356.6829 
13714000    10.217386   -5232.4195   -5212.7144   -5232.4195            0   -1399.1898    20.007531      20.0011    21.053463    8425.0196   -1407.7561   -1639.5559   -1150.2574   -113.33838    117.20844   -223.10985   -5384.6332 
13715000     9.937863   -5233.5408   -5214.3748   -5233.5408            0   -1391.2766    19.990577    19.995854    21.090715    8430.5633   -1213.4755   -1507.2574    -1453.097   -249.51881    171.65764    73.819243   -5385.4338 
13716000    9.8330566   -5233.2864   -5214.3226   -5233.2864            0   -1402.0631    20.015296    19.950882    21.058156    8409.0019   -1585.3498   -1025.7792   -1595.0603   -190.90925    488.66918     65.40887   -5386.2669 
13717000     9.644163   -5232.8609   -5214.2614   -5232.8609            0   -1519.8324     20.03089    20.012739    21.005988     8420.733   -1489.7336   -1766.3674   -1303.3961   -218.84709    541.14726   -215.55072   -5400.9086 
13718000    10.681945   -5232.4821   -5211.8811   -5232.4821            0     -1543.36    20.045364    19.938591    21.071622    8421.8279   -1542.6023   -1439.4602   -1648.0176     -125.644    180.59606    -103.0004   -5401.4423 
13719000    10.390434   -5233.1528    -5213.114   -5233.1528            0   -1375.3292    20.028508    19.952486    21.072291    8420.8783   -1411.8627   -1279.2969   -1434.8279   -107.78721    84.463465    -250.1834    -5382.018 
13720000    10.361665   -5234.0419   -5214.0586   -5234.0419            0   -1467.5091    20.031586    20.005424    21.017702    8422.6418   -1444.8593   -1852.2412   -1105.4267   -46.181694    267.48047    97.495133   -5394.3209 
13721000    10.367367   -5233.7995   -5213.8052   -5233.7995            0   -1310.6588    20.004461    19.933524    21.100386    8413.9772   -1179.4323   -1134.1581   -1618.3859   -92.116732    258.27048    246.17139   -5374.6351 
13722000    9.5450819   -5233.0211   -5214.6126   -5233.0211            0   -1299.9379    20.000572    19.971446    21.063921    8413.7799   -1208.8365   -1336.1065   -1354.8707   -175.84669    196.16939    408.23975   -5374.1232 
13723000    10.376234     -5233.72   -5213.7086     -5233.72            0   -1500.3052    20.041536    19.995632    21.033956    8429.2143   -1479.4166   -1634.0573   -1387.4417    18.953615   -3.3362928    232.72833   -5398.1433 
13724000    10.399113   -5233.3414   -5213.2858   -5233.3414            0   -1356.1669    20.005132    19.930723    21.116945    8419.6797   -1467.0305   -954.10883   -1647.3613   -147.09887     247.3853   -23.078798   -5379.8128 
13725000    9.7401824   -5233.4352   -5214.6505   -5233.4352            0   -1369.0956    19.989333    20.020736     21.06636    8430.7818     -1232.39   -1441.6133   -1433.2833   -194.31716    219.69041   -150.19131   -5382.9866 
13726000    10.404342   -5233.0973   -5213.0316   -5233.0973            0   -1290.8738    19.998986    19.969764     21.11185    8431.5457   -1253.6582   -1452.9326   -1166.0306    -94.49346    186.56751   -147.08555   -5371.7645 
13727000     10.64848   -5231.9089   -5211.3725   -5231.9089            0   -1277.6148    19.980354    19.927475    21.119578     8408.929   -1154.8194   -1256.8218   -1421.2032   -81.975087     294.4847    291.27732   -5368.0535 
13728000    10.589394   -5233.2663   -5212.8438   -5233.2663            0   -1354.5019    20.015537    20.018828    21.029907    8426.4232   -1406.1862   -1536.3464   -1120.9732   -197.94977    288.01881   -94.164682   -5379.2995 
13729000    10.754565   -5233.0607   -5212.3196   -5233.0607            0   -1358.1979    20.024924    19.940888    21.068481    8412.9558   -1300.7237   -1418.9382   -1354.9318   -19.521726    132.56647   -166.73274   -5378.9628 
13730000    10.670326   -5232.9753   -5212.3967   -5232.9753            0   -1506.8299    20.020357    19.946294    21.092118    8422.7562    -1472.378   -1410.3224   -1637.7892   -141.20553    260.48152    181.04345   -5397.4915 
13731000     10.60405   -5233.0547   -5212.6039   -5233.0547            0   -1314.1645    20.019387    20.030177    20.956764    8403.4918   -1496.8213   -1398.5075   -1047.1648   -60.892126    94.983367    312.84312   -5373.6631 
13732000    9.9114612   -5231.6972   -5212.5821   -5231.6972            0     -1228.01    19.985523    19.983379    21.068541    8414.3176   -1270.8405   -1150.6462   -1262.5434   -162.08363    63.951058   -102.13796   -5363.2764 
13733000    10.172976   -5233.5211   -5213.9017   -5233.5211            0   -1077.5989    20.013765    19.931154    21.091481    8413.3377   -1045.0643   -936.20575   -1251.5266   -61.414142    261.66179    221.82768   -5346.1229 
13734000    10.718063   -5233.4861   -5212.8154   -5233.4861            0   -1246.8254    20.026102    19.997155    21.018724    8417.2644   -1350.0482   -1430.1919   -960.23618   -117.31868    326.90193    62.660649   -5365.8721 
13735000    10.349431   -5235.3769   -5215.4172   -5235.3769            0   -1221.6119    19.998575    19.951124    21.035902    8393.1997   -1239.1047   -993.38751   -1432.3434    -139.2283     94.81907   -369.25011     -5364.95 
13736000    10.562266   -5235.3251   -5214.9549   -5235.3251            0   -1174.8519    19.982997    19.956112     21.06729    8401.2758   -1252.5516   -944.12667   -1327.8775   -37.829245    173.32701    107.05325   -5358.9025 
13737000    10.561712   -5233.6853   -5213.3161   -5233.6853            0   -1388.5026    20.045345    20.003366    21.011685     8425.147   -1194.4212   -1665.1844   -1305.9022   -41.762537    85.663242   -2.9185483   -5383.9244 
13738000    10.587401   -5233.8455   -5213.4268   -5233.8455            0   -1104.9165    19.989044    19.924617    21.089764    8399.5054   -1064.3339   -871.94039   -1378.4751   -255.41219    285.86597    -346.2191   -5348.7771 
13739000    9.7664589   -5232.3165    -5213.481   -5232.3165            0   -1220.0458    20.019594    20.007133    21.000962    8411.6137   -1223.4526   -1381.7213   -1054.9636   -115.77354   -11.139999    118.35285   -5363.1498 
13740000    10.248403    -5232.123   -5212.3581    -5232.123            0   -1277.8051    20.007376    19.970918    21.081126    8423.2941   -1269.8841   -1605.7556   -957.77577   -41.812125    350.55832    203.96512   -5369.3302 
13741000     9.634906   -5232.8082   -5214.2265   -5232.8082            0   -1016.6374    20.034097    19.885752    21.088171    8401.3814   -1409.5146   -532.31404   -1108.0836   -124.47794    31.214962   -29.834468   -5338.7905 
13742000    10.327852   -5233.4591    -5213.541   -5233.4591            0   -1451.2373    20.026368    19.996445    21.038273    8424.9063    -1808.528   -1548.8799   -996.30406   -168.75635    281.39235   -78.721873   -5391.8525 
13743000    10.024055   -5231.3473   -5212.0151   -5231.3473            0   -1438.0302    20.022145    20.006528    21.019202    8419.7374   -1341.1766   -1652.7942   -1320.1199   -190.73713     339.3125    70.284481   -5388.5955 
13744000    10.483329   -5232.4665   -5212.2485   -5232.4665            0   -1502.0288     19.98208    19.955778    21.133299    8427.0708   -1120.5769   -1731.1195   -1654.3902   -153.63422    231.39731   -139.22536   -5396.8481 
13745000    10.867141   -5232.4529   -5211.4947   -5232.4529            0   -1342.6432    20.016695    19.983205    21.090354    8436.0937   -1395.2228    -1437.487   -1195.2198   -81.297677    70.202925   -115.28169   -5376.6824 
13746000    10.252296   -5232.1431   -5212.3707   -5232.1431            0    -1332.867    19.998512    19.951098    21.109266    8422.4337   -1318.8112   -1000.9377   -1678.8521   -155.84973   -70.985906    1.7979874   -5376.0901 
13747000    10.298142   -5233.6457   -5213.7849   -5233.6457            0   -1244.9898    19.986514    19.986598     21.05518    8410.7533   -1287.9877   -1313.5134   -1133.4682   -218.92558    113.86245    -105.9458   -5366.4981 
13748000    10.407146   -5232.2861    -5212.215   -5232.2861            0   -1306.9093    20.034644    19.995824    21.005775    8415.1073   -1365.2337   -1586.6755   -968.81856   -153.82766    309.86446   -116.70012   -5372.6064 
13749000    9.7313392   -5233.3086   -5214.5409   -5233.3086            0   -1180.1794    19.975493    19.943022    21.065577    8391.9298   -928.40648   -1134.8313   -1477.3003    -47.40163     245.5955   -179.83846   -5358.9804 
13750000    10.488411   -5232.6016   -5212.3738   -5232.6016            0   -1425.8926    19.983035    19.981077    21.054135    8406.5492   -1396.1484    -1360.208   -1521.3213   -129.55254    55.437612   -110.99257   -5387.1895 
Loop time of 354.987 on 64 procs for 250000 steps with 972 atoms

Performance: 121.694 ns/day, 0.197 hours/ns, 704.250 timesteps/s
99.1% CPU use with 64 MPI tasks x 1 OpenMP threads

MPI task timing breakdown:
Section |  min time  |  avg time  |  max time  |%varavg| %total
---------------------------------------------------------------
Pair    | 16.686     | 25.83      | 35.406     |  90.8 |  7.28
Bond    | 0.25548    | 0.27359    | 0.28554    |   1.2 |  0.08
Kspace  | 143.33     | 152.63     | 161.94     |  37.2 | 42.99
Neigh   | 0.087068   | 0.091598   | 0.094799   |   0.5 |  0.03
Comm    | 82.312     | 83.054     | 84.078     |   4.5 | 23.40
Output  | 0.55653    | 0.55793    | 0.55938    |   0.1 |  0.16
Modify  | 82.799     | 84.323     | 87.312     |  11.5 | 23.75
Other   |            | 8.231      |            |       |  2.32

Nlocal:        15.1875 ave          19 max          11 min
Histogram: 1 5 12 8 0 7 9 13 8 1
Nghost:        2209.38 ave        2229 max        2185 min
Histogram: 3 1 3 8 8 13 10 7 9 2
Neighs:        4695.16 ave        6280 max        3038 min
Histogram: 2 3 8 9 10 9 7 6 5 5

Total # of neighbors = 300490
Ave neighs/atom = 309.14609
Ave special neighs/atom = 2.0000000
Neighbor list builds = 250
Dangerous builds = 0

unfix		3
unfix		2
unfix		1

write_data	data.final.${pid}
write_data	data.final.1
System init for write_data ...
PPPM initialization ...
  extracting TIP4P info from pair style
  using 12-bit tables for long-range coulomb (../kspace.cpp:340)
  G vector (1/distance) = 0.37212157
  grid = 24 24 25
  stencil order = 5
  estimated absolute RMS force accuracy = 0.0034419082
  estimated relative force accuracy = 1.0365204e-05
  using double precision FFTW3
  3d grid and FFT values/proc = 2366 288
Last active /omp style is kspace_style pppm/tip4p/omp
WARNING: Not all mixed pair coeffs generated from mixing. Use write_data with 'pair ij' option to store all pair coeffs. (../write_data.cpp:312)

write_restart   restart.lmp.${pid}
write_restart   restart.lmp.1
System init for write_restart ...
PPPM initialization ...
  extracting TIP4P info from pair style
  using 12-bit tables for long-range coulomb (../kspace.cpp:340)
  G vector (1/distance) = 0.37212157
  grid = 24 24 25
  stencil order = 5
  estimated absolute RMS force accuracy = 0.0034419082
  estimated relative force accuracy = 1.0365204e-05
  using double precision FFTW3
  3d grid and FFT values/proc = 2366 288
Last active /omp style is kspace_style pppm/tip4p/omp
Total wall time: 0:05:55
