LAMMPS data file via write_data, version 30 Jul 2021, timestep = 24000000

1008 atoms
2 atom types
672 bonds
1 bond types
336 angles
1 angle types

-3.1415526520033765 14.751551651557406 xlo xhi
-0.16663623754371137 22.746635237571432 ylo yhi
-0.05191271367128181 19.281910713674414 zlo zhi
0.04716863711770401 -6.134339976547632 0.1043671473136297 xy xz yz

Masses

1 1.008
2 15.999

Pair Coeffs # lj/cut/tip4p/long/omp

1 0 0
2 0.21084 3.1668

Bond Coeffs # harmonic/omp

1 450 0.9572

Angle Coeffs # harmonic/omp

1 55 104.52

Atoms # full

21 7 1 0.5897 0.5422308866290901 2.576735166115543 1.1349789134812462 0 0 0
33 11 1 0.5897 0.3510500704638071 0.5951389394951473 2.5339352647386795 0 0 0
56 19 1 0.5897 -1.135432361481676 3.5358111909331003 2.97505857002557 0 0 0
122 41 1 0.5897 -2.1467996965397 2.4326186847656337 0.9810562529004643 1 0 0
86 29 1 0.5897 -2.156233752822412 0.980594671264418 3.6208175088926926 1 0 0
123 41 1 0.5897 -3.04732681701188 2.865423227887663 2.1184482826703515 1 0 0
121 41 2 -1.1794 -2.1376184212989653 2.6496385285459714 1.9132987345530887 1 0 0
55 19 2 -1.1794 -0.5351959743768266 3.9349171179706888 3.6048960473379585 0 0 0
19 7 2 -1.1794 0.8512014151785219 2.741281374747212 0.24409540313558065 0 0 0
158 53 1 0.5897 -4.105077915774039 4.236460057016556 3.908475431754504 1 0 0
482 161 1 0.5897 -0.9902466197505251 0.01649060980551989 0.7194543636499936 1 1 0
57 19 1 0.5897 0.22954135933344233 4.18128801495837 3.0846539047649943 0 0 0
157 53 2 -1.1794 -3.525174523388446 4.79981258668496 4.420964842329923 1 0 0
85 29 2 -1.1794 -2.075337532942074 0.6576037682300324 4.518245630531226 1 0 0
114 38 1 0.5897 -3.3001765423851053 5.386705148056146 1.4100493662839786 1 0 0
101 34 1 0.5897 -2.5750971034718324 4.458816122865976 -0.04881255811659117 1 0 0
669 223 1 0.5897 -4.669002489829371 1.7663014388224665 8.978995876416587 1 0 0
133 45 2 -1.1794 -2.1164580876171115 3.129697499143224 6.163105434814891 1 0 0
87 29 1 0.5897 -1.7918633475301784 1.4199691104230885 5.023028737393774 1 0 0
134 45 1 0.5897 -2.883752360971464 3.031228565947368 6.726818052193021 1 0 0
69 23 1 0.5897 -2.1673098684370573 1.3624073234211558 8.571647739652335 0 0 0
98 33 1 0.5897 -3.9251872528394536 5.044446914207324 8.79697348808435 1 0 0
124 42 2 -1.1794 -4.658423938179931 2.5775594675958415 7.399740815911196 1 0 0
125 42 1 0.5897 -4.660981316908379 1.9346516404812069 6.690520225724729 1 0 0
67 23 2 -1.1794 -2.2205200080356104 0.6889673921052978 7.89341214182451 0 0 0
135 45 1 0.5897 -1.5873566130342271 3.801545308263867 6.593200409491581 1 0 0
159 53 1 0.5897 -2.9810395140570005 4.191898687461448 4.9216391603672225 1 0 0
97 33 2 -1.1794 -3.8029041040247704 4.5320777948705375 9.59622323057142 1 0 0
126 42 1 0.5897 -5.3391535913875945 3.2053150010400095 7.157186767606738 1 0 0
68 23 1 0.5897 -3.1197882067807647 0.3653737188696963 7.946517625204243 0 0 0
88 30 2 -1.1794 -4.659059939988118 1.1342900010274515 5.0699925528439955 1 0 0
90 30 1 0.5897 -3.7222521169231957 0.9608799981970757 4.9774877135753925 1 0 0
986 329 1 0.5897 -4.150645505533491 -0.015067527855941287 10.809290337124207 1 1 0
626 209 1 0.5897 -5.452886558638188 1.9904598685121204 12.492562241784443 1 0 0
524 175 1 0.5897 -2.770312050054151 3.141285133466475 9.812860925238823 0 0 0
627 209 1 0.5897 -6.584848519278104 2.95171059804911 12.19796120088527 1 0 0
625 209 2 -1.1794 -5.740667418615496 2.650575662253378 11.861902834451545 1 0 0
668 223 1 0.5897 -5.185009499842678 1.7457423010423252 10.402089052748149 1 0 0
560 187 1 0.5897 -4.597906966147894 3.978204497725997 12.81703759169921 0 0 0
559 187 2 -1.1794 -3.792633890733094 4.405992840739532 13.10821179687961 0 0 0
99 33 1 0.5897 -3.618023201646872 5.183455091884602 10.272880764080448 1 0 0
561 187 1 0.5897 -3.3341993058171413 3.7353258441606356 13.614541613904077 0 0 0
662 221 1 0.5897 -7.457894797725913 4.561168607260196 14.106621760309581 1 0 0
606 202 1 0.5897 -5.5924047990658385 4.673877488999382 9.670931350787017 1 0 0
523 175 2 -1.1794 -2.1640469121826107 2.4278650774947947 10.012419915999276 0 0 0
591 197 1 0.5897 -4.401385934404534 0.3531866894641945 14.260208499110924 1 0 0
661 221 2 -1.1794 -6.7284175299064 5.086686438752129 14.435207594265664 1 0 0
589 197 2 -1.1794 -4.803294741374234 1.1571351257445188 13.930828871682177 1 0 0
593 198 1 0.5897 -7.041884192946796 0.8348015126903077 14.15108295781544 1 0 0
667 223 2 -1.1794 -4.941744984375687 1.1704357641373107 9.676704876510225 1 0 0
663 221 1 0.5897 -6.434663883208281 5.5905989105453315 13.676248421685937 1 0 0
628 210 2 -1.1794 -7.769928028705092 2.723577847992546 16.68445067884871 1 0 0
20 7 1 0.5897 -5.52939304187386 2.0600209145810586 19.089535071600512 0 0 -1
637 213 2 -1.1794 -5.215512627669812 3.2065927826601146 16.003044906391796 1 0 0
165 55 1 0.5897 -8.753680135453084 0.5760225765885756 18.897728459613322 1 0 -1
638 213 1 0.5897 -5.264001276203869 4.006677037419583 15.47973647166243 1 0 0
639 213 1 0.5897 -6.127745070096155 2.990708216962827 16.1964552610584 1 0 0
164 55 1 0.5897 -7.932995465953663 1.6177054858725144 18.167426573338535 1 0 -1
590 197 1 0.5897 -4.709611621815492 1.783818670244807 14.648331655355395 1 0 0
601 201 2 -1.1794 -6.892079295678355 5.038412392031362 18.952553555441078 1 0 0
571 191 2 -1.1794 -5.060010425666743 0.4573996487807639 18.344611596668926 0 0 0
630 210 1 0.5897 -7.9744514765358785 2.0986470426492487 15.988773848763977 1 0 0
163 55 2 -1.1794 -7.996842171920902 1.1527832459194434 19.00170658550711 1 0 -1
629 210 1 0.5897 -8.252590166679834 3.515022032285731 16.445731306721147 1 0 0
603 201 1 0.5897 -6.2354483254318165 4.354371715954252 19.083916940463784 1 0 0
291 97 1 0.5897 -3.0712748894992705 10.261839622319416 2.524592237400469 1 0 0
332 111 1 0.5897 -2.327225173904702 9.327193891475682 0.5005064101423844 1 0 0
290 97 1 0.5897 -1.6695301335270023 10.72038086937821 2.182968884285104 1 0 0
255 85 1 0.5897 -2.1436342116749794 8.956492436095857 3.7948444192295283 1 0 0
145 49 2 -1.1794 -0.5444880257076381 7.19122824349668 1.2279701716625848 1 0 0
289 97 2 -1.1794 -2.223314174516818 9.940382036187867 2.2181725484013137 1 0 0
147 49 1 0.5897 -1.1968729687171895 7.734978260987979 0.7863608752525725 1 0 0
146 49 1 0.5897 -1.0549734203266374 6.6310354999204 1.8126016088582046 1 0 0
253 85 2 -1.1794 -2.301774399318137 8.491235752793251 4.616293893400374 1 0 0
112 38 2 -1.1794 -2.857370461939224 5.96052731996344 2.0353059872284516 1 0 0
113 38 1 0.5897 -3.226185823197944 5.719522497206071 2.885079831964767 1 0 0
602 201 1 0.5897 -0.4486597619373698 5.668572731418119 0.1490949509409097 1 0 1
188 63 1 0.5897 0.8181703266953662 10.168116849315048 0.8210542045771376 0 0 0
9 3 1 0.5897 -0.7975306846827901 5.606137981409381 4.394231833912332 0 0 0
254 85 1 0.5897 -1.662636653128655 7.77859780419006 4.615433919442699 1 0 0
257 86 1 0.5897 -4.041750960041886 8.808320567444548 4.745381477818715 1 0 0
111 37 1 0.5897 -4.619348938505288 6.436289970469631 7.444099374145075 1 0 0
292 98 2 -1.1794 -4.6847163539821235 9.971262636004251 7.620477477412041 1 0 0
294 98 1 0.5897 -4.645365233836876 9.650635679915245 8.521524885820517 1 0 0
293 98 1 0.5897 -3.771348083838576 10.129603423369437 7.382015641841192 1 0 0
302 101 1 0.5897 -1.8537626703606775 9.549370586094577 6.093619218265742 1 0 0
236 79 1 0.5897 -2.609416698145646 7.095701570585094 7.579711131322532 0 0 0
301 101 2 -1.1794 -2.1105851855661557 10.307497868758665 6.618657453964007 1 0 0
235 79 2 -1.1794 -1.8678836723007843 7.59509526700763 7.921774220414606 0 0 0
303 101 1 0.5897 -1.2889015687925847 10.63659514069722 6.983018346513752 1 0 0
110 37 1 0.5897 -3.85720568749335 5.719805815212442 6.349646785584596 1 0 0
837 279 1 0.5897 -5.651944785041705 8.501465255938513 9.527503569360974 1 0 0
109 37 2 -1.1794 -3.856729666614769 5.877614184540871 7.293757731744906 1 0 0
7 3 2 -1.1794 -0.5784594761304982 6.391208021141681 4.896273955382138 0 0 0
237 79 1 0.5897 -1.5020575225937938 7.040059563779569 8.610526431936897 0 0 0
692 231 1 0.5897 -2.2663816636035063 9.295140214428901 9.098492090701175 0 0 0
258 86 1 0.5897 -4.924273884153251 9.363672888407871 5.842918093494367 1 0 0
793 265 2 -1.1794 -5.609726440097775 10.300446044152492 12.374507390751553 1 0 0
836 279 1 0.5897 -4.376882130464999 8.389397995346014 10.335942730494544 1 0 0
650 217 1 0.5897 -2.9226564378882953 7.264861857832591 11.619289377793978 1 0 0
759 253 1 0.5897 -5.272964586325568 9.103683424593537 13.692407455731486 1 0 0
649 217 2 -1.1794 -3.6480589593301755 6.959843463447182 11.07429954617348 1 0 0
794 265 1 0.5897 -5.072296891858679 11.081422429824173 12.506998154173976 1 0 0
651 217 1 0.5897 -4.326119226278856 6.702909428524038 11.699142840502983 1 0 0
795 265 1 0.5897 -5.461648462701485 10.059465528016094 11.460030841976074 1 0 0
616 206 2 -1.1794 -6.056918622700252 6.558650215787543 12.216500007296256 1 0 0
691 231 2 -1.1794 -2.0657877292121185 10.065346025699482 9.63035646080067 0 0 0
618 206 1 0.5897 -6.451926130285523 5.978859633340934 11.565243150448941 1 0 0
617 206 1 0.5897 -6.5544838576430005 7.373384987780302 12.145831447558853 1 0 0
835 279 2 -1.1794 -5.046239278811472 9.01604203843196 10.060999659267278 1 0 0
513 171 1 0.5897 -3.774611001770353 5.656239794059326 14.404046016677896 0 0 0
757 253 2 -1.1794 -5.282631366916089 8.502769242390949 14.43744696629812 1 0 0
615 205 1 0.5897 -6.687895193068227 6.112236691824796 15.892294051981045 1 0 0
758 253 1 0.5897 -5.239334722675583 9.07228151495306 15.20562653336925 1 0 0
741 247 1 0.5897 -5.356098131142833 8.959800828650238 18.219867037547072 0 0 0
805 269 2 -1.1794 -5.0035689654657105 10.935989078283923 16.00144228584605 1 0 0
333 111 1 0.5897 -7.848264641335665 9.830753386693209 18.509054314974946 1 0 -1
797 266 1 0.5897 -6.620541903608572 10.677912313782315 16.902642647943203 1 0 0
613 205 2 -1.1794 -6.8387735241083245 6.609445756014504 16.696225370279578 1 0 0
740 247 1 0.5897 -5.552570978778906 7.6883603369479 17.421751707718073 0 0 0
796 266 2 -1.1794 -7.573471397464842 10.73625484001333 16.97155016388385 1 0 0
739 247 2 -1.1794 -4.874548021115363 8.240342976408739 17.811428642010707 0 0 0
798 266 1 0.5897 -7.899781250956865 10.151684066084435 16.287353019561905 1 0 0
512 171 1 0.5897 -4.308104134520242 6.967618422922328 14.940671730038448 0 0 0
511 171 2 -1.1794 -3.592582483602407 6.340833849561117 15.047894695394593 0 0 0
762 254 1 0.5897 -7.340882946417922 8.81619833158165 14.9043250941581 1 0 0
187 63 2 -1.1794 -5.3268403787268035 10.540727066100834 19.2360847566666 0 0 -1
614 205 1 0.5897 -6.800981467217981 5.954972900381262 17.39373138245638 1 0 0
331 111 2 -1.1794 -8.107295734065145 9.066253469610402 19.023573650312127 1 0 -1
281 94 1 0.5897 -2.8751085385760504 13.293800396511989 3.2493401245913067 1 0 0
315 105 1 0.5897 -0.5608280458450539 14.180992313466998 0.8504990790869176 1 0 0
223 75 2 -1.1794 -0.3615725120943094 11.999449381063858 2.902004525544151 0 0 0
314 105 1 0.5897 -0.016026915273012143 15.276690216603631 1.7419927135506414 1 0 0
280 94 2 -1.1794 -3.1094182585376338 13.852164805342955 2.5079805495754814 1 0 0
282 94 1 0.5897 -2.2789457204334718 14.232907431818777 2.2224018543119364 1 0 0
313 105 2 -1.1794 -0.8256891026421931 14.821475045451574 1.5107781284931703 1 0 0
225 75 1 0.5897 -0.43519045082384933 12.790119489475554 3.436605943177414 0 0 0
500 167 1 0.5897 -1.9702408889587137 16.086415810787756 0.5625808599211533 1 0 0
421 141 2 -1.1794 -1.847512584286372 16.450183528764967 4.749965243882464 1 0 0
499 167 2 -1.1794 -2.5888372911973296 16.67298768125933 0.12718883061096584 1 0 0
176 59 1 0.5897 -0.5869395759384535 14.944366600060018 4.604407220711344 0 0 0
224 75 1 0.5897 0.13891838545865465 11.389169067125767 3.443646652128541 0 0 0
306 102 1 0.5897 -4.301004364230722 11.405682266413724 3.935197219374525 1 0 0
175 59 2 -1.1794 -0.16991312722238527 14.096339911175326 4.757110850047607 0 0 0
423 141 1 0.5897 -1.9846969762818292 16.894011851478766 3.9130261119392493 1 0 0
403 135 2 -1.1794 -2.0931734799224015 15.764576714182239 7.509021810371469 0 0 0
405 135 1 0.5897 -2.0751131487517176 16.499662433339715 8.121929672708198 0 0 0
325 109 2 -1.1794 -2.7784010771196055 12.32912457789647 4.884014979417703 1 0 0
327 109 1 0.5897 -3.1250825366629496 12.82856754466243 5.62339873298939 1 0 0
277 93 2 -1.1794 -3.958795425768508 13.858739227562996 6.9209079831914355 1 0 0
278 93 1 0.5897 -3.243438394100072 14.48488288663729 7.032574796412451 1 0 0
424 142 2 -1.1794 -4.654570814679182 16.45040311727211 5.061819932021022 1 0 0
279 93 1 0.5897 -4.691144426523779 14.385683747705048 6.6010764530366774 1 0 0
267 89 1 0.5897 -2.9971040285840123 12.76806347556496 8.791009052774381 1 0 0
404 135 1 0.5897 -1.2080708589281839 15.733003479226083 7.1459534947978485 0 0 0
326 109 1 0.5897 -2.2927879341715354 11.60936691180917 5.287093982148491 1 0 0
1004 335 1 0.5897 -4.952483125473254 16.76781857426905 9.016651312104687 1 0 0
425 142 1 0.5897 -3.704399884431064 16.36497123425253 4.983661860632782 1 0 0
772 258 2 -1.1794 -6.081507510907933 12.296758998686787 9.599514280493608 1 0 0
774 258 1 0.5897 -5.126671441954031 12.251315501606653 9.550723948976502 1 0 0
727 243 2 -1.1794 -3.805530861687605 12.085945761535186 12.867333401686738 0 0 0
773 258 1 0.5897 -6.256475349300468 12.90009988981851 10.321808932688048 1 0 0
831 277 1 0.5897 -7.3244433052613065 12.193344974536002 14.072554919394845 1 0 0
784 262 2 -1.1794 -6.2205000866138365 14.06414296017286 11.806021354642212 1 0 0
819 273 1 0.5897 -3.391587127541615 13.917913615104133 10.633744619890251 1 0 0
786 262 1 0.5897 -6.399418697840687 13.758420967618962 12.695264337228775 1 0 0
818 273 1 0.5897 -4.563930356645563 14.359319276036306 11.483863709068238 1 0 0
1005 335 1 0.5897 -4.892307957148847 15.64954042983505 10.03541676279075 1 0 0
817 273 2 -1.1794 -3.6973128782486175 14.636829600759633 11.186969700530737 1 0 0
1003 335 2 -1.1794 -5.486219215220562 16.298287961218314 9.657652999340472 1 0 0
729 243 1 0.5897 -3.9983299514033357 13.006285412877224 13.04679225854144 0 0 0
728 243 1 0.5897 -2.958997302783495 12.100714574992484 12.42081261280643 0 0 0
785 262 1 0.5897 -6.77630331139448 14.836471829152368 11.701343542281482 1 0 0
829 277 2 -1.1794 -6.473988690169516 12.603339311808426 14.230197033397085 1 0 0
266 89 1 0.5897 -2.933329486473167 11.571078632816057 9.715813249061961 1 0 0
930 310 1 0.5897 -7.197477059987019 15.911942887932165 14.42695668018763 1 0 0
925 309 2 -1.1794 -5.345655686562795 16.026531523173503 14.402973327113 1 0 0
265 89 2 -1.1794 -3.2639359114602695 12.467708728302288 9.65980350805395 1 0 0
769 257 2 -1.1794 -6.983598515559676 12.820659149858367 19.068801158291592 1 0 0
830 277 1 0.5897 -6.626305709420781 13.196935935167682 14.96556195011923 1 0 0
907 303 2 -1.1794 -5.2822615489262965 15.390018508077665 17.87168072058813 0 0 0
908 303 1 0.5897 -6.038099853937119 15.122156764960067 17.34898449149077 0 0 0
781 261 2 -1.1794 -7.2644844528895725 14.079424285950148 16.613888984019834 1 0 0
782 261 1 0.5897 -7.06741287142891 13.549249672874227 17.38612037138481 1 0 0
783 261 1 0.5897 -8.2061175177909 14.242448848899395 16.668591406590767 1 0 0
927 309 1 0.5897 -5.201504486977258 16.820998670171036 14.917183393577531 1 0 0
806 269 1 0.5897 -5.415451058792019 11.460134531289775 15.314487832795567 1 0 0
909 303 1 0.5897 -4.6393959917267935 15.688708755989987 17.228473033514682 0 0 0
926 309 1 0.5897 -4.562443735643821 15.497340633776876 14.554093861354435 1 0 0
501 167 1 0.5897 -8.269012320030683 17.058399680437354 18.666694274042843 1 0 -1
357 119 1 0.5897 -5.553578319243487 16.92348388994636 18.951006158397636 0 0 -1
966 322 1 0.5897 -7.693849980522227 17.062912394645373 16.45064274677136 1 0 0
807 269 1 0.5897 -4.346100028138805 11.516662107229227 16.384638263839747 1 0 0
771 257 1 0.5897 -6.329086802570098 12.122286270324073 19.083486196858907 1 0 0
770 257 1 0.5897 -7.823836660535997 12.362329586040538 19.081722131978434 1 0 0
481 161 2 -1.1794 -0.599487751327417 22.32281904204342 1.3751031520899895 1 0 0
391 131 2 -1.1794 -0.13695543756280193 19.161222887891896 3.1355013641138223 0 0 0
393 131 1 0.5897 -0.4921487422229074 19.90564532894551 3.621307763431577 0 0 0
356 119 1 0.5897 0.8855049983802772 17.318743112104187 1.0134406545835037 0 0 0
458 153 1 0.5897 -2.594944487747603 17.48764147799035 1.6394864092185402 1 0 0
459 153 1 0.5897 -1.6862797620496184 18.350762779527905 2.488832344335483 1 0 0
448 150 2 -1.1794 -2.828466957936686 21.224635889705702 2.3823904113794674 1 0 0
483 161 1 0.5897 -1.374671451660368 21.884150983664334 1.7256542401331896 1 0 0
457 153 2 -1.1794 -2.495225625210335 17.840256843839967 2.523792015864063 1 0 0
355 119 2 -1.1794 0.6522629059494149 17.620711887462505 0.13556328659536504 0 0 0
495 165 1 0.5897 -2.983691053405119 20.84477049532316 4.322283510244719 1 0 0
938 313 1 0.5897 -0.7062155742506442 20.258956019218353 0.425024945658514 1 0 1
449 150 1 0.5897 -3.1126249274693754 20.64378779814345 1.6765596652831773 1 0 0
450 150 1 0.5897 -3.433417146370911 21.965420083169192 2.3419116505417965 1 0 0
939 313 1 0.5897 -0.6156930810242547 18.809885915583763 -0.00433837397568318 1 0 1
471 157 1 0.5897 -2.857719633334936 18.43999367003125 7.011397327209597 1 0 0
469 157 2 -1.1794 -2.0808263920144667 18.69497998539265 6.513773314254512 1 0 0
460 154 2 -1.1794 -4.721012986573637 17.788234983183642 7.273819193674357 1 0 0
494 165 1 0.5897 -3.7970982741345978 21.03227935477249 5.585218443228225 1 0 0
445 149 2 -1.1794 -4.195310956950099 21.7135599180923 7.2302147288363825 1 0 0
446 149 1 0.5897 -4.211872870512173 21.013966255676053 7.88334372646661 1 0 0
433 145 2 -1.1794 -3.7418552355047923 20.189178687750882 9.549690306284901 1 0 0
470 157 1 0.5897 -2.4163985940990473 19.259962080212638 5.817735498782341 1 0 0
859 287 2 -1.1794 -2.242639798628843 17.63396514224503 9.464692708022653 0 0 0
343 115 2 -1.1794 -0.4458726331821721 21.362019772220982 4.854578381643374 0 0 0
447 149 1 0.5897 -5.09920388826569 22.025919996371442 7.190054042146774 1 0 0
493 165 2 -1.1794 -3.6353793856587915 20.412282622276287 4.874037684323941 1 0 0
860 287 1 0.5897 -2.6573873826823426 18.48443261846731 9.31960937305233 0 0 0
345 115 1 0.5897 -1.0182109096797682 22.12779053198171 4.805630722382478 0 0 0
422 141 1 0.5897 -1.8557645214127934 17.15385095365957 5.398892684052832 1 0 0
462 154 1 0.5897 -4.563385232799423 17.270085595637838 6.484523958086953 1 0 0
895 299 2 -1.1794 -3.5707957083039736 19.419568074156537 12.901087918243087 0 0 0
952 318 2 -1.1794 -6.289276245183126 21.48932403319386 12.377140034818359 1 0 0
961 321 2 -1.1794 -5.710198871123206 17.747979802784954 12.021061001691143 1 0 0
998 333 1 0.5897 -6.386360537725939 20.913789176037817 14.154724061800835 1 0 0
954 318 1 0.5897 -5.3884599479944555 21.721388731389254 12.151557319928262 1 0 0
896 299 1 0.5897 -4.278444454289321 18.964602643050696 12.444482397231328 0 0 0
985 329 2 -1.1794 -3.7240019669398015 22.201030894421166 11.344337269569987 1 0 0
962 321 1 0.5897 -5.402256668962782 17.14314018513968 12.696037619513385 1 0 0
848 283 1 0.5897 -3.8678673456427184 21.11853796030165 14.023628293062476 0 0 0
434 145 1 0.5897 -3.5177776811874075 20.782635937650483 10.266582196216593 1 0 0
963 321 1 0.5897 -5.598145044542136 17.268584849800398 11.200126686105719 1 0 0
953 318 1 0.5897 -6.814450168972902 22.219473536828993 12.0493830404528 1 0 0
897 299 1 0.5897 -3.3391510856622535 18.837663099549985 13.624978558272844 0 0 0
987 329 1 0.5897 -2.909566662416502 22.573894704854048 11.681846239117613 1 0 0
435 145 1 0.5897 -4.648297299238137 19.935092326695987 9.722892349843235 1 0 0
965 322 1 0.5897 -7.8176718391272395 18.421658778189098 17.106926679584415 1 0 0
974 325 1 0.5897 -5.652696485644598 18.054823028384945 16.347323837489895 1 0 0
950 317 1 0.5897 -6.93277896792475 21.60562948132617 16.33883448189865 1 0 0
999 333 1 0.5897 -5.978468330297067 19.82452995607374 15.12386275597662 1 0 0
973 325 2 -1.1794 -4.9840684359308165 18.322918701454313 15.717054891261615 1 0 0
949 317 2 -1.1794 -6.936272749120663 21.932334372457518 17.238571038219536 1 0 0
975 325 1 0.5897 -4.322960284658669 18.771159164486157 16.244592334768758 1 0 0
951 317 1 0.5897 -7.061896776148471 21.150953006451722 17.77706674102944 1 0 0
964 322 2 -1.1794 -7.382332091470172 17.573971259336197 17.19768767827866 1 0 0
997 333 2 -1.1794 -6.673882148009644 20.457756204260555 14.945662767833674 1 0 0
847 283 2 -1.1794 -3.5264867305657157 21.830080542235414 14.565390346686117 0 0 0
572 191 1 0.5897 -5.706281247361076 22.78952823898566 18.032041041958557 0 -1 0
937 313 2 -1.1794 -7.210639718150592 19.732132878064583 19.141619808429986 1 0 0
437 146 1 0.5897 -9.105696012951245 19.642933904240216 19.274841448742126 1 0 -1
528 176 1 0.5897 2.6262062480284074 2.7586789210553433 0.04558430951427521 0 0 1
54 18 1 0.5897 2.9026932173451394 3.371309931450067 2.591951719981449 0 0 0
6 2 1 0.5897 3.7499931162482856 1.3953714942269975 4.33989396186786 0 0 0
52 18 2 -1.1794 3.4835430592546714 2.9414653094190033 3.2197441998936758 0 0 0
71 24 1 0.5897 2.970763480501928 0.6603395603900859 1.9961978734593626 0 0 0
31 11 2 -1.1794 1.1766251983585123 1.027378572804126 2.752674494578307 0 0 0
32 11 1 0.5897 1.069818361372457 1.3020687662050145 3.6633990114389414 0 0 0
46 16 2 -1.1794 1.7020556039026813 4.929402139371084 2.3645109189002036 0 0 0
70 24 2 -1.1794 3.664561939244882 0.30954653124144405 1.4377651823851536 0 0 0
47 16 1 0.5897 1.8316552582911543 5.478949517847626 1.5915930612114078 0 0 0
527 176 1 0.5897 3.787957934367901 1.9453214080653147 0.5755418689801645 0 0 1
53 18 1 0.5897 4.344008329203541 2.9578436879611654 2.800760344895908 0 0 0
18 6 1 0.5897 5.114034178070167 3.978272934694795 0.3840405835345377 0 0 0
526 176 2 -1.1794 3.5824572452027947 2.716533084929157 0.04702912839080045 0 0 1
48 16 1 0.5897 1.9907492779732978 5.4737232400163105 3.097081092459477 0 0 0
72 24 1 0.5897 4.337634217839069 0.011666483957397444 2.0497002426335014 0 0 0
59 20 1 0.5897 2.111641325964091 3.6328942036308582 5.62144063094768 0 0 0
76 26 2 -1.1794 1.1475248926285575 2.326674415407266 5.166673029589153 0 0 0
58 20 2 -1.1794 2.6002966007548576 4.303355387628827 6.09895975167767 0 0 0
34 12 2 -1.1794 0.6018112563586056 1.2947188440556991 7.558540006405875 0 0 0
35 12 1 0.5897 0.6469595587429224 1.9457412730102677 8.258884227413994 0 0 0
43 15 2 -1.1794 -0.16273775713681227 4.880871124068765 7.134324668329416 0 0 0
45 15 1 0.5897 0.6407838084916522 4.375145055937764 7.012370668129323 0 0 0
77 26 1 0.5897 0.9301123396499564 1.9746397724515874 6.0298311432257625 0 0 0
36 12 1 0.5897 -0.31720184680320296 1.0279153645596097 7.537743876327559 0 0 0
60 20 1 0.5897 3.397009638017993 3.858891060974691 6.3886275057455295 0 0 0
44 15 1 0.5897 -0.12740104016466391 5.171531151939904 8.045661597383512 0 0 0
5 2 1 0.5897 3.7649028409077534 0.070051065091573 5.0716433256915785 0 0 0
522 174 1 0.5897 2.5424513963351645 5.285378115499263 9.408327715663653 0 0 0
401 134 1 0.5897 2.9414734223185732 0.2686184712226843 8.971226501563192 0 1 0
402 134 1 0.5897 1.7779632385765423 0.1258748532147086 8.013216312348664 0 1 0
78 26 1 0.5897 0.4154942174708913 2.9048895801760204 4.951929258647381 0 0 0
535 179 2 -1.1794 -1.772588229610279 1.0746950363053964 12.354044399293224 0 0 0
536 179 1 0.5897 -1.7576382365345564 1.591641559718964 13.159550255232284 0 0 0
550 184 2 -1.1794 -1.1906781434584688 4.5436306401831255 12.093958514298187 0 0 0
537 179 1 0.5897 -2.0511016848859964 1.6922610577717068 11.677771950733637 0 0 0
557 186 1 0.5897 0.6663375191113508 2.562400936787386 13.722933398922008 0 0 0
520 174 2 -1.1794 2.571621923172687 4.543251607855046 10.012235600707305 0 0 0
556 186 2 -1.1794 0.8895080443080099 3.4120103736831706 13.342589178242443 0 0 0
574 192 2 -1.1794 0.5815360825378995 0.43187290390221433 11.249372646932546 0 0 0
576 192 1 0.5897 -0.24186607632465051 0.5401706874879604 11.72523157175629 0 0 0
558 186 1 0.5897 0.08158441154647456 3.7064259384334326 12.92208330885375 0 0 0
552 184 1 0.5897 -2.096479731414484 4.24150276994545 12.16072162730334 0 0 0
23 8 1 0.5897 0.7513364837833882 2.1121995756879732 10.558562248814649 0 0 0
551 184 1 0.5897 -1.1283673846462703 5.257539938676138 12.728624394279898 0 0 0
525 175 1 0.5897 -1.299518762289508 2.838687536077714 10.005537047562925 0 0 0
24 8 1 0.5897 1.1612828638849804 3.4845786551419993 10.067968036310592 0 0 0
22 8 2 -1.1794 0.49468219458033813 2.8073608444238247 9.95259458828805 0 0 0
587 196 1 0.5897 -0.7680833351969869 5.526189922492444 10.406958994824992 0 0 0
575 192 1 0.5897 1.153991074105587 -0.02967452423514516 11.862178465564412 0 0 0
564 188 1 0.5897 -1.3063101340653116 4.551257023497407 16.77793157826912 0 0 0
582 194 1 0.5897 -1.4870477668858557 3.2827873182939267 14.805196107460086 0 0 0
563 188 1 0.5897 -0.5828086488627653 5.1771422354874845 15.604602586127417 0 0 0
549 183 1 0.5897 -3.959642246771038 4.071856803405622 16.793067423261608 0 0 0
562 188 2 -1.1794 -0.47768531595357366 4.527128031470352 16.299386274035616 0 0 0
538 180 2 -1.1794 -2.6877864893668706 1.2640141077262759 16.844256449000998 0 0 0
548 183 1 0.5897 -3.3363093383067284 5.397205823311268 16.40963147299548 0 0 0
581 194 1 0.5897 -2.492514509047835 2.24550602092107 15.257961717699498 0 0 0
539 180 1 0.5897 -2.454859130574942 1.8761860348583603 17.542333664518658 0 0 0
547 183 2 -1.1794 -3.2561290636182036 4.675065370599315 17.0328441527437 0 0 0
540 180 1 0.5897 -3.5366946061563116 0.9098045360846794 17.109020052875017 0 0 0
580 194 2 -1.1794 -2.128171532443787 2.654432069155659 14.472948507317321 0 0 0
508 170 2 -1.1794 0.6552437245284786 0.9834778574466443 14.51373406601872 0 0 0
510 170 1 0.5897 0.5707784590300555 1.0387876073838576 15.465605651781766 0 0 0
84 28 1 0.5897 -3.4144213161879904 5.655470790166369 18.84602272246041 0 0 -1
239 80 1 0.5897 4.246272395480646 8.706940770838061 1.1342083436692336 0 0 0
174 58 1 0.5897 3.8415401159392353 9.078715414048252 4.49902387190374 0 0 0
240 80 1 0.5897 3.472504509462114 7.412743569665578 0.9982921994834095 0 0 0
238 80 2 -1.1794 4.055559848836144 7.887467251000052 1.5907212453865274 0 0 0
201 67 1 0.5897 2.2355584699383355 8.649943896197588 2.1554381776885365 0 0 0
82 28 2 -1.1794 2.44641671576991 6.277574272122592 0.07238262168491678 0 0 0
220 74 2 -1.1794 4.075114434924018 10.58505230913003 3.761810456038805 0 0 0
696 232 1 0.5897 4.224804394063074 11.015575818907102 0.17033631777829014 0 0 1
199 67 2 -1.1794 1.3758065089833744 9.058170445634802 2.2575994393437746 0 0 0
245 82 1 0.5897 1.0351377741959933 9.635682117799591 3.8712158915223807 0 0 0
694 232 2 -1.1794 3.7030934664165374 10.224055450047437 0.037571727200050475 0 0 1
200 67 1 0.5897 0.7539890718000515 8.371342943297012 2.0169422419924707 0 0 0
244 82 2 -1.1794 0.6534333145797029 10.095726036731541 4.618855415405092 0 0 0
221 74 1 0.5897 3.481946597745692 11.007347229599947 3.140442694264113 0 0 0
10 4 2 -1.1794 2.038234794264416 6.482454981239086 4.575007708528642 0 0 0
191 64 1 0.5897 0.6671339439583144 9.933505673564923 8.613725107995965 0 0 0
228 76 1 0.5897 1.837092748076703 10.836078396864814 5.941300022265298 0 0 0
173 58 1 0.5897 3.163282990755601 7.828316191894468 5.017245481563403 0 0 0
204 68 1 0.5897 1.1455023560078201 8.181287294408953 7.5406065823257 0 0 0
64 22 2 -1.1794 2.485970270757891 7.115482777622496 8.304859509363068 0 0 0
246 82 1 0.5897 0.5650899078165668 9.42348521210779 5.294560117465963 0 0 0
202 68 2 -1.1794 0.5399638335401735 8.661722458943471 6.975991656942767 0 0 0
203 68 1 0.5897 -0.3260664960394313 8.335312923024238 7.22017595496614 0 0 0
172 58 2 -1.1794 3.835805292431254 8.472195441804267 5.239552542248915 0 0 0
8 3 1 0.5897 -0.4708724392074459 6.079190261980145 5.794778770761192 0 0 0
66 22 1 0.5897 3.2174031070229 6.801498911294164 7.773175605862188 0 0 0
11 4 1 0.5897 2.368696783692153 5.7844272416832405 5.14056644821116 0 0 0
190 64 2 -1.1794 0.6498293961435744 10.12649026388159 9.55111550298402 0 0 0
65 22 1 0.5897 2.8719987180481157 7.779843254217514 8.875774544122821 0 0 0
12 4 1 0.5897 1.1126102123406145 6.560515641114428 4.805971270308657 0 0 0
693 231 1 0.5897 -1.111479428872598 10.134228495334765 9.602581841229062 0 0 0
744 248 1 0.5897 -0.4069668046504402 7.956966215785318 11.695924373873728 0 0 0
743 248 1 0.5897 0.597950720687503 8.804399823219896 10.944982465584461 0 0 0
588 196 1 0.5897 0.165785465964428 6.6308126533935345 9.960159061909865 0 0 0
724 242 2 -1.1794 0.8650686396508327 10.746330251972706 13.106616648076363 0 0 0
586 196 2 -1.1794 -0.4535051628480562 5.981788969409683 9.626165337351907 0 0 0
742 248 2 -1.1794 0.5186637524706645 7.998693546350649 11.455748045566773 0 0 0
705 235 1 0.5897 -2.231729324744718 9.327655807251437 13.010814097394325 0 0 0
750 250 1 0.5897 -2.835030276759337 10.979565883735651 14.141533810067182 0 0 0
704 235 1 0.5897 -2.0430568035462584 9.464177727607 11.514930829694482 0 0 0
703 235 2 -1.1794 -2.0277039298336557 8.821649004987743 12.224288593197542 0 0 0
516 172 1 0.5897 -0.3605424473207286 7.127483035332204 14.219927990541324 0 0 0
534 178 1 0.5897 1.8216758813065557 6.959583527934987 12.2315030566607 0 0 0
725 242 1 0.5897 0.10189503739811379 11.14301838216621 12.686534404640605 0 0 0
678 226 1 0.5897 0.4332235356656131 9.226255584272797 13.984996680914476 0 0 0
514 172 2 -1.1794 -0.9057692615859718 6.341453470221801 14.254388178771503 0 0 0
192 64 1 0.5897 1.2660914163643975 10.851066458772651 9.658436563503736 0 0 0
748 250 2 -1.1794 -2.003511674645596 10.53781917591518 14.313735155109317 0 0 0
707 236 1 0.5897 -3.140500309130706 8.586539829203561 17.21365968453894 0 0 0
706 236 2 -1.1794 -2.353451324231889 9.04477553304431 16.919062217335746 0 0 0
708 236 1 0.5897 -1.6332243620831868 8.459032755765978 17.152482790978635 0 0 0
569 190 1 0.5897 -0.896469386938481 6.430205005833047 18.691193890610894 0 0 0