LAMMPS (30 Jul 2021)
  using 1 OpenMP thread(s) per MPI task
package omp 0
using multi-threaded neighbor list subroutines
echo both

include		in.partitions
variable        pid world 0
include		in.temp
variable        temperature equal 266.49
variable	tempDamp equal 100.0
include		in.pressure
variable        pressure equal 9875.0
variable        pressureDamp equal 1000.0 # This is 1 ps
include		in.seed
variable        seed world 745823

units		real
atom_style	full
read_restart    restart.lmp.${pid}
read_restart    restart.lmp.0
Reading restart file ...
  restart file = 30 Jul 2021, LAMMPS = 30 Jul 2021
  restoring atom style full from restart
  triclinic box = (-3.2073572 -0.060522618 -0.089928904) to (14.817356 22.640522 19.319927) with tilt (-0.11764774 -6.4033190 0.13493404)
  4 by 4 by 4 MPI processor grid
  restoring pair style lj/cut/tip4p/long/omp from restart
  restoring bond style harmonic/omp from restart
  restoring angle style harmonic/omp from restart
  1008 atoms
  672 bonds
  336 angles
Finding 1-2 1-3 1-4 neighbors ...
  special bond factors lj:    0        0        0       
  special bond factors coul:  0        0        0       
     2 = max # of 1-2 neighbors
     1 = max # of 1-3 neighbors
     1 = max # of 1-4 neighbors
     2 = max # of special neighbors
  special bonds CPU = 1.057 seconds
  read_restart CPU = 1.854 seconds

include 	in.setup
variable	out_freq equal 1000
variable	out_freq2 equal 10000
variable	out_freq3 equal 1000

timestep	2.0

neigh_modify    delay 7 every 1

include		in.tip4p
# This is TIP4P/Ice

# create groups ###
group ox type 2
336 atoms in group ox
group hy type 1
672 atoms in group hy

# set charges - beside manually ###
set group ox charge -1.1794
Setting atom values ...
  336 settings made for charge
set group hy charge 0.5897
Setting atom values ...
  672 settings made for charge

# ### TIP3P Potential Parameters ###
pair_style lj/cut/tip4p/long/omp 2 1 1 1 0.1577 8.5
pair_coeff 1 1*2 0.000 0.000
pair_coeff 2 2 0.21084 3.1668
bond_style  harmonic
bond_coeff  1 450 0.9572
angle_style harmonic
angle_coeff 1 55 104.52
kspace_style pppm/tip4p/omp 1.0e-5
pair_modify tail yes

thermo          ${out_freq}
thermo          1000
thermo_style    custom step temp pe etotal epair emol press lx ly lz vol pxx pyy pzz pxy pxz pyz enthalpy

restart 	${out_freq3} restart.lmp.${pid} restart2.lmp.${pid}
restart 	1000 restart.lmp.${pid} restart2.lmp.${pid}
restart 	1000 restart.lmp.0 restart2.lmp.${pid}
restart 	1000 restart.lmp.0 restart2.lmp.0


include         in.dump
dump            myDump all atom ${out_freq2} dump.water.${pid}
dump            myDump all atom 10000 dump.water.${pid}
dump            myDump all atom 10000 dump.water.0
dump            myDump2 all dcd ${out_freq2} dump.dcd
dump            myDump2 all dcd 10000 dump.dcd
dump_modify     myDump append yes
dump_modify     myDump2 append yes


variable natoms 	equal  "count(all)"                        # NUMBER ATOMS
variable H      	equal  "enthalpy/v_natoms"                 # ENTHALPY-per-atom
variable Vol      	equal  "vol/v_natoms"                 # volume-per-atom
fix AVG all 		ave/time ${out_freq} 1 ${out_freq} v_Vol v_H file vol_enthalpy.dat
fix AVG all 		ave/time 1000 1 ${out_freq} v_Vol v_H file vol_enthalpy.dat
fix AVG all 		ave/time 1000 1 1000 v_Vol v_H file vol_enthalpy.dat



fix 		1 all shake 1e-6 200 0 b 1 a 1
       0 = # of size 2 clusters
       0 = # of size 3 clusters
       0 = # of size 4 clusters
     336 = # of frozen angles
  find clusters CPU = 0.028 seconds
fix             2 all nph tri ${pressure} ${pressure} ${pressureDamp}
fix             2 all nph tri 9875 ${pressure} ${pressureDamp}
fix             2 all nph tri 9875 9875 ${pressureDamp}
fix             2 all nph tri 9875 9875 1000
fix             3 all temp/csvr ${temperature} ${temperature} ${tempDamp} ${seed}
fix             3 all temp/csvr 266.49 ${temperature} ${tempDamp} ${seed}
fix             3 all temp/csvr 266.49 266.49 ${tempDamp} ${seed}
fix             3 all temp/csvr 266.49 266.49 100 ${seed}
fix             3 all temp/csvr 266.49 266.49 100 745823


run             250000
PPPM initialization ...
  extracting TIP4P info from pair style
  using 12-bit tables for long-range coulomb (../kspace.cpp:340)
  G vector (1/distance) = 0.37934647
  grid = 24 27 32
  stencil order = 5
  estimated absolute RMS force accuracy = 0.0024367887
  estimated relative force accuracy = 7.3383169e-06
  using double precision FFTW3
  3d grid and FFT values/proc = 3825 384
Last active /omp style is kspace_style pppm/tip4p/omp
Neighbor list info ...
  update every 1 steps, delay 7 steps, check yes
  max neighbors/atom: 2000, page size: 100000
  master list distance cutoff = 10.8154
  ghost atom cutoff = 10.8154
  binsize = 5.4077, bins = 5 5 4
  1 neighbor lists, perpetual/occasional/extra = 1 0 0
  (1) pair lj/cut/tip4p/long/omp, perpetual
      attributes: half, newton on, omp
      pair build: half/bin/newton/tri/omp
      stencil: half/bin/3d/tri
      bin: standard
Per MPI rank memory allocation (min/avg/max) = 9.313 | 9.327 | 9.337 Mbytes
Step Temp PotEng TotEng E_pair E_mol Press Lx Ly Lz Volume Pxx Pyy Pzz Pxy Pxz Pyz Enthalpy 
23750000    261.86051   -4775.7528   -4251.9994   -4775.7528            0    8832.4034    18.024713    22.701044    19.409856    7942.1212    8908.9713    9228.2722    8359.9668   -601.10455    -604.1269    733.88024   -3228.9625 
23751000    277.28299   -4843.1586   -4288.5584   -4843.1586            0    10304.392     17.97032    22.553123     19.49848    7902.4775     9447.572    11914.827    9550.7762   -174.72801    97.877046   -678.96038   -3100.9821 
23752000    263.55281   -4799.0436   -4271.9054   -4799.0436            0    10385.208      18.0299     22.66649     19.33034    7899.8178      10343.5    9828.3251    10983.799   -497.49404    -779.1822   -270.87518   -3075.4179 
23753000     269.1859   -4824.4732   -4286.0682   -4824.4732            0      10523.9    18.020935    22.582728    19.364312    7880.5369    10676.915    9726.2415    11168.543   -1056.9375   -1051.0769   -1055.6378   -3076.5611 
23754000    255.46529   -4834.6446   -4323.6825   -4834.6446            0    8741.6457    18.112423    22.686828    19.316417    7937.3751    8589.3847    9363.6133    8271.9393   -1023.5555    975.45556    1697.3284   -3311.7629 
23755000    263.02474   -4802.6599   -4276.5779   -4802.6599            0    9021.9776    18.086045    22.580234    19.437522    7938.0338    9013.3612    8478.0167    9574.5551   -633.30628    151.17241   -17.870362   -3232.1208 
23756000    269.90625   -4798.5247   -4258.6788   -4798.5247            0     9493.832    17.915461    22.769362    19.408541    7917.2022    9338.9988    10441.261     8701.236   -452.15787    260.95687    1527.3699   -3162.4804 
23757000     262.2255   -4805.1594    -4280.676   -4805.1594            0    9980.3117    18.003529    22.771059    19.271941    7900.7136    8104.7644    10806.472    11029.699    -597.8619   -278.23754   -2.3109961   -3130.7065 
23758000    275.32919   -4828.0041   -4277.3117   -4828.0041            0    7715.0763    17.902627    22.841159    19.464081    7959.1885    7252.0546    9156.8501    6736.3243   -1087.2407    104.65079   -544.80173   -3381.7718 
23759000     282.8367   -4811.3836   -4245.6752   -4811.3836            0    10561.933    18.034288    22.726679    19.274969    7900.0289    9604.5186    12183.149    9898.1304   -672.26707    1352.8254    853.00945   -3028.7946 
23760000    269.81208   -4800.4693   -4260.8118   -4800.4693            0    7667.5629    17.964449    22.701063    19.430815    7924.1216    5757.4219    8475.0814    8770.1854    778.41926   -418.08851    1710.1215   -3374.7085 
23761000    265.87189   -4806.9066   -4275.1299   -4806.9066            0    10377.034    17.897867    22.618731    19.412284    7858.6173    11506.085    10071.439    9553.5794   -1794.7213   -345.16461   -1254.2304   -3085.8194 
23762000    278.35251   -4789.5575   -4232.8181   -4789.5575            0    10946.265    18.031305     22.72235    19.337248    7922.7343     10829.84    10168.748    11840.209    352.83162   -594.94423   -28.373885   -2968.0324 
23763000    274.75264   -4786.5604   -4237.0212   -4786.5604            0    10146.914    17.873628     22.96041    19.247678    7898.9741    9569.4384    10708.485    10162.818    1443.0315    1739.5309   -702.72962   -3068.1126 
23764000    278.03001   -4843.9003   -4287.8059   -4843.9003            0     8567.622     17.86407    23.132296    19.186958    7928.7601    7168.0571    8882.9748    9651.8342   -706.30006   -431.25917   -612.39263   -3297.1075 
23765000    256.14901   -4785.0186   -4272.6889   -4785.0186            0    9542.8788    17.628628    23.422903    19.188518    7923.2008     11494.24    8659.6088     8474.788    1652.4618     449.2926    1378.6413   -3169.9925 
23766000    249.59152   -4761.9679    -4262.754   -4761.9679            0     11078.54    17.832737    23.147625    19.075486    7874.0845    10348.402    10601.216    12286.001    -716.3092   -231.94683    1039.9218   -2990.5449 
23767000    277.81616   -4829.5583   -4273.8917   -4829.5583            0    10880.826     17.95281    23.107281    19.015841    7888.5434    10539.107    10370.521    11732.849   -63.108349    208.93619   -1018.8263   -3022.0928 
23768000    260.81273   -4823.0496   -4301.3919   -4823.0496            0    10301.678    17.790615     22.94961    19.296009    7878.3227     10067.09    10815.707    10022.237    -162.3883   -402.14213   -466.27062   -3117.7574 
23769000    268.93275   -4814.4257    -4276.527   -4814.4257            0    8512.4132    18.070337    23.047734    19.007854    7916.3972    6307.2143    8966.7463    10263.279    655.59684   -1186.8378   -146.41471   -3293.7473 
23770000    259.47263   -4800.0045   -4281.0272   -4800.0045            0    9588.1106    17.742516    22.953645      19.4327    7914.0723    11138.431    8903.1073    8722.7937   -1026.6155   -2205.0168   -325.51795   -3174.3806 
23771000    263.32996   -4824.9743   -4298.2819   -4824.9743            0    9586.4271    17.826313     22.95431    19.244975    7874.8652    7943.9535    10010.693    10804.635    301.69138   -1200.2803    3116.3504   -3197.3111 
23772000     263.9772   -4798.3534   -4270.3664   -4798.3534            0    11037.083    18.098568    22.822842    19.031881    7861.3232    11903.855    10983.713     10223.68   -1057.0469   -1025.2787    105.90455   -3004.9722 
23773000    263.34509    -4844.228   -4317.5053    -4844.228            0    9085.7352    17.720725    23.001333    19.407458     7910.486    9800.7665    10636.673    6819.7663   -443.81491    145.02871    844.44919   -3269.3174 
23774000    272.54218   -4774.4725   -4229.3545   -4774.4725            0    9200.6103     17.92781    23.006599    19.180107    7910.9873     8875.082    9215.0646    9511.6842    528.63643    997.50025    1860.5801   -3167.8466 
23775000    281.88982   -4801.7963   -4237.9818   -4801.7963            0    10952.296    17.805648    22.998313    19.202739    7863.5191    11991.311    10720.097    10145.482   -557.32997   -199.82099   -584.01862   -2981.9576 
23776000    268.20286   -4787.7718    -4251.333   -4787.7718            0     9557.492    17.675736    23.134776    19.300362    7892.3848    9435.3803    8463.0153    10774.081   -661.28533   -420.34666    367.07809   -3151.2433 
23777000    267.63214   -4776.7524    -4241.455   -4776.7524            0    10343.031    17.863726    23.150347     19.08024    7890.6612    9989.2739    9859.2618    11180.558   -669.63351     619.0127      372.011    -3051.208 
23778000    266.62696   -4821.2052   -4287.9183   -4821.2052            0    9427.5314    17.570599    23.191673    19.333801    7878.3611    12084.103    7743.7894    8454.7016    64.560787   -762.98351     946.9885   -3204.7155 
23779000    263.21211   -4800.8683   -4274.4115   -4800.8683            0     10803.41    17.861956    23.090619    19.084754    7871.3848    9220.4856    10795.127    12394.616    407.18904    152.17396    540.69865   -3034.2226 
23780000    281.75228   -4811.6163   -4248.0769   -4811.6163            0    9775.3203    17.723334    23.036219    19.271802    7868.2645    10154.254    8895.3139    10276.393    50.119687    -90.16298    1052.7394   -3126.3534 
23781000    281.52434   -4811.8221   -4248.7386   -4811.8221            0     9216.147    18.040117    23.043904    19.128936    7952.1802    9085.9423     8501.774    10060.725    804.88785    -960.1821    884.74572   -3179.9016 
23782000    263.52072   -4787.1185   -4260.0445   -4787.1185            0    11510.836     17.93267    22.702763     19.32208    7866.4273    10872.008    12584.457    11076.042    593.19237    631.83043   -456.99134    -2939.478 
23783000    258.99686   -4798.6414   -4280.6157   -4798.6414            0    9826.7462    17.866291    22.801036    19.393238    7900.2223    8833.9337    10390.663    10255.641   -175.15738   -899.72909   -521.52017    -3148.411 
23784000    260.11438   -4827.9034   -4307.6425   -4827.9034            0    9971.8905    17.889407    22.784597    19.331967    7879.7663    9674.2075    10046.456    10195.008    1144.0127   -278.09446    1740.8392   -3161.6897 
23785000    263.11981   -4844.9132   -4318.6411   -4844.9132            0    8015.1575    17.926234    22.760538    19.418239    7922.8496    9437.9562    8182.8382    6424.6782    286.95996    -2361.208   -1376.3388   -3392.5166 
23786000     257.2014   -4814.9876    -4300.553   -4814.9876            0    12023.205    17.870762    22.954578    19.106609    7837.8328    12026.664    10535.428    13507.523    1036.8882   -2816.0018    1660.9323   -2926.2195 
23787000    279.09809   -4835.1025   -4276.8718   -4835.1025            0     9801.763    17.916526    22.897571    19.252687    7898.3167    10228.452    9606.4216    9570.4153    401.16544   -843.67076   -552.27153    -3147.818 
23788000     269.3591   -4819.9881   -4281.2366   -4819.9881            0    10292.963    17.881573    22.858449    19.269297    7876.2294     11626.42    10524.691    8727.7765    462.50926    992.91435    606.66895   -3098.9177 
23789000    267.15202   -4821.9461    -4287.609   -4821.9461            0    9248.6088    17.995316     22.76177    19.325984    7916.0246     8748.629    10282.729    8714.4687   -446.61901    394.11591    175.82328    -3219.884 
23790000    272.98172   -4821.1661   -4275.1689   -4821.1661            0    9543.5855    17.954436    22.821942    19.322878    7917.6481    9857.0819    8132.6188    10641.056   -529.34593   -911.43298    368.52673   -3173.1637 
23791000     262.8054    -4804.246   -4278.6027    -4804.246            0    8110.3979    17.879847    22.927917    19.357737    7935.6587    7539.7935    8926.3607    7865.0396   -918.38066   -335.12061   -692.45006   -3339.9584 
23792000    267.23563   -4801.1715   -4266.6672   -4801.1715            0    10726.531    17.966038    22.723416    19.234717    7852.5685    12265.538    10380.109    9533.9469    128.55673   -635.30787   -1283.8987   -3038.2471 
23793000    263.34975   -4779.8343   -4253.1023   -4779.8343            0    10503.029    17.869598    22.756793    19.407841    7892.2907    12746.537    10317.002    8445.5481    -272.5119   -729.16052    207.79916   -3044.1936 
23794000      259.176   -4819.3597   -4300.9756   -4819.3597            0    11366.499    17.880405    22.903288    19.153276    7843.6509    12138.706    10853.249    11107.543   -271.01072    98.029181   -844.62368   -3000.7436 
23795000    258.43399   -4824.6507   -4307.7508   -4824.6507            0    8949.4656    17.998682    22.891529    19.237606    7926.2272    8175.3785    9872.6209    8800.3973   -287.05579   -613.76416    213.33579   -3273.2293 
23796000    260.05182   -4820.9997   -4300.8639   -4820.9997            0    9313.4399    17.822001    23.038549     19.26628    7910.6007    9255.5749    9957.5953    8727.1495    725.12494    1010.6368    1253.2166    -3226.391 
23797000    269.13551     -4817.35   -4279.0458     -4817.35            0     10366.59     17.82602    22.923084    19.266303    7872.7384    12177.963     8833.033    10088.774   -879.68359   -500.98023   -1552.1319   -3088.7973 
23798000    273.49849   -4840.4939   -4293.4631   -4840.4939            0    10576.344    17.836638    23.013048    19.167628    7867.8402    10734.435    10204.434    10790.161    203.15338   -588.28182   -116.87641   -3079.8872 
23799000    277.23063   -4797.6616   -4243.1661   -4797.6616            0    12501.737    17.680108    23.148374    19.132797    7830.3987    11995.588    13247.011    12262.612    388.18727   -859.46468   -1842.5514   -2815.4886 
23800000    265.95922    -4829.749   -4297.7977    -4829.749            0    9376.9242    17.718947    23.208756    19.191235    7892.1022    9022.5211    9441.2617    9666.9897    305.01257   -398.35527     1030.833   -3218.5305 
23801000    275.63226   -4778.1698   -4226.8713   -4778.1698            0     7824.028    17.837773    23.229162    19.198165    7954.8851    8511.6204    6456.9879    8503.4758   0.36200708   -161.07993    535.31664   -3319.1757 
23802000    257.58878   -4810.2129   -4295.0035   -4810.2129            0      9877.39    17.908349    22.931104    19.215169    7890.8669    12127.385    9612.9903    7891.7949    1199.2855    896.37005   -211.40257   -3158.3115 
23803000    260.76068   -4839.4102   -4317.8566   -4839.4102            0     9263.796    17.845311     23.01168    19.202834    7885.6551    7325.1272    9366.3908     11099.87    1239.0718    370.58536   -915.47953   -3252.4812 
23804000    272.07025   -4777.5124   -4233.3383   -4777.5124            0    11540.141    17.656723    23.035958    19.267111    7836.6955    11635.663    12894.019    10090.741    1189.8351     235.5016    340.69396   -2914.4136 
23805000    276.82501   -4802.6049   -4248.9207   -4802.6049            0    10444.696     17.94428    23.059524    19.057495    7885.7348    8192.9062    10701.374    12439.807   -676.97694   -96.197202    -1574.036   -3047.7248 
23806000    277.65481   -4783.7512   -4228.4073   -4783.7512            0    9628.6259    17.615813    23.395406    19.237023    7928.1367    10138.464    8852.2416    9895.1717    871.18914    240.83204    3559.9462   -3115.1095 
23807000    260.89297   -4837.9957   -4316.1775   -4837.9957            0    8720.7321    17.713851    23.410405    19.050007    7899.8177    9174.8338    7583.4509    9403.9116    653.16904    445.75704    317.65017   -3311.4555 
23808000    263.10843   -4795.8384   -4269.5891   -4795.8384            0    10830.102    17.707375    23.237843    19.106797    7862.0875    11682.504    10061.133    10746.667    65.760399    266.40274   -1642.8915   -3027.8044 
23809000    266.61716   -4818.4157   -4285.1484   -4818.4157            0    8890.5871    17.759018    23.206314    19.200108    7912.7743    11213.677    6718.7349    8739.3496   -303.86378   -186.59092    740.77463   -3259.1774 
23810000    267.31531   -4812.6777   -4278.0141   -4812.6777            0    10284.801    17.900085    23.021511    19.094076    7868.4206    7980.2475    11467.504    11406.653    63.264724      1499.96    100.13101   -3097.8039 
23811000    280.33337   -4800.5319   -4239.8305   -4800.5319            0    10845.055    17.645715    23.035548    19.336706    7859.9594     13777.29    10148.948    8608.9255    234.55705    453.71531     647.4461   -2996.6679 
23812000    290.46313   -4807.7193   -4226.7571   -4807.7193            0    8714.9267    17.977397    22.985374     19.16024    7917.3402    6167.1164     9403.997    10573.667   -292.36724    271.93345   -800.42777   -3220.4769 
23813000    274.38601   -4798.5946   -4249.7887   -4798.5946            0    9700.3118     17.74849    22.930056    19.475289    7925.9334    8285.0494    11061.329    9754.5575    1532.0846    404.72994    929.69342   -3128.5141 
23814000    264.63932   -4808.2193    -4278.908   -4808.2193            0     9295.554     17.84483    23.248445    19.059956    7907.3002     8398.085    8615.0487    10873.528    651.04232   -1411.2048    1392.6482    -3206.946 
23815000    259.66655   -4827.2993   -4307.9341   -4827.2993            0     9210.464    17.768092    23.141454    19.299226    7935.4457    10194.004    8983.6565    8453.7313    1460.7836    878.05465   -1275.0126    -3242.004 
23816000    258.18165   -4752.0094   -4235.6142   -4752.0094            0    9669.1987    17.869082    23.058345     19.15747    7893.4805     8971.807    9738.3344    10297.455    819.69132    968.07899    169.11291   -3122.5123 
23817000    264.71332   -4825.5947   -4296.1354   -4825.5947            0    9430.2857    17.857119    23.052884    19.202509    7904.8681    10322.044    8423.7848    9545.0282    465.88933    345.90327   -1097.6183   -3208.9706 
23818000    262.09597    -4805.332   -4281.1076    -4805.332            0    7594.6843    17.992478    22.861436    19.343124    7956.4823    7123.0512    8807.2523    6853.7494   -1295.1144   -16.425275     981.4379   -3399.8422 
23819000    250.40272   -4813.4512   -4312.6148   -4813.4512            0    10008.429    18.027467    22.688524    19.264869    7879.6513    8082.9928    11002.128    10940.166   -1144.8937   -354.17741   -1864.2557   -3162.4799 
23820000    270.10675   -4804.7371   -4264.4903   -4804.7371            0    9459.6409      17.9295    22.811275    19.344424     7911.768    9371.0972    9818.0779    9189.7475    1285.6872    990.28781    1084.1796   -3172.9894 
23821000    270.28185   -4815.9439   -4275.3468   -4815.9439            0    10155.462     18.01249    22.790437     19.22936    7893.8933    9900.0296    11243.596    9322.7591   -689.79816   -142.64919   -766.08341    -3106.206 
23822000    294.52963   -4803.8746    -4214.779   -4803.8746            0    9751.5749    17.818602    22.861996    19.385393    7897.0047    9121.3492    9889.8707    10243.505   -656.69803    460.56292    443.53989   -3091.6929 
23823000    262.26011   -4838.7605   -4314.2079   -4838.7605            0    10843.785    17.930887    22.862204    19.176579    7861.2389    9718.6306    11075.509    11737.217   -334.05994   -284.01988   -1501.6919   -3070.9885 
23824000    261.11901   -4830.5835   -4308.3133   -4830.5835            0    9897.9833    17.948577    22.978038    19.068155    7864.1473    9214.6073    8758.0265    11721.316   -1515.7347   -402.97186   -386.66905   -3173.1084 
23825000    270.64921   -4828.6487   -4287.3168   -4828.6487            0    9866.6474    17.811788    22.999168    19.263626    7891.4658    11186.276     9187.158    9226.5085   -82.198353   -1277.4104   -185.32183   -3151.7749 
23826000    270.42976   -4809.6602   -4268.7673   -4809.6602            0    9244.1602    17.914933    22.892521    19.326212     7926.027    10648.952    8817.1693    8266.3592   -596.32366   -174.07013    810.46084   -3200.2073 
23827000    247.12858   -4819.1377     -4324.85   -4819.1377            0    9267.0768    17.753275    23.066884    19.246814    7881.8156    9665.7265    9370.0595    8765.4443   -373.35331    233.17013      2763.46   -3259.6162 
23828000    274.49348   -4777.5385   -4228.5177   -4777.5385            0    10173.536     17.76251    23.032893    19.335408    7910.5407    11889.993    10303.195    8327.4191    731.44158   -681.75633     1740.966   -3054.8261 
23829000    269.53481   -4831.6312   -4292.5283   -4831.6312            0    10231.739    18.009441    22.951097    19.064534    7880.0662    7842.6166    10897.622    11954.978    223.28514    871.03331    1300.7917   -3116.6694 
23830000    268.09916   -4784.6478   -4248.4163   -4784.6478            0    9048.2911    17.953093    22.890041    19.320959    7939.8905    8828.3335     9330.479    8986.0608    1561.9709    802.04727    2831.4732    -3200.668 
23831000    267.45971   -4805.3592   -4270.4067   -4805.3592            0    9884.4321    18.027471    22.815321    19.177831    7887.8903    10534.683    8811.2137      10307.4   -1409.0475    309.48706   -105.20906   -3133.3334 
23832000    255.84626   -4816.7832   -4305.0591   -4816.7832            0    9704.7225    17.913067    22.831131      19.3029    7894.4146     8550.936    10448.753    10114.479    392.68294    95.307634    1615.9632   -3187.7355 
23833000    271.53837   -4798.6845   -4255.5742   -4798.6845            0    10547.142    17.909874    22.989674    19.148269    7884.1496    10626.185    9818.2936    11196.948    2085.9927    387.22884   -243.05535   -3042.8402 
23834000    284.22804   -4792.7426   -4224.2514   -4792.7426            0     10842.06    17.855659    22.744063    19.390341     7874.616    11455.366     11761.74    9309.0747   -1062.8768   -156.80923    339.72238   -2979.1146 
23835000     259.7563   -4805.4056   -4285.8609   -4805.4056            0    11353.987       18.009    22.548243    19.328124    7848.5966    10901.644    12218.404    10941.914    -0.361621    26.165081    338.78524   -2986.2411 
23836000    265.14254   -4819.8135   -4289.4956   -4819.8135            0    8729.2615    18.005763    22.771791    19.289243    7909.0423    7727.2167    10846.657    7613.9106   -879.54366    834.05553   -925.19615   -3282.6166 
23837000    257.96145    -4800.926   -4284.9713    -4800.926            0    9715.3622    17.952383    22.829223    19.336254    7924.7504    9236.4379    10351.861    9557.7877    910.46671   -464.00454   -574.38149   -3162.1245 
23838000    276.34369   -4833.4124   -4280.6908   -4833.4124            0    8189.3742    18.012236    22.645248    19.431999    7926.1483    10100.024    7509.5201    6958.5783   -954.99254   -1227.9111   -3189.6643   -3334.0422 
23839000    247.54295   -4813.0169   -4317.9004   -4813.0169            0    11614.167    18.017361    22.645273     19.23285    7847.1579    11601.202     11715.33    11525.967    2882.9054   -716.46589    1078.1287   -2988.7433 
23840000     265.4574   -4821.6164   -4290.6688   -4821.6164            0    10379.796    17.829324    22.817052    19.330587    7863.9269    11079.356    9689.8729    10370.159    1435.3588   -382.64688   -43.697904   -3100.2379 
23841000    263.70986   -4823.8081   -4296.3558   -4823.8081            0     8842.581    18.005814    22.763953    19.295876    7909.0614    9256.9498    9689.2029    7581.5903    2714.7242    90.173197   -596.90139   -3276.4035 
23842000    263.16316   -4817.1231   -4290.7642   -4817.1231            0    9131.1976    17.798135    22.782434    19.447279     7885.577    9503.1941     9717.431    8172.9676   -1247.9392   -984.84798   -1901.4505   -3240.6486 
23843000    273.72409   -4811.1564   -4263.6744   -4811.1564            0    7676.6515    17.973161    22.864323    19.429204     7984.318     8447.252    7416.3213    7166.3812    414.56099    2.1517382   -86.210701   -3369.7814 
23844000    258.96508   -4796.0085   -4278.0464   -4796.0085            0    10395.949    17.993079    22.837374    19.176468    7879.8922    9179.4002    11242.064    10766.382   -2235.6466    52.016427   -638.73179   -3083.3425 
23845000    265.12173   -4847.8267   -4317.5505   -4847.8267            0    12032.128    17.837776    22.841815    19.204078    7824.6478    13008.181    11818.142    11270.059   -805.91097    237.12711    841.34621   -2944.5107 
23846000    269.07654   -4797.6373    -4259.451   -4797.6373            0    8240.9953    17.987563    22.858506    19.290465    7931.6374    5827.9858    9402.5273    9492.4728    343.15915   -1842.8031    308.36916   -3306.1756 
23847000    257.67713   -4798.2746   -4282.8885   -4798.2746            0    9864.4366    17.847985     22.83579    19.349868    7886.4809    8518.9432    11160.054    9914.3127    532.23186    41.044506    1429.5244   -3148.3181 
23848000    269.22168   -4824.6197   -4286.1431   -4824.6197            0    11261.891    17.927375    22.835195      19.2147    7866.0199    11846.823    11624.473    10314.378   -683.87957    319.02826    1905.4124   -2994.2033 
23849000    256.96222   -4789.3006   -4275.3444   -4789.3006            0    10389.811    17.852937    22.734916    19.389305    7869.8284    10992.809    10972.281    9204.3445   -656.62674    656.42773   -849.81411   -3082.8707 
23850000    259.89006   -4783.3486   -4263.5364   -4783.3486            0    10208.761    18.109769    22.828305    19.049155    7875.2126    10250.469    9437.2952    10938.518    1461.0772     -2032.84   -1025.2639   -3091.0408 
23851000    267.42817    -4856.732   -4321.8426    -4856.732            0    7652.4637    17.865723    23.018329    19.287648    7931.8349    8800.3354    6743.8969    7413.1588   -189.69692    -152.5042    -2128.107   -3436.6234 
23852000    264.45716   -4812.1882   -4283.2412   -4812.1882            0    7275.2949    17.879686    23.336371    19.101144    7969.8949    8058.5601    5772.2129    7995.1117   -341.08334    1231.0825   -2397.3466   -3437.6137 
23853000    270.26783    -4797.514   -4256.9449    -4797.514            0    11403.404     17.78426    23.138564     19.07704    7850.2449    11372.514    10280.997    12556.701    1547.5092    477.08467    2190.4158   -2951.3947 
23854000    266.73642   -4786.1061   -4252.6004   -4786.1061            0    13170.768    17.615752    23.094989     19.16205    7795.8039    13284.517    13202.935    13024.853    549.83577   -68.982524    771.89543   -2755.1656 
23855000    283.50821   -4792.0119   -4224.9604   -4792.0119            0    9215.6229    17.716105    23.309804    19.067697    7874.1761    7862.2995    8965.8558    10818.713    -13.10167   -362.80699    2514.9257    -3166.668 
23856000     263.2777   -4829.8256   -4303.2377   -4829.8256            0    9588.4671    17.833083    22.986651    19.200455    7870.7055    10797.786    8493.3705    9474.2452   -1228.6521   -908.57636    14.564183   -3202.6143 
23857000    275.09604   -4828.1944   -4277.9683   -4828.1944            0    8597.4911    18.031326    22.833858    19.350419    7967.0463    8104.5496    9504.8223    8183.1015    377.72494    576.09218   -764.47244   -3279.0155 
23858000    263.68811   -4790.0775   -4262.6687   -4790.0775            0    8948.3773    17.898219    22.915766    19.356532    7939.1086    8683.2814    9881.6756    8280.1748    196.70983   -256.76266    899.79463    -3226.592 
23859000    271.49279   -4833.1963   -4290.1771   -4833.1963            0    8237.5794    17.897392    22.978626    19.259946    7920.7966    7950.7641     8563.338    8198.6362   -789.34175   -1050.2324   -855.10722   -3338.5992 
23860000    277.22861   -4802.6258   -4248.1344   -4802.6258            0    10448.081    17.749275    22.991476    19.277098    7866.6374    10994.126    10389.323    9960.7944    1270.7967   -1031.1218    2085.5549   -3049.4591 
23861000    286.06746   -4805.2532   -4233.0829   -4805.2532            0    8592.9588    17.838406     23.02813    19.317154    7935.1997    8370.3749     9337.633    8070.8687   -1402.5299   -509.42403   -2403.5841   -3238.6478 
23862000     264.8715   -4801.6016   -4271.8259   -4801.6016            0    8623.5359     17.95919    23.044118    19.172244    7934.5037    7862.4842    7874.9805    10133.143    982.60351   -215.01628    1560.8507   -3273.9397 
23863000    264.54012   -4811.0341   -4281.9212   -4811.0341            0    12458.437    17.750626     23.17276    18.970982    7803.3535    14269.243    11995.928     11110.14   -1057.1058   -24.960693    538.03126   -2864.1024 
23864000    270.26714   -4799.7803   -4259.2126   -4799.7803            0    8239.2238    17.796831    23.027588    19.375595    7940.4693    7756.6531    8324.7697    8636.2486    -968.7396    225.22377    94.169397   -3305.0808 
23865000    247.88723   -4784.6253   -4288.8202   -4784.6253            0     9773.657    18.019677    22.957042    19.144545    7919.6863    8683.5696    10146.595    10490.806   -641.63929   -290.41887   -1590.4606    -3159.958 
23866000    253.88423   -4824.0087   -4316.2089   -4824.0087            0     9478.596    17.869493    22.985933    19.288429    7922.6634     11719.83     7876.832    8839.1261    74.730395    394.75395    941.25806   -3221.0148 
23867000    266.87633   -4848.7011   -4314.9154   -4848.7011            0    9282.1837    17.839611    23.072876    19.160294    7886.5903    7902.6818    9589.3889     10354.48   -882.70067    -126.1866   -1066.6343   -3247.2988 
23868000     265.5569   -4818.0215   -4286.8749   -4818.0215            0    10865.525    17.666072    23.024139    19.257839    7833.0508    10010.062    12422.518    10163.995    283.45819    1024.0651    1134.4317   -3045.6299 
23869000    252.28755   -4804.4746   -4299.8683   -4804.4746            0    9992.0876    17.763033    23.177093    19.119822    7871.5438    10282.091    8701.4225    10992.749   -1482.4605   -524.52904    825.56458   -3152.7927 
23870000    262.54343    -4810.586   -4285.4667    -4810.586            0     9374.611    17.800875    23.073702    19.236834    7901.1852    11672.312    8560.6785    7890.8419   -1516.2201   -1141.5496    453.91415   -3205.2239 
23871000    262.70034   -4816.5768   -4291.1436   -4816.5768            0     12226.63    17.592736    23.139625    19.191608    7812.6987    13591.263    12058.734    11029.892   -227.06119    610.35276    2075.6355    -2898.039 
23872000    270.91239   -4790.6351   -4248.7769   -4790.6351            0    11077.952    17.816562    23.057856    19.106617    7849.2224    10041.306    11403.748    11788.801    179.76915    183.38968    574.92905   -2980.6521 
23873000    256.57728   -4792.8972    -4279.711   -4792.8972            0    11723.756    17.637878    23.143174    19.239726    7853.5881    12723.205    11008.341    11439.722   -795.93461   -384.78996     1609.888   -2936.9127 
23874000    274.58602   -4801.7654   -4252.5595   -4801.7654            0    11133.146    17.869992    23.081541    19.068243    7865.0199    10570.342    11678.495      11150.6     302.1178    1765.1059      1289.58   -2975.5515 
23875000    273.10562   -4783.3445   -4237.0995   -4783.3445            0    12035.485    17.735376    23.029956    19.149534    7821.5301    14941.137    9584.6901    11580.628    1046.2233   -446.75834   -360.19724   -2864.2238 
23876000    269.13054    -4827.555   -4289.2607    -4827.555            0    11976.733      17.8334    22.811396     19.28022    7843.2848     11604.43    11862.873    12462.896    171.59231   -596.68076    1811.3888    -2919.287 
23877000    264.84768   -4811.9618   -4282.2337   -4811.9618            0    11767.936    17.869203    22.909129    19.150663    7839.6665    11677.662    12327.661    11298.485    233.55308    195.87669   -956.31603   -2936.7644 
23878000    264.57804   -4823.4583   -4294.2695   -4823.4583            0    10831.846    17.750437    23.144533    19.168549      7874.93    10643.377    10129.607    11722.554   -1830.1883    -465.4827    1351.9793   -3050.2561 
23879000    282.04081   -4791.1415    -4227.025   -4791.1415            0     10186.67    17.778142     23.15651     19.19389    7901.7354    9524.7212    9134.3134    11900.975   -11.698549   -528.20236   -38.961972   -3053.1263 
23880000    266.15806   -4845.6497   -4313.3007   -4845.6497            0    8913.1603    17.809005    23.076678    19.221611    7899.5572    7692.1669    9280.2106    9767.1035    1505.3486    94.105152    1438.4976   -3286.4428 
23881000    254.55714   -4826.5382   -4317.3925   -4826.5382            0    10345.062    17.814654     22.96369    19.231392    7867.3742    11500.379    10538.077    8996.7312   -1397.3753   -257.85023   -1150.3184    -3130.425 
23882000    282.78536   -4818.3154   -4252.7098   -4818.3154            0    8726.9629    17.838776    23.010869    19.330691    7934.9729     8773.915    7815.2174    9591.7562    318.96103   -444.35155    92.795516   -3242.7956 
23883000    274.72531   -4797.1347   -4247.6501   -4797.1347            0    10466.077    17.940888    22.947964    19.154754    7886.1435     11676.08    9993.8652    9728.2866   -1859.3384   -10.773387   -1678.6035   -3043.9328 
23884000    247.03107   -4801.9701   -4307.8774   -4801.9701            0    9898.8296    17.878936     22.92132    19.288684    7904.6728    8947.6654    10290.707    10458.116    85.450408     1202.068    2095.9152   -3166.7251 
23885000    270.98299    -4835.629   -4293.6295    -4835.629            0    11256.395     17.97704    22.922173    18.999697    7829.2586     8677.463    12168.483    12923.239   -855.54493   -414.28194    907.17351   -3008.3551 
23886000    273.81972   -4802.5066   -4254.8333   -4802.5066            0    9602.3574    17.679701    23.201953    19.251879      7897.19     9543.116    9133.2461     10130.71    1201.2716    616.92434    405.05953   -3148.9066 
23887000    265.93687   -4828.6123   -4296.7057   -4828.6123            0    7188.6354    17.935862     22.99915    19.314789    7967.5357    10200.683    6590.4758    4774.7477   -950.29731   -1160.2989   -975.49604   -3461.3982 
23888000    264.77305   -4817.4418    -4287.863   -4817.4418            0    9130.5755    17.683457     23.16387    19.345994    7924.4536    10416.987    8533.1813    8441.5585   -446.59925    534.13368    1323.8048   -3232.6422 
23889000    260.07938   -4827.5337   -4307.3428   -4827.5337            0    11109.369    17.848845    23.070321    19.016575    7830.6184    10068.672     10511.58    12747.855   -188.24199    389.38227    1261.0944   -3038.6358 
23890000    275.10068   -4813.1201   -4262.8847   -4813.1201            0    10484.316    17.715023    23.052396    19.306607    7884.3113    11377.391     9533.541    10542.017    784.27989   -149.94819    -420.0809   -3057.3499 
23891000    257.96995   -4804.4712   -4288.4994   -4804.4712            0    10131.227    17.815095    23.060272    19.200871    7888.1198    10433.018    10023.874    9936.7877    484.37836    606.02922    2754.0315   -3123.0017 
23892000    264.77735   -4801.3891   -4271.8017   -4801.3891            0    10088.474    17.774973    23.181019    19.100563    7870.2339    10243.213    9909.0199     10113.19   -2582.5202    -858.0918   -1123.7388   -3113.8538 
23893000    260.14894   -4816.1193   -4295.7893   -4816.1193            0    10576.004    17.545082    23.320402    19.262576    7881.4445    11540.466    9010.6019    11176.945   -1639.8095    21.177199    932.14482   -3080.1539 
23894000    276.64169   -4818.2086    -4264.891   -4818.2086            0     12142.48    17.736633    23.139531    19.040535    7814.5662    13222.891    11085.885    12118.665   -2188.9333   -734.86999   -647.18227   -2881.0437 
23895000    262.06049   -4810.2795   -4286.1261   -4810.2795            0    9547.8021    17.963012    22.977555    19.189511    7920.3959    9823.2833    8759.6638    10060.459    739.29849    551.07883    1272.1708   -3183.2514 
23896000    262.71821   -4821.0738   -4295.6049   -4821.0738            0    9276.6668    17.952826      22.7991    19.350991    7920.5204    8920.2514    10376.193    8533.5557   -412.67966    1015.4758    142.41755   -3224.0324 
23897000    247.38593   -4816.2732   -4321.4708   -4816.2732            0    10062.495    17.895416    22.886836    19.269474    7892.1878     9676.787    11580.411    8930.2871   -777.26805   -453.51746   -1649.8241    -3163.283 
23898000    271.36628   -4833.3036   -4290.5375   -4833.3036            0    9106.3831    17.847232    22.900328    19.319323    7895.9514    9204.5375    9100.1756    9014.4361    1341.3661   -163.05768    919.48625   -3241.8979 
23899000    272.74784   -4792.3745   -4246.8451   -4792.3745            0    9283.7567    18.051139      23.0435    18.998231    7902.5313    9514.1418      7830.76    10506.368   -583.56038    340.36073   -1837.4752   -3176.8893 
23900000    275.48946    -4854.663   -4303.6501    -4854.663            0    8573.7477    17.744876    23.143057    19.287291    7920.7246    9667.7891    8149.5836    7903.8702    817.36575    382.92922    920.01304   -3313.2481 
23901000    272.44977   -4781.0375   -4236.1043   -4781.0375            0    7805.6843    17.789277    23.310454    19.196765    7960.4399    6805.6362    6795.3243    9816.0923   -530.03158   -754.48954   -1358.5925   -3329.9045 
23902000    264.46271   -4802.3739   -4273.4158   -4802.3739            0    9288.9041    17.767938    23.187217    19.156514    7892.2736    9862.4457    8280.8655    9723.4011     1348.998   -1208.0336   -548.71599   -3204.2563 
23903000    265.37746   -4805.0288   -4274.2411   -4805.0288            0    8851.9517    17.795773    23.290947     19.16284    7942.6214    8797.4078    8397.6979    9360.7493   -130.78215    241.43753    -940.2539   -3248.8754 
23904000    269.70825    -4819.008   -4279.5582    -4819.008            0    10337.763    17.822312    23.187486    19.012927    7857.1797    8027.0069    11055.548    11930.734    470.02414    1082.4577   -206.13918   -3094.9652 
23905000    259.33785    -4812.498   -4293.7902    -4812.498            0    8941.3573    17.781018     23.22841    19.166757    7916.3453    8907.9213    9259.5666    8656.5839    835.00675   -423.24809   -899.81912   -3261.4946 
23906000    264.21995   -4843.3078   -4314.8352   -4843.3078            0    9258.8379    17.668735    23.129612    19.268544    7874.4947    9217.6784    10049.284    8509.5516    387.11258    450.00836    401.92167   -3251.5371 
23907000    264.25046   -4816.7457   -4288.2122   -4816.7457            0    10272.281    17.848031    23.169167     19.03537    7871.5827    10184.711    9109.7134    11522.418   -629.95358    -593.4434   -2278.8062    -3108.965 
23908000    262.47745   -4831.8183    -4306.831   -4831.8183            0    11346.407    17.894118    22.905598    19.121959    7837.6221    10684.464    12250.904    11103.852   -737.54006    1804.1117   -734.15581   -3009.8949 
23909000    262.19171   -4827.6493   -4303.2335   -4827.6493            0    11050.342    17.860662    22.887926    19.255615    7871.5704    11955.456    10713.495    10482.076   -895.79958    500.46852   -815.43429   -3034.6677 
23910000    273.35211   -4813.0863   -4266.3483   -4813.0863            0     9355.048    18.061041    22.569887    19.401676    7908.8152    7993.1667    10224.872    9847.1055   -231.36588   -769.31255    543.66063   -3187.3188 
23911000    258.09173   -4819.3731   -4303.1578   -4819.3731            0    10099.483    17.895002    22.867423    19.216828     7863.768    11245.547    9022.2282    10030.674   -106.30447   -1467.6306   -754.71613   -3144.8987 
23912000    265.43304   -4814.2567   -4283.3578   -4814.2567            0    8136.9159    17.854577    22.882579    19.463717    7952.0721    8888.4375    8459.0943    7063.2159    713.99082   -15.688439    151.76922   -3339.6967 
23913000    264.34343   -4809.5083   -4280.7887   -4809.5083            0    11314.321    17.904313    22.870877    19.203738    7863.6874     12632.85    11046.515    10263.597   -1354.2809    757.21073   -443.06789   -2983.2193 
23914000    260.79154    -4818.822   -4297.2067    -4818.822            0     9680.387    17.817323    22.901032    19.347038    7894.2705    9526.8306    10954.401    8559.9294    557.36899    179.58397    766.72341   -3182.7053 
23915000    264.87633   -4822.8218   -4293.0364   -4822.8218            0    10217.787    17.888633    22.824715    19.233372    7853.0425    8281.9617    11022.853    11348.547    1585.8774    450.28684     1951.209   -3122.8079 
23916000    275.74901   -4779.2857   -4227.7536   -4779.2857            0    10934.481    17.826206    22.910387    19.267997    7869.1519    13224.291    10062.388     9516.765   -161.73809   -1084.6058    108.82271   -2972.8741 
23917000     260.7633   -4803.7851   -4282.2263   -4803.7851            0    11710.087    17.853462    23.033194    19.037641    7828.7015    10034.309    12332.601    12763.352   -125.81842    1338.8733   -1027.6624   -2945.2437 
23918000    267.47949   -4785.3935   -4250.4015   -4785.3935            0    9578.5584    17.609068    23.441906    19.133643    7898.1787    9428.5513    7734.1697    11572.954    1034.9489   -1450.9876    924.03109   -3147.0777 
23919000    285.10053   -4802.6704   -4232.4341   -4802.6704            0    9696.3968    17.759482    23.371526    18.984349    7879.7614    10959.825    8361.9648    9767.4003   -1204.3665    389.11589   -2421.0537   -3118.1413 
23920000    268.38178   -4810.6786   -4273.8819   -4810.6786            0    9630.9758    17.739192    23.351396    19.084154    7905.3228    9563.9283    8200.8455    11128.154   -182.46809    -348.0423   -76.381608   -3163.5168 
23921000    266.87385   -4806.9152   -4273.1346   -4806.9152            0    8058.9031    17.880068    23.183554    19.225725    7969.5152    7570.6403     8425.037     8181.032   -342.06629    374.39845    1255.1858   -3336.4708 
23922000    259.54233   -4811.1545   -4292.0378   -4811.1545            0    11549.279    17.651496    23.231844    19.138209    7848.1353    11510.644    10385.227    12751.966   -574.68623   -1474.8236   -1368.1381   -2970.1419 
23923000    255.25659   -4809.8654   -4299.3207   -4809.8654            0    9985.6959    17.792201    23.195411     19.07153    7870.7711    10579.784    9225.2173    10152.087    938.49508    666.31662    1984.3925   -3153.0914 
23924000    267.19312   -4816.5258   -4282.1066   -4816.5258            0    11700.516    17.627774    23.427875    18.982446    7839.3951    13988.566    10413.485    10699.498   -2353.4246    649.05365   -153.13049    -2944.392 
23925000    268.89033   -4821.9071   -4284.0932   -4821.9071            0    11012.267     17.82535    22.951997    19.122551    7823.5592    10047.586    10730.321    12258.895   -619.71061    773.29459    266.10976   -3027.6091 
23926000    273.58595    -4830.351   -4283.1453    -4830.351            0    11531.835     17.83337    22.879548    19.214101     7839.727    10209.909    12477.186    11908.412   -516.87825     577.1657   -2637.0888   -2964.6601 
23927000    270.90119   -4803.7536   -4261.9177   -4803.7536            0    7695.5866    17.972343    22.850188    19.371338    7955.2547    6522.8983    7908.9381    8654.9234   -1052.7527    13.732089    863.59998   -3369.0817 
23928000    269.64277   -4804.7975   -4265.4787   -4804.7975            0    8766.9695    17.984069    22.886972    19.279926    7935.6342    10714.892      7222.17    8363.8463    53.154884   -851.00915   -810.57639   -3250.8503 
23929000    272.06641   -4793.1253   -4248.9589   -4793.1253            0    10231.952    18.049881    22.806132    19.164982    7889.2258    9632.6129     10176.22    10887.023   -1161.8588    -155.8768    1517.4754   -3071.7087 
23930000    267.70344   -4805.0366   -4269.5966   -4805.0366            0    10949.248    17.824939    22.784288    19.378424     7870.131    11862.784     11328.49    9656.4686   -817.89932    1159.8256    598.96518   -3012.8662 
23931000    258.67103   -4801.7058   -4284.3318   -4801.7058            0    10116.643      17.7374    23.072584    19.233269    7871.1705    10338.805    10663.668    9347.4553    296.45639   -193.48868    1656.2284   -3123.0126 
23932000     266.4978   -4791.5704   -4258.5419   -4791.5704            0    12198.389    17.822968    22.941071    19.113508    7815.0923    11951.677    12823.962    11819.528   -1062.9131   -381.71121    934.39896   -2868.2292 
23933000    264.47307   -4830.6238   -4301.6449   -4830.6238            0    11317.665     17.84616    22.944763    19.195549    7860.1152    12701.297    10026.253    11225.444    1490.8934    290.59676   -111.68589   -3004.2816 
23934000    254.82002   -4827.9123   -4318.2408   -4827.9123            0    9126.0208    17.837308    23.059395    19.233355    7911.0161    9225.0225    10160.472    7992.5681    579.36544    1538.4422   -419.78355   -3265.3348 
23935000    267.58499    -4785.967    -4250.764    -4785.967            0     8547.421     17.87131    23.197979    19.052867    7898.9047    8540.0586    7432.4875     9669.717    427.62671    1062.1337   -364.17297   -3266.1231 
23936000    266.86917   -4789.7172   -4255.9459   -4789.7172            0    10473.247    17.661893    23.299004    19.108318    7863.1592    12581.898    9477.1745    9360.6671   -1788.5411    63.558221    392.66559   -3054.9147 
23937000    257.16305   -4807.3098   -4292.9519   -4807.3098            0    9842.3591    17.646966    23.250181    19.187282    7872.4487    10305.626    9477.4279    9744.0237    530.71442   -184.64299    649.26808    -3162.935 
23938000    274.09228   -4806.9085   -4258.6901   -4806.9085            0    11015.891    17.897717    23.106548     19.06094    7882.7365    9999.2477     10658.74    12389.684   -910.79029    869.18472   -332.07633   -2992.2854 
23939000     258.6159   -4819.4078    -4302.144   -4819.4078            0     10457.21    17.723274    23.285111    18.995589    7839.2592    7959.2374    11383.087    12029.305    1364.5533    1922.1898    1407.7658   -3106.5968 
23940000    274.86644   -4776.9255   -4227.1586   -4776.9255            0    11867.427    17.797271    23.050227    19.146377      7854.44    13266.694    11602.772    10732.815    879.98549    23.265713    -544.1665   -2867.7573 
23941000     273.2038   -4811.1654   -4264.7241   -4811.1654            0    9886.9309    17.679519    23.035989     19.27397    7849.6174    11157.484    9306.6816    9196.6268   -1056.2981    39.106743   -900.44405   -3132.8819 
23942000    267.42626   -4804.3141   -4269.4286   -4804.3141            0    10047.506    17.869396    23.167272    19.061968    7891.3716    11718.568    8145.7123    10278.238    740.12024   -837.44116    -751.9797   -3113.0856 
23943000    271.58316   -4818.9993   -4275.7994   -4818.9993            0    11432.827    17.784238    22.928577    19.201114    7829.5859    10080.651    12283.608    11934.221   -1573.8345    553.76535    -706.4771   -2970.3252 
23944000    268.59364   -4801.0468   -4263.8263   -4801.0468            0    11002.228    17.834332    23.200515    19.004695    7863.4906    8854.9993    11206.418    12945.267    609.64033    357.17951    1279.1391   -3002.0804 
23945000    270.01896   -4817.3047   -4277.2334   -4817.3047            0    9378.3223    17.709948    23.211263    19.238199    7908.2516    11132.611    9117.5729    7884.7835   -650.76388    367.46104   -1787.7178   -3195.5964 
23946000    248.83222   -4790.8266   -4293.1314   -4790.8266            0    10303.824    17.624257    23.551838     19.02837    7898.3651    10238.604    9887.5913    10785.276   -179.95235     967.0839    659.97206   -3106.2385 
23947000    262.59534   -4807.1246   -4281.9014   -4807.1246            0    9594.8164     17.81829    23.125272    19.165046    7897.0109    10095.658    10056.127    8632.6641   -13.428572    805.95903    1466.6168   -3176.8683 
23948000    271.79424   -4820.6022   -4276.9801   -4820.6022            0     10604.41    17.723335    23.069766     19.14137     7826.393    11943.269    10025.898    9844.0629     454.7293   -1133.5049    752.04421   -3066.5937 
23949000    273.85127   -4806.1618   -4258.4255   -4806.1618            0    9276.9808    17.621492    23.303586    19.287479    7920.2866    9774.3858    8776.0144    9280.5423    101.22686   -581.39145   -804.67198   -3186.8483 
23950000    260.76696    -4802.881   -4281.3149    -4802.881            0    12435.279    17.765176    23.088536    19.053207    7815.0905    11845.301    13284.876    12175.662   -661.36045    1584.4972   -1353.1242   -2864.0029 
23951000    265.68184   -4817.8135    -4286.417   -4817.8135            0    8707.2476    17.804723    23.192852    19.192624    7925.4469    9756.5564    7699.5883    8665.5982   -76.041007    -579.0631    1313.9545    -3279.994 
23952000    268.89753   -4819.6124   -4281.7841   -4819.6124            0    10450.837    17.697505      23.3739    19.052569    7881.2802     12073.25    9045.7572    10233.502     2287.044     233.1099    112.10092   -3080.5609 
23953000    259.43342   -4832.5105   -4313.6116   -4832.5105            0     9309.054    17.822801    23.028161    19.247481    7899.6729    9397.7561     8959.976    9569.4299    -1907.675   -46.311508   -1849.0941   -3241.1282 
23954000    261.40163   -4837.5556   -4314.7201   -4837.5556            0    10639.624     17.84801    22.949569    19.196476    7862.9562    10979.957    10401.628    10537.287   -354.25706   -750.95173   -239.02451   -3094.6409 
23955000    262.70113   -4838.2314   -4312.7967   -4838.2314            0    10851.713    17.923969    22.979604     19.03409    7839.8697    8506.2314    12008.634    12040.272   -878.35273    547.28279    326.36174   -3072.0503 
23956000    261.28294   -4828.3298   -4305.7316   -4828.3298            0    11087.859    17.731155    22.980262    19.329585    7876.1604     13255.62    10294.162    9713.7938    538.06507   -109.06971   -680.60085   -3032.1168 
23957000    253.78242   -4793.4886   -4285.8924   -4793.4886            0    9425.5879    18.119796    22.934314    19.040248    7912.4623    9345.1345    8135.9731    10795.656   -808.64285   -735.45012   -103.22994   -3198.2253 
23958000     276.9309   -4806.8221   -4252.9261   -4806.8221            0    10801.122     17.76971    22.972516    19.237856    7853.1806    9775.7272    11926.375    10701.265    -662.4737      334.077    1611.0432   -3015.8673 
23959000    270.25843   -4803.1939   -4262.6437   -4803.1939            0    12281.148    17.887366    22.932125    19.084159     7828.233    12085.497    12434.083    12323.864   -2270.7558   -737.25985    1572.8776   -2860.5449 
23960000    280.43482   -4822.0743     -4261.17   -4822.0743            0    8554.3932    17.898303    22.911817    19.329028    7926.4991    8249.0839    9091.8753    8322.2203   -315.17699   -540.16907    1773.2769   -3272.2833 
23961000    268.77268   -4821.8132   -4284.2346   -4821.8132            0     7702.954    17.957864    23.026703    19.276961    7971.2238    8350.6259     7757.473    7000.7633   -446.81936    487.26903    260.53753   -3388.7499 
23962000    266.50788   -4793.4471   -4260.3984   -4793.4471            0    12993.969    17.754441    23.105543    19.048226    7814.0778    12073.089    13968.561    12940.256    789.88269     1946.331    893.42303   -2779.6018 
23963000    270.18692   -4820.3237   -4279.9165   -4820.3237            0    10565.105    17.703428    23.268497    19.115977    7874.4857    11027.542    11082.355    9585.4175   -696.21236    233.55222    541.10531   -3066.6061 
23964000    253.40344   -4790.7273   -4283.8891   -4790.7273            0    9708.8247    17.735183    23.323294    19.073528    7889.6292    7047.5834    10085.953    11992.938    300.85099    669.74787   -155.75974   -3166.7709 
23965000    256.92032   -4847.7298   -4333.8574   -4847.7298            0    9841.2672    17.629226    23.507742    18.975829    7864.0258    8587.6861    9353.8944    11582.221    81.933129    112.70089    2989.8877   -3205.1748 
23966000    259.93071   -4803.1158   -4283.2223   -4803.1158            0    10994.244    17.632873    23.155026    19.222465    7848.3329    9496.4934    12767.939    10718.299    657.16226    643.35267    919.06805   -3024.8224 
23967000    262.55321    -4827.548   -4302.4091    -4827.548            0    11103.508    17.636029    23.212858    19.106386    7821.8226    11120.738    10736.981    11452.804    145.88715   -71.468058    584.18734   -3035.7958 
23968000    267.49041   -4784.4215   -4249.4077   -4784.4215            0    12357.905    17.830464     23.08805     19.04398    7839.8478     9951.514    11328.894    15793.305   -899.41384    103.81444   -734.96069   -2836.4526 
23969000      264.773   -4813.2259   -4283.6472   -4813.2259            0    10706.136    17.724191    23.192491    19.176443    7882.8245     10530.44    10304.832    11283.137    594.92934    873.26863    25.310011   -3052.8386 
23970000    253.40586   -4825.0896   -4318.2466   -4825.0896            0    9135.3691    17.806857    23.141795    19.077641    7861.5645    9724.8791    8950.8258    8730.4024    551.95774   -115.57728    635.53275   -3270.8505 
23971000    265.16507   -4824.9956   -4294.6327   -4824.9956            0    9619.3232    17.655085    23.166152    19.246458    7871.8087    10336.668    9560.5997    8960.7014    1493.2844   -687.97935   -1790.5791   -3190.3127 
23972000    251.48637   -4826.8344   -4323.8306   -4826.8344            0    9902.3776       17.723    23.205081    19.149675    7875.5652    10144.944    9237.0411    10325.148    254.29638    565.33716   -1059.1248   -3186.4728 
23973000    258.74976   -4837.2073   -4319.6758   -4837.2073            0     8823.368    17.889564    23.220619    19.033279    7906.5529    9231.2774    7576.3315     9662.495   -393.57081    744.94355   -103.83858   -3302.2624 
23974000    270.08321   -4814.9888    -4274.789   -4814.9888            0    10959.524    17.743389    23.133934    19.089252    7835.6494    10203.482    11244.911     11430.18    603.47903   -423.68885    964.37619   -3022.3904 
23975000    256.60955   -4813.3343   -4300.0835   -4813.3343            0    9989.1724    17.862851    23.011613    19.144863    7869.5535      11090.4    9393.5153    9483.6017   -661.59469   -704.62336   -480.13982   -3153.6325 
23976000    262.66454   -4810.0239   -4284.6623   -4810.0239            0    10281.491    17.877895    22.914654    19.232544    7878.9151     10057.63    10400.384    10386.459   -246.00316   -1307.4463   -72.675747   -3103.2584 
23977000    284.04559   -4781.0234   -4212.8971   -4781.0234            0    11200.182     17.84104     22.68394    19.448614     7870.953    11278.259    12032.679    10289.609   -138.11455   -442.70671   -563.33496   -2927.2307 
23978000    276.30002    -4804.164   -4251.5299    -4804.164            0    11925.363    17.849743    22.981457    19.123361     7844.653    12258.669    13480.523    10036.896    193.33241    655.99849    372.60337   -2887.1942 
23979000    273.89875   -4817.5202   -4269.6888   -4817.5202            0     8075.628    17.888004    23.093592    19.248555    7951.5449    8082.0401    7543.4674    8601.3767   -219.96675   -208.59851   -1226.4384   -3333.1976 
23980000    265.72741   -4766.7712   -4235.2835   -4766.7712            0    8107.5528    17.701617    23.424147    19.179493    7952.6862    7830.7633    6730.3132     9761.582    249.82929    353.20121    -1965.345   -3294.9552 
23981000    278.66414   -4804.3432   -4246.9805   -4804.3432            0     11159.21    17.801861    23.158725    19.102553    7875.3789    12014.153    9045.6318    12417.846    1416.1403    1220.0734   -258.10554    -2965.297 
23982000     265.9893   -4798.1827   -4266.1712   -4798.1827            0    11649.062    17.576228    23.384391    19.014896    7815.3007     12387.82    10108.548    12450.818    208.37312   -130.89701   -1628.5844   -2938.4327 
23983000    268.11524   -4827.3151   -4291.0515   -4827.3151            0    10035.422    17.733532    23.361951    19.046518      7890.78    10432.572    9971.2916    9702.4041   -475.42812    479.55807   -3450.6292   -3136.1858 
23984000    283.68771    -4833.065   -4265.6545    -4833.065            0     9696.187    17.749422    23.121363     19.26306    7905.3833    11343.755    8568.9623    9175.8432    443.65022   -767.43736    269.94827   -3147.7626 
23985000    255.31994   -4816.0842   -4305.4128   -4816.0842            0    10428.159    17.862195    22.957244     19.18651      7867.75    10407.142    11219.656    9657.6811   -583.98077    580.71825   -409.67488   -3108.8538 
23986000    250.70644   -4791.2439   -4289.8001   -4791.2439            0     9587.368    17.968665    22.977354    19.199236    7926.8342    8623.2732    9841.0196    10297.811   -979.76585   -255.99585    1182.9145   -3181.4549 
23987000    265.13264   -4817.7711   -4287.4731   -4817.7711            0    7725.2342     17.77501    23.135193    19.241347    7912.5864    7804.5231    7883.3328    7487.8467    1196.6464    302.40627    536.21137   -3396.0045 
23988000    268.06028   -4799.8861   -4263.7324   -4799.8861            0    10618.332    17.769545     22.97686    19.291929    7876.6694    12261.466    9355.9232    10237.607   -1041.2284    182.73243   -1628.5101   -3043.9712 
23989000     262.8036   -4802.0801   -4276.4404   -4802.0801            0    10206.887    17.925876    22.891684    19.238032    7894.3935      12175.5    8497.8918    9947.2694   -610.01996   -857.31619    921.53065   -3101.3049 
23990000    271.92798   -4802.6861   -4258.7965   -4802.6861            0    10916.977    17.887967    22.839591     19.25293    7865.8585    9379.3047    12149.823    11221.805   -882.34733    345.09118    881.34401   -3006.4503 
23991000    271.54004   -4836.4888   -4293.3752   -4836.4888            0    11571.982    17.841518    22.865716    19.119884    7800.1308    10267.214    11459.055    12989.676    -507.4287    1113.4844   -494.91134   -2976.9824 
23992000    274.72597    -4835.703   -4286.2171    -4835.703            0    10352.262    17.828576    22.965509    19.243074     7878.929    10158.307    8751.2223    12147.257   -1091.1209   -160.64412    3290.9426   -3096.6791 
23993000    284.75591   -4814.6388   -4245.0918   -4814.6388            0    10543.795    17.823198    22.949632    19.218917    7861.2258    12527.448    10212.848    8891.0885   -1519.8707    890.85588    464.52446   -3036.2677 
23994000    267.88112    -4783.775   -4247.9796    -4783.775            0    11439.784    17.937013    23.081895    18.989864    7862.1883    10243.035    11152.316    12924.003   -1194.6613   -76.940672   -1014.4288   -2936.2716 
23995000    272.23095    -4791.919   -4247.4234    -4791.919            0    8086.6082    17.790596    23.081894    19.400446    7966.6114    7616.9704    9081.7816    7561.0725   -1358.2233    1254.3167   -19.431401    -3307.882 
23996000    262.45414   -4804.2326   -4279.2919   -4804.2326            0     10235.03    17.914222    22.883426    19.247639    7890.3532    8124.3029    11404.351    11176.435   -176.09042    291.06252     584.8855   -3101.5193 
23997000    270.03479   -4819.7878   -4279.6849   -4819.7878            0    9978.9879    17.942521    22.776577    19.301124    7887.7749    11351.504    9376.0121    9209.4478   -33.696882   -702.17959     209.3975    -3131.751 
23998000    270.42477   -4803.1387   -4262.2557   -4803.1387            0    8328.1655    17.952249    22.935763     19.36258     7972.514    8806.0293    8477.0632    7701.4041   -244.69664    682.13731    1204.3244   -3293.9321 
23999000    269.21172   -4833.8817    -4295.425   -4833.8817            0    8953.4942    17.998617    22.999769    19.138277    7922.5589    11134.886    7668.0361    8057.5605    294.10192    -565.2486   -1997.7273   -3260.9169 
24000000    276.38162   -4805.4097   -4252.6123   -4805.4097            0    9673.7025    17.893104    22.913271    19.333823    7926.6657    9167.1561    10880.625    8973.3263     225.6715    127.93745   -915.51278   -3134.3101 
Loop time of 503.823 on 64 procs for 250000 steps with 1008 atoms

Performance: 85.744 ns/day, 0.280 hours/ns, 496.206 timesteps/s
99.2% CPU use with 64 MPI tasks x 1 OpenMP threads

MPI task timing breakdown:
Section |  min time  |  avg time  |  max time  |%varavg| %total
---------------------------------------------------------------
Pair    | 28.443     | 32.65      | 36.895     |  34.1 |  6.48
Bond    | 0.27134    | 0.28138    | 0.30216    |   1.2 |  0.06
Kspace  | 225.5      | 237.7      | 249.94     |  44.7 | 47.18
Neigh   | 4.2682     | 5.1598     | 6.0266     |  26.3 |  1.02
Comm    | 95.216     | 107.93     | 120.22     |  67.3 | 21.42
Output  | 0.85973    | 0.86055    | 0.86221    |   0.1 |  0.17
Modify  | 109.64     | 112.58     | 116.8      |  21.2 | 22.35
Other   |            | 6.656      |            |       |  1.32

Nlocal:        15.7500 ave          19 max          12 min
Histogram: 1 6 8 0 12 15 0 13 6 3
Nghost:        2504.38 ave        2526 max        2478 min
Histogram: 1 5 5 6 9 11 10 9 4 4
Neighs:        5272.28 ave        6402 max        3990 min
Histogram: 1 6 7 1 12 15 5 8 6 3

Total # of neighbors = 337426
Ave neighs/atom = 334.74802
Ave special neighs/atom = 2.0000000
Neighbor list builds = 9877
Dangerous builds = 0

unfix		3
unfix		2
unfix		1

write_data	data.final.${pid}
write_data	data.final.0
System init for write_data ...
PPPM initialization ...
  extracting TIP4P info from pair style
  using 12-bit tables for long-range coulomb (../kspace.cpp:340)
  G vector (1/distance) = 0.37867763
  grid = 24 27 32
  stencil order = 5
  estimated absolute RMS force accuracy = 0.0025301396
  estimated relative force accuracy = 7.6194402e-06
  using double precision FFTW3
  3d grid and FFT values/proc = 3825 384
Last active /omp style is kspace_style pppm/tip4p/omp
WARNING: Not all mixed pair coeffs generated from mixing. Use write_data with 'pair ij' option to store all pair coeffs. (../write_data.cpp:312)

write_restart   restart.lmp.${pid}
write_restart   restart.lmp.0
System init for write_restart ...
PPPM initialization ...
  extracting TIP4P info from pair style
  using 12-bit tables for long-range coulomb (../kspace.cpp:340)
  G vector (1/distance) = 0.37867763
  grid = 24 27 32
  stencil order = 5
  estimated absolute RMS force accuracy = 0.0025301396
  estimated relative force accuracy = 7.6194402e-06
  using double precision FFTW3
  3d grid and FFT values/proc = 3825 384
Last active /omp style is kspace_style pppm/tip4p/omp
Total wall time: 0:08:26
