LAMMPS (30 Jul 2021)
  using 1 OpenMP thread(s) per MPI task
package omp 0
using multi-threaded neighbor list subroutines
echo both

include		in.partitions
variable        pid world 0
include		in.temp
variable        temperature equal 290.80
variable	tempDamp equal 100.0
include		in.pressure
variable        pressure equal 13000.0
variable        pressureDamp equal 1000.0 # This is 1 ps
include		in.seed
variable        seed world 745823

units		real
atom_style	full
read_restart	restart.lmp.${pid}
read_restart	restart.lmp.0
Reading restart file ...
  restart file = 30 Jul 2021, LAMMPS = 30 Jul 2021
  restoring atom style full from restart
  orthogonal box = (0.69777403 1.9134169 0.85128269) to (17.509798 21.715761 21.361913)
  4 by 4 by 4 MPI processor grid
  restoring pair style lj/cut/tip4p/long/omp from restart
  restoring bond style harmonic/omp from restart
  restoring angle style harmonic/omp from restart
  864 atoms
  576 bonds
  288 angles
Finding 1-2 1-3 1-4 neighbors ...
  special bond factors lj:    0        0        0       
  special bond factors coul:  0        0        0       
     2 = max # of 1-2 neighbors
     1 = max # of 1-3 neighbors
     1 = max # of 1-4 neighbors
     2 = max # of special neighbors
  special bonds CPU = 1.769 seconds
  read_restart CPU = 2.209 seconds
include 	in.setup
variable	out_freq equal 1000
variable	out_freq2 equal 10000
variable	out_freq3 equal 1000

timestep	2.0

neigh_modify    delay 7 every 1

include		in.tip4p
# This is TIP4P/Ice

# create groups ###
group ox type 2
288 atoms in group ox
group hy type 1
576 atoms in group hy

# set charges - beside manually ###
set group ox charge -1.1794
Setting atom values ...
  288 settings made for charge
set group hy charge 0.5897
Setting atom values ...
  576 settings made for charge

# ### TIP3P Potential Parameters ###
pair_style lj/cut/tip4p/long/omp 2 1 1 1 0.1577 8.5
pair_coeff 1 1*2 0.000 0.000
pair_coeff 2 2 0.21084 3.1668
bond_style  harmonic
bond_coeff  1 450 0.9572
angle_style harmonic
angle_coeff 1 55 104.52
kspace_style pppm/tip4p/omp 1.0e-5
pair_modify tail yes

thermo          ${out_freq}
thermo          1000
thermo_style    custom step temp pe etotal epair emol press lx ly lz vol pxx pyy pzz pxy pxz pyz enthalpy

restart 	${out_freq3} restart.lmp.${pid} restart2.lmp.${pid}
restart 	1000 restart.lmp.${pid} restart2.lmp.${pid}
restart 	1000 restart.lmp.0 restart2.lmp.${pid}
restart 	1000 restart.lmp.0 restart2.lmp.0


include         in.dump
dump            myDump all atom ${out_freq2} dump.water.${pid}
dump            myDump all atom 10000 dump.water.${pid}
dump            myDump all atom 10000 dump.water.0
dump            myDump2 all dcd ${out_freq2} dump.dcd
dump            myDump2 all dcd 10000 dump.dcd
dump_modify     myDump append yes
dump_modify     myDump2 append yes


variable natoms 	equal  "count(all)"                        # NUMBER ATOMS
variable H      	equal  "enthalpy/v_natoms"                 # ENTHALPY-per-atom
variable Vol      	equal  "vol/v_natoms"                 # volume-per-atom
fix AVG all 		ave/time ${out_freq} 1 ${out_freq} v_Vol v_H file vol_enthalpy.dat
fix AVG all 		ave/time 1000 1 ${out_freq} v_Vol v_H file vol_enthalpy.dat
fix AVG all 		ave/time 1000 1 1000 v_Vol v_H file vol_enthalpy.dat


timer           timeout 23:50:00 every 1000
New timer settings: style=normal  mode=nosync  timeout=23:50:00

fix 		1 all shake 1e-6 200 0 b 1 a 1
       0 = # of size 2 clusters
       0 = # of size 3 clusters
       0 = # of size 4 clusters
     288 = # of frozen angles
  find clusters CPU = 0.212 seconds
fix             2 all nph iso ${pressure} ${pressure} ${pressureDamp}
fix             2 all nph iso 13000 ${pressure} ${pressureDamp}
fix             2 all nph iso 13000 13000 ${pressureDamp}
fix             2 all nph iso 13000 13000 1000
fix             3 all temp/csvr ${temperature} ${temperature} ${tempDamp} ${seed}
fix             3 all temp/csvr 290.8 ${temperature} ${tempDamp} ${seed}
fix             3 all temp/csvr 290.8 290.8 ${tempDamp} ${seed}
fix             3 all temp/csvr 290.8 290.8 100 ${seed}
fix             3 all temp/csvr 290.8 290.8 100 745823

run             250000
PPPM initialization ...
  extracting TIP4P info from pair style
  using 12-bit tables for long-range coulomb (../kspace.cpp:340)
  G vector (1/distance) = 0.37505562
  grid = 24 24 24
  stencil order = 5
  estimated absolute RMS force accuracy = 0.0030715809
  estimated relative force accuracy = 9.2499747e-06
  using double precision FFTW3
  3d grid and FFT values/proc = 2535 216
Last active /omp style is kspace_style pppm/tip4p/omp
Neighbor list info ...
  update every 1 steps, delay 7 steps, check yes
  max neighbors/atom: 2000, page size: 100000
  master list distance cutoff = 10.8154
  ghost atom cutoff = 10.8154
  binsize = 5.4077, bins = 4 4 4
  1 neighbor lists, perpetual/occasional/extra = 1 0 0
  (1) pair lj/cut/tip4p/long/omp, perpetual
      attributes: half, newton on, omp
      pair build: half/bin/newton/omp
      stencil: half/bin/3d
      bin: standard
Per MPI rank memory allocation (min/avg/max) = 9.238 | 9.241 | 9.244 Mbytes
Step Temp PotEng TotEng E_pair E_mol Press Lx Ly Lz Volume Pxx Pyy Pzz Pxy Pxz Pyz Enthalpy 
12250000    286.67501   -3741.1521    -3249.801   -3741.1521            0    11540.022    16.812024    19.802344     20.51063    6828.3476    11295.839    13411.258    9912.9699    119.23776    714.65346   -50.656051   -2100.5942 
12251000    290.25184   -3746.6834   -3249.2016   -3746.6834            0    12470.371    16.773357    19.756799    20.463457     6781.341    12437.648    11623.431    13350.035   -1453.3545    1518.3987   -538.51433   -2015.8956 
12252000    296.25863   -3776.0457   -3268.2685   -3776.0457            0    13166.049    16.733361    19.709689    20.414661    6732.9457    12593.573    14051.858    12852.715   -32.840057    590.53312    1839.5958   -1975.4533 
12253000    292.08013   -3777.4676   -3276.8523   -3777.4676            0    13010.318    16.770449    19.753373    20.459908    6777.8137    12737.281    15306.968    10986.704    1471.9447   -2258.4072     262.9949   -1990.8154 
12254000    276.17809   -3781.0754   -3307.7156   -3781.0754            0    13253.075     16.67697    19.643268    20.345865    6665.1062    13754.559    12089.338    13915.328     1031.505    253.34534   -1206.0143   -2019.4672 
12255000    300.94197   -3776.5046   -3260.7003   -3776.5046            0    10240.933    16.762896    19.744477    20.450694    6768.6602    9465.4903    11141.396    10115.912    -2270.411   -467.53001   -62.534223   -2249.7772 
12256000    293.57259   -3734.2467   -3231.0733   -3734.2467            0    14570.366    16.672448    19.637941    20.340347    6659.6851    12291.619    14792.244    16627.235   -893.07853   -181.88116   -2127.4735   -1815.9312 
12257000    286.06135   -3748.8852   -3258.5858   -3748.8852            0    12890.769    16.734827    19.711415    20.416449    6734.7154    12289.899    13662.642    12719.765   -541.62064    593.45275    356.06223   -1992.4685 
12258000    291.76575   -3792.7322   -3292.6557   -3792.7322            0    13106.383    16.828239    19.821443    20.530413    6848.1243    15854.131    11864.275    11600.742   -908.92007   -293.51267   -69.206883   -1983.6836 
12259000    295.71386   -3771.0826   -3264.2392   -3771.0826            0    14092.484    16.764688    19.746589    20.452881    6770.8322    12856.911    13124.121    16296.419   -85.744246   -550.92297    1289.5305   -1872.6678 
12260000    283.84797   -3756.0436   -3269.5379   -3756.0436            0    12755.114    16.738622    19.715886     20.42108    6739.2988    14594.847    12418.533    11251.963   -647.29773   -914.54437   -53.108059   -2015.8918 
12261000      294.861   -3762.7238   -3257.3421   -3762.7238            0    12945.047    16.711353    19.683767    20.387812    6706.4152    13922.716    11297.691    13614.733   -687.92542    1389.7304    1382.8292   -1991.2365 
12262000    315.91324   -3775.0309   -3233.5664   -3775.0309            0     12254.77    16.766971    19.749277    20.455666    6773.5984    14075.592    10190.327     12498.39     896.1939   -471.35695    288.93442   -2022.9669 
12263000    301.99198   -3739.9117   -3222.3078   -3739.9117            0        12465     16.73092    19.706814    20.411683         6730    12895.883    13439.712    11059.405    1814.9854    1706.7295    337.00662   -1998.8662 
12264000    281.60776    -3774.979   -3292.3129    -3774.979            0    11274.043    16.738663    19.715935     20.42113    6739.3486    10790.073    12071.412    10960.644   -998.45197    103.53388   -258.01279   -2184.2269 
12265000    291.55429   -3761.3429   -3261.6289   -3761.3429            0    12868.453    16.770141    19.753011    20.459533    6777.4405    14180.241    12552.088    11873.029   -1103.6413    158.14342    889.17145    -1989.685 
12266000    288.71995   -3742.8764   -3248.0203   -3742.8764            0    13512.979    16.802072    19.790621    20.498488    6816.2277    11238.298     12063.15     17237.49    153.15862   -1329.1073    2061.6868   -1904.7263 
12267000    290.81636   -3744.5745   -3246.1252   -3744.5745            0    14867.905    16.757252    19.737829    20.443808    6761.8256    15672.892    14682.236    14248.588    874.35543   -145.65142    142.03442   -1779.9373 
12268000    280.50968   -3765.6351   -3284.8511   -3765.6351            0    12144.897     16.76513    19.747108    20.453419     6771.367    13061.948    11752.831    11619.914     -187.904   -180.45051    1402.3177   -2085.5007 
12269000    305.62351   -3807.0682     -3283.24   -3807.0682            0      11123.2    16.825498    19.818214    20.527068    6844.7777    9499.9491    12468.893    11400.758   -130.13494   -482.57972    920.93498    -2172.877 
12270000    280.68188   -3783.3013   -3302.2221   -3783.3013            0    11901.198    16.842742    19.838525    20.548106    6865.8445    11744.137    12185.547    11773.908    1706.1668   -646.82146    1458.6686   -2110.5397 
12271000    279.20432   -3772.5553   -3294.0086   -3772.5553            0    11130.981    16.839843    19.835111     20.54457    6862.3005    11427.522     9795.855    12169.566   -289.47056   -912.62474    -213.6407   -2180.0243 
12272000     305.1715   -3785.9405   -3262.8869   -3785.9405            0    11442.563    16.842215    19.837904    20.547463    6865.2002    12397.883    11117.377     10812.43    1200.4432   -696.74327   -212.13763   -2117.2358 
12273000    288.90965   -3768.8882    -3273.707   -3768.8882            0    16198.123    16.652653    19.614625    20.316197     6635.992    15056.808    15907.663    17629.899   -128.49498    460.65786   -1018.3765   -1706.0666 
12274000    311.94112   -3756.1632   -3221.5068   -3756.1632            0    12546.549    16.729226    19.704819    20.409617    6727.9562    12580.396    12495.688    12563.563   -610.73183   -16.908434    415.49342   -1990.4351 
12275000    276.52346   -3718.8989   -3244.9472   -3718.8989            0    12696.053    16.724843    19.699656     20.40427    6722.6696    12918.535    13205.294     11964.33    -1415.927   -785.21368    1072.7215    -2000.185 
12276000    294.81454   -3726.3977   -3221.0957   -3726.3977            0    12315.819    16.745061     19.72347    20.428935    6747.0787    15219.094    10081.194    11647.168   -349.22158    808.29645    479.22974   -2009.2287 
12277000    285.60596   -3748.6157   -3259.0969   -3748.6157            0    12553.745    16.794183    19.781329    20.488864    6806.6311    15600.194    12052.745    10008.295    419.69701   -1398.6723    -81.02479   -2012.9151 
12278000    282.26917   -3788.0022   -3304.2025   -3788.0022            0    11530.379    16.802781    19.791457    20.499354    6817.0913     10559.96    12280.359    11750.819   -123.79284    767.90038    230.69881   -2157.8489 
12279000    287.51356   -3804.4229   -3311.6345   -3804.4229            0    11693.737    16.775224    19.758998    20.465734    6783.6057    10693.325    11995.301    12392.587    762.07223   -1946.5945    325.48358   -2154.7505 
12280000    304.11417   -3756.7532   -3235.5119   -3756.7532            0    12598.273    16.834452    19.828761    20.537992    6855.7115    11364.637    14252.917    12177.265   -1141.9382    30.162979   -768.53299   -1975.8922 
12281000    307.23476   -3769.0665   -3242.4767   -3769.0665            0    12664.227    16.815632    19.806593    20.515032    6832.7443    11971.624    12617.977    13403.081   -2106.9713   -1918.2364     168.2448   -1980.5045 
12282000    304.13457   -3769.9228   -3248.6466   -3769.9228            0    11525.362    16.789545    19.775866    20.483205    6800.9933    10911.495    13058.122    10606.467    344.48634   -1421.4687    343.87076   -2105.4977 
12283000    291.57312    -3746.516   -3246.7697    -3746.516            0    12591.928    16.767845    19.750306    20.456731    6774.6571     10734.18    13793.763     13247.84   -1971.5461   -700.27226   -1376.4587   -2002.6693 
12284000    294.93108   -3787.6937    -3282.192   -3787.6937            0    10065.471    16.808151    19.797781    20.505905    6823.6288    7195.9178    10848.782    12151.713    33.721938   -151.05267   -617.29757   -2280.5203 
12285000    283.61739   -3745.1756   -3259.0651   -3745.1756            0    14412.568    16.680017    19.646857    20.349582    6668.7596    12242.139    14818.058    16177.507    439.48234    1226.4694   -2079.7038   -1857.3417 
12286000    279.05349   -3756.5852    -3278.297   -3756.5852            0    13455.969     16.71692    19.690323    20.394603    6713.1194    12597.806    15195.701      12574.4    566.21483    81.800314   -2364.9035   -1960.9044 
12287000    289.66764   -3730.2768   -3233.7964   -3730.2768            0    13665.349    16.724019    19.698685    20.403264    6721.6755    14486.931    13300.779    13208.338    -2111.102   -115.66236    3265.0752   -1894.1994 
12288000    285.04924   -3734.6149   -3246.0503   -3734.6149            0    12617.229    16.773576    19.757057    20.463724    6781.6067    11921.716    14557.023    11372.949    -533.0382    693.77093   -297.47419   -1998.1713 
12289000     292.1466   -3738.5917   -3237.8625   -3738.5917            0    13844.328    16.788091    19.774154    20.481432    6799.2269    15675.046    12637.574    13220.363   -277.81083    1075.3031   -1140.5209   -1865.0624 
12290000     276.0454   -3756.1422   -3283.0098   -3756.1422            0    13673.071    16.739119    19.716471    20.421686    6739.8992    13489.115    13316.996    14213.102    803.20754    1886.2761     923.0836   -1939.0219 
12291000    286.73722   -3788.7631   -3297.3054   -3788.7631            0    12334.012    16.779259    19.763751    20.470657    6788.5018    11807.028    12040.088    13154.919    889.81641   -36.307176   -392.99835    -2076.197 
12292000    294.52763   -3764.5914   -3259.7811   -3764.5914            0    14225.751     16.68794    19.656189    20.359247    6678.2666    12682.935    15615.345    14378.971    2108.9818    1421.2806    1116.0854   -1874.2547 
12293000    289.79429   -3758.1576   -3261.4601   -3758.1576            0    12590.037    16.751469    19.731018    20.436753    6754.8277    14773.553    13665.265     9331.293    1042.1701    840.23067   -969.45446   -2021.1874 
12294000    290.18787   -3759.1362   -3261.7642   -3759.1362            0    13729.369    16.721745    19.696007     20.40049    6718.9342    13800.341    13401.721    13986.046    1351.7084    212.04945     1006.394   -1916.4402 
12295000     275.8218   -3807.1944   -3334.4453   -3807.1944            0    13211.274    16.740821    19.718476    20.423763    6741.9555     14260.79    13163.092    12209.939     660.3367     314.2817    318.22896   -2035.4533 
12296000    292.55767   -3776.7868    -3275.353   -3776.7868            0    12309.841    16.801759    19.790253    20.498107    6815.8477    12826.862    10479.617    13623.043    -265.1011   -10.660673    269.74401   -2051.7284 
12297000    286.76545   -3779.4627   -3287.9565   -3779.4627            0    12775.535    16.835712    19.830245    20.539529    6857.2508    12981.924    12574.139    12770.542    326.70821   -1339.9349    1358.0269   -2010.3268 
12298000    292.83074   -3734.7543   -3232.8524   -3734.7543            0    14086.188    16.689333     19.65783    20.360948      6679.94     14674.61    13476.521    14107.433   -160.41772   -417.08816    1046.5081    -1860.575 
12299000    301.21802   -3763.9318   -3247.6544   -3763.9318            0    14116.069    16.680404    19.647313    20.350055    6669.2243    13413.129    16222.536    12712.542    1039.1726   -1705.0637   -607.03783    -1874.672 
12300000    288.14488    -3748.272   -3254.4015    -3748.272            0    13758.142    16.746334    19.724969    20.430488    6748.6174    15341.799     13417.38    12515.248    2100.6061   -364.42915    108.77209   -1900.3023 
12301000    303.31571   -3722.1329   -3202.2601   -3722.1329            0    13774.522    16.736576    19.713476    20.418584    6736.8277    14440.524    16904.514    9978.5266    427.59862    2119.3525      1864.11   -1848.9172 
12302000    288.28689   -3753.9205   -3259.8066   -3753.9205            0    13359.975     16.70784    19.679628    20.383526    6702.1863    14410.032    12112.491      13557.4    1488.0182    874.08934   -3405.2964   -1953.9424 
12303000    302.58896   -3780.9647   -3262.3375   -3780.9647            0    12181.817    16.706467    19.678011    20.381851    6700.5345    14921.651    9925.4754    11698.323    -1445.233    1898.2467    329.17537   -2071.9253 
12304000    303.48057   -3774.1059   -3253.9506   -3774.1059            0    10339.211    16.866831    19.866899    20.577494     6895.346    11441.829    11648.784    7927.0189   -1368.3388   -2104.3225   -397.06968   -2214.2235 
12305000    294.42431   -3746.9539   -3242.3207   -3746.9539            0    11243.569    16.766523     19.74875    20.455119    6773.0554    10501.367    12112.268    11117.072   -273.10548    673.13511   -969.97024   -2131.7027 
12306000    304.50079   -3736.9244   -3215.0205   -3736.9244            0    12748.598    16.749497    19.728695    20.434347    6752.4428    13269.352    10840.589    14135.851   -105.22228    174.00993    1711.5971   -1959.5711 
12307000    289.21045   -3760.5582   -3264.8614   -3760.5582            0    13937.278    16.816641    19.807782    20.516263    6833.9743    15407.167    13819.095    12585.573    666.42965    507.03777    72.449469   -1875.7815 
12308000    286.15625    -3754.768   -3264.3059    -3754.768            0    14095.662    16.799532     19.78763     20.49539    6813.1376    15685.504    12104.376    14497.105   -9.3094007    255.76534    531.63873    -1863.724 
12309000    298.31854    -3740.686   -3229.3782    -3740.686            0    13601.836    16.845941    19.842293    20.552009    6869.7578    13007.461    13859.937    13938.111     1017.711    626.16867    957.14131   -1866.6324 
12310000    280.28124    -3767.897   -3287.5046    -3767.897            0    10966.101    16.834162    19.828419    20.537638    6855.3568    10485.017    10437.466    11975.821    858.71868    1484.4102   -981.18435   -2191.1319 
12311000    282.02537   -3764.5285   -3281.1467   -3764.5285            0    9935.5113    16.852033    19.849469    20.559441    6877.2137    10170.662    10779.452    8856.4196    1444.2027   -1033.1651   -894.20538   -2284.6437 
12312000    298.68057   -3747.6202   -3235.6919   -3747.6202            0    10013.671    16.875865    19.877539    20.588516    6906.4312    11378.713    8464.0941    10198.207   -468.35214   -99.081683    440.98298   -2227.0828 
12313000    297.97238   -3698.8335    -3188.119   -3698.8335            0    14364.443    16.776694    19.760729    20.467527    6785.3888    13809.038    14100.773    15183.517   -913.69394   -1372.3825    257.46559   -1766.6435 
12314000    292.46039    -3725.072   -3223.8049    -3725.072            0    13057.928    16.823346     19.81568    20.524443    6842.1526    13798.597    11483.335    13891.851   -703.76552    -171.6725   -1080.0038   -1920.8094 
12315000    282.23638   -3758.7303   -3274.9868   -3758.7303            0     12190.08    16.847567    19.844208    20.553992    6871.7468    12333.005    10923.189    13314.046   -982.68677   -678.25138    530.49911    -2053.329 
12316000    292.54757   -3725.8265     -3224.41   -3725.8265            0    13483.582    16.810486    19.800532    20.508754    6826.4732    13322.288    14874.591    12253.867    207.97631    994.79831    1784.1061   -1882.0236 
12317000    284.05921   -3788.3683   -3301.5006   -3788.3683            0    12102.982    16.791614    19.778303     20.48573    6803.5083    12278.279    10357.884    13672.782   -763.87514    249.97281    -402.2355   -2100.6162 
12318000    293.76346   -3769.5306     -3266.03   -3769.5306            0    14457.229    16.740687    19.718318    20.423599    6741.7931    14238.416     15759.08    13374.191    666.26806   -90.990705   -154.44986   -1844.5644 
12319000    286.70018   -3786.5031   -3295.1088   -3786.5031            0    15753.742    16.732215    19.708339    20.413263    6731.5624    14128.763     16107.61    17024.852   -788.94217    803.57385    1079.9931   -1748.5177 
12320000     280.2548   -3714.0778   -3233.7306   -3714.0778            0    15556.177    16.726228    19.701287    20.405959    6724.3394    16441.865    14659.194    15567.473    901.33386   -1934.1115    78.172295   -1708.1738 
12321000    297.92245   -3795.6648   -3285.0359   -3795.6648            0    11776.265    16.849277    19.846223    20.556079      6873.84    11449.539    12145.814    11733.443     786.7274    917.07728   -1029.5193     -2104.49 
12322000    301.92059   -3715.5333   -3198.0517   -3715.5333            0    13727.571    16.813507     19.80409    20.512439     6830.154    15281.258    13656.008    12245.447   -1427.0231    1941.7753   -754.98628   -1830.6375 
12323000    278.27087   -3764.2383   -3287.2915   -3764.2383            0    13173.198    16.776178    19.760122    20.466898    6784.7628    13161.851    13875.405    12482.337   -567.28099   -1052.2723    244.29103   -1983.8193 
12324000    292.44379   -3776.2774   -3275.0387   -3776.2774            0    13129.123    16.774889    19.758603    20.465325    6783.1989    15176.766    12476.706    11733.896   -708.31388    1185.1288     1244.439   -1976.2272 
12325000    284.74792   -3760.7299   -3272.6817   -3760.7299            0    13137.561    16.791536    19.778212    20.485635    6803.4139    14760.598    12188.054    12464.031    1200.0372     1032.328    1935.3046   -1969.1622 
12326000    286.71304   -3763.6393    -3272.223   -3763.6393            0    12048.888    16.848122    19.844863     20.55467    6872.4265    12504.338    14444.767    9197.5603   -1974.5003   -372.57134   -35.193291   -2064.5955 
12327000    279.86011   -3792.4134   -3312.7428   -3792.4134            0    14227.431    16.748046    19.726985    20.432576    6750.6872    14400.695    13618.064    14663.535   -352.46748    1855.9436   -1154.7215   -1912.0258 
12328000    307.04931   -3733.9703   -3207.6983   -3733.9703            0    14727.315    16.706957    19.678588    20.382448    6701.1237    13359.189    17290.529    13532.227   -997.05021    1044.5808    176.10368   -1768.4122 
12329000    285.25406   -3783.2275   -3294.3118   -3783.2275            0    11864.458    16.789626    19.775961    20.483304    6801.0917    12800.381    12049.076    10743.917   -625.79187    765.42511     409.9539   -2117.5124 
12330000    297.93349   -3710.7909   -3200.1431   -3710.7909            0    14103.515    16.745642    19.724154    20.429644    6747.7811    14948.081    14714.419    12648.045    1871.9144    387.77376   -1058.9221   -1812.2237 
12331000    283.84685   -3756.4971   -3269.9933   -3756.4971            0    12254.732    16.789671    19.776014    20.483359    6801.1462    11565.755    10654.334    14544.107   -1006.7362    539.11438    -455.2072   -2054.4741 
12332000    293.75438   -3799.3806   -3295.8956   -3799.3806            0    13181.625    16.681196    19.648245     20.35102    6670.1736    13457.212    11448.417    14639.246    2201.5012    1125.6022   -1366.5278   -2013.6183 
12333000    284.86145   -3769.4207   -3281.1779   -3769.4207            0    13430.873    16.784252    19.769631    20.476748    6794.5629    14564.468    12334.181    13393.971   -239.75146    536.04397   -671.30209   -1950.2895 
12334000    298.97881   -3706.5219   -3194.0825   -3706.5219            0    15125.439    16.731695    19.707727    20.412629    6730.9351    17552.525    14965.978    12857.813   -113.88586   -646.93417   -994.01837   -1709.3122 
12335000    297.67334   -3745.8083   -3235.6064   -3745.8083            0    13348.484    16.726665    19.701802    20.406493     6724.867    13124.267    13408.793    13512.392   -70.168485   -305.61803   -581.87678     -1926.45 
12336000    285.51153   -3727.5337   -3238.1767   -3727.5337            0    15992.256    16.741012    19.718701    20.423996    6742.1859    17892.176    15471.185    14613.407   -19.452313    426.72662    1752.8879   -1665.6924 
12337000    291.27756   -3746.8673   -3247.6276   -3746.8673            0    12869.984     16.75437    19.734435    20.440292    6758.3379    12878.968    14581.434     11149.55   -312.76989    197.69345   -175.03346   -1979.1179 
12338000    297.31438   -3726.6711   -3217.0845   -3726.6711            0    13485.765     16.78838    19.774494    20.481784    6799.5776    13041.751    12762.866    14652.679    315.90415   -1874.0891    1242.0918   -1879.7704 
12339000    276.18209   -3755.1736   -3281.8069   -3755.1736            0    13971.124    16.715877    19.689095    20.393331    6711.8629    13893.226    12736.072    15284.073    10.363058   -469.15075     673.2198   -1914.2346 
12340000    286.86217   -3770.4317   -3278.7597   -3770.4317            0    14096.381    16.696418    19.666175    20.369591    6688.4509    15277.696    13998.823    13012.624   -392.03911   -329.45954   -50.767122   -1903.7395 
12341000    284.82151   -3800.9052   -3312.7308   -3800.9052            0    12795.274    16.766806    19.749082    20.455464    6773.3976    10379.903    13517.294    14488.625    480.41194    1278.3533    183.42966   -2048.7746 
12342000    296.57655   -3760.2986   -3251.9765   -3760.2986            0    15149.255    16.735446    19.712144    20.417205    6735.4627    11867.687    16464.732    17115.346   -277.68143    -1018.434   -574.80626    -1763.868 
12343000    281.81165   -3747.7276   -3264.7121   -3747.7276            0     15999.47    16.692056    19.661037    20.364269    6683.2095    17879.813    15678.036    14440.561   -1507.1207   -129.07754    575.99728   -1705.2797 
12344000    293.91556   -3760.6569   -3256.8957   -3760.6569            0    15051.912    16.706123    19.677606    20.381431    6700.1201    17641.464    13446.509    14067.762   -1212.9202   -97.349526    294.58711   -1786.1075 
12345000    273.74002   -3724.2858   -3255.1048   -3724.2858            0    14967.147    16.693217    19.662404    20.365685    6684.6039    15750.147    14688.639    14462.655    973.65185    2077.1088    1849.3752   -1795.9863 
12346000    287.55331   -3723.6446   -3230.7881   -3723.6446            0     12756.53    16.779919    19.764528    20.471462    6789.3026    12610.295    14694.384    10964.911    478.81272   -151.61782   -440.53817   -1967.7001 
12347000    293.15094   -3739.4139   -3236.9632   -3739.4139            0    11919.047    16.746043    19.724627    20.430133    6748.2661    14489.988    10692.145    10575.008   -780.30744    935.82189   -1120.7543   -2063.9318 
12348000    281.56596   -3755.5468   -3272.9524   -3755.5468            0    13927.592    16.720107    19.694078    20.398492    6716.9603    16119.036    12109.727    13554.012    130.13259    604.06527   -2253.1255   -1908.6058 
12349000    283.95486   -3762.2037   -3275.5148   -3762.2037            0    11767.841    16.796448    19.783998    20.491628    6809.3862    12244.802    10943.791    12114.928   -190.74484    950.75912    1247.2435   -2106.8751 
12350000    281.95087   -3771.3355   -3288.0814   -3771.3355            0    11569.185    16.810261    19.800267    20.508479    6826.1989    12232.941    9397.7151    13076.898   -281.41972   -877.93515    603.57155   -2136.3331 
12351000    283.82381   -3755.8587   -3269.3943   -3755.8587            0    13207.686    16.769367    19.752099    20.458588    6776.5018    13163.105     12787.58    13672.375    10.167536    1012.4699    1144.5384   -1964.1008 
12352000    293.44044   -3739.8139   -3236.8671   -3739.8139            0    13252.562    16.756312    19.736722    20.442662    6760.6882    14387.343    11316.809    14053.533   -1653.7722    2901.0415   -215.25539   -1930.1949 
12353000    305.03778   -3776.3024   -3253.4781   -3776.3024            0    14779.986    16.742997    19.721039    20.426418    6744.5846    15441.653    14835.129    14063.176    1246.8183     1461.934   -1453.4145   -1799.6765 
12354000    287.20403   -3791.9231   -3299.6652   -3791.9231            0    10993.271    16.834955    19.829354    20.538606    6856.3264    10422.776     12263.83    10293.207     674.8269   -514.29981    663.18989   -2200.4207 
12355000    299.26879   -3770.7257   -3257.7893   -3770.7257            0    12869.093    16.794062    19.781187    20.488717    6806.4847    13609.782    12775.964    12221.534   -947.23959   -315.16057    476.07428    -1980.331 
12356000    268.38466   -3763.1052   -3303.1031   -3763.1052            0    12273.435    16.773688    19.757188     20.46386    6781.7417    14019.511     10570.14    12230.654    977.49151   -1137.7445    754.84906   -2089.2021 
12357000    280.00405   -3763.2703   -3283.3529   -3763.2703            0    11461.436    16.788414    19.774534    20.481826    6799.6196    12639.986    11343.133    10401.189   -1199.5746   -224.72879    752.73537   -2146.7741 
12358000    286.42726   -3752.9556   -3262.0291   -3752.9556            0     11930.85    16.826039    19.818852    20.527728    6845.4385    12314.109    12711.954    10766.487   -614.77822    894.26517   -1145.6051   -2070.9282 
12359000    308.33518   -3811.1986   -3282.7226   -3811.1986            0    12977.561    16.757525    19.738151    20.444141    6762.1564     11684.62    13291.736    13956.327    29.479827   -341.18686    682.71427    -2002.887 
12360000    300.86398   -3797.3773   -3281.7067   -3797.3773            0    11052.168    16.845592    19.841882    20.551582    6869.3301    10066.315    13240.092     9850.098    -436.4718   -330.66267     870.1775   -2174.4769 
12361000    307.50969   -3788.8307   -3261.7696   -3788.8307            0    10658.059    16.803387     19.79217    20.500093    6817.8285    10562.815    10395.351    11016.011    731.12769   -122.79055   -2399.1099   -2202.0277 
12362000     289.7848   -3793.7257   -3297.0445   -3793.7257            0    13417.771    16.753326    19.733205    20.439018    6757.0739    12935.882     15053.14     12264.29   -1844.0631   -16.374627    635.04205   -1974.7904 
12363000    296.78825   -3789.5487   -3280.8638   -3789.5487            0    14653.119    16.720695     19.69477    20.399209    6717.6684    15904.215    14371.519    13683.624   -1751.4198    545.60411   -1435.5059   -1845.2932 
12364000    308.03713   -3762.5353   -3234.5702   -3762.5353            0    14622.013    16.735081    19.711715    20.416759    6735.0222    14097.179    15007.748    14761.112    1803.9483    1769.4487   -1065.8985   -1798.3466 
12365000     294.5015   -3749.9323   -3245.1668   -3749.9323            0    13389.916    16.725364     19.70027    20.404905    6723.2975    14550.453    11229.673    14389.621    481.13123    116.56023    -905.5918   -1932.2535 
12366000    291.37429   -3773.1989   -3273.7933   -3773.1989            0    13845.867    16.694355    19.663745    20.367074    6685.9713    13404.119    12158.304    15975.177    41.635914   -933.41457    1923.0638   -1923.7101 
12367000    289.13316   -3788.0618   -3292.4974   -3788.0618            0    14888.501     16.70097    19.671536    20.375144    6693.9222    13525.594    14443.824    16696.084    353.04149    1135.0613    213.98359   -1839.0226 
12368000    280.42916   -3781.5446   -3300.8986   -3781.5446            0    11518.964    16.768761    19.751385    20.457849    6775.7675    10673.031    12354.765    11529.097     1156.051     741.9292    1025.8097    -2162.622 
12369000    300.82354    -3767.861   -3252.2598    -3767.861            0    12729.673    16.750037    19.729331    20.435006    6753.0952    15543.466     11754.28    10891.273   -1722.4685    1822.7641   -876.74213   -1998.5529 
12370000    286.01351   -3777.9101   -3287.6927   -3777.9101            0    13162.713    16.774964    19.758691    20.465416    6783.2895    10513.849     13969.99    15004.301   -421.69628    548.56732    785.13046   -1985.5408 
12371000    296.98857   -3787.4941   -3278.4659   -3787.4941            0    11773.937    16.820518    19.812349    20.520993    6838.7023     11846.22    10925.561    12550.029    301.90573    1993.3718   -2009.9691   -2104.1869 
12372000     292.7565   -3722.7409   -3220.9663   -3722.7409            0    13992.429    16.796073    19.783555    20.491169    6808.9293    14262.994     15169.28    12545.013    1276.2651    -760.7281    226.38437   -1831.5006 
12373000    295.89791   -3804.4211   -3297.2622   -3804.4211            0    14685.693    16.720471    19.694507    20.398936     6717.399    15501.395    11795.786    16759.898    807.97273    698.33779    1112.9464   -1858.5581 
12374000    302.85994   -3752.4501   -3233.3586   -3752.4501            0    12560.856    16.687381     19.65553    20.358565    6677.5955     12438.73    12870.044    12373.795   -1078.0957    2142.2249    40.933902   -2010.1085 
12375000      312.043    -3734.838    -3200.007    -3734.838            0    13538.483    16.794383    19.781565    20.489108    6806.8744    14205.293    16021.347    10388.809    415.69646    549.61065   -559.64516   -1856.0244 
12376000    291.05027   -3770.5808   -3271.7306   -3770.5808            0    11182.033    16.784003    19.769339    20.476445    6794.2617    13273.106    12203.803    8069.1885    648.94818   -1491.4451   -847.44317   -2163.7327 
12377000    295.27351   -3756.5181   -3250.4294   -3756.5181            0    13533.102      16.7616    19.742951    20.449113    6767.0909    15984.158    11912.241    12702.907   -388.52261   -861.40202   -144.33872    -1914.833 
12378000    310.24719    -3778.447    -3246.694    -3778.447            0    13574.128    16.715643     19.68882    20.393046    6711.5814    12581.846    14190.297    13950.241    522.45885   -717.93552    863.92034   -1918.0375 
12379000    305.30506   -3771.2785   -3247.9961   -3771.2785            0    12901.586    16.776324    19.760294    20.467076    6784.9398    13260.716    11521.343    13922.699   -114.76335   -1381.7826   -491.52749   -1971.3663 
12380000    284.19727   -3773.7378   -3286.6334   -3773.7378            0    14871.681    16.708599    19.680522    20.384451    6703.0994    15499.515    13584.383    15531.145     1084.756    287.08003   -1260.8567   -1832.8101 
12381000    289.22354   -3802.0952   -3306.3759   -3802.0952            0    12336.628    16.760812    19.742023    20.448152    6766.1367    12099.804    13585.496    11324.583     2087.829   -101.89557     340.9751   -2089.0325 
12382000    302.54628   -3769.8155   -3251.2615   -3769.8155            0    10826.663    16.838397    19.833408    20.542806     6860.533     11055.81    9829.5311    11594.647    -318.0847    1303.4716    1605.6206   -2168.0124 
12383000     274.1093   -3740.4362   -3270.6222   -3740.4362            0    12313.342    16.761533    19.742872    20.449031    6767.0094    15056.324    11404.182    10479.521    1564.1067    1331.6996   -775.71909   -2055.4198 
12384000    277.68577    -3765.333   -3289.3891    -3765.333            0     15279.48    16.718463    19.692141    20.396486     6714.979    14765.705     13879.64    17193.096    850.09569    -199.8928   -588.25531   -1793.0531 
12385000    282.57303    -3783.924   -3299.6035    -3783.924            0    11389.499    16.757349    19.737944    20.443927    6761.9434    11006.086    10780.975    12381.436    876.82964    848.66057    47.302065   -2176.4166 
12386000    295.06703   -3766.6798    -3260.945   -3766.6798            0    12222.297    16.710636    19.682922    20.386937    6705.5515    13852.515    12045.422    10768.954    2505.1841   -332.60383   -1194.2958   -2065.6827 
12387000     278.6589   -3758.6584   -3281.0466   -3758.6584            0    13125.446     16.71251     19.68513    20.389224    6707.8085    14540.354    13954.972    10881.013    3079.3047   -247.76107    1940.1779     -1997.03 
12388000    294.14953   -3760.4157   -3256.2534   -3760.4157            0    12248.429    16.765521    19.747569    20.453896    6771.8405     10847.62    13463.518    12434.149    723.40398   -611.10944    1082.2018   -2046.5943 
12389000    272.63218    -3811.613   -3344.3308    -3811.613            0    11094.375    16.834097    19.828343    20.537559     6855.278    10843.925    8547.4665    13891.732   -42.549721    10.181129    681.26914   -2235.1463 
12390000    280.77552   -3764.6844   -3283.4448   -3764.6844            0    13349.473     16.79574    19.783163    20.490764    6808.5248    12729.858    12667.382    14651.179   -262.09636   -537.17822   -960.26945   -1957.9042 
12391000    275.51237   -3712.3894   -3240.1707   -3712.3894            0    13621.165    16.699937     19.67032    20.373884    6692.6802    14156.176    13171.643    13535.675   -1654.7354   -1207.3543    235.06453   -1910.6649 
12392000     292.4004   -3777.0892   -3275.9249   -3777.0892            0    12978.128     16.75505    19.735236    20.441122    6759.1611    12908.831    11422.875    14602.678    1206.9738    427.34462    415.17707   -1996.6003 
12393000    279.33315   -3775.3981   -3296.6307   -3775.3981            0    11532.844    16.802309      19.7909    20.498778    6816.5163    11516.075    10919.465    12162.993   -1011.2854    962.67236    12.096029   -2150.1287 
12394000    285.38487   -3760.8724   -3271.7325   -3760.8724            0    11503.313    16.789688    19.776035    20.483381     6801.168    10298.951    11688.898    12522.089   -781.79501   -670.66992   -1553.9902   -2130.7412 
12395000    297.54129   -3746.7584   -3236.7828   -3746.7584            0    14071.255    16.740582    19.718194    20.423471    6741.6661    13876.526    13863.457    14473.782   -643.26892   -116.17251   -1581.7092    -1853.293 
12396000     273.9617   -3753.3271   -3283.7661   -3753.3271            0    12768.892    16.767535    19.749941    20.456353    6774.2817    12970.951    13126.005    12209.719    920.61356    2080.7812    1354.0954   -2022.2513 
12397000    287.39849   -3767.5745   -3274.9834   -3767.5745            0    15216.426    16.688661    19.657038    20.360128    6679.1327    16160.591    14616.004    14872.682    747.67895    762.34241    1707.6523   -1792.7772 
12398000    279.48346   -3789.1459   -3310.1208   -3789.1459            0     12722.07    16.777189    19.761312    20.468131    6785.9893    13896.106    11561.342    12708.763    2711.1665     1033.193    901.16472   -2051.0596 
12399000    292.01712   -3710.4452   -3209.9378   -3710.4452            0    14441.645    16.749188    19.728331    20.433971    6752.0692     14869.34    13644.346    14811.249    2287.3801   -48.884877    -242.9977   -1787.8401 
12400000    276.65204   -3772.0991    -3297.927   -3772.0991            0    13012.671    16.800126    19.788329    20.496114    6813.8598    12636.667    15409.303    10992.042    108.99851    423.50915   -1741.4612   -2004.8168 
12401000    293.78044   -3752.4782   -3248.9486   -3752.4782            0    13365.304    16.756575    19.737031    20.442982    6761.0059    11155.591    14737.715    14202.606    1091.8307   -380.84291    -16.81134   -1931.0984 
12402000    279.60565   -3768.6824   -3289.4479   -3768.6824            0    13481.097    16.740016    19.717527     20.42278     6740.982    12505.357    13357.696    14580.238    1475.7001   -2005.4838    617.91811   -1964.1171 
12403000    300.12561   -3786.8592   -3272.4542   -3786.8592            0    14623.791     16.72847    19.703928    20.408694    6727.0434    12159.052    16564.226    15148.095    952.68903   -92.479813    709.50587   -1837.7575 
12404000    280.91522   -3803.6151    -3322.136   -3803.6151            0    13109.548    16.730493    19.706311    20.411163    6729.4851    10968.245    14606.253    13754.145   -75.417069   -1667.1238   -1506.4336   -2035.5304 
12405000     291.8033   -3794.3157   -3294.1749   -3794.3157            0    13952.946    16.764458    19.746317      20.4526    6770.5533    13447.566    14869.378    13541.895    22.283263    766.51196    -1037.633    -1916.439 
12406000    271.41961   -3803.3287   -3338.1247   -3803.3287            0    10647.823    16.810822    19.800927    20.509163    6826.8822    9054.0891    11769.411    11119.969    -770.3726    511.97839     -1577.36   -2277.9947 
12407000    281.83165    -3769.504   -3286.4542    -3769.504            0    12876.593    16.762853    19.744426    20.450641    6768.6081    13371.612    11791.907     13466.26   -233.66276    45.889249   -544.31727   -2015.3644 
12408000    284.14869   -3756.8858   -3269.8647   -3756.8858            0    13874.223    16.729805      19.7055    20.410323     6728.654    14196.021    13567.764    13858.884   -3113.8374   -27.465175   -240.00707     -1908.38 
12409000    283.35215   -3738.1618   -3252.5059   -3738.1618            0    14516.661    16.701776    19.672486    20.376128    6694.8921    14954.874    13486.506    15108.604    9.5666202   -611.97073      454.094   -1835.1262 
12410000     307.7595   -3754.2576   -3226.7683   -3754.2576            0    13596.607    16.812967    19.803454     20.51178    6829.4961    11881.134    14949.647    13959.039   -394.64006    609.80082   -910.76423     -1872.53 
12411000    289.73273   -3795.6753   -3299.0833   -3795.6753            0     15334.76    16.763612    19.745321    20.451568    6769.5284    14557.472    17267.061    14179.747    1203.1231   -2626.0152     250.9693   -1785.1341 
12412000    285.71867   -3761.3113   -3271.5992   -3761.3113            0    12851.955    16.768541    19.751126     20.45758    6775.5006    13734.043    13755.898    11065.923   -658.18659   -273.06314   -2076.1564   -2001.6497 
12413000    302.75396   -3758.2795   -3239.3695   -3758.2795            0    15123.609    16.712391     19.68499    20.389079    6707.6653    15310.617     13561.11      16499.1   -1180.8198    332.56285   -529.13356   -1759.9113 
12414000    296.71889    -3788.579   -3280.0129    -3788.579            0    12387.541    16.754448    19.734526    20.440387    6758.4317     12374.54    11866.696    12921.388    706.03053    535.98438   -1677.0475   -2059.0375 
12415000    278.69729   -3740.3661   -3262.6885   -3740.3661            0      13154.4     16.78503    19.770549    20.477698     6795.509    11796.825    15701.686    11964.688    982.22957    2007.6523    2988.0687   -1959.0147 
12416000    298.91709   -3778.6844   -3266.3508   -3778.6844            0    13700.123    16.775045    19.758788    20.465516    6783.3887    13186.794    14119.521    13794.055    633.17823   -44.422525    -791.9287   -1911.0145 
12417000    278.45844   -3813.6901   -3336.4219   -3813.6901            0    10507.486    16.784477    19.769896    20.477022    6794.8364    7900.2467    10363.394    13258.818    1809.5527   -767.81279    939.48841    -2295.175 
12418000    318.46374   -3792.6438   -3246.8079   -3792.6438            0    11801.504     16.79606     19.78354    20.491154    6808.9143    13921.331    10190.741     11292.44   -2263.7153     297.5225    1006.0881   -2074.9064 
12419000    304.41066   -3757.8029   -3236.0535   -3757.8029            0    11705.057    16.794416    19.781604    20.489148    6806.9149    11770.706     12551.34    10793.124    -423.9089    580.40384    542.52109   -2074.0706 
12420000    303.38075   -3757.9849   -3238.0006   -3757.9849            0    12462.545     16.73296    19.709217    20.414172    6732.4618    13656.629    11461.804    12269.201    1007.6726   -475.33615   -1080.6603   -2014.3526 
12421000    288.93658   -3770.5958   -3275.3684   -3770.5958            0    12655.502    16.732593    19.708785    20.413725    6732.0193    10659.051    15084.009    12223.446   -1123.7076   -396.50569    1213.6339   -2032.8564 
12422000    290.05535   -3785.1277   -3287.9828   -3785.1277            0    11437.326    16.736752    19.713684    20.418799    6737.0407    10804.334    13326.322    10181.321    814.48859    699.11292    2223.9682   -2164.2332 
12423000    281.03969   -3755.9858   -3274.2934   -3755.9858            0    11819.944    16.734648    19.711205    20.416232    6734.5002     12224.79    12213.718    11021.324   -147.65884    1706.6437   -1309.2035   -2113.3884 
12424000    272.92645   -3756.8006    -3289.014   -3756.8006            0    10593.604    16.835998    19.830582    20.539878    6857.6003    12576.716    7369.3205    11834.776   -573.89994     51.97727   -1656.9174   -2229.5364 
12425000    295.30475   -3750.0634   -3243.9212   -3750.0634            0    15942.727    16.712552    19.685178    20.389274    6707.8584    17096.572     16671.68     14059.93   -916.13668    29.197986    893.92846   -1684.2882 
12426000    294.18568   -3770.5685   -3266.3443   -3770.5685            0    15617.823    16.695109    19.664633    20.367993     6686.877    17627.259    13136.891    16089.319   -1645.4562   -1163.9803   -1572.9347   -1743.2749 
12427000    298.65407   -3771.6505   -3259.7677   -3771.6505            0    11304.761    16.746179    19.724786    20.430299    6748.4299    12099.238    12038.741    9776.3031   -2049.0602   -1211.8437   -596.09019   -2147.1653 
12428000    287.62756   -3765.7876   -3272.8038   -3765.7876            0    12613.278    16.729316    19.704924    20.409726    6728.0644    11274.453    14716.365    11849.017   -697.04122    459.20702    1282.5611   -2035.1648 
12429000    297.23302   -3763.6196   -3254.1724   -3763.6196            0    14692.217    16.670256    19.635359    20.337673    6657.0584    16026.488    12854.745    15195.418   -319.53265    1063.4024   -1782.5883   -1827.7584 
12430000    299.08126   -3801.2506   -3288.6355   -3801.2506            0      12596.2    16.744298    19.722571    20.428004    6746.1566     13700.03    10873.841     13214.73   -1300.4464    1147.0265    124.51157   -2049.3486 
12431000    289.84457   -3758.2015   -3261.4178   -3758.2015            0    16242.921    16.728317    19.703748    20.408508    6726.8595    16526.562    16109.861    16092.341    1003.8026    186.14592   -1054.0293   -1667.9166 
12432000    314.39982   -3804.4813   -3265.6108   -3804.4813            0    11782.584    16.810744    19.800835    20.509068    6826.7872    12562.378    11968.421    10816.953   -2397.0212    488.91026    781.07972   -2092.5168 
12433000    278.42172   -3794.0971   -3316.8918   -3794.0971            0    13749.797     16.77024    19.753128    20.459654     6777.561     13064.84    13697.422    14487.129    13.063786   -793.46603   -2655.5588     -1957.81 
12434000    284.84902   -3807.2185   -3318.9971   -3807.2185            0    12118.011    16.777866     19.76211    20.468957    6786.8107    11552.534    11115.281    13686.219   -180.06407    495.88946   -810.46178   -2119.5724 
12435000     302.8354   -3752.8267   -3233.7772   -3752.8267            0    13183.672    16.749714     19.72895    20.434612    6752.7046    12770.514     13180.79    13599.713    1060.9179    1155.8438    369.38656   -1935.4324 
12436000    282.68078   -3725.2384   -3240.7332   -3725.2384            0     11163.26    16.797492    19.785227    20.492902    6810.6561    12628.989    11345.019    9515.7707    1275.5944    1092.9185    2566.3796   -2131.9265 
12437000     291.2712   -3775.3322   -3276.1034   -3775.3322            0     13394.16    16.759635    19.740636    20.446715    6764.7109    13886.979    14065.298    12230.204   -1764.3909   -529.13299    816.23347   -1954.6841 
12438000    317.64368   -3775.8224   -3231.3919   -3775.8224            0    13310.826    16.833727    19.827907    20.537107    6854.8256    13686.367    14847.622    11398.489     300.9962    739.97208    851.91175   -1900.7007 
12439000    284.69938   -3787.3084   -3299.3434   -3787.3084            0    14068.373    16.717644    19.691177    20.395487    6713.9919    15290.713    13501.382    13413.023     624.3091   -1481.9476    545.67684    -1921.815 
12440000    305.56668   -3762.5985   -3238.8677   -3762.5985            0    14256.322    16.707125    19.678787    20.382654    6701.3264    15383.791    12551.914     14833.26    935.19591   -1324.7907    1371.4251   -1845.5693 
12441000    294.42677   -3748.1336   -3243.4962   -3748.1336            0    13249.825    16.753586    19.733512    20.439336    6757.3895    13910.978    14503.325    11335.173    218.30622    1012.9618   -261.83997   -1937.7313 
12442000    292.14276   -3770.9601   -3270.2374   -3770.9601            0    11275.241    16.816603    19.807737    20.516217    6833.9284    12399.117     11951.58    9475.0274   -1626.7104    -189.0275   -345.31311    -2146.481 
12443000     290.1945   -3762.9952   -3265.6118   -3762.9952            0    13591.736     16.77504    19.758781     20.46551    6783.3823    13373.602    13201.164    14200.442   -1449.5259   -1698.9293    355.17097   -1920.9994 
12444000    315.40099   -3778.4197   -3237.8332   -3778.4197            0    14152.073    16.725424     19.70034    20.404978    6723.3696    13158.894    13882.667    15414.659   -3508.9824    709.78598   -944.04618   -1850.1736 
12445000    283.80218   -3774.8778   -3288.4505   -3774.8778            0    12527.434    16.762656    19.744195    20.450401    6768.3699    13034.215    12513.544    12034.541   -1160.6949    -685.1837    136.57901   -2051.8709 
12446000    291.21497   -3778.1418   -3279.0093   -3778.1418            0     10661.18    16.812654    19.803086    20.511399    6829.1153    10601.226    11204.648    10177.667   -571.35438    -1969.689   -515.89609   -2217.2023 
12447000     295.4958   -3776.6253   -3270.1556   -3776.6253            0    12252.824    16.766677     19.74893    20.455306    6773.2415    11117.991    14293.829    11346.653     158.7442   -947.88786    836.04432   -2059.8121 
12448000     292.9469   -3732.4155   -3230.3145   -3732.4155            0    12950.248    16.767874    19.750341    20.456767    6774.6928     12862.21    13985.521    12003.013    1944.2882   -8.6764319   -235.10998   -1950.8048 
12449000    306.16026   -3726.2886   -3201.5404   -3726.2886            0    14274.025    16.748967     19.72807      20.4337    6751.8011    13338.266    14795.695    14688.115    1502.4235    -226.0978    1055.7646   -1796.0043 
12450000    294.16608   -3766.9911   -3262.8006   -3766.9911            0    10414.512     16.81091    19.801031     20.50927    6826.9893      11156.7    9682.1647    10404.671    389.32259     1128.072   -563.62094   -2225.8835 
12451000    291.37366   -3765.2971   -3265.8926   -3765.2971            0    13682.532     16.80187    19.790384    20.498242    6815.9824    15458.026    13482.742    12106.829    992.24388   -687.16908   -268.29632   -1905.7926 
12452000    280.47663   -3749.4795   -3268.7522   -3749.4795            0    12846.469    16.811208    19.801382    20.509634    6827.3527    11342.793     12340.33    14856.284    918.59181    2327.0836   -1258.4182   -1989.6301 
12453000    266.92115    -3736.508   -3279.0143    -3736.508            0    14790.153    16.707136      19.6788    20.382667      6701.34    15188.326    14676.483    14505.651    1028.2919    -943.6796   -1771.9572   -1833.5406 
12454000    287.96632   -3786.1305   -3292.5661   -3786.1305            0    14111.121    16.750416    19.729778    20.435469    6753.5545    13955.311    14474.623    13903.431    81.505547   -579.08678   -695.88649     -1902.71 
12455000    273.33278   -3786.6845   -3318.2015   -3786.6845            0    13171.079     16.78696    19.772821    20.480051    6797.8523    13237.072    11853.075     14423.09   -83.591583    919.59959    384.66873   -2012.4246 
12456000    273.14662   -3760.9919   -3292.8279   -3760.9919            0    12186.417     16.72305    19.697544    20.402082    6720.5078    12569.526    14280.525    9709.2023    1204.4617    520.44447   -690.57717   -2098.4162 
12457000    280.29919   -3740.5981   -3260.1749   -3740.5981            0    13771.788    16.767524    19.749929     20.45634    6774.2685    12139.849    14578.826    14596.689    2659.8429    390.72245    133.81304   -1899.5807 
12458000    302.67404    -3737.276   -3218.5031    -3737.276            0    16175.539     16.72663     19.70176    20.406449    6724.8237    16234.622    15982.694    16309.302   -954.01276    939.78051    1640.5859   -1632.0926 
12459000    291.45789   -3745.3359    -3245.787   -3745.3359            0    14046.331    16.720032    19.693989      20.3984    6716.8695    14517.676    13035.296    14586.019    443.21498    206.02616   -300.95767   -1869.8274 
12460000    283.39027   -3710.3623   -3224.6411   -3710.3623            0    13124.199    16.786673    19.772484    20.479702    6797.5043    11631.576     12623.75    15117.271   -405.45253   -440.41484   -38.975979   -1923.5785 
12461000    304.68399    -3785.268   -3263.0501    -3785.268            0    12268.198    16.769949    19.752784    20.459298    6777.2076    14323.378    11037.788    11443.428    733.47206    1163.7831    1194.6263   -2050.4783 
12462000    295.70089   -3768.6636   -3261.8424   -3768.6636            0    13474.658    16.797076    19.784737    20.492394      6810.15    13633.745    11730.676    15059.551   -1331.8673    1069.0281   -1609.6939   -1923.5522 
12463000     315.9156   -3747.0208   -3205.5523   -3747.0208            0    13970.018     16.77206    19.755271    20.461874    6779.7674    15041.915    14595.175    12272.965   -916.96612   -735.12773    -816.3112   -1824.2534 
12464000    285.00553   -3750.5285   -3262.0388   -3750.5285            0    13727.416    16.812632     19.80306    20.511372    6829.0878    14149.838    15204.613    11827.799    -1404.645   -976.31997   -1205.9002   -1894.8535 
12465000    281.82004   -3807.1443   -3324.1144   -3807.1443            0     15384.31    16.713211    19.685955    20.390079    6708.6524    16167.082    15744.007    14241.841   -56.282263   -667.81798     258.7831   -1818.9318 
12466000    265.15613   -3760.9169   -3306.4483   -3760.9169            0    12802.166    16.825961     19.81876    20.527633    6845.3432    13889.563    12538.461    11978.473   -883.58783    65.698055   -288.75692   -2028.3786 
12467000    272.07686   -3735.1428   -3268.8123   -3735.1428            0    14731.161    16.736626    19.713535    20.418645    6736.8878    13805.295    14499.498     15888.69   -101.83256    189.37337   -121.31318   -1821.4669 
12468000    288.15736   -3740.3995   -3246.5077   -3740.3995            0    13507.764    16.753499    19.733408    20.439229    6757.2834    13111.888    15407.973     12003.43   -94.544906    -1103.538    498.27817    -1915.344 
12469000    303.82252   -3767.6768   -3246.9354   -3767.6768            0    13602.754    16.740592    19.718207    20.423484    6741.6787    15161.973    13069.351    12576.939    1507.2015   -2642.9779   -2049.2263   -1909.5062 
12470000    282.97939   -3784.3959   -3299.3789   -3784.3959            0    15960.795      16.6907     19.65944    20.362615    6681.5807    16109.436    16463.859    15309.089   -574.30955   -893.16028   -1105.8003   -1744.0952 
12471000    288.76139   -3761.3707   -3266.4436   -3761.3707            0    12723.591    16.731666    19.707693    20.412593    6730.9002    12297.682    12062.668    13810.423   -282.86838    1267.9019   -613.03257   -2017.4542 
12472000     277.4997   -3766.4679   -3290.8429   -3766.4679            0    11087.414    16.777261    19.761398     20.46822    6786.0773    12122.296    9557.2321    11582.715   -42.126636   -861.48345    -1395.398   -2193.5439 
12473000    298.71821   -3802.1912   -3290.1984   -3802.1912            0    10782.274    16.824911    19.817522    20.526352    6844.0614    12120.273    9454.3106    10772.239    27.830603    1777.7859   -398.47934   -2213.9807 
12474000    285.78363   -3752.7677   -3262.9443   -3752.7677            0    13633.891    16.786803    19.772637     20.47986    6797.6621     13205.04    13056.913    14639.721    1339.8911    434.81116    -366.5291   -1911.3222 
12475000    284.41087   -3761.7491   -3274.2786   -3761.7491            0     12869.33    16.758749    19.739592    20.445634    6763.6381    12667.105    14770.963    11169.921    73.955813   -199.59923    1095.6023   -2004.8386 
12476000    300.23919   -3796.4743   -3281.8746   -3796.4743            0    11673.677    16.737595    19.714676    20.419826    6738.0577    12813.417    11252.248    10955.366   -834.41738   -523.54291    2587.0416   -2134.7296 
12477000    303.39179   -3717.7609   -3197.7577   -3717.7609            0    13308.146    16.782882    19.768018    20.475077    6792.8997    13399.213    13391.405    13133.821     1690.776   -151.30265   -947.26735   -1879.3533 
12478000    294.62892   -3746.4527   -3241.4688   -3746.4527            0    12531.889    16.799299    19.787356    20.495106    6812.8542     12170.07     12393.44    13032.155    943.38297     416.6662     1269.797   -1996.3193 
12479000    299.21375   -3768.9195   -3256.0773   -3768.9195            0    12420.373    16.770672    19.753636     20.46018    6778.0841    12849.636    14367.448    10044.033   -2098.5449    1506.0682   -693.55463   -2028.3061 
12480000    283.04157   -3692.4091   -3207.2856   -3692.4091            0    13908.882    16.757783    19.738455    20.444456    6762.4687    13336.221     13078.47    15311.954    1859.0808    165.76377    771.43606   -1835.5406 
12481000    306.36144   -3761.7986   -3236.7056   -3761.7986            0    12955.305    16.742456    19.720402    20.425757    6743.9307    14336.841    12263.789    12265.285    114.89899   -34.848588    1511.9797   -1962.5085 
12482000    300.60577   -3769.2007   -3253.9727   -3769.2007            0    16143.929    16.666254    19.630646    20.332791    6652.2658    17347.649    14387.953    16696.185    1628.8398   -1817.9976   -664.83274   -1687.7457 
12483000    293.51985   -3794.4151   -3291.3322   -3794.4151            0     13141.59    16.747959    19.726884    20.432471    6750.5831     12279.78    12749.823    14395.166    272.96221    -1939.761   -821.43273   -1997.5383 
12484000    298.78781   -3749.8872   -3237.7752   -3749.8872            0    12080.762    16.769317    19.752041    20.458528    6776.4423    12297.086    11507.948    12437.251    818.34655   -228.89999   -125.50179   -2043.8642 
12485000    290.76254   -3781.6383   -3283.2813   -3781.6383            0    12268.478    16.761051    19.742304    20.448443     6766.426    13247.056    9695.0754    13863.302    1422.8659   -845.79834    537.23049   -2072.6109 
12486000    290.38313     -3762.14   -3264.4332     -3762.14            0    11400.316    16.819685    19.811368    20.519977    6837.6868    12974.895    9968.8179    11257.234    579.55104   -76.772278   -1137.8813   -2127.5864 
12487000    289.79764   -3740.8413   -3244.1381   -3740.8413            0    12591.877    16.746735    19.725442    20.430978    6749.1029    11724.552     14185.78    11865.298   -460.93799    1748.4159    561.29228   -2004.7355 
12488000    284.64662   -3706.2935   -3218.4189   -3706.2935            0    13628.927    16.759961     19.74102    20.447113    6765.1058    13525.716     12488.97    14872.094    745.97471     252.0871   -654.18209     -1873.76 
12489000    290.42331   -3763.7476    -3265.972   -3763.7476            0    12408.028    16.778467    19.762818     20.46969    6787.5403    13850.847    12522.457    10850.781    425.10563   -1853.2429   -186.55555   -2037.7098 
12490000    286.05945   -3740.0635   -3249.7673   -3740.0635            0    13353.192    16.792305    19.779117    20.486573    6804.3484    14710.216    12752.644    12596.716    55.374659    801.17234   -234.59446   -1924.6708 
12491000    287.13509    -3791.171   -3299.0313    -3791.171            0    12688.559    16.816886     19.80807    20.516562    6834.2732    12817.491    12820.387    12427.799    404.87597   -137.54906    198.38062   -2034.3516 
12492000    292.73102   -3768.4883   -3266.7574   -3768.4883            0    11336.183    16.862387    19.861664    20.572073    6889.8971    12502.259    10746.151    10760.138   -152.62891   -476.68706   -745.09578   -2127.6742 
12493000     292.1772   -3728.4773   -3227.6956   -3728.4773            0    12749.161    16.789269    19.775542    20.482869    6800.6587    14893.006    11047.126     12307.35    574.00634   -870.42785    898.90698   -1963.2258 
12494000    299.37804   -3773.0333   -3259.9095   -3773.0333            0    12803.471    16.727942    19.703306     20.40805    6726.4069    14724.958    11660.024     12025.43    837.08392   -519.42619   -15.831965   -2003.9179 
12495000    285.39106   -3717.1812   -3228.0307   -3717.1812            0    13169.558    16.805762    19.794968     20.50299    6820.7198    13945.294    9531.1994    16032.182    11.807401   -401.79076   -1714.9401   -1918.0125 
12496000     298.5535    -3756.409   -3244.6985    -3756.409            0    11131.477    16.791503    19.778172    20.485594    6803.3732     10957.91    10875.558    11560.963   -1331.0924     1689.704   -792.30663   -2140.2309 
12497000    287.52394   -3755.5896   -3262.7835   -3755.5896            0    14081.937    16.776053    19.759975    20.466746    6784.6115    14789.262    11956.854    15499.697   -1185.9587   -156.04868    364.98851   -1869.4236 
12498000    302.45664   -3752.8842   -3234.4839   -3752.8842            0     9855.539    16.800741    19.789053    20.496864    6814.6077    9078.2391    9702.2822    10786.096   -355.20999    1266.1131   -474.82076   -2255.0004 
12499000    288.70035   -3755.4606    -3260.638   -3755.4606            0    12170.509    16.734327    19.710827     20.41584    6734.1125     13359.35    10784.707     12367.47   -1435.8664    25.722408   -868.49813   -2065.3708 
12500000    299.94235   -3730.8281   -3216.7372   -3730.8281            0    11761.653    16.828823     19.82213    20.531124    6848.8364    11903.533    11977.906    11403.519    1232.5957    1873.9639   -1119.2881   -2041.9451 
Loop time of 457.667 on 64 procs for 250000 steps with 864 atoms

Performance: 94.392 ns/day, 0.254 hours/ns, 546.248 timesteps/s
99.0% CPU use with 64 MPI tasks x 1 OpenMP threads

MPI task timing breakdown:
Section |  min time  |  avg time  |  max time  |%varavg| %total
---------------------------------------------------------------
Pair    | 22.44      | 27.944     | 32.627     |  46.4 |  6.11
Bond    | 0.26469    | 0.28316    | 0.29923    |   1.2 |  0.06
Kspace  | 196.27     | 204.18     | 212.36     |  26.1 | 44.61
Neigh   | 5.9531     | 6.9346     | 8.0447     |  21.0 |  1.52
Comm    | 97.759     | 106.42     | 115.17     |  39.0 | 23.25
Output  | 1.1042     | 1.106      | 1.1183     |   0.3 |  0.24
Modify  | 103.86     | 106.29     | 108.64     |  11.3 | 23.22
Other   |            | 4.515      |            |       |  0.99

Nlocal:        13.5000 ave          18 max           9 min
Histogram: 2 4 7 11 8 7 13 5 6 1
Nghost:        2299.75 ave        2344 max        2268 min
Histogram: 3 9 10 11 10 6 7 5 2 1
Neighs:        4498.84 ave        6776 max        3169 min
Histogram: 10 8 8 8 13 8 3 4 0 2

Total # of neighbors = 287926
Ave neighs/atom = 333.24769
Ave special neighs/atom = 2.0000000
Neighbor list builds = 16679
Dangerous builds = 0

unfix		3
unfix		2
unfix		1

write_data	data.final.${pid}
write_data	data.final.0
System init for write_data ...
PPPM initialization ...
  extracting TIP4P info from pair style
  using 12-bit tables for long-range coulomb (../kspace.cpp:340)
  G vector (1/distance) = 0.37497356
  grid = 24 24 24
  stencil order = 5
  estimated absolute RMS force accuracy = 0.0030807143
  estimated relative force accuracy = 9.2774797e-06
  using double precision FFTW3
  3d grid and FFT values/proc = 2535 216
Last active /omp style is kspace_style pppm/tip4p/omp
WARNING: Not all mixed pair coeffs generated from mixing. Use write_data with 'pair ij' option to store all pair coeffs. (../write_data.cpp:312)

write_restart   restart.lmp.${pid}
write_restart   restart.lmp.0
System init for write_restart ...
PPPM initialization ...
  extracting TIP4P info from pair style
  using 12-bit tables for long-range coulomb (../kspace.cpp:340)
  G vector (1/distance) = 0.37497356
  grid = 24 24 24
  stencil order = 5
  estimated absolute RMS force accuracy = 0.0030807143
  estimated relative force accuracy = 9.2774797e-06
  using double precision FFTW3
  3d grid and FFT values/proc = 2535 216
Last active /omp style is kspace_style pppm/tip4p/omp
Total wall time: 0:07:41
