LAMMPS data file via write_data, version 30 Jul 2021, timestep = 9000000

972 atoms
2 atom types
648 bonds
1 bond types
324 angles
1 angle types

0.06621917089634266 19.933781829108863 xlo xhi
0.07332076920993025 19.92668023079254 ylo yhi
0.022253162505776913 20.677744837503845 zlo zhi

Masses

1 1.008
2 15.999

Pair Coeffs # lj/cut/tip4p/long/omp

1 0 0
2 0.21084 3.1668

Bond Coeffs # harmonic/omp

1 450 0.9572

Angle Coeffs # harmonic/omp

1 55 104.52

Atoms # full

4 2 2 -1.1794 4.2317082902161145 1.2564722686128014 3.4319829054329194 0 0 0
17 6 1 0.5897 4.313091831611278 4.552816322071033 2.922953026803404 0 0 0
5 2 1 0.5897 4.3475995355831785 0.6799854750952737 2.6766501963908644 0 0 0
10 4 2 -1.1794 1.2368391745174556 4.063537495842236 3.822960766102782 0 0 0
11 4 1 0.5897 1.102926343940018 3.2832488565528553 3.2849406382464976 0 0 0
12 4 1 0.5897 2.187675125849587 4.138428072495609 3.9046981615187657 0 0 0
16 6 2 -1.1794 4.034031191145966 4.041677344601206 3.6826622663588404 0 0 0
18 6 1 0.5897 4.033375155016275 3.135316904478633 3.3749089072568483 0 0 0
23 8 1 0.5897 2.711596869001785 0.9680235855861529 4.601032737737912 0 0 0
31 11 2 -1.1794 1.1165970607732882 1.8135177105326916 2.2961723743314364 0 0 0
33 11 1 0.5897 1.7759412373211723 2.0319071518035012 1.637441628564981 0 0 0
32 11 1 0.5897 0.28790732118969603 2.096205824296899 1.9092396829368825 0 0 0
3 1 1 0.5897 3.637967033771224 2.58274186882588 0.34218839873205126 0 0 0
6 2 1 0.5897 4.954476061296079 1.0322340763159898 4.018219477258008 0 0 0
236 79 1 0.5897 1.083136969720886 0.19573413749259316 1.870014048591595 0 1 0
1 1 2 -1.1794 2.700547520597803 2.686631330847813 0.17847635076512347 0 0 0
342 114 1 0.5897 4.2735486520107155 4.598983090503273 9.739373867653734 0 0 0
27 9 1 0.5897 2.7834749459820403 4.5881366695237205 6.419113302888435 0 0 0
325 109 2 -1.1794 2.7928997265395714 2.7763912147934002 7.120169423714272 0 0 0
326 109 1 0.5897 2.49854727292818 2.1517742926336023 6.457221831559052 0 0 0
327 109 1 0.5897 3.726008442541493 2.591225931381765 7.226917542193206 0 0 0
330 110 1 0.5897 4.399383503116889 0.5918049096471263 9.619346282780349 0 0 0
355 119 2 -1.1794 1.024410344134521 2.2045569686267834 9.233645358385575 0 0 0
356 119 1 0.5897 1.6949828971896819 2.3231714546518605 8.560878386872199 0 0 0
561 187 1 0.5897 0.8156981183037887 0.2781636558153301 9.021962920981137 0 1 0
341 114 1 0.5897 4.197938193975308 3.151400293192556 10.17594066570548 0 0 0
328 110 2 -1.1794 4.143763234862154 1.3197931136937546 10.185843830620184 0 0 0
335 112 1 0.5897 1.1382972912821052 3.572669460850118 10.347919927549308 0 0 0
357 119 1 0.5897 0.19732314077254495 2.3644167292807987 8.778964267273276 0 0 0
24 8 1 0.5897 2.43017364126938 0.08259685666119215 5.796393519837049 0 0 0
22 8 2 -1.1794 2.1277357621993787 0.8757223037282968 5.35398994118658 0 0 0
102 34 1 0.5897 0.3618415946300978 0.9165319707752152 5.435996362356919 1 0 0
683 228 1 0.5897 4.520796109461135 2.763130134050184 14.185105544687536 0 0 0
336 112 1 0.5897 2.3682230264508104 4.307421406487486 10.837381671018827 0 0 0
346 116 2 -1.1794 1.7559519923226035 0.7493274376369037 11.813495437206258 0 0 0
347 116 1 0.5897 0.8414013056156954 1.027115074035204 11.760614805622568 0 0 0
348 116 1 0.5897 2.1240013710451184 0.9710643046423602 10.958093097775675 0 0 0
350 117 1 0.5897 2.513493339449713 4.480404470784092 13.720082871271078 0 0 0
649 217 2 -1.1794 2.737869814023247 2.589333860378761 13.869327798597384 0 0 0
650 217 1 0.5897 2.508585906167495 1.9752190333014545 13.171774848460865 0 0 0
651 217 1 0.5897 2.1183611993512366 2.3955879573791714 14.572911921878507 0 0 0
334 112 2 -1.1794 1.413270279823776 4.366518458368729 10.80665290961928 0 0 0
329 110 1 0.5897 4.653519468258144 1.1917890856241635 10.985919239350054 0 0 0
340 114 2 -1.1794 4.0955678873681025 4.0461255489936665 10.50026963132054 0 0 0
680 227 1 0.5897 0.12957595055999388 2.3731692005874927 15.37332883672898 0 0 0
652 218 2 -1.1794 4.232889204480498 1.3789358712136122 17.16193815972497 0 0 0
653 218 1 0.5897 3.3482594428610213 1.2600037844437146 17.507856090289657 0 0 0
654 218 1 0.5897 4.33005051143048 0.6865615267084698 16.508150318584885 0 0 0
658 220 2 -1.1794 1.233828576557104 4.03493457112612 17.652588639075983 0 0 0
659 220 1 0.5897 0.5377877040849304 4.077034624619059 18.308420051137748 0 0 0
664 222 2 -1.1794 3.9417579921812567 4.0852731165584935 17.19671120588453 0 0 0
665 222 1 0.5897 3.0182891597842 4.1044413336166885 17.448132025499373 0 0 0
666 222 1 0.5897 4.089284380049427 3.1896055801860723 16.893032105550297 0 0 0
670 224 2 -1.1794 1.8367746250775847 1.0286556290485849 18.736155844051595 0 0 0
671 224 1 0.5897 2.102583700578682 1.626850844912945 19.434582007512176 0 0 0
672 224 1 0.5897 0.8822868862566082 1.0974089827651043 18.71156364803444 0 0 0
681 227 1 0.5897 1.0709887818114554 2.643023576764084 16.527933110259397 0 0 0
679 227 2 -1.1794 0.9276570347659846 2.0491736176506774 15.79099498271899 0 0 0
2 1 1 0.5897 2.5885852424198563 3.6222030545215653 20.665530312836122 0 0 -1
660 220 1 0.5897 1.0880771917777732 4.8016316195553825 17.09836794231319 0 0 0
884 295 1 0.5897 0.8636585006855448 0.17820667973134202 15.603383379352408 0 1 0
126 42 1 0.5897 4.045665699527547 9.715603217585699 3.260709234385407 0 0 0
141 47 1 0.5897 0.745119805951705 8.001640843284644 2.5142120336035036 0 0 0
139 47 2 -1.1794 0.6822890557816728 8.912829923846653 2.227869759184372 0 0 0
114 38 1 0.5897 3.302228260117388 7.887483064131935 3.9219413973629345 0 0 0
13 5 2 -1.1794 4.790068828880673 5.8161954902061215 1.7678818569299914 0 0 0
14 5 1 0.5897 4.110534747987091 5.796629090648899 1.093925428437435 0 0 0
111 37 1 0.5897 3.5281076587036253 9.278087522327763 0.22936087599665278 0 0 0
19 7 2 -1.1794 0.7171076651612771 6.123383205135261 2.0091844503732696 0 0 0
140 47 1 0.5897 0.9039623958803886 9.424646658195345 3.0058138813438613 0 0 0
112 38 2 -1.1794 4.173812123225506 7.857313440377852 3.5272172003044746 0 0 0
15 5 1 0.5897 4.639542577505393 6.637037976035552 2.236702258213471 0 0 0
110 37 1 0.5897 2.1320237264990234 9.235573888377118 0.8136541361105426 0 0 0
674 225 1 0.5897 1.9767160237963268 5.764254729731259 0.5587678550022058 0 0 1
20 7 1 0.5897 0.7503406289972463 5.339725499037043 2.5578294928782332 0 0 0
130 44 2 -1.1794 1.7742661155983954 7.75076941132098 4.931339834091892 0 0 0
113 38 1 0.5897 4.754878835868425 7.611092929255385 4.247001658655693 0 0 0
132 44 1 0.5897 0.8205363544141129 7.684546685052799 4.980263331669531 0 0 0
339 113 1 0.5897 4.010757985831159 5.661978524176125 7.742094725085623 0 0 0
464 155 1 0.5897 1.2815715750689032 8.94680556603115 8.424188907516735 0 0 0
337 113 2 -1.1794 4.556382433471409 5.877251076068633 8.498592044350564 0 0 0
437 146 1 0.5897 4.3935755802611345 7.27996489817376 9.660930937197094 0 0 0
468 156 1 0.5897 4.195216175097402 9.38917099792998 7.452308004974491 0 0 0
435 145 1 0.5897 2.1794929192564028 8.952557163377287 6.336752197028235 0 0 0
433 145 2 -1.1794 2.4021629545824106 9.451006109793935 7.123059347246454 0 0 0
463 155 2 -1.1794 0.5614332392675316 8.656957621141025 8.984316267740299 0 0 0
345 115 1 0.5897 0.9641824942783827 6.855898292614723 9.011675344673204 0 0 0
438 146 1 0.5897 4.194724400982367 8.709863139898971 10.116616205508581 0 0 0
343 115 2 -1.1794 0.9841758514065776 5.957771931756619 8.681247764566317 0 0 0
26 9 1 0.5897 2.1016863087825497 5.672142197625882 7.226643439453389 0 0 0
25 9 2 -1.1794 2.729126941159547 5.538843141809951 6.51607513654368 0 0 0
131 44 1 0.5897 2.09272254994204 6.9752501722222595 5.393276487122957 0 0 0
344 115 1 0.5897 1.1713090963628567 5.422493135381918 9.452451564633119 0 0 0
443 148 1 0.5897 1.063957837546083 9.75321800861446 10.322430664794679 0 0 0
757 253 2 -1.1794 2.7185853639840505 9.249093282619514 13.914955513616317 0 0 0
668 223 1 0.5897 1.5107061474767083 5.814739571563912 15.09558456375526 0 0 0
792 264 1 0.5897 4.672946960366383 9.068124589082732 14.295320230317621 0 0 0
349 117 2 -1.1794 2.6308108345036616 5.424090660072098 13.829071861626307 0 0 0
351 117 1 0.5897 3.5129383610276923 5.5162658738562635 14.18922980151269 0 0 0
454 152 2 -1.1794 1.9599672331254387 7.346566965282207 11.933660336085483 0 0 0
455 152 1 0.5897 2.6673073156379674 7.508872995375971 11.309408076379398 0 0 0
456 152 1 0.5897 2.2955319574767725 6.65287859482458 12.501521884880924 0 0 0
759 253 1 0.5897 2.3595280272409505 8.692490858605035 13.223917234477948 0 0 0
789 263 1 0.5897 1.384584991354561 8.905892835703442 15.205168775978446 0 0 0
533 178 1 0.5897 0.28470205710586016 7.289443803949209 11.889201789040996 1 0 0
661 221 2 -1.1794 4.916253685394597 5.884008255935174 15.199815315270143 0 0 0
436 146 2 -1.1794 4.1482207690872475 7.804328857016837 10.42326164884946 0 0 0
762 254 1 0.5897 5.006388829763752 7.747243913516576 17.64163165622448 0 0 0
788 263 1 0.5897 1.0219193269228959 9.320610741130624 16.61536361214506 0 0 0
109 37 2 -1.1794 2.6048382890815907 9.362735154029714 20.646569786913968 0 0 -1
779 260 1 0.5897 2.390433020729668 8.232748751982601 19.323775499155406 0 0 0
780 260 1 0.5897 3.0267479600207756 7.555222134514418 18.12870740639104 0 0 0
675 225 1 0.5897 2.6576526989106415 6.02012507151197 19.886463655222503 0 0 0
760 254 2 -1.1794 4.365613601459448 7.955752382933793 16.96171591538634 0 0 0
761 254 1 0.5897 4.367437951782501 8.911805481218545 16.915338133998663 0 0 0
778 260 2 -1.1794 2.325350868959961 7.453200795754668 18.772133612547197 0 0 0
787 263 2 -1.1794 0.7349551166652512 8.76154587595413 15.893285142010807 0 0 0
858 286 1 0.5897 0.46654325412454056 7.216227317092267 18.699804405909536 1 0 0
669 223 1 0.5897 0.8191621868119767 6.928589423919202 15.852623068675008 0 0 0
663 221 1 0.5897 4.676694904653911 6.599237093748381 15.789155658426933 0 0 0
667 223 2 -1.1794 0.8870953958555179 5.975064341793129 15.803938592443664 0 0 0
673 225 2 -1.1794 2.695964907676071 5.459157090441994 20.661150881030412 0 0 0
662 221 1 0.5897 4.715998379054969 5.0888960455416274 15.69370771779707 0 0 0
222 74 1 0.5897 4.065847650122721 13.99276669992468 2.24930804967045 0 0 0
118 40 2 -1.1794 1.3271331065990057 10.878422044344664 3.9541414786360733 0 0 0
119 40 1 0.5897 2.280620730438395 10.819221142277572 4.015211453818087 0 0 0
120 40 1 0.5897 1.1700842633336566 11.593217996250106 3.3371628813622713 0 0 0
122 41 1 0.5897 4.5919315170484225 11.879505610033538 2.0997101366550432 0 0 0
123 41 1 0.5897 4.262820923065624 12.354168243289442 0.7002341539336737 0 0 0
124 42 2 -1.1794 4.072871464531972 10.658991345782228 3.4203058375403876 0 0 0
240 80 1 0.5897 2.3117832407213315 14.26104946465062 4.265383024655988 0 0 0
127 43 2 -1.1794 0.8755072813578066 12.730974482596526 1.882690733798411 0 0 0
129 43 1 0.5897 1.0455433124298437 13.65584197848734 2.061303071337016 0 0 0
220 74 2 -1.1794 3.7873636955260603 14.376606071865549 3.080837043154649 0 0 0
783 261 1 0.5897 2.086361754454941 12.30555509317769 0.5235088738918449 0 0 1
238 80 2 -1.1794 1.743669122518845 14.191436309240968 5.03269205320867 0 0 0
125 42 1 0.5897 4.690330581511466 10.76217874131958 4.144495442932528 0 0 0
121 41 2 -1.1794 4.871816812425563 12.4978142489804 1.4247002280991867 0 0 0
133 45 2 -1.1794 2.2594585790310906 12.089318148743786 6.703151174306847 0 0 0
134 45 1 0.5897 1.5904775552305885 12.282646558313527 7.359982960546156 0 0 0
135 45 1 0.5897 3.0887164016371145 12.27912386302029 7.1420800804636615 0 0 0
239 80 1 0.5897 1.959549116052797 13.340756462151782 5.414752611482043 0 0 0
573 191 1 0.5897 0.7466323010543412 14.378699609682833 9.38914315283959 0 0 0
446 149 1 0.5897 4.251177097896025 13.19618167840357 8.800075679249506 0 0 0
450 150 1 0.5897 4.243570984787997 11.181182116042624 9.353009780827444 0 0 0
451 151 2 -1.1794 0.7508126868675317 12.54836610382667 9.02938599187117 0 0 0
453 151 1 0.5897 0.9921573187969832 11.844999425712762 9.632122148392568 0 0 0
445 149 2 -1.1794 4.588368071615581 12.57293325229197 8.15652993447421 0 0 0
544 182 2 -1.1794 4.0883393079045875 14.400143311769664 10.14031053986615 0 0 0
448 150 2 -1.1794 4.0243369199578005 10.612103746343436 10.09083383289939 0 0 0
434 145 1 0.5897 2.2803681326886234 10.365964687448173 6.869629844216616 0 0 0
444 148 1 0.5897 2.3018523810336333 10.487576783348281 10.791971795346804 0 0 0
642 214 1 0.5897 0.10187202974308204 14.014465833816224 11.862289130591947 1 0 0
457 153 2 -1.1794 2.5933375089617017 11.89222936261115 13.426177164991524 0 0 0
458 153 1 0.5897 1.9545206280106147 12.085255525597477 14.112477486150132 0 0 0
459 153 1 0.5897 3.4418158630145967 12.07601744538451 13.829474053134732 0 0 0
449 150 1 0.5897 4.516131603257772 10.974385804970106 10.827809479044365 0 0 0
442 148 2 -1.1794 1.3508411119873784 10.46200746825422 10.898261306593755 0 0 0
562 188 2 -1.1794 1.905566186755595 13.962238217078177 11.76660030451354 0 0 0
563 188 1 0.5897 2.152551434199774 13.142074238365831 12.193875626308374 0 0 0
769 257 2 -1.1794 4.702393805015541 12.525244393978568 14.96929707568011 0 0 0
545 182 1 0.5897 3.3111264478550253 14.158541192344133 10.644219503888563 0 0 0
564 188 1 0.5897 2.06143942160017 14.634668292690804 12.429780422658967 0 0 0
546 182 1 0.5897 4.823208318351788 14.186793167944172 10.71547001557716 0 0 0
758 253 1 0.5897 2.7076435025138497 10.1308790306932 13.54273541642119 0 0 0
512 171 1 0.5897 0.24223186876281214 10.965072290320926 12.27577275364451 1 0 0
771 257 1 0.5897 4.3793197306814395 13.252477455338227 15.501286864454999 0 0 0
775 259 2 -1.1794 0.8540726397562645 12.410030438598044 15.49074427683669 0 0 0
766 256 2 -1.1794 1.559444341827453 10.679972820330589 17.625122961897688 0 0 0
767 256 1 0.5897 0.8238060044366993 10.783963192546238 18.228760252289376 0 0 0
768 256 1 0.5897 1.3123656237833305 11.192223080857861 16.855166057368706 0 0 0
772 258 2 -1.1794 4.278320420874523 10.657549851438286 17.03565140264711 0 0 0
773 258 1 0.5897 3.3261944988083427 10.620290250523507 17.127361489770966 0 0 0
774 258 1 0.5897 4.427226366853261 11.291405139515774 16.333984415952788 0 0 0
781 261 2 -1.1794 2.690426566634258 12.165551906574528 20.44971073773591 0 0 0
965 322 1 0.5897 0.35314490386357467 13.957839922405755 18.991068463192697 1 0 0
869 290 1 0.5897 3.2857950191006076 14.239051899231322 17.473320100180086 0 0 0
886 296 2 -1.1794 2.0551704620325664 14.021862217613343 18.671702809276834 0 0 0
888 296 1 0.5897 2.285829783951682 13.277837994498219 19.228007592932773 0 0 0
868 290 2 -1.1794 4.030230484195448 14.374958872716409 16.887051675826537 0 0 0
782 261 1 0.5897 2.67162195501072 11.22024087067336 20.300617117464405 0 0 0
887 296 1 0.5897 2.263901432941428 14.791312237282849 19.201446808485603 0 0 0
777 259 1 0.5897 1.0137537178202294 13.2938487827702 15.821771802036094 0 0 0
870 290 1 0.5897 4.797252375767074 14.325746885636686 17.457685258820074 0 0 0
249 83 1 0.5897 1.4563054347574802 15.53373697433815 1.417537820115683 0 0 0
248 83 1 0.5897 1.193603063498599 16.090803728876317 2.8005754136469814 0 0 0
247 83 2 -1.1794 0.9451237324964382 15.37816958860487 2.2117959079548544 0 0 0
235 79 2 -1.1794 0.9987014615592517 19.175851873779905 1.4872081789962572 0 0 0
226 76 2 -1.1794 1.5743896140832478 17.69059960143047 3.6334432759954227 0 0 0
227 76 1 0.5897 1.3593298694565636 18.320428468462552 2.9454492905615735 0 0 0
228 76 1 0.5897 0.8754313733483796 17.792846070326732 4.279484057767859 0 0 0
890 297 1 0.5897 2.1161441006139525 18.75324555000754 0.2423641001985862 0 0 1
230 77 1 0.5897 4.064460912488309 19.086879066808343 0.7675051520091606 0 0 0
232 78 2 -1.1794 4.253186147405218 17.077631104657826 3.4065442430475987 0 0 0
233 78 1 0.5897 4.432482472420799 17.681750289185935 2.6860001947960277 0 0 0
234 78 1 0.5897 3.363818925222538 17.294811169902083 3.6862139690001903 0 0 0
229 77 2 -1.1794 4.520585661071742 19.226475280411954 1.597455618188994 0 0 0
221 74 1 0.5897 3.96070573743486 15.312853056375543 2.9829232271238975 0 0 0
237 79 1 0.5897 0.06752130815858948 19.093103429317082 1.281234845822166 0 0 0
219 73 1 0.5897 3.465034008504246 15.847123025345958 0.20305481443701012 0 0 0
558 186 1 0.5897 4.428154528708916 17.721879799923634 9.931522641431334 0 0 0
576 192 1 0.5897 4.403980800202389 15.534304797481834 7.2465196311269775 0 0 0
559 187 2 -1.1794 0.8683488077296201 19.190106401560143 8.857148886729691 0 0 0
241 81 2 -1.1794 2.7535952397755454 18.54694602573857 6.869184748583749 0 0 0
242 81 1 0.5897 2.5838160776371026 17.60497793673256 6.861335982177588 0 0 0
243 81 1 0.5897 2.1570242483937476 18.892778633939187 7.533144346440514 0 0 0
541 181 2 -1.1794 2.518191093712794 15.769691318669027 7.253961473935694 0 0 0
542 181 1 0.5897 1.92852348648306 15.653694230424495 7.999077719491998 0 0 0
571 191 2 -1.1794 0.6000415912059466 15.305508348321052 9.200092547511304 0 0 0
572 191 1 0.5897 0.8425649914281108 15.756636881379723 10.008783717851086 0 0 0
555 185 1 0.5897 4.198128673035068 18.8483270143332 7.959569435444927 0 0 0
553 185 2 -1.1794 4.825931715736427 18.959786631450314 8.673573000770963 0 0 0
543 181 1 0.5897 2.171194756318941 15.185151343134518 6.580015787939889 0 0 0
551 184 1 0.5897 1.3724991986029997 18.089704339562076 10.174263892817917 0 0 0
885 295 1 0.5897 1.3876340976906278 18.96217712122798 14.668583858754307 0 0 0
866 289 1 0.5897 3.5944370908523875 15.740094988888991 13.838605129203048 0 0 0
879 293 1 0.5897 4.464525928148895 18.94485116273477 14.759140598504567 0 0 0
867 289 1 0.5897 2.2226496659408 15.557469801712106 14.452685042525955 0 0 0
550 184 2 -1.1794 1.5486893856970623 17.522611878585757 10.925018925886175 0 0 0
552 184 1 0.5897 2.482532787685572 17.322254355333243 10.86054182472827 0 0 0
565 189 2 -1.1794 3.042806386878073 18.630225644111405 13.675065210693816 0 0 0
566 189 1 0.5897 2.7492356825877002 17.73084540206454 13.52968073487065 0 0 0
567 189 1 0.5897 2.7146032277132477 19.115130520219715 12.917791672713374 0 0 0
865 289 2 -1.1794 2.661034616627497 15.833069271267593 13.64757157707771 0 0 0
556 186 2 -1.1794 4.184721095657832 17.172204848553328 10.676430002929719 0 0 0
557 186 1 0.5897 4.269677595250632 16.275989610126352 10.351175100796462 0 0 0
896 299 1 0.5897 0.08520409623179089 15.488191298660205 15.27393842739097 0 0 0
621 207 1 0.5897 0.24347879880386894 17.94344410655502 12.204615950987062 1 0 0
883 295 2 -1.1794 0.8119704315458636 19.0931253436921 15.422121841366359 0 0 0
881 294 1 0.5897 2.9421317975528813 17.259737123484953 17.275859013337634 0 0 0
897 299 1 0.5897 0.8526201299325618 15.99632475704377 16.47601942193267 0 0 0
889 297 2 -1.1794 2.737633069888926 18.59080243458274 20.188127878086572 0 0 0
882 294 1 0.5897 3.9610968884607085 16.205400485540295 16.898864919557493 0 0 0
880 294 2 -1.1794 3.879026772509378 17.13134057520832 17.127130765603987 0 0 0
874 292 2 -1.1794 1.123862786791518 17.429569381351058 17.546369284279585 0 0 0
875 292 1 0.5897 0.644644468208514 17.80253519601738 18.286357130936835 0 0 0
876 292 1 0.5897 1.010552079094312 18.06691600049033 16.84122631516881 0 0 0
891 297 1 0.5897 2.5546522698164202 19.27761229776958 19.546982730866624 0 0 0
878 293 1 0.5897 4.717462575070655 18.32494033443458 16.117019182396174 0 0 0
895 299 2 -1.1794 0.8317042737251795 15.28375534669617 15.837237041295726 0 0 0
218 73 1 0.5897 2.4810982042940233 16.757015590663137 20.154241652834102 0 0 -1
873 291 1 0.5897 4.888128212460996 17.547810306527765 18.60404497511574 0 0 0
217 73 2 -1.1794 2.547338528093227 15.909016991405306 20.59325027767228 0 0 -1
877 293 2 -1.1794 5.000557775949114 19.039577247665186 15.546573090013565 0 0 0
69 23 1 0.5897 6.702819014782187 2.2483510386261547 1.6888154004556128 0 0 0
9 3 1 0.5897 5.291569095053039 4.20890259429915 4.891465458515021 0 0 0
68 23 1 0.5897 8.203309085412096 2.325162977980111 1.5020659910710716 0 0 0
67 23 2 -1.1794 7.5310301976937355 2.103249041238123 2.146388416854231 0 0 0
46 16 2 -1.1794 8.143425285310535 4.092521426381025 3.8066291611639174 0 0 0
47 16 1 0.5897 7.903657311996514 3.3785884217830486 3.2158361546780476 0 0 0
48 16 1 0.5897 7.370233197820271 4.218753024483254 4.356727818205133 0 0 0
273 91 1 0.5897 7.3683402814722285 0.4792413014433924 1.717343759129778 0 1 0
34 12 2 -1.1794 5.427189933011427 2.4809031388665064 0.5395414980527173 0 0 0
58 20 2 -1.1794 8.661609921487527 0.9860275053781679 4.840375937216255 0 0 0
29 10 1 0.5897 6.906298762102827 0.6633128533131447 5.171947020990573 0 0 0
36 12 1 0.5897 5.459039623154646 3.2979479152028612 0.04189057912460825 0 0 0
8 3 1 0.5897 5.925771145117662 3.7580915398582855 6.1902086956146745 0 0 0
391 131 2 -1.1794 7.576136927306976 2.088582034190935 8.935733588493001 0 0 0
393 131 1 0.5897 7.540990335366967 1.132049797728813 8.934348299564727 0 0 0
59 20 1 0.5897 8.691639835354241 1.716910054308396 5.457763411068213 0 0 0
361 121 2 -1.1794 9.124975320794837 2.8923227102387874 6.757092734856146 0 0 0
392 131 1 0.5897 8.20842051962812 2.3064930146943916 8.250835894514479 0 0 0
362 121 1 0.5897 9.250128897343217 3.7832680764173197 6.430337841991027 0 0 0
358 120 2 -1.1794 5.434595328352502 2.336178926597709 7.360043058380857 0 0 0
359 120 1 0.5897 6.143187986640883 2.356953782356976 8.003333798512886 0 0 0
360 120 1 0.5897 5.681087154560839 1.637473557430884 6.75397268534383 0 0 0
7 3 2 -1.1794 5.9992166996518215 4.418436876787487 5.501130888051849 0 0 0
28 10 2 -1.1794 5.9963433726642315 0.5480081991968456 5.445914005644192 0 0 0
60 20 1 0.5897 8.985960368981138 0.23661198417887164 5.339808554479809 0 0 0
363 121 1 0.5897 9.99643939957952 2.6162845328438507 7.041184993129609 0 0 0
371 124 1 0.5897 7.9268375526585055 3.5790593050649715 9.970036532127459 0 0 0
352 118 2 -1.1794 5.808214480889523 1.0950833795814523 12.363969435196692 0 0 0
353 118 1 0.5897 6.750040387594329 1.157449564660319 12.204494919231058 0 0 0
354 118 1 0.5897 5.681293364101126 1.509878066561123 13.217280627399514 0 0 0
684 228 1 0.5897 5.759064931821065 3.4989954297916475 13.718921850925113 0 0 0
372 124 1 0.5897 7.333249785059856 4.401307114256533 11.094124901553238 0 0 0
685 229 2 -1.1794 8.951806255586728 2.851024698880354 13.888812389535705 0 0 0
382 128 2 -1.1794 8.497274964227604 1.105888561699868 11.872585352268786 0 0 0
383 128 1 0.5897 8.752124265600035 1.749203669514047 12.53400706337297 0 0 0
384 128 1 0.5897 9.080735508153825 1.2776218053565778 11.133369488537461 0 0 0
687 229 1 0.5897 9.877723352463553 2.890897015313521 14.12852731355054 0 0 0
686 229 1 0.5897 8.495157993119907 2.7082761743189603 14.717938942354328 0 0 0
682 228 2 -1.1794 5.449702614729671 2.8828447153376935 14.382956102394918 0 0 0
370 124 2 -1.1794 8.024036382375936 4.412006458044314 10.431517836374333 0 0 0
386 129 1 0.5897 9.21021280428296 4.563038699818374 13.698479365612142 0 0 0
331 111 2 -1.1794 6.10364963443658 4.712729701188879 12.370598844245038 0 0 0
377 126 1 0.5897 9.88519728666158 4.276136116953212 10.461319999909557 0 0 0
332 111 1 0.5897 5.404391011451039 4.384343314136685 11.80532694895368 0 0 0
657 219 1 0.5897 6.542172857557962 4.191087508482812 18.867602257474587 0 0 0
38 13 1 0.5897 9.165540676202948 2.110858907018812 19.918453053385125 0 0 -1
677 226 1 0.5897 5.374632961587197 0.8340543672859257 18.442123163784736 0 0 0
655 219 2 -1.1794 5.744974884517272 4.519933829047906 19.283160250889306 0 0 0
676 226 2 -1.1794 5.911608039125697 0.6343416596014714 19.209017595035906 0 0 0
35 12 1 0.5897 5.576740050899464 1.7966176474821811 20.542606605786425 0 0 -1
694 232 2 -1.1794 8.125690668059892 4.078972931008435 17.746466698769016 0 0 0
695 232 1 0.5897 7.903412202073722 3.2899688064127988 17.252188941995335 0 0 0
716 239 1 0.5897 7.567119898195612 1.1423525932826901 16.010530856981305 0 0 0
706 236 2 -1.1794 8.57283510112983 0.727268370060686 18.66153376015261 0 0 0
708 236 1 0.5897 7.616134102933803 0.7599971447776711 18.657120923627097 0 0 0
715 239 2 -1.1794 7.424119354784583 2.083023935141814 16.11488556303428 0 0 0
656 219 1 0.5897 5.055856995347439 4.364394435799413 18.637183608811046 0 0 0
702 234 1 0.5897 9.948772092027738 4.122893944025678 17.846989058389966 0 0 0
710 237 1 0.5897 9.00325864413035 4.519118444658403 20.34577870772817 0 0 0
689 230 1 0.5897 9.9501270196084 1.16729664796851 17.40063855405945 0 0 0
696 232 1 0.5897 7.8815872979004435 4.801326447567586 17.167774597027847 0 0 0
37 13 2 -1.1794 9.346293285287722 2.6870135557096746 20.661195134233953 0 0 -1
717 239 1 0.5897 6.620807731033139 2.2594520819519497 15.625063194019164 0 0 0
143 48 1 0.5897 6.092526674532138 9.248617774094583 1.0062467718972758 0 0 0
176 59 1 0.5897 7.53333451185995 7.857904306484426 2.116834361861855 0 0 0
142 48 2 -1.1794 5.356117251259879 9.247866856919536 0.39468366994522375 0 0 0
711 237 1 0.5897 8.750966732739231 5.745772854669115 0.5409206231737083 0 0 1
175 59 2 -1.1794 7.537237923051697 8.805883480648152 1.9845541118902081 0 0 0
55 19 2 -1.1794 7.555021603377172 6.0205291874550575 1.9297169447496219 0 0 0
56 19 1 0.5897 6.615835833430436 5.853861387694504 1.8491539717088237 0 0 0
177 59 1 0.5897 8.192520028472417 8.950253847085122 1.3018348683207972 0 0 0
57 19 1 0.5897 7.836644698516034 5.461949843770947 2.6542647707463027 0 0 0
166 56 2 -1.1794 8.500239030547965 7.600687597209266 4.8660492584088395 0 0 0
149 50 1 0.5897 9.86829864141627 7.887181163935193 3.6689760500396393 0 0 0
155 52 1 0.5897 8.104610877313645 9.837707997553501 3.4021272536030662 0 0 0
145 49 2 -1.1794 9.17753780545651 9.254948583017065 0.03184570816022969 0 0 0
137 46 1 0.5897 5.722062706957618 6.3089307603760485 5.595462554026458 0 0 0
501 167 1 0.5897 6.491938536520769 8.952692285820758 8.539948045269501 0 0 0
380 127 1 0.5897 7.231361482715023 6.8732821138741915 8.517541356706067 0 0 0
467 156 1 0.5897 5.252068774798695 8.563707952206679 6.749680499992291 0 0 0
499 167 2 -1.1794 7.263501409476117 8.569290671522113 8.957128262355328 0 0 0
61 21 2 -1.1794 9.40582175207149 5.578594151877346 6.41294280341626 0 0 0
62 21 1 0.5897 8.733173342681821 5.6728933503802565 7.087481500750273 0 0 0
469 157 2 -1.1794 8.951010501996473 9.347928220433205 6.837940092469091 0 0 0
500 167 1 0.5897 7.524268984008838 9.212258529611724 9.61658000460756 0 0 0
470 157 1 0.5897 8.499215560367118 9.015378367019139 7.6135565103151155 0 0 0
168 56 1 0.5897 8.502193702554717 8.213588514109142 5.6013094919533 0 0 0
466 156 2 -1.1794 5.140602923501431 9.243834611231327 7.413924865414232 0 0 0
379 127 2 -1.1794 7.3700257358081975 5.976982277116302 8.211551170843164 0 0 0
338 113 1 0.5897 5.453097569543671 5.843177677662107 8.165252773862067 0 0 0
381 127 1 0.5897 7.493159430831995 5.466547026300404 9.011922349848714 0 0 0
136 46 2 -1.1794 5.8657310961600215 7.254959573513746 5.571640413959153 0 0 0
167 56 1 0.5897 8.821037604154286 6.77901524584155 5.237779617749447 0 0 0
138 46 1 0.5897 6.764896139932237 7.353361067329657 5.258327537499254 0 0 0
471 157 1 0.5897 9.881132834281052 9.242734187004311 7.038398225983091 0 0 0
791 264 1 0.5897 6.030184966364347 9.082980081846568 14.966088054451244 0 0 0
794 265 1 0.5897 9.212289650943891 8.57127992168466 13.55852772866214 0 0 0
491 164 1 0.5897 9.47630554758932 7.424106264334355 11.36076069602576 0 0 0
462 154 1 0.5897 5.656960240354452 7.610114484248906 11.458838144244197 0 0 0
333 111 1 0.5897 6.174770367162659 5.641300390301931 12.149509698387234 0 0 0
793 265 2 -1.1794 9.282959827039502 9.260130547218276 14.219402015486194 0 0 0
790 264 2 -1.1794 5.598140670815429 9.248061481037546 14.12797549546002 0 0 0
387 129 1 0.5897 9.327288453159223 6.01299236027195 13.27924805703324 0 0 0
460 154 2 -1.1794 6.359828640969188 7.48917531712353 12.097345685926934 0 0 0
461 154 1 0.5897 6.090688056079462 8.012211907549489 12.852520988851722 0 0 0
492 164 1 0.5897 8.111313808872989 7.477473969032919 12.013579335128608 0 0 0
490 164 2 -1.1794 9.046095471773702 7.436796152444601 12.21580984728313 0 0 0
385 129 2 -1.1794 9.475132099284778 5.424860586513277 14.019880470548502 0 0 0
824 275 1 0.5897 8.007930810132375 9.036688161683864 15.435293869163234 0 0 0
705 235 1 0.5897 8.231853465536531 5.902357070009899 15.215074141633723 0 0 0
704 235 1 0.5897 6.734159083792657 6.046199690417705 15.383850567024206 0 0 0
814 272 2 -1.1794 8.816873491205861 7.420879910444617 18.75591982856322 0 0 0
786 262 1 0.5897 6.898437589873171 7.332793447624012 18.98336041816992 0 0 0
815 272 1 0.5897 8.952616381360397 6.612849865895562 19.25079673394852 0 0 0
825 275 1 0.5897 7.563637800884099 7.912006538332431 16.346150777173047 0 0 0
785 262 1 0.5897 5.711914381688942 6.441849462416045 19.28415604173651 0 0 0
703 235 2 -1.1794 7.559162696562292 6.1022736261151485 15.866135437630447 0 0 0
816 272 1 0.5897 9.011016794691406 8.120048565494415 19.38021154340441 0 0 0
823 275 2 -1.1794 7.40122779572642 8.83415262502314 16.14750762331654 0 0 0
784 262 2 -1.1794 5.944804920454007 7.344258463942769 19.065970116080436 0 0 0
144 48 1 0.5897 5.546338459227913 8.52988245008791 20.446388295856515 0 0 -1
709 237 2 -1.1794 9.234888537703833 5.444245446119625 20.427494465387625 0 0 0
154 52 2 -1.1794 8.257189733000084 10.598827934867684 3.9621700262676094 0 0 0
819 273 1 0.5897 8.47308988916346 12.327390435263561 0.6588040856488784 0 0 1
156 52 1 0.5897 9.21028520424966 10.671643200402434 4.0137453722387875 0 0 0
163 55 2 -1.1794 7.635691708138552 12.763033805462607 2.2651660516621854 0 0 0
164 55 1 0.5897 6.729310020381081 12.58741717130774 2.0121932936941116 0 0 0
165 55 1 0.5897 7.870758665228986 12.033061621776632 2.8380019050621708 0 0 0
276 92 1 0.5897 9.103869986319603 14.094961135423103 4.568962017566202 0 0 0
285 95 1 0.5897 7.446293982054339 14.775078012663583 2.5332464051964747 0 0 0
275 92 1 0.5897 7.672332596318942 13.814673097188523 4.974346409761771 0 0 0
245 82 1 0.5897 5.669424371518252 12.821968602968239 5.0640225598945285 0 0 0
244 82 2 -1.1794 5.778192910856678 13.755577697442916 4.88306013346394 0 0 0
116 39 1 0.5897 6.7644776179202735 10.684515112341455 5.162023054966159 0 0 0