LAMMPS data file via write_data, version 30 Jul 2021, timestep = 10500000

972 atoms
2 atom types
648 bonds
1 bond types
324 angles
1 angle types

-0.15915776460697373 20.159158764594068 xlo xhi
-0.08256484057758406 20.08256584057318 ylo yhi
-0.04154500307702946 20.741543003076387 zlo zhi

Masses

1 1.008
2 15.999

Pair Coeffs # lj/cut/tip4p/long/omp

1 0 0
2 0.21084 3.1668

Bond Coeffs # harmonic/omp

1 450 0.9572

Angle Coeffs # harmonic/omp

1 55 104.52

Atoms # full

10 4 2 -1.1794 1.431698874101535 4.20436025922463 3.9358430256134698 0 0 0
11 4 1 0.5897 1.158336012739366 3.557642472091265 3.2852931030807015 0 0 0
12 4 1 0.5897 2.388035551922889 4.194385882970944 3.897017017708815 0 0 0
16 6 2 -1.1794 4.188377849368819 3.670087486520109 3.380561171030302 0 0 0
33 11 1 0.5897 1.2854412634345915 2.533946743578736 1.303051569969161 0 0 0
31 11 2 -1.1794 0.6062150578651491 2.3903048471036605 1.962057196491347 0 0 0
18 6 1 0.5897 4.328894655277082 2.742915379396824 3.189098983586135 0 0 0
5 2 1 0.5897 4.591016641782343 0.37628977004162373 2.721564559755815 0 0 0
23 8 1 0.5897 2.4922323702835283 1.0258418931163125 4.233451948444941 0 0 0
4 2 2 -1.1794 4.354401270462475 0.8314754454448832 3.5297035801690297 0 0 0
22 8 2 -1.1794 1.8158571907007377 0.9484942263412566 4.906361598149171 0 0 0
236 79 1 0.5897 0.5703530781076687 0.3148351851037817 1.767377096369779 0 1 0
126 42 1 0.5897 4.369610782375652 9.613914081340226 3.40073006839177 0 0 0
17 6 1 0.5897 4.490569594608729 4.12577101629818 2.59487846991247 0 0 0
3 1 1 0.5897 3.298262720470628 2.3954104194607773 0.17970720285216593 0 0 0
19 7 2 -1.1794 0.2810240676004425 6.126271630645501 2.1141783967306704 0 0 0
140 47 1 0.5897 0.8674001938948728 9.547856015478635 2.8644037688919632 0 0 0
111 37 1 0.5897 3.5463361869782277 9.069703069272686 0.28513286988876607 0 0 0
20 7 1 0.5897 0.4790873497392917 5.395846641047346 2.7001886049025363 0 0 0
112 38 2 -1.1794 4.120239131078841 7.685673725373987 3.2688828111556285 0 0 0
114 38 1 0.5897 3.337493544593958 7.717759950670644 3.8189078190870345 0 0 0
14 5 1 0.5897 3.927702070453286 5.592295555349079 0.9892586557778338 0 0 0
110 37 1 0.5897 2.1642629297725935 9.129341360461426 0.9000794227277895 0 0 0
674 225 1 0.5897 1.7356825316018278 5.735284736098313 1.0044988229550358 0 0 1
141 47 1 0.5897 0.8209233386460377 8.087779973220245 2.4676073138519214 0 0 0
15 5 1 0.5897 4.502181493036968 6.315474986119132 2.1887978150625 0 0 0
139 47 2 -1.1794 0.7960931322850358 8.972334718600774 2.102886513556113 0 0 0
2 1 1 0.5897 2.449785631809165 3.640548602230205 0.03412573763784593 0 0 0
109 37 2 -1.1794 2.62243087795185 9.181355463441806 0.06122540381852497 0 0 0
673 225 2 -1.1794 2.361772225477667 5.449471351096839 0.3392506961718977 0 0 1
13 5 2 -1.1794 4.7337814826779985 5.698780559890954 1.4943637538939982 0 0 0
113 38 1 0.5897 4.8438929920719245 7.583939496213014 3.8871329484916517 0 0 0
102 34 1 0.5897 0.15534937297845314 0.7802210385247528 4.767496487950926 1 0 0
132 44 1 0.5897 1.1014976173622988 7.506276909689422 5.111535971176914 0 0 0
130 44 2 -1.1794 2.058124319618653 7.508033425081959 5.0789914219625265 0 0 0
325 109 2 -1.1794 2.5414296931841456 2.68903896517885 7.0887198835846466 0 0 0
326 109 1 0.5897 2.346633097871477 2.097431295154425 6.361905462394715 0 0 0
327 109 1 0.5897 3.453745972431594 2.503649623118444 7.31123498046999 0 0 0
355 119 2 -1.1794 0.6877896120425587 1.886103650208243 9.066224908534073 0 0 0
356 119 1 0.5897 1.405001016776353 2.155868870871429 8.492586705451066 0 0 0
344 115 1 0.5897 0.7381359397651561 5.4607509967123375 9.252657464016128 0 0 0
342 114 1 0.5897 4.109657930066854 4.66462802346492 10.060938226244451 0 0 0
437 146 1 0.5897 4.217398053407973 7.266279434446577 9.377200943790992 0 0 0
27 9 1 0.5897 2.592715558995812 4.5542657793657915 6.661452270320119 0 0 0
345 115 1 0.5897 0.8134084279081156 6.895954828107205 8.777280643257892 0 0 0
329 110 1 0.5897 3.8490649428525874 0.4669197043361576 9.493565901993799 0 0 0
337 113 2 -1.1794 4.6608493182303325 5.580927830302369 8.70257040866607 0 0 0
468 156 1 0.5897 4.68422548471823 9.00512161066746 7.454799307060307 0 0 0
25 9 2 -1.1794 2.7849949072533136 5.471799326410039 6.8543214874915375 0 0 0
24 8 1 0.5897 1.9126665301363839 0.05765286784575763 5.242674160450841 0 0 0
433 145 2 -1.1794 2.6345585674906555 9.099571417311465 7.336540693682688 0 0 0
343 115 2 -1.1794 0.6237835071618941 6.007690130782213 8.475467975212903 0 0 0
26 9 1 0.5897 2.152004522585345 5.712583339832033 7.5307793310592706 0 0 0
339 113 1 0.5897 4.208643458792863 5.546738862165684 7.859591518643078 0 0 0
464 155 1 0.5897 1.15134857444457 8.915190130845426 8.417278320743359 0 0 0
435 145 1 0.5897 2.500214270311586 8.590005306420888 6.537454628442188 0 0 0
463 155 2 -1.1794 0.5302653058373399 8.595762986527971 9.071860216536319 0 0 0
131 44 1 0.5897 2.3141273353025364 6.688441808296625 5.501877313461282 0 0 0
357 119 1 0.5897 -0.10537217567124096 2.1391763436148032 8.593924501746837 0 0 0
436 146 2 -1.1794 4.055380288542253 7.913607249919697 10.06343484918391 0 0 0
438 146 1 0.5897 3.8479084477148815 8.718823574556923 9.589417214005513 0 0 0
328 110 2 -1.1794 3.772391287238127 1.2314527764881296 10.064304575794182 0 0 0
335 112 1 0.5897 0.9126926889179379 3.3261136346134403 10.087228070607864 0 0 0
341 114 1 0.5897 3.9123722747283685 3.181149830001319 10.288508098587897 0 0 0
561 187 1 0.5897 0.8409818444598096 -0.02554370521568103 8.550842885042389 0 1 0
649 217 2 -1.1794 2.379254640441121 2.8957008188781255 13.395912369172258 0 0 0
650 217 1 0.5897 2.181268843940373 2.2981371574074516 12.674856508545043 0 0 0
651 217 1 0.5897 1.8345675898320768 2.5870381022056312 14.120008433217587 0 0 0
347 116 1 0.5897 0.9093301893210897 0.8596669761356198 11.097652206270757 0 0 0
334 112 2 -1.1794 1.1133207898420625 4.130097581725806 10.566241172030777 0 0 0
348 116 1 0.5897 2.4176113263651686 0.8230157115209169 10.972901015394633 0 0 0
456 152 1 0.5897 2.184220757015668 7.26910730069433 12.64915885120938 0 0 0
350 117 1 0.5897 2.3085171610024906 4.791247455233061 13.518347416933194 0 0 0
455 152 1 0.5897 2.8972781558923435 7.9872988333916 11.523253021403477 0 0 0
683 228 1 0.5897 4.327711810284864 2.625345283182806 14.193427675673552 0 0 0
346 116 2 -1.1794 1.7088949132347477 0.7482988986997297 11.611968760501458 0 0 0
792 264 1 0.5897 4.128909722197322 9.287143830766793 14.789819991402751 0 0 0
668 223 1 0.5897 0.628041836479473 5.715972958657812 14.914455709746504 0 0 0
351 117 1 0.5897 2.9395782165278157 5.894925177162831 14.340152727196235 0 0 0
349 117 2 -1.1794 2.203274474375133 5.712278451439879 13.756418102050564 0 0 0
759 253 1 0.5897 2.133200774435787 9.230339919396686 13.545353836601196 0 0 0
454 152 2 -1.1794 2.1312608581496257 8.04709716892454 12.094123269219235 0 0 0
330 110 1 0.5897 4.527963381878791 1.1713525089509398 10.648906173645063 0 0 0
757 253 2 -1.1794 2.194241368413933 9.686436577898858 14.384702045641163 0 0 0
405 135 1 0.5897 -0.1569397483095969 4.736868565004806 11.780967898427445 1 0 0
336 112 1 0.5897 2.0341106365994954 4.039949259892217 10.811566390054718 0 0 0
443 148 1 0.5897 0.9192246669737714 9.743710799911508 10.612503082584594 0 0 0
533 178 1 0.5897 -0.012725102445539677 7.756100869864446 12.199011475426301 1 0 0
340 114 2 -1.1794 3.910208560583337 4.023442344712726 10.743069905903738 0 0 0
679 227 2 -1.1794 0.6706537471834886 1.9911199710633554 15.52444263192512 0 0 0
653 218 1 0.5897 3.233569689981538 1.3674694629064723 17.813705179195967 0 0 0
652 218 2 -1.1794 4.018855010739669 1.4859232458084857 17.279363692459082 0 0 0
664 222 2 -1.1794 3.68287535853708 4.1957283269508405 17.717586739803927 0 0 0
671 224 1 0.5897 1.7309173918786507 1.6464583784988331 19.358468167202656 0 0 0
658 220 2 -1.1794 0.8153380228136758 3.98102348556388 17.498631185809344 0 0 0
666 222 1 0.5897 3.825462613968547 3.2902799681901387 17.442093054854052 0 0 0
670 224 2 -1.1794 1.700822654145702 1.0239670463820127 18.631981090802185 0 0 0
665 222 1 0.5897 2.7313607949904717 4.281796791566346 17.776014539761206 0 0 0
681 227 1 0.5897 0.6924505623905737 2.4930350576646454 16.339225470392936 0 0 0
672 224 1 0.5897 0.7683636930334053 0.9230424635877601 18.44087881145977 0 0 0
659 220 1 0.5897 0.18551319761455454 4.1278012170557306 18.204362293673846 0 0 0
660 220 1 0.5897 0.6177592168090702 4.661522699725004 16.855150147234127 0 0 0
663 221 1 0.5897 4.184608720223659 6.8500997775457435 16.09057173471886 0 0 0
667 223 2 -1.1794 0.047910594866450384 5.776288952498898 15.673470709603532 0 0 0
788 263 1 0.5897 0.7796490006156938 9.41275617288354 16.954017448528166 0 0 0
761 254 1 0.5897 3.881510705025171 8.860848331438486 17.53731158589535 0 0 0
675 225 1 0.5897 2.2280971711553095 6.053214164038698 20.39168919309192 0 0 0
779 260 1 0.5897 2.2908522008343155 7.922441578797242 19.639349961428678 0 0 0
778 260 2 -1.1794 2.1412540734053875 7.098315548741288 19.176163965884186 0 0 0
780 260 1 0.5897 2.670841288912472 7.169727740685299 18.38197067181627 0 0 0
760 254 2 -1.1794 3.9193045924428516 7.9241505295709835 17.344410760423163 0 0 0
858 286 1 0.5897 0.25708732690087144 7.146518154453094 18.84070950890281 1 0 0
787 263 2 -1.1794 0.654616822959774 8.660638147037075 16.375365624680523 0 0 0
654 218 1 0.5897 3.899700756688685 0.8877976201903611 16.54161397069702 0 0 0
662 221 1 0.5897 4.022386985354659 5.365628776654293 16.338443853977783 0 0 0
762 254 1 0.5897 4.585453538304658 7.5829779471990815 17.94110900314534 0 0 0
884 295 1 0.5897 0.7514476160795079 0.12886659921449495 15.66156709202998 0 1 0
1 1 2 -1.1794 2.417546018048622 2.688119154742682 20.728599634121647 0 0 -1
669 223 1 0.5897 0.1554771124558747 6.674170203929899 15.987007581790827 0 0 0
789 263 1 0.5897 1.1366096688301757 8.886951565799881 15.57990485932685 0 0 0
661 221 2 -1.1794 4.2275732656629685 6.000419436111262 15.652052143093984 0 0 0
120 40 1 0.5897 1.1989109229220203 11.589582843040192 3.5461527067705783 0 0 0
127 43 2 -1.1794 0.8756614222655656 12.647044370440042 1.8539167215189643 0 0 0
230 77 1 0.5897 4.486650942407004 19.064595868570606 0.6152321762293481 0 0 0
119 40 1 0.5897 2.3226155616778565 10.69806041786186 4.030057870781956 0 0 0
129 43 1 0.5897 0.9252288591534705 13.596439959476326 1.9644174519691275 0 0 0
240 80 1 0.5897 2.851703068285191 14.072493891661232 4.176908183071175 0 0 0
118 40 2 -1.1794 1.3751782206454501 10.821003599795159 4.088688145576484 0 0 0
222 74 1 0.5897 4.308144894498794 14.099031561157924 2.3997011423356405 0 0 0
124 42 2 -1.1794 4.226858911696203 10.557281369565313 3.4761955388689536 0 0 0
125 42 1 0.5897 4.739750912728858 10.817111636079533 4.241490004131956 0 0 0
238 80 2 -1.1794 2.060077708282921 13.772478916447252 4.623609913691916 0 0 0
123 41 1 0.5897 4.079342659162384 12.263704598359832 0.6853796009951402 0 0 0
122 41 1 0.5897 4.540820653296684 11.542235750114509 1.9337618580595792 0 0 0
783 261 1 0.5897 1.8913280187866968 12.23953235667586 0.5387023281526483 0 0 1
235 79 2 -1.1794 0.6624563758658709 19.577120317747912 1.463332405378907 0 0 0
247 83 2 -1.1794 0.8256438301782778 15.37572292136499 1.8625302758044386 0 0 0
249 83 1 0.5897 1.4332132075620814 15.538512201952953 1.1409826072787488 0 0 0
220 74 2 -1.1794 4.364913339299057 14.475476716844273 3.277969492940687 0 0 0
317 106 1 0.5897 0.10687109796885252 13.672025461035702 4.953678964907587 1 0 0
248 83 1 0.5897 1.039035034684522 16.04576526890863 2.511891194411271 0 0 0
232 78 2 -1.1794 4.2414742975963335 17.453649074727693 3.4344281242167765 0 0 0
234 78 1 0.5897 3.302792309586069 17.6283322723281 3.501974542652238 0 0 0
227 76 1 0.5897 1.3448320348570888 18.40687607971322 2.734671688492261 0 0 0
221 74 1 0.5897 4.5658016290447545 15.399543092557039 3.1303600911256155 0 0 0
228 76 1 0.5897 0.8548605356125163 18.002477085576707 4.108889454461899 0 0 0
226 76 2 -1.1794 1.498586943862479 17.775767082141897 3.4377133111471534 0 0 0
233 78 1 0.5897 4.535767225060256 18.001322761329 2.7066385138107822 0 0 0
128 43 1 0.5897 -0.033730205812857045 12.481549551298297 1.6052945914165972 0 0 0
890 297 1 0.5897 1.9837457864998251 19.26803887980563 0.2923288055431002 0 0 1
121 41 2 -1.1794 4.8248355925246225 12.181150825001623 1.2800826816468738 0 0 0
239 80 1 0.5897 2.3440540022560135 13.011525013552843 5.130008020100043 0 0 0
133 45 2 -1.1794 2.472326293620754 11.933638390806465 6.9084169587659545 0 0 0
134 45 1 0.5897 1.77499003308472 12.164551105392817 7.52212292139767 0 0 0
135 45 1 0.5897 3.2779754985405267 12.015722659419042 7.418725995030018 0 0 0
553 185 2 -1.1794 4.288060193737957 19.18756140170946 8.558805591050787 0 0 0
453 151 1 0.5897 0.6922850321526098 12.080631553511925 9.799055711662403 0 0 0
451 151 2 -1.1794 0.5122772068107315 12.559131750978272 8.989796502507224 0 0 0
551 184 1 0.5897 0.9457418568787226 18.162037609576323 9.953888837970707 0 0 0
446 149 1 0.5897 4.252220625185785 13.31848387656927 8.875908553825363 0 0 0
573 191 1 0.5897 0.7271302334916101 14.507356897329553 8.791055360104473 0 0 0
434 145 1 0.5897 2.4956424538129864 10.007693280613047 7.068114686109332 0 0 0
558 186 1 0.5897 4.078124528156279 17.89494219821477 9.665692986048144 0 0 0
542 181 1 0.5897 1.9989551344436323 15.550791483465536 7.232635141611362 0 0 0
445 149 2 -1.1794 4.552512039057568 12.585564513807924 8.338510717267932 0 0 0
543 181 1 0.5897 2.5775683265442537 15.249463564557123 5.866442634901395 0 0 0
572 191 1 0.5897 0.7539166425416012 15.835244723065003 9.517404373230379 0 0 0
559 187 2 -1.1794 0.7824151486840997 19.184624183222823 8.525483390675706 0 0 0
555 185 1 0.5897 4.045587694544416 18.907604219516934 7.676123796409531 0 0 0
241 81 2 -1.1794 2.4789429155083376 18.752350946464595 6.378082783393411 0 0 0
242 81 1 0.5897 2.3579819144655527 17.845308769595313 6.097545800851605 0 0 0
243 81 1 0.5897 1.9346620826884275 18.836037132826966 7.161059826591636 0 0 0
541 181 2 -1.1794 2.6190040230093494 15.882493282157405 6.583207102129387 0 0 0
450 150 1 0.5897 4.244371290359361 11.486925259324924 10.016842175025321 0 0 0
576 192 1 0.5897 4.3499579782292805 15.999966733721875 7.134503907704455 0 0 0
571 191 2 -1.1794 0.6119920220937809 15.447536229293195 8.65378785595357 0 0 0
557 186 1 0.5897 3.898589251899713 16.40838361307774 9.88767590268891 0 0 0
544 182 2 -1.1794 3.826380279214299 14.47732117509221 10.141387415861194 0 0 0
188 63 1 0.5897 0.1863963025629668 11.010771139085598 5.489621333675313 1 0 0
560 187 1 0.5897 -0.14557483046636222 19.00503552283044 8.374535578928535 0 0 0
556 186 2 -1.1794 3.8088984925173017 17.25513842938797 10.324743164278928 0 0 0
457 153 2 -1.1794 2.3063645964076254 12.212869712480497 13.521696793807198 0 0 0
458 153 1 0.5897 1.63547160248763 12.359739696083379 14.188483023573028 0 0 0
459 153 1 0.5897 3.1234777680898493 12.484884268079945 13.939477384886425 0 0 0
562 188 2 -1.1794 1.5623504293743802 14.261330505247214 11.72965810668946 0 0 0
563 188 1 0.5897 1.862524882686042 13.482077038236316 12.197341471413209 0 0 0
758 253 1 0.5897 2.2176684129880964 10.614562011078785 14.152211607867024 0 0 0
444 148 1 0.5897 1.881767695983405 10.84030197552373 11.015782524108625 0 0 0
449 150 1 0.5897 4.233784857823426 11.119800063923485 11.48559243416017 0 0 0
896 299 1 0.5897 -0.11158937426503002 15.619103797066916 15.05868744442945 0 0 0
564 188 1 0.5897 1.8682130861773394 14.994324947848373 12.263810256052267 0 0 0
885 295 1 0.5897 1.4438505049884371 19.18749712629365 14.894800957020113 0 0 0
877 293 2 -1.1794 4.481114082543744 19.537840309734314 15.28157315641057 0 0 0
448 150 2 -1.1794 3.653735299280546 11.328154126076603 10.753197267439878 0 0 0
567 189 1 0.5897 2.1548311832880866 19.40312027842041 12.628238335706351 0 0 0
552 184 1 0.5897 2.1289438541685093 17.43180923660909 10.552712889771106 0 0 0
867 289 1 0.5897 2.035954945999414 15.926259308529106 14.62722909591799 0 0 0
566 189 1 0.5897 2.5945168332236044 18.024584650696717 13.073009210893103 0 0 0
879 293 1 0.5897 3.8896446390679094 19.441029793692707 14.535192553921032 0 0 0
865 289 2 -1.1794 2.5374570489412345 16.216375106087057 13.865253926049322 0 0 0
565 189 2 -1.1794 2.631612230481505 18.947912085425536 13.322290293896298 0 0 0
866 289 1 0.5897 3.450606140900268 16.057947296412806 14.104501103050103 0 0 0
550 184 2 -1.1794 1.173127947827021 17.474944686874707 10.580288590486107 0 0 0
442 148 2 -1.1794 0.9489449627621993 10.630267520457426 10.9719539003093 0 0 0
769 257 2 -1.1794 4.3956908106558785 12.627618525007628 15.240839125684841 0 0 0
546 182 1 0.5897 4.545598670079523 14.340708052553266 10.758092808015215 0 0 0
775 259 2 -1.1794 0.3217783399090518 12.4646593102294 15.327807905713602 0 0 0
545 182 1 0.5897 3.0357277647271648 14.307107245987881 10.653362132334061 0 0 0
642 214 1 0.5897 -0.12603732213120367 14.155475821762847 11.900639930147236 1 0 0
621 207 1 0.5897 -0.14775371283662153 17.744737722835474 11.527430882960859 1 0 0
777 259 1 0.5897 0.4049467482484551 13.40346065020659 15.49438198600218 0 0 0
889 297 2 -1.1794 2.603740596337436 19.201018180544153 20.349191503614495 0 0 0
768 256 1 0.5897 0.6656150002355674 11.659751521821308 16.815763387233332 0 0 0
888 296 1 0.5897 2.2231173651957303 13.524791727624741 19.240113496288505 0 0 0
766 256 2 -1.1794 0.9715690715948537 11.275833306021147 17.637501166443144 0 0 0
773 258 1 0.5897 2.849213255098779 10.891098439619133 17.474706213124993 0 0 0
965 322 1 0.5897 0.20894016501284912 14.432642181364761 18.666024775470444 1 0 0
772 258 2 -1.1794 3.773959207855219 10.646201153641371 17.44208105031504 0 0 0
875 292 1 0.5897 0.4716014663348471 17.79633227443349 18.103345869455655 0 0 0
886 296 2 -1.1794 2.024332017976741 14.259193708287167 18.659370131997886 0 0 0
883 295 2 -1.1794 0.7603816318381642 19.343886622795516 15.546476883079874 0 0 0
880 294 2 -1.1794 3.9172501484046522 17.442844093095317 17.063173319315784 0 0 0
767 256 1 0.5897 0.3827209874614992 11.631976058313159 18.302830661442755 0 0 0
881 294 1 0.5897 3.0062133685543313 17.567600166213758 17.328960170622008 0 0 0
868 290 2 -1.1794 4.004099203423428 14.824438069954333 16.879902965533084 0 0 0
869 290 1 0.5897 3.2820093306027616 14.474016753495553 17.401449635111483 0 0 0
782 261 1 0.5897 2.5475314950275565 11.059891330267394 20.636607469954225 0 0 0
774 258 1 0.5897 4.119914584885541 11.115589954817438 16.682973761635832 0 0 0
891 297 1 0.5897 2.2907675462158994 19.83786364642412 19.70680406242238 0 0 0
887 296 1 0.5897 2.1422541385687173 15.035959668868454 19.206052307900638 0 0 0
882 294 1 0.5897 3.966522416240271 16.52421882368556 16.799069414931164 0 0 0
874 292 2 -1.1794 1.210334848780037 17.535606746124422 17.553320244598147 0 0 0
897 299 1 0.5897 0.659917949547284 15.968154261620116 16.313670570502403 0 0 0
876 292 1 0.5897 1.2082684474823033 18.16659586291445 16.8335943944853 0 0 0
878 293 1 0.5897 4.349758405879763 18.74194229419777 15.796765119782757 0 0 0
895 299 2 -1.1794 0.595459599087629 15.307744058217878 15.62381871501824 0 0 0
771 257 1 0.5897 4.334965512218086 13.444669004662954 15.735607580279387 0 0 0
218 73 1 0.5897 2.5455985175767024 17.222458720008213 20.1595501820702 0 0 -1
781 261 2 -1.1794 2.527459534873846 12.01676205452866 20.642103719412265 0 0 0
870 290 1 0.5897 4.763645705453236 14.779081233705256 17.460664811357713 0 0 0
217 73 2 -1.1794 2.5694996705622706 16.290267308276682 20.375184364914254 0 0 -1
219 73 1 0.5897 3.4891251708403366 16.11322226526903 20.57305133956632 0 0 -1
166 56 2 -1.1794 8.739734579346534 7.469850198614609 5.099222233809946 0 0 0
48 16 1 0.5897 7.204767878706845 3.782131431221587 4.267874966171406 0 0 0
34 12 2 -1.1794 5.217398297390011 2.2132123264145864 0.5069523615543392 0 0 0
142 48 2 -1.1794 5.2897608196166335 8.956086935116682 0.4327267264451358 0 0 0
69 23 1 0.5897 6.4952917893685775 2.0018493809416187 1.6757078477685643 0 0 0
67 23 2 -1.1794 7.363837017540893 1.7542987319453178 1.9928104995404947 0 0 0
68 23 1 0.5897 7.946505571954791 1.9219384227400678 1.2521040448130731 0 0 0
46 16 2 -1.1794 7.952896043336455 3.8505654527737567 3.674691539296342 0 0 0
47 16 1 0.5897 7.930382660099994 3.0404321037601374 3.1654753176098 0 0 0
175 59 2 -1.1794 7.647125977224177 8.682085416721183 2.1901646622541406 0 0 0
177 59 1 0.5897 8.264588196024684 8.846799867321378 1.4774992359724972 0 0 0
143 48 1 0.5897 5.769662447443688 8.813890501469555 1.2486536793315752 0 0 0
711 237 1 0.5897 8.647023563608485 5.64698715533109 0.489380270036854 0 0 1
176 59 1 0.5897 7.756026701275475 7.752878152005331 2.3920722405838992 0 0 0
56 19 1 0.5897 6.746055741954183 5.845097948984529 1.5805230728593704 0 0 0
6 2 1 0.5897 5.029312136926002 0.5729142017977933 4.15731687833777 0 0 0
55 19 2 -1.1794 7.6274980771637955 5.927702432246522 1.944466243258274 0 0 0
57 19 1 0.5897 7.738025776262198 5.145919210456865 2.485488193728301 0 0 0
273 91 1 0.5897 7.605541042420775 0.03947335077124592 1.7265748809215744 0 1 0
53 18 1 0.5897 9.767073929621073 3.9270546606963093 3.8511671985026017 0 0 0
36 12 1 0.5897 5.525875593587458 3.0539178065283457 0.16909206847924113 0 0 0
9 3 1 0.5897 5.113490719182803 4.492867613341897 4.897258355737475 0 0 0
58 20 2 -1.1794 8.63994440191365 0.5038628455798877 4.899536821941974 0 0 0
145 49 2 -1.1794 9.577028855384315 9.429057078166853 0.4288603265448269 0 0 0
138 46 1 0.5897 6.85576107354159 7.278353987908238 5.0169166262933755 0 0 0
393 131 1 0.5897 7.492259114941186 1.2080230498436313 8.802960597217366 0 0 0
362 121 1 0.5897 9.224418083593477 3.3532936722868363 6.614770843204345 0 0 0
8 3 1 0.5897 5.62440928963572 3.6738366507106743 6.063461178537293 0 0 0
391 131 2 -1.1794 7.629433583014091 2.1548036956587673 8.774244896494997 0 0 0
359 120 1 0.5897 6.08238295206671 2.5265328638280917 7.811773736815034 0 0 0
358 120 2 -1.1794 5.355895895879535 2.384344151473252 7.204933263394638 0 0 0
392 131 1 0.5897 8.308270107503734 2.2789278709469514 8.11089695426213 0 0 0
361 121 2 -1.1794 9.281055492166143 2.416678040824225 6.803332637163084 0 0 0
469 157 2 -1.1794 9.473752200011843 9.314749543167869 6.934241270631494 0 0 0
61 21 2 -1.1794 9.413120863559255 5.204681803867384 6.471178180936088 0 0 0
360 120 1 0.5897 5.5785728277874504 1.572174441366786 6.750104610456411 0 0 0
371 124 1 0.5897 7.814999572821954 3.3338937237092394 10.23968873094772 0 0 0
338 113 1 0.5897 5.585876451796039 5.67450425321629 8.475021048679146 0 0 0
381 127 1 0.5897 7.654931190990171 5.073764130353888 9.220300014718902 0 0 0
467 156 1 0.5897 5.729585963238321 8.280364458334551 6.634012175616103 0 0 0
470 157 1 0.5897 9.110156807708103 9.072113590412338 7.785842054293878 0 0 0
379 127 2 -1.1794 7.4417133141638345 5.645252775975707 8.48262410725541 0 0 0
62 21 1 0.5897 8.695385231392097 5.447315468892172 7.056178655092048 0 0 0
501 167 1 0.5897 6.928438884537347 8.634631106648571 8.421757354406749 0 0 0
499 167 2 -1.1794 7.532427553446286 8.306844769804512 9.088094491811084 0 0 0
168 56 1 0.5897 8.974203091133003 8.149629635418671 5.7309620865762785 0 0 0
7 3 2 -1.1794 5.838856721707076 4.431085032128764 5.518779680600439 0 0 0
380 127 1 0.5897 7.546287456940649 6.531751859257871 8.827965366299875 0 0 0
466 156 2 -1.1794 5.625901126800904 8.973098333480895 7.286308938335857 0 0 0
500 167 1 0.5897 7.699140632127697 9.061312474606499 9.653015746819635 0 0 0
167 56 1 0.5897 9.005428274347675 6.651287215337131 5.518066217799546 0 0 0
59 20 1 0.5897 8.771224872188858 1.2981023131542357 5.417296333298324 0 0 0
137 46 1 0.5897 5.928086911310565 6.152561048194486 5.421392644576199 0 0 0
28 10 2 -1.1794 6.075901922602449 0.3768840270486347 5.550682746514703 0 0 0
136 46 2 -1.1794 5.944417999037894 7.092783469607716 5.243208887838379 0 0 0
29 10 1 0.5897 6.928013122872264 0.578268528879684 5.163963999463792 0 0 0
386 129 1 0.5897 8.82983967613318 4.572954256123903 13.946995024415049 0 0 0
332 111 1 0.5897 5.278406358662877 4.6210300467142895 11.804655765237216 0 0 0
462 154 1 0.5897 5.2600528843608085 7.773626429802296 11.621715931257876 0 0 0
705 235 1 0.5897 7.767779951357409 5.927170170237979 15.45881893326451 0 0 0
352 118 2 -1.1794 5.5864743395098255 0.6117998291534988 12.001528645763418 0 0 0
372 124 1 0.5897 7.341629469277548 4.182116199855268 11.400872442140003 0 0 0
384 128 1 0.5897 9.039366318632158 0.8968236396379634 11.318909245244472 0 0 0
382 128 2 -1.1794 8.2430055008268 0.9214721094080227 11.84942416082826 0 0 0
354 118 1 0.5897 5.355083037829412 1.298526323715044 12.626861280579348 0 0 0
353 118 1 0.5897 6.504653216544602 0.7796537338657458 11.789557599079911 0 0 0
685 229 2 -1.1794 8.893436839041824 2.8753108442820383 13.609041803197622 0 0 0
383 128 1 0.5897 8.406971719800085 1.6071205630621686 12.496820537448084 0 0 0
686 229 1 0.5897 8.424500324508037 2.5105444723292267 14.359583144296074 0 0 0
331 111 2 -1.1794 5.94234005951973 4.850986278584025 12.454700330395188 0 0 0
491 164 1 0.5897 9.322126212097258 7.757545599653505 11.222974134196289 0 0 0
387 129 1 0.5897 8.680956541341752 5.851003448358644 13.149467080040194 0 0 0
793 265 2 -1.1794 9.211906521346796 9.16384439182446 14.226039489425023 0 0 0
333 111 1 0.5897 5.963971742712564 5.807803464299883 12.447430383702045 0 0 0
790 264 2 -1.1794 5.035934187523579 9.093780544847935 14.552912081369211 0 0 0
460 154 2 -1.1794 5.8915082133891765 7.697226729599383 12.337054334323648 0 0 0
791 264 1 0.5897 5.500341341483064 9.059713269512557 15.389263021255859 0 0 0
794 265 1 0.5897 9.027629491633489 8.547872921216308 13.516929177085116 0 0 0
461 154 1 0.5897 5.489637445679876 8.173117137729536 13.063873071964615 0 0 0
684 228 1 0.5897 5.398132127363351 3.4927470770335036 13.566122123206583 0 0 0
492 164 1 0.5897 7.88012663177439 7.7800501577564285 11.683367844645426 0 0 0
385 129 2 -1.1794 8.833869636750041 5.52583144724637 14.03670504865963 0 0 0
490 164 2 -1.1794 8.752771255868558 7.483914076699794 11.94215762390076 0 0 0
682 228 2 -1.1794 5.257649641514826 2.6350104331270208 13.966912510835899 0 0 0
717 239 1 0.5897 6.583110979445422 2.0700019546113673 15.342341366355102 0 0 0
687 229 1 0.5897 9.799042897949736 2.5900625818459946 13.730159186665537 0 0 0
370 124 2 -1.1794 8.04921189290124 4.101514026558307 10.761263203217073 0 0 0
824 275 1 0.5897 8.07772997652971 9.026671449408894 15.449704981864883 0 0 0
377 126 1 0.5897 9.961416839825517 3.825180880079038 10.7027549867591 0 0 0
656 219 1 0.5897 5.076436968031077 4.324287631978138 18.868731835513014 0 0 0
706 236 2 -1.1794 8.60129361019655 0.7661723349969943 18.381967642238685 0 0 0
823 275 2 -1.1794 7.4132032429073815 8.77890301733172 16.09254986598439 0 0 0
655 219 2 -1.1794 5.815061438237383 4.1912349777204385 19.4628597688181 0 0 0
710 237 1 0.5897 8.94388336109795 4.307318537471891 20.633162897429287 0 0 0
815 272 1 0.5897 8.775096636158096 6.593510352811956 19.494318522657288 0 0 0
715 239 2 -1.1794 7.4311603998059095 1.8280101007646572 15.714451936378309 0 0 0
797 266 1 0.5897 9.83712105194932 7.816293798371312 17.873231160926267 0 0 0
657 219 1 0.5897 6.540937439560151 3.9414811118443343 18.891045287652215 0 0 0
825 275 1 0.5897 7.610513617579956 7.8660697727038436 16.30197254535754 0 0 0
708 236 1 0.5897 7.646559294720524 0.7028589322414084 18.40803320971249 0 0 0
695 232 1 0.5897 7.777806180276542 2.973506107787366 17.14783244710603 0 0 0
694 232 2 -1.1794 8.011971102759524 3.662219407306983 17.769890128790163 0 0 0
35 12 1 0.5897 5.311519500523174 1.6095003373052374 20.55323597880052 0 0 -1
702 234 1 0.5897 9.765041502589899 4.130942781551422 17.727849712518054 0 0 0
816 272 1 0.5897 8.813733132168206 8.090205918627634 19.717484177791444 0 0 0
696 232 1 0.5897 7.898512412744118 4.476595884910901 17.279976052696625 0 0 0
814 272 2 -1.1794 8.510088879299104 7.424557104017853 19.100329878480625 0 0 0
785 262 1 0.5897 5.716458914770347 6.007255698968525 19.407395693622394 0 0 0
784 262 2 -1.1794 5.739817812791741 6.954938335973606 19.275534428512838 0 0 0
676 226 2 -1.1794 5.833882905306816 0.4719940535535898 19.182013124700806 0 0 0
38 13 1 0.5897 8.944894510959314 1.8529639658537376 19.82898877650076 0 0 -1
786 262 1 0.5897 6.661190392663881 7.15095224040072 19.1057286547842 0 0 0
716 239 1 0.5897 7.346644109068382 0.8967867460376397 15.918700460193401 0 0 0
703 235 2 -1.1794 7.180623988030562 5.96803571351565 16.21371618515973 0 0 0
677 226 1 0.5897 5.208846809143422 0.7741978622431943 18.52302873333777 0 0 0
709 237 2 -1.1794 9.079360691019597 5.247701025324139 20.51753946431619 0 0 0
704 235 1 0.5897 6.305092005134953 5.857581183282617 15.842946372681435 0 0 0
707 236 1 0.5897 8.906511958320083 -0.026434011103468436 18.823257572826904 0 0 0
37 13 2 -1.1794 9.11624713927757 2.3974748388499942 20.597315398062946 0 0 -1
144 48 1 0.5897 5.494238682776414 8.18955872620913 20.680319889084434 0 0 -1
263 88 1 0.5897 7.870929349947021 17.639961101969377 4.3732036888937875 0 0 0
927 309 1 0.5897 8.674372763238626 19.129302845506956 0.08538230069701613 0 0 1
246 82 1 0.5897 5.304054399588542 14.096869067417371 4.5891459618742525 0 0 0
154 52 2 -1.1794 8.13789381799308 10.722171566621041 3.926476363991355 0 0 0
819 273 1 0.5897 8.729376500088572 12.53717888019609 0.6334359157212701 0 0 1
165 55 1 0.5897 7.710003372226953 12.165579866512596 2.8354404874214763 0 0 0
164 55 1 0.5897 6.688339898313618 12.54645788760313 1.7851514210419617 0 0 0
163 55 2 -1.1794 7.541715873513127 12.798822919197557 2.1376719611837087 0 0 0
156 52 1 0.5897 9.07909079745079 10.809558501509688 4.077121077315212 0 0 0
272 91 1 0.5897 7.904423297903202 18.83349384896563 2.2942091580966295 0 0 0
285 95 1 0.5897 7.592141051560808 14.554778008579188 2.1649181744165023 0 0 0
271 91 2 -1.1794 7.65892771468339 19.28028471846386 1.4840445253043908 0 0 0
251 84 1 0.5897 6.058482358219285 15.716546633187338 0.5938709271419054 0 0 0
262 88 2 -1.1794 8.30040584977323 17.376882747127503 3.559185408379259 0 0 0
283 95 2 -1.1794 7.635479408647031 15.43674918665967 1.7957628986510348 0 0 0