#include		in.partitions
include		in.temp
variable        temperature equal 68.27
variable	tempDamp equal 100.0
include		in.pressure
variable        pressure equal 8203.9
variable        pressureDamp equal 1000.0 # This is 1 ps
include		in.seed
variable        seed equal 745823

units		real
atom_style	full
read_restart    restart.lmp.${pid}
read_restart    restart.lmp.1
Reading restart file ...
  restart file = 30 Jul 2021, LAMMPS = 30 Jul 2021
  restoring atom style full from restart
  triclinic box = (-3.0861508 -0.026924639 0.083858984) to (14.696150 22.606924 19.146139) with tilt (-0.11335075 -6.5349596 0.057209541)
  2 by 4 by 2 MPI processor grid
  restoring pair style lj/cut/tip4p/long/omp from restart
  restoring bond style harmonic/omp from restart
  restoring angle style harmonic/omp from restart
  1008 atoms
  672 bonds
  336 angles
Finding 1-2 1-3 1-4 neighbors ...
  special bond factors lj:    0        0        0       
  special bond factors coul:  0        0        0       
     2 = max # of 1-2 neighbors
     1 = max # of 1-3 neighbors
     1 = max # of 1-4 neighbors
     2 = max # of special neighbors
  special bonds CPU = 0.001 seconds
  read_restart CPU = 0.005 seconds

include 	in.setup
variable	out_freq equal 1000
variable	out_freq2 equal 10000
variable	out_freq3 equal 1000

timestep	2.0

neigh_modify    delay 7 every 1

include		in.tip4p
# This is TIP4P/Ice

# create groups ###
group ox type 2
336 atoms in group ox
group hy type 1
672 atoms in group hy

# set charges - beside manually ###
set group ox charge -1.1794
Setting atom values ...
  336 settings made for charge
set group hy charge 0.5897
Setting atom values ...
  672 settings made for charge

# ### TIP3P Potential Parameters ###
pair_style lj/cut/tip4p/long/omp 2 1 1 1 0.1577 8.5
pair_coeff 1 1*2 0.000 0.000
pair_coeff 2 2 0.21084 3.1668
bond_style  harmonic
bond_coeff  1 450 0.9572
angle_style harmonic
angle_coeff 1 55 104.52
kspace_style pppm/tip4p/omp 1.0e-5
pair_modify tail yes

thermo          ${out_freq}
thermo          1000
thermo_style    custom step temp pe etotal epair emol press lx ly lz vol pxx pyy pzz pxy pxz pyz enthalpy

restart 	${out_freq3} restart.lmp.${pid} restart2.lmp.${pid}
restart 	1000 restart.lmp.${pid} restart2.lmp.${pid}
restart 	1000 restart.lmp.1 restart2.lmp.${pid}
restart 	1000 restart.lmp.1 restart2.lmp.1


include         in.dump
dump            myDump all atom ${out_freq2} dump.water.${pid}
dump            myDump all atom 10000 dump.water.${pid}
dump            myDump all atom 10000 dump.water.1
dump            myDump2 all dcd ${out_freq2} dump.dcd
dump            myDump2 all dcd 10000 dump.dcd
dump_modify     myDump append yes
dump_modify     myDump2 append yes


variable natoms 	equal  "count(all)"                        # NUMBER ATOMS
variable H      	equal  "enthalpy/v_natoms"                 # ENTHALPY-per-atom
variable Vol      	equal  "vol/v_natoms"                 # volume-per-atom
fix AVG all 		ave/time ${out_freq} 1 ${out_freq} v_Vol v_H file vol_enthalpy.dat
fix AVG all 		ave/time 1000 1 ${out_freq} v_Vol v_H file vol_enthalpy.dat
fix AVG all 		ave/time 1000 1 1000 v_Vol v_H file vol_enthalpy.dat



fix 		1 all shake 1e-6 200 0 b 1 a 1
       0 = # of size 2 clusters
       0 = # of size 3 clusters
       0 = # of size 4 clusters
     336 = # of frozen angles
  find clusters CPU = 0.000 seconds
fix             2 all nph tri ${pressure} ${pressure} ${pressureDamp}
fix             2 all nph tri 8203.9 ${pressure} ${pressureDamp}
fix             2 all nph tri 8203.9 8203.9 ${pressureDamp}
fix             2 all nph tri 8203.9 8203.9 1000
fix             3 all temp/csvr ${temperature} ${temperature} ${tempDamp} ${seed}
fix             3 all temp/csvr 68.27 ${temperature} ${tempDamp} ${seed}
fix             3 all temp/csvr 68.27 68.27 ${tempDamp} ${seed}
fix             3 all temp/csvr 68.27 68.27 100 ${seed}
fix             3 all temp/csvr 68.27 68.27 100 745823


run             250000
PPPM initialization ...
  extracting TIP4P info from pair style
  using 12-bit tables for long-range coulomb (../kspace.cpp:340)
  G vector (1/distance) = 0.37998629
  grid = 24 27 32
  stencil order = 5
  estimated absolute RMS force accuracy = 0.0023937922
  estimated relative force accuracy = 7.2088342e-06
  using double precision FFTW3
  3d grid and FFT values/proc = 7875 1344
Last active /omp style is kspace_style pppm/tip4p/omp
Neighbor list info ...
  update every 1 steps, delay 7 steps, check yes
  max neighbors/atom: 2000, page size: 100000
  master list distance cutoff = 10.8154
  ghost atom cutoff = 10.8154
  binsize = 5.4077, bins = 5 5 4
  1 neighbor lists, perpetual/occasional/extra = 1 0 0
  (1) pair lj/cut/tip4p/long/omp, perpetual
      attributes: half, newton on, omp
      pair build: half/bin/newton/tri/omp
      stencil: half/bin/3d/tri
      bin: standard
Per MPI rank memory allocation (min/avg/max) = 12.46 | 12.47 | 12.48 Mbytes
Step Temp PotEng TotEng E_pair E_mol Press Lx Ly Lz Volume Pxx Pyy Pzz Pxy Pxz Pyz Enthalpy 
39000000    72.986192   -5235.6591   -5089.6777   -5235.6591            0    9136.8615    17.782301    22.633848     19.06228    7672.2225    9501.0619    8884.1874     9025.335    757.96855   -346.81543    528.56578   -4067.3406 
39001000    68.477692   -5249.7544   -5112.7906   -5249.7544            0    7178.6706    17.879469    22.667479    19.019039    7708.0831    7210.0546    7059.7242    7266.2332   -318.83453    434.96504     644.8268    -4305.804 
39002000    67.875305   -5245.8147   -5110.0557   -5245.8147            0    7726.4178    17.739628    22.739083    19.095039    7702.6119    8083.6724    7115.0665    7980.5144   -281.65183   -758.02548   -770.45502   -4242.1109 
39003000    68.467171   -5250.7966   -5113.8538   -5250.7966            0    8713.2829     17.78755    22.643085    19.064359    7678.4566    8597.3608    8771.1671    8771.3207    291.41635    593.75021     48.65943   -4138.1194 
39004000    66.884946   -5248.2711    -5114.493   -5248.2711            0    9075.8683    17.697974    22.793171    18.976546    7655.0048    8834.8368    8627.1648    9765.6032    38.833136   -19.546095     71.58482   -4101.2595 
39005000    69.283167    -5244.425   -5105.8501    -5244.425            0    8706.9555    17.747713    22.781025    18.946921    7660.4501    8488.7836      8468.84    9163.2429   -371.32438    365.50042    377.57233   -4133.1107 
39006000    68.506936   -5243.1158   -5106.0934   -5243.1158            0    7709.8034    17.769108    22.741207    19.044957    7695.8952    7465.8487    7971.3441    7692.2176    732.97073    -28.93634   -414.00291   -4240.7702 
39007000    68.996336    -5249.116   -5111.1148    -5249.116            0    8197.7533     17.77079    22.671042     19.08791    7690.1812    8070.7757    8007.1947    8515.2896    652.88414   -174.46199   -403.98926   -4191.7088 
39008000    66.717776   -5243.7733   -5110.3295   -5243.7733            0    8194.9248    17.781598    22.598703    19.147837    7694.3867    8488.9903    8522.7776    7573.0065    230.27091    625.73372   -602.12944   -4190.7382 
39009000    71.880153   -5247.8756   -5104.1064   -5247.8756            0    7322.4413    17.789318    22.543634     19.23347    7713.3112    8183.5134    7594.3774    6189.4331    287.59382    89.888955    259.54832   -4280.3997 
39010000     69.41317   -5244.6558   -5105.8209   -5244.6558            0    8338.3931     17.83374    22.525731     19.12666     7683.524    8114.4344    8680.6884    8220.0566   -76.778097   -255.75536   -666.10473   -4171.4513 
39011000    67.318966   -5242.5474   -5107.9012   -5242.5474            0    8237.0962    17.753955    22.608787    19.130024    7678.7032    9052.0823    8095.7773     7563.429   -901.27621   -535.48882   -306.33106   -4185.4616 
39012000    71.551826   -5240.5337   -5097.4212   -5240.5337            0    8334.0262    17.803389    22.732746     19.00549    7691.9002    8433.9043    7661.2708    8906.9034    -373.8512   -134.55165   -475.26125   -4162.5228 
39013000    70.345582   -5237.9685   -5097.2687   -5237.9685            0    8365.0701    17.697347    22.863732    18.961883    7672.4975    8704.0503    7774.2939    8616.8661   -436.00514   -23.364703    67.759206   -4161.2549 
39014000    70.790607   -5250.7174   -5109.1274   -5250.7174            0    8461.0743    17.692467     22.81529    19.015422    7675.7417    8208.6313    8044.5627    9130.0289    545.57649    66.169336   -315.78982   -4161.9709 
39015000    68.947548   -5247.1398   -5109.2362   -5247.1398            0    7812.1479    17.621612    22.790932    19.138098    7686.1083    9113.0259    7427.2504    6896.1674   -250.26675   -310.63763   -1325.5776   -4233.5412 
39016000    67.452625   -5240.6302   -5105.7166   -5240.6302            0    8506.8332    17.772845    22.636316    19.053724    7665.5365    9003.6199    7961.2587    8555.6209    590.37612   -515.11581   -595.84512   -4154.7038 
39017000    68.479927    -5242.253   -5105.2847    -5242.253            0    9097.8374    17.729324    22.615814    19.105362    7660.5453    9370.6938    9420.0712    8502.7472    523.29969    522.76961    425.95101   -4088.8634 
39018000    65.140239   -5245.8828   -5115.5943   -5245.8828            0    8856.8459    17.884334    22.504659    19.075051    7677.3422    8226.2881    8622.8141    9721.4354   -668.88845   -649.55347    -378.4087   -4123.9273 
39019000    66.941329    -5246.607   -5112.7161    -5246.607            0    7820.9456    17.891834    22.526929    19.120973    7706.6714    7209.9073    8033.3293    8219.6002   -870.99135   -112.95567   -1804.9783   -4233.6895 
39020000     69.99859   -5248.0628   -5108.0569   -5248.0628            0    9357.2463    17.744185    22.710779    19.023937    7666.3473    8840.5577    8939.7192    10291.462    -895.8762   -14.563509    135.56997   -4061.8624 
39021000    69.072792   -5252.4977   -5114.3436   -5252.4977            0    8706.0252    17.707873    22.746566    19.067189    7680.1362    9851.4272    7921.7628    8344.8856   -654.58484   -137.61523   -260.49747   -4139.2086 
39022000    68.799539   -5237.9419   -5100.3343   -5237.9419            0    9456.1678    17.727132    22.723221    18.948284    7632.7012    9805.2579    9354.1862    9209.0592    289.89127   -344.51153    543.93734   -4047.7199 
39023000    63.202806     -5241.39   -5114.9766     -5241.39            0    8443.8764     17.74661    22.740311    19.025204    7677.8766    8716.3715    8464.2343    8151.0235   -671.40412    134.20251   -1029.7283   -4169.4824 
39024000    70.379183   -5234.6036   -5093.8365   -5234.6036            0    8545.0361    17.797189    22.549832    19.128989     7676.915     8053.411    8950.1474    8631.5499   -549.56478   -20.588786   -876.30108   -4137.1349 
39025000    68.344519   -5235.0908   -5098.3933   -5235.0908            0    8887.7359    17.778001    22.575962    19.109263    7669.6071    7985.8126    9397.2034    9280.1917   -161.74406    252.41337    -566.7888   -4104.2702 
39026000    70.614028   -5248.4807    -5107.244   -5248.4807            0    7590.5109     17.88291    22.502515    19.152362    7707.1105    7759.6507    8265.8329    6746.0492     121.4526   -346.86322   -177.24099   -4254.0683 
39027000    71.287829   -5246.4556   -5103.8711   -5246.4556            0    8225.3657    17.770495    22.634673    19.127796    7693.7606    8378.1623    8111.6534    8186.2816    29.266071   -16.148504    637.63069    -4180.939 
39028000    67.422249    -5251.556   -5116.7032    -5251.556            0    7834.2805    17.799153    22.699036    19.061996     7701.496    7203.5521    7909.3519    8389.9375    -732.6519   -421.24377    952.18504   -4236.7692 
39029000    70.928182   -5247.0401   -5105.1749   -5247.0401            0    9271.3105    17.736731    22.738639    19.015144    7668.9809    9515.5603    8651.9744    9646.3967    315.03012    12.404665   -107.07143   -4068.2325 
39030000    69.216281   -5243.6392   -5105.1981   -5243.6392            0    7209.1172    17.701199    22.729227    19.168435     7712.124    8096.8384    7048.3248    6482.1882    916.05171    350.94771    228.47986    -4294.364 
39031000    72.080744   -5245.7851   -5101.6147   -5245.7851            0    7936.0943     17.74964    22.647303    19.124802    7687.8156    7922.8284    8564.2884     7321.166   -3.4284433     368.9819   -803.88307   -4211.8285 
39032000    66.442154   -5240.8819   -5107.9894   -5240.8819            0    7484.6854    17.686532    22.769521    19.142339    7708.8854    7383.6694    6994.0511    8076.3357    291.80943   -131.09006   -249.53404   -4266.5148 
39033000    68.367549   -5245.8626   -5109.1191   -5245.8626            0    7767.9292     17.77849    22.673647    19.098735    7698.7618    7835.1806    7256.2037    8212.4033   -39.593604     -413.075    804.93065   -4236.9473 
39034000    67.430894   -5250.4865   -5115.6164   -5250.4865            0    8060.2094    17.858853    22.652346    19.020156    7694.5074    7974.0191    8033.7932    8172.8159   -759.58196   -372.80169    410.75644   -4211.1279 
39035000    66.780304   -5252.0992   -5118.5303   -5252.0992            0    8629.3087    17.890298    22.533656    19.044671    7677.5512    8777.2038    8509.5859    8601.1363    877.47661   -191.38718    811.59947   -4152.3135 
39036000    65.451174   -5249.3839   -5118.4735   -5249.3839            0    8425.4137    17.814594     22.60032    19.111039    7694.4013    7900.6205    8401.9357    8973.6849    154.87256    126.64847    465.96472   -4173.0161 
39037000     68.11609   -5240.9243   -5104.6837   -5240.9243            0    8841.1777    17.726962    22.707501    19.038518    7663.6698    8836.1547    8951.6547    8735.7237    271.43177    701.95805    416.76884   -4116.5339 
39038000    67.737266   -5245.2168   -5109.7339   -5245.2168            0    8434.9117     17.75597    22.871914    18.939154    7691.4371    8783.8747    7716.4422     8804.418   -176.80023    152.00892    -216.4423   -4163.5753 
39039000    67.452882   -5243.1188   -5108.2047   -5243.1188            0    9052.3289    17.738651    22.750298    18.995034    7665.6281    9381.3315    8313.1922     9462.463   -346.13938   -410.82671    465.54566   -4096.1967 
39040000    67.058496   -5239.0253      -5104.9   -5239.0253            0    9476.1679     17.71155    22.606955    19.127031    7658.5441    9426.1795     9435.453    9566.8711    208.89783    87.785258     991.5105   -4046.4878 
39041000    66.104983   -5237.1279   -5104.9098   -5237.1279            0    9108.1202    17.838295    22.460588     19.14599    7671.0055     8759.395    9570.0463    8994.9194      817.922    328.77019    113.18522   -4085.9502 
39042000    71.150351   -5249.2574   -5106.9479   -5249.2574            0    8301.0049      17.8147    22.553901    19.091495    7670.7908    8390.6226    8497.6558    8014.7363   -170.39387   -315.54385   -285.69365   -4178.3094 
39043000    70.883438    -5245.982   -5104.2064    -5245.982            0    8287.4976    17.765651    22.629255    19.110652    7682.9301    8994.7507    8195.7936    7671.9486   -484.58937   -71.093178   -424.19825   -4175.6117 
39044000    66.012985   -5246.0995   -5114.0654   -5246.0995            0    8653.7745     17.72334    22.727994    19.029035    7665.1993    8893.0976    8218.8812    8849.3446    123.61663    178.86582   -409.76807    -4146.668 
39045000    64.178119     -5245.94   -5117.5759     -5245.94            0    7932.6379    17.720796    22.833549    19.016231    7694.5125    8583.0955    7015.3278    8199.4904   -422.75858   -166.65545   -156.00781   -4227.4024 
39046000    67.619223   -5253.3284   -5118.0816   -5253.3284            0    7132.8077    17.806753    22.719164    19.049509    7706.5657    6308.3225    7292.3155     7797.785   -935.05633   -358.39912   -695.09715   -4316.4086 
39047000    67.412726   -5241.4864   -5106.6527   -5241.4864            0    8871.0635    17.764197    22.762926    18.979675    7674.7182    8697.0003    8387.0035    9529.1866   -522.62279     937.7489   -736.27639   -4113.7332 
39048000    68.133118   -5249.6496   -5113.3749   -5249.6496            0    8056.7073    17.684759    22.726576    19.130816    7688.9431    8012.4704    8325.7102    7831.9414   -194.95719    462.78834    301.35501   -4209.9333 
39049000    69.083645   -5242.5888    -5104.413   -5242.5888            0    8910.2939    17.881826    22.485548     19.09798    7678.9666    7967.1398    9379.7185    9384.0233    -130.6798    98.012766    118.31729   -4106.5505 
39050000    67.150121   -5251.1165    -5116.808   -5251.1165            0    8426.1682    17.787397    22.607605    19.141258    7697.2824    8695.2991    7929.3726     8653.833   -523.18911    -115.7694   -310.71281   -4170.9119 
39051000    71.507389   -5238.6263   -5095.6027   -5238.6263            0     7377.687    17.820273    22.655567    19.104135    7712.8816    7097.6054    7500.6546     7534.801   -331.74334   -22.642417   -780.31463   -4265.7275 
39052000    66.042335   -5243.8581   -5111.7653   -5243.8581            0    7185.5208    17.784551     22.68381    19.081811    7698.0105    6932.3194    7759.7034    6864.5398    230.04613    413.72567     89.58263   -4305.0642 
39053000      67.7467   -5256.9128    -5121.411   -5256.9128            0    7409.0932    17.780766    22.802676    18.992891    7700.6499    6989.0956    7293.1413    7945.0428   -1039.8641    27.451003    526.33119   -4289.3248 
39054000    71.950194   -5246.3276   -5102.4183   -5246.3276            0    7105.7923    17.885955    22.702118    19.006695    7717.6506    6817.0064    6593.4203    7906.9502   -664.81709    384.46407   -1074.8481   -4302.6328 
39055000    68.207496   -5239.2003   -5102.7769   -5239.2003            0    8620.9344    17.818303    22.589158    19.074174    7677.3638    8294.3838    9415.1968    8153.2227    162.60852   -280.40644    813.09153   -4137.5212 
39056000    68.735739   -5234.5679   -5097.0879   -5234.5679            0    8726.3674    17.859698    22.439485    19.175168    7684.6873    8986.6833    9025.9021    8166.5166    1039.5984    286.82694   -188.89601   -4119.0953 
39057000    64.852908   -5248.1955   -5118.4817   -5248.1955            0    7266.8309    17.763032    22.684471    19.098113    7695.4887    7357.7835    7635.3947    6807.3144    -674.9099    265.93237     1035.514   -4302.9194 
39058000    69.843443   -5250.4598   -5110.7642   -5250.4598            0    7646.2304    17.738114    22.698899    19.110325    7694.4982    7136.4946    7535.3387    8266.8578    147.13158    331.18718   -1639.3785   -4252.7321 
39059000    67.007144   -5248.3617   -5114.3391   -5248.3617            0     7322.466    17.732255    22.788702    19.083685    7711.6232    7081.7306    7571.4038    7314.2636   -316.84545    138.65835    84.409074   -4290.8098 
39060000     68.13254   -5244.4998   -5108.2263   -5244.4998            0    8714.4265    17.661822    22.873502    18.981159    7668.1548    9098.0669    8174.8458    8870.3669   -938.04253    669.45448   -688.51056   -4133.6731 
39061000     72.23464   -5246.6955   -5102.2173   -5246.6955            0    8342.6783    17.816826    22.682589    19.016175    7685.0403    9022.4905    7988.4263     8017.118   -335.88472   -168.66249   -126.91944    -4167.183 
39062000    74.841511   -5244.1544   -5094.4622   -5244.1544            0    8742.0103     17.80289    22.611388    19.050925    7668.9126    8050.2476    8722.5501    9453.2332    483.96319   -795.69379    666.23619   -4116.7276 
39063000    68.220433     -5240.51   -5104.0607     -5240.51            0    8047.2341     17.86306    22.574485     19.11923    7709.8176     8685.447    8140.9391    7315.3161    463.02188    218.00957   -63.442256   -4199.2315 
39064000    69.411976   -5249.6405    -5110.808   -5249.6405            0    8221.0091    17.793648    22.592179    19.098411     7677.509    7821.8052    8048.6031    8792.6189    130.36764   -290.23013    468.98039   -4190.3132 
39065000    66.341408   -5245.9057   -5113.2146   -5245.9057            0    8358.6541    17.768927    22.682174     19.06079    7682.2208    8237.6536    8397.2107    8441.0979   -388.66862    381.46357    798.98169   -4176.7335 
39066000    70.305585   -5238.2495   -5097.6297   -5238.2495            0     9187.343    17.686325    22.780385     19.01661    7661.8173    10217.334    9064.4704    8280.2245    350.17066    676.25869    463.39733   -4071.0383 
39067000    69.514994   -5255.0522   -5116.0136   -5255.0522            0    7343.7543    17.757116    22.735958    19.087588    7706.1372    8353.8505    7657.0158    6020.3966   -904.80914   -111.90008   -731.55324   -4290.6777 
39068000     71.02613   -5249.8312   -5107.7702   -5249.8312            0    8546.0616    17.913434     22.53248    19.017392    7676.0679    7458.2715    9048.4164     9131.497   -180.89063    432.23317   -599.75555   -4151.0593 
39069000    65.675614   -5244.8709   -5113.5116   -5244.8709            0    9144.9831    17.673968    22.659408    19.112066    7654.0318    8958.7772    9645.8956    8830.2765   -369.59728    338.40951   -172.52344   -4092.6918 
39070000      71.1659   -5251.5169   -5109.1763   -5251.5169            0    7833.2969    17.836686    22.557853    19.145239    7703.2276    7415.4526      8580.87     7503.568    213.78028    194.54238   -98.014748    -4229.155 
39071000     65.87967   -5237.9745    -5106.207   -5237.9745            0    8846.4236    17.774517    22.629049     19.07894    7673.9392    8016.9797    9487.7419    9034.5492    62.635291    46.742093    1106.1385   -4116.1459 
39072000    71.962138   -5239.8615   -5095.9284   -5239.8615            0    8137.5881    17.726897    22.867249    18.977676    7692.8925    8139.7339    7134.9806    9138.0498   -249.04824   -507.98113   -157.67074   -4182.9484 
39073000    68.238455   -5258.2566   -5121.7713   -5258.2566            0    7342.4681    17.772104    22.707932    19.110463    7712.3662    7493.7049    6924.1959    7609.5034    1146.5948   -71.854286   -741.09096   -4295.9129 
39074000     65.86399   -5251.1704   -5119.4343   -5251.1704            0    7652.0407     17.73304    22.703001       19.081    7681.8812    7188.2531    8598.4663    7169.4028    270.89875    403.66943    -466.7326   -4262.1581 
39075000    66.019409   -5242.0685   -5110.0215   -5242.0685            0    8749.7188    17.787509    22.659514    19.029238    7669.8542    8703.9657    8969.4599    8575.7307   -134.35822   -35.892561    255.43528   -4131.3046 
39076000    71.207993    -5246.437   -5104.0122    -5246.437            0    8434.8249     17.81863    22.559422     19.06881    7665.2419    8172.5563    8582.7053    8549.2131    257.66593    20.849049    1007.3101   -4161.0858 
39077000    64.365629    -5248.258   -5119.5187    -5248.258            0    8799.9975    17.914731    22.417134    19.097434     7669.471    8009.7227    9249.3065    9140.9632   -248.66183    96.649104    896.23569    -4135.227 
39078000    71.485617   -5238.8231   -5095.8431   -5238.8231            0     8505.295    17.847163      22.5319    19.105196    7682.7819    9337.3817    7833.5141    8344.9892    129.56383   -940.71537    525.69142   -4142.8631 
39079000    65.558987   -5240.9807   -5109.8546   -5240.9807            0    9153.2299     17.75886    22.522712    19.138366    7654.9195    8748.2455    9464.1801    9247.2642    441.68573   -27.541732    682.52285   -4087.9958 
39080000    70.395811   -5242.3589   -5101.5585   -5242.3589            0    7854.3272     17.82021    22.561497    19.154406    7701.0409    7763.3619    8400.7329    7398.8869   -187.42135   -64.353189     408.8169   -4219.4251 
39081000    69.761044   -5246.0441   -5106.5134   -5246.0441            0    8488.9569    17.816601    22.702768    18.939631    7660.8185    8094.9235    8280.7882     9091.159   -479.89568   -402.71562    170.35546   -4158.0831 
39082000    67.833657   -5249.3665   -5113.6908   -5249.3665            0    8312.0618    17.791624    22.652882    19.053971    7679.3517    8684.4123    7711.3351     8540.438   -48.150948   -448.28548    -670.6733   -4182.7776 
39083000    69.845955   -5243.8287   -5104.1282   -5243.8287            0    8522.7073    17.805804    22.623707    19.044586     7671.793    7771.9598     8288.974    9507.1881   -602.08416   -542.92648   -908.68282   -4150.5631 
39084000    70.501749   -5242.0229   -5101.0107   -5242.0229            0    7459.1742     17.83679    22.742639    19.011254    7712.0232    7056.1749    6862.8981    8458.4496    403.62844    215.98248    602.41271   -4262.0629 
39085000    67.316277   -5248.2833   -5113.6424   -5248.2833            0    8133.0557    17.753932    22.729863    19.031159    7679.9185    8299.2963    8326.9719    7772.8989   -542.55253    48.597394   -123.74351   -4202.7098 
39086000    69.518284   -5251.9785   -5112.9333   -5251.9785            0    8495.3151    17.760895    22.643923    19.113016    7686.8028    7626.8512    8793.4167    9065.6774   -724.66683   -54.247672   -1616.7735   -4160.5734 
39087000    66.898738   -5245.8328    -5112.027   -5245.8328            0    7524.8539    17.752039    22.641223    19.131515    7689.4894    7902.9402    7108.4213    7563.2002     569.5243    -1015.672   -335.56551    -4268.165 
39088000    66.466476   -5238.8263   -5105.8851   -5238.8263            0    9272.4043    17.771575    22.653809    19.033855    7662.9135    9466.2469    8801.9806    9548.9854    1187.2119    117.79137    228.87355   -4069.6408 
39089000    64.983598   -5251.8971   -5121.9219   -5251.8971            0    8066.7614     17.82055    22.636136    19.052253    7685.4579    9043.4961     7652.987    7503.8011   -602.02138   -379.36373   -45.562291   -4217.7628 
39090000    67.537356   -5245.0567   -5109.9736   -5245.0567            0    8745.1507    17.781034    22.636181    19.062805    7672.6779    9170.1106    8505.7517    8559.5899   -578.23887   -414.75749   -21.311752   -4131.4075 
39091000    68.425606   -5247.0493   -5110.1896   -5247.0493            0    9230.5068    17.756695    22.619328    19.066244     7657.852    9514.0706    8985.1746    9192.2752   -1249.7571   -198.72373    18.506874   -4079.3089 
39092000    65.456937   -5244.8065   -5113.8845   -5244.8065            0    7590.2792    17.758361    22.526902    19.249204    7700.4679    7826.2042    7922.1982    7022.4354   -214.93051   -238.41909    489.60028   -4261.4701 
39093000     69.65762   -5243.9709    -5104.647   -5243.9709            0    8067.2321     17.76867    22.673813    19.112218    7699.9973    7380.1105    8488.2453    8333.3404   -175.57068    397.10325    600.92255   -4198.7246 
39094000    68.126492    -5242.671   -5106.4096    -5242.671            0    9132.8486    17.653465    22.645657    19.139886    7651.6349    9235.8227    8961.8431    9200.8799   -369.98253   -549.95791   -1190.8924   -4087.2636 
39095000    64.846705   -5250.9526   -5121.2512   -5250.9526            0    8247.4693    17.870615    22.633415    19.047912     7704.367    8922.1457    8389.2606    7431.0016   -304.57592    738.54876     160.9003   -4194.5632 
39096000    68.394981   -5243.4419   -5106.6435   -5243.4419            0    7973.7394    17.739576    22.712725    19.101197    7696.1416    8591.0528    7940.4988    7389.6667   -257.89745   -275.26131   -160.16172   -4211.6683 
39097000    68.980437   -5248.3869   -5110.4175   -5248.3869            0    8391.1543    17.855431     22.58564    19.058539    7685.8579    7612.6821    9060.5236    8500.2572   -512.61761    755.82563   -1463.1958     -4169.85 
39098000    67.939195   -5246.6595   -5110.7727   -5246.6595            0    7673.6503    17.769951     22.69891    19.056711    7686.6865    7614.9703    7802.3569    7603.6238    53.768973   -220.86175   -46.587205   -4250.5378 
39099000    69.234806   -5253.2116   -5114.7334   -5253.2116            0     7035.066    17.865118    22.571781    19.147419    7721.1494    6513.9799    7699.0177    6892.2004    94.066973    221.27807    532.27342   -4322.5495 
39100000    68.000998   -5244.5565   -5108.5461   -5244.5565            0     8901.564    17.803484    22.550091    19.102184    7668.9571    8735.6936    9394.6375    8574.3609    207.85806   -135.45857   -1140.9077   -4112.9607 
39101000    64.499339   -5252.5318   -5123.5251   -5252.5318            0    7505.9043     17.89695    22.591724     19.06632     7708.951    6536.8748    8052.4763    7928.3619   -1004.0466    861.68817    58.962104   -4279.6578 
39102000    66.877091   -5245.4527   -5111.6902   -5245.4527            0    7753.2656    17.796205    22.697577    19.078301    7706.3123    7943.1687    7568.8565    7747.7717   -953.42568       73.792    -487.2807   -4240.3111 
39103000    69.723567   -5244.4296   -5104.9739   -5244.4296            0    7990.4543    17.771158    22.686702    19.069353    7688.1714    9389.5412    7673.3337    6908.4881    8.9945911    638.18087   -361.66828   -4209.0514 
39104000    68.067403   -5246.1805   -5110.0373   -5246.1805            0    7575.2918    17.735789    22.805793    19.049465    7705.1033    7814.0095    7198.2125    7713.6535   -336.83199   -62.201925   -247.68312   -4258.7939 
39105000    72.675538   -5242.5153   -5097.1553   -5242.5153            0    8822.0772    17.746552    22.648507    19.073382    7666.2201    8483.3127    9049.5909    8933.3281    214.74857     109.7691   -99.676435   -4110.8121 
39106000    65.858314   -5250.8045   -5119.0797   -5250.8045            0    7786.3408    17.898862    22.581023    19.060396     7703.728    6688.0035    7901.4069     8769.612    59.268409   -18.993625    485.94665   -4244.2768 
39107000    68.734606   -5240.3762   -5102.8985   -5240.3762            0    9046.1404    17.815426    22.556992    19.067729    7662.6037    8770.8406    8938.3247     9429.256   -369.29196   -176.58621    882.73212   -4091.9813 
39108000    68.119293   -5242.1375   -5105.8905   -5242.1375            0    7914.6136    17.732138    22.818211    18.994718    7685.5603    9564.8165    7357.7137    6821.3107   -76.137497    273.00863   -1013.1981    -4218.773 
39109000    69.638214   -5251.9014   -5112.6164   -5251.9014            0    8173.3188    17.726228    22.712617    19.095981    7688.2143    8399.6629    8201.2633    7919.0301    728.37053   -145.94977    704.83624   -4196.1853 
39110000      69.2813   -5241.9394   -5103.3683   -5241.9394            0    8626.3036    17.741368    22.802119    19.002904    7687.4494    8567.9203    8777.7747     8533.216   -343.51833    170.00376    577.76371   -4136.2426 
39111000    68.501569   -5232.6486    -5095.637   -5232.6486            0    8358.0573    17.704637    22.888251    18.953997    7680.6936    8548.4701    7702.9681    8822.7337    617.49785    105.05058   -216.10952   -4159.4088 
39112000    67.902607   -5243.9152   -5108.1016   -5243.9152            0    8100.6321    17.857126    22.660003    19.011074    7692.6895    7745.3487    7978.5284    8578.0193    351.96367   -118.06401    43.472355   -4199.2918 
39113000    68.522496   -5248.8661   -5111.8127   -5248.8661            0    8279.5155    17.833335     22.60285    19.056356    7681.3162    7698.8732    8963.4353     8176.238    35.468873    2.3169068    41.125965   -4184.3073 
39114000    69.065201   -5242.6068   -5104.4678   -5242.6068            0    8150.7145    17.771058    22.692379    19.071913    7691.0844    8509.1884    7577.9413    8365.0136   -230.00246    332.92169    951.77525   -4190.2301 
39115000    66.800807    -5244.372   -5110.7621    -5244.372            0    8259.7431    17.767537    22.733874    19.043561    7692.1695    8747.2327    7988.3809    8043.6157    486.50816    603.24097    1027.5033   -4184.1643 
39116000    65.433766   -5246.4615   -5115.5858   -5246.4615            0    8563.9645    17.692232    22.761138    19.052922     7672.523    9323.5753    8091.6179    8276.7003    102.67132   -217.88461   -462.56236   -4157.3135 
39117000    67.129045   -5254.3202   -5120.0538   -5254.3202            0    7805.3555    17.785198    22.740036    19.017287    7691.2761     8214.294    7285.0393    7916.7333    560.67038    211.23364   -346.63658    -4244.532 
39118000    65.888824    -5247.678   -5115.8922    -5247.678            0    7695.2304    17.781288    22.715981    19.072091    7703.5875    7588.3967     8042.433    7454.8614   -1085.5846   -245.25883   -465.72979   -4251.3414 
39119000    65.309445   -5250.1401   -5119.5131   -5250.1401            0    7821.1739    17.794476    22.710627    19.073836    7708.1895    7409.1556    7919.1875    8135.1788   -494.08953     445.0116    1191.8673   -4240.2877 
39120000    68.193031    -5243.466   -5107.0716    -5243.466            0    9115.3729    17.765832     22.59227    19.067304     7653.053    8979.2638    9613.1832    8753.6716    75.420071    97.557938   -132.95931   -4089.6872 
39121000      65.5776   -5247.0565   -5115.8932   -5247.0565            0    8116.6457    17.815748    22.584219    19.120131    7693.0756    7476.1087    8962.9202    7910.9083   -33.849146    116.58972    56.548847   -4205.2411 
39122000    69.437339   -5240.1499   -5101.2667   -5240.1499            0    8702.3573     17.80907    22.634169    19.020293    7666.9569     9252.716    8282.1887    8572.1671    92.008718    44.453233   -734.09915   -4128.2152 
39123000    67.686326   -5245.5737   -5110.1927   -5245.5737            0      7740.93     17.67143    22.823138    19.074703    7693.1611    7938.8576    7820.9376    7462.9949    446.75908    44.133311    644.85405   -4241.6846 
39124000    67.068122   -5238.1469   -5104.0023   -5238.1469            0    8375.4802    17.744306    22.678243    19.070779    7674.2661    7501.1742    9288.3396    8336.9267    195.23931    788.24847   -234.75619   -4166.6077 
39125000    69.444021   -5241.6048   -5102.7082   -5241.6048            0    7989.5742    17.676007    22.706609    19.143332    7683.4097    8501.8744    7993.8712    7472.9769   -19.812038   -531.25569   -69.319344   -4207.4392 
39126000    65.762757    -5247.832   -5116.2983    -5247.832            0    7633.3225    17.663891    22.809334    19.106704    7698.1214    7549.8751    7934.5665    7415.5261   -165.00619    513.92145     167.6101   -4259.3113 
39127000    68.773881   -5249.5297   -5111.9735   -5249.5297            0     9054.226    17.750799    22.631018    19.087321    7667.7329     8098.054    9594.3069    9470.3171   -568.54032    700.39616   -818.84469   -4099.4754 
39128000    67.979999   -5248.2316   -5112.2632   -5248.2316            0    8791.2435    17.768785    22.612233    19.084324    7667.9268    9160.9561    8380.1774     8832.597   -907.59708   -339.94951   -451.81792   -4129.1486 
39129000    70.906252   -5241.9204   -5100.0991   -5241.9204            0    8229.0263    17.890929    22.479682    19.133243    7695.0535    8587.8831    8728.7327    7370.4631    393.97613    291.82638    606.12696   -4176.6011 
39130000    68.391185   -5255.9543   -5119.1635   -5255.9543            0    7298.4196    17.824896    22.699232    19.034586    7701.6118     7181.296    7667.1151    7046.8476    -421.7388   -396.72087     429.4782   -4299.4042 
39131000    64.203927   -5246.2847   -5117.8689   -5246.2847            0    9010.1413     17.77122    22.571834    19.135398    7675.7635    9252.1886    8901.7309    8876.5042   -580.16436   -52.714401    -549.5193   -4109.2455 
39132000      70.1916   -5243.1955   -5102.8036   -5243.1955            0    7586.1942    17.693022    22.702998    19.154694    7694.1466    7763.5182     7376.578    7618.4864    1204.8957   -98.815346    1048.3083   -4251.5474 
39133000    70.765244   -5244.7849   -5103.2457   -5244.7849            0    8497.1094    17.746298    22.663734    19.100062     7681.995    8914.5979     8058.049    8518.6813    9.8351522    277.71029    147.35058   -4151.2804 
39134000      65.7417   -5246.1754   -5114.6839   -5246.1754            0    8281.4521    17.789484    22.651515    19.047287     7675.271     8816.923    7834.1714     8193.262    216.22784   -41.579705    204.74825   -4187.6916 
39135000    68.411011   -5249.2883   -5112.4578   -5249.2883            0    8243.0604    17.729901    22.731892    19.056101    7680.2605    8321.1828    7395.7464    9012.2518   -442.32173   -707.50134    -757.5727   -4189.1631 
39136000    71.544469   -5248.5826   -5105.4848   -5248.5826            0    7888.7079    17.858512    22.677027    19.005742    7696.9067    6608.7354    8622.7551    8434.6333    416.52995    1004.6774     258.2634   -4219.9656 
39137000     68.21305   -5248.5706   -5112.1361   -5248.5706            0    8132.7715    17.767542    22.718071     19.02778    7680.4543     7742.015     8261.202    8395.0975    273.45713   -20.305135   -457.92835   -4201.1718 
39138000    68.364416   -5249.1041   -5112.3668   -5249.1041            0    8283.3663    17.893703    22.568398    19.048603    7692.4397    7481.2285     8197.242    9171.6283   -169.81527    82.887775     252.7651   -4183.0863 
39139000    68.239999   -5255.8271   -5119.3387   -5255.8271            0    7993.9317    17.791469    22.696463    19.048268    7691.7556    7519.2588    7729.0924    8733.4438   -306.30167   -570.14039    533.79064   -4222.6085 
39140000     68.39606   -5245.3969   -5108.5963   -5245.3969            0    7116.1459    17.840165    22.567023    19.164828    7715.7483    6701.4726    7557.1146    7089.8506   -291.31345    74.332037   -302.21927   -4307.8429 
39141000     66.75337   -5245.0633   -5111.5483   -5245.0633            0    8216.3199    17.872332    22.615182    19.013433    7684.9643     8429.109    7785.0855    8434.7652   -293.63632   -1396.1535   -1.0812941   -4190.6852 
39142000    66.162972   -5243.8355   -5111.5013   -5243.8355            0    7334.8687    17.833918    22.718374    19.020547    7706.3199    6294.6187    7499.8509    8210.1367   -75.227144   -538.05476   -93.803745   -4287.1445 
39143000    67.517457   -5247.6771   -5112.6339   -5247.6771            0    8438.1797    17.845072    22.621886    19.022929    7679.3507    6545.9698     8803.394    9965.1752    276.51317    567.88035    910.64404   -4167.5961 
39144000    69.883445   -5247.1125    -5107.337   -5247.1125            0    8600.8331    17.757427    22.707184    19.007247    7664.1246    7861.2817    8516.2822    9424.9355   -278.89198   -521.31173    428.31685   -4145.9927 
39145000    69.847583   -5253.6563   -5113.9525   -5253.6563            0    7359.4737    17.870864    22.559716    19.136588    7715.1381    6736.2491    8378.0498    6964.1222   -38.763694    544.77067    287.52465   -4285.8838 
39146000    67.100459   -5243.7934   -5109.5842   -5243.7934            0    8544.8438    17.766215    22.566478    19.111579    7662.2316    9137.1209    8675.6808    7821.7298    672.50602   -371.10741   -39.997267   -4154.7339 
39147000    67.013716   -5248.8329   -5114.7972   -5248.8329            0    9005.5887    17.800475    22.730799    18.923828    7656.9407    8687.4909    8493.3834    9835.8917    876.72169    -209.1189   -204.40676   -4109.1555 
39148000    67.465918     -5246.29   -5111.3498     -5246.29            0    8573.9001    17.721687    22.841798    18.939531    7666.6308    9085.2738    7642.4631    8993.9633   -78.601274   -385.70293    53.514167   -4152.7025 
39149000    70.423383   -5242.4808   -5101.6254   -5242.4808            0    8787.8738    17.724801    22.764794    19.011971    7671.3578    9151.1284     8443.481    8769.0121    498.96582    296.45633    745.90576   -4118.4478 
39150000    67.076482   -5247.9105   -5113.7492   -5247.9105            0    8544.4198    17.779642    22.695419    19.036218    7681.4268    8391.6487    8527.8571    8713.7536    247.59642     254.7654   -201.80327   -4156.5544 
39151000    73.074769   -5241.9262   -5095.7676   -5241.9262            0    8588.2852    17.786932    22.626928    19.078211    7678.2863    8361.7081    8499.7814    8903.3662    473.76277   -351.53548   -661.92161    -4134.052 
39152000    66.719294   -5245.0058    -5111.559   -5245.0058            0    7926.1474    17.884129    22.495914    19.173079    7713.7097    7754.6107    8432.8841    7590.9476    639.08451    795.03578   -52.806029   -4219.8948 
39153000     68.18115   -5243.0002   -5106.6294   -5243.0002            0    8090.4446    17.866395    22.526718    19.111084    7691.6618    7489.2642    8620.6876    8161.3818    989.71303   -592.44516    1097.9785   -4199.0838 
39154000    67.669259   -5244.1884   -5108.8415   -5244.1884            0    8880.9547    17.806238    22.618374      19.0389     7667.882    8970.8039    9218.4883     8453.572    452.06721    39.596618    397.47503   -4115.7004 
39155000    67.116168     -5246.73   -5112.4893     -5246.73            0    8352.3703    17.674944    22.800613    19.041991    7673.9142    8524.5145    8307.8951    8224.7013    316.29079    429.09886    989.57608   -4177.7241 
39156000    68.650255   -5252.0135   -5114.7045   -5252.0135            0    9548.7196    17.737506    22.684338    19.017543     7651.967    9157.8842     9264.564    10223.711    110.02665    246.55009    768.08289   -4049.1047 
39157000    69.249703   -5246.5086   -5108.0006   -5246.5086            0    9113.4774    17.781014    22.660359    19.000935    7655.9359    8352.6911    9322.9518    9664.7893   -286.45798   -437.33845    1068.5238   -4090.4446 
39158000    64.319956   -5245.4364   -5116.7886   -5245.4364            0    8467.8665    17.910053    22.570745    18.981432    7673.1156    8050.4873     8585.246    8767.8662    384.98086    -355.1233   -591.54489    -4169.196 
39159000      68.1443    -5253.026    -5116.729    -5253.026            0    8619.8913    17.893462    22.653226    18.964454    7687.1402    8187.9717    8526.8283    9144.8738   -236.29637   -140.60682   -217.35691   -4150.3611 
39160000     69.38535   -5246.4163    -5107.637   -5246.4163            0     8318.677    17.721919    22.606448    19.187448    7687.0602    8858.1044    8706.2547    7391.6719   -335.82488    134.84871    427.93656   -4175.0477 
39161000    66.733152   -5247.1771   -5113.7025   -5247.1771            0    8740.6357    17.707252     22.66013    19.111683    7668.5365    9892.7385    8042.1714    8286.9971   -39.723717   -353.30486     198.5654   -4136.1696 
39162000    68.506291   -5247.1416   -5110.1205   -5247.1416            0    7915.1412    17.712265    22.658483    19.136045    7679.9276    9181.7757    8068.6012    6495.0468   -53.387697    86.638165   -582.93844   -4223.5941 
39163000    68.738714   -5248.0474   -5110.5614   -5248.0474            0    7860.5245    17.740531    22.735004    19.024332    7673.1036    7432.4932    8220.9593    7928.1211     111.6416   -308.80343   -1417.0751   -4230.9346 
39164000    64.933347   -5243.4603   -5113.5856   -5243.4603            0    8192.1871    17.680386    22.801319    19.072334     7688.747    9137.0122    7354.5572     8084.992   -32.159418    541.96155   -724.84108   -4194.9753 
39165000    66.302812   -5240.6276   -5108.0138   -5240.6276            0    9418.8087    17.681796     22.69526    19.067602    7651.6944    9477.4763    9043.2189     9735.731    -388.1794   -681.15189     123.2166    -4056.949 
39166000     70.72188   -5241.2164   -5099.7639   -5241.2164            0     8571.616    17.823706    22.676619    19.004053    7681.0843    9205.8028    8005.1929    8503.8524   -734.89817   -167.73498   -581.69429   -4139.5652 
39167000    66.738582   -5244.6632   -5111.1778   -5244.6632            0    8541.6402    17.804275     22.62846    19.060306    7679.0791    9315.6876    8287.0867    8022.1463     23.74087    298.94614     255.8784   -4154.5867 
39168000    72.186484   -5249.5479    -5105.166   -5249.5479            0    7778.2259    17.708518    22.703226     19.15536    7701.2302    8542.5875    7381.4983     7410.592   -757.88539   -81.874128   -285.11954   -4231.5581 
39169000    72.038237   -5244.8794    -5100.794   -5244.8794            0    8402.9439    17.740843    22.685969    19.092949    7684.3049    8638.9715     7830.107    8739.7532    238.28889   -547.60473    1083.3236   -4159.0954 
39170000    69.027314   -5245.9932   -5107.9301   -5245.9932            0    7979.3408    17.671054    22.686833    19.162674     7682.321    10158.149    7869.2778    5910.5956   -100.19171   -458.33288   -166.78006   -4213.9345 
39171000    68.779353   -5248.3106   -5110.7434   -5248.3106            0    6974.1722    17.865473    22.601331    19.111224    7716.7965    6612.4604    6769.9285    7540.1279    388.83053    197.89767    39.203492   -4325.8591 
39172000    66.226619   -5248.1116   -5115.6502   -5248.1116            0    8338.5825    17.761518    22.570383    19.172844    7686.0914    8457.4348    8744.7019    7813.6108    140.76474    43.625573    198.40697   -4180.9472 
39173000    67.145626   -5253.9717   -5119.6721   -5253.9717            0    7646.7617    17.790812    22.564629    19.180513     7699.884    8527.7517     7783.973    6628.5604    281.55386    446.66774    748.98113   -4260.9797 
39174000    67.219145   -5249.1494   -5114.7028   -5249.1494            0    8111.9619    17.818129    22.648918    19.063406    7693.2538    7563.5067    8234.2643    8538.1148   -501.40925    1.9245517   -196.97308   -4204.5551 
39175000    68.206855   -5249.7329   -5113.3107   -5249.7329            0     7658.775    17.822678    22.625601    19.076588    7692.6111    6450.1708    8383.0894    8143.0647   -106.63502    503.72326    479.46592   -4254.0816 
39176000    69.440053   -5248.3127   -5109.4241   -5248.3127            0     9101.689    17.791466     22.62915    19.031455    7662.1731    8502.8224    9839.2039    8963.0408    -798.0743    506.33856     208.8126   -4092.3564 
39177000    71.620884   -5247.2955   -5104.0449   -5247.2955            0    8030.8033    17.849692    22.564715    19.083299    7686.2415    7766.7306    8435.0383    7890.6411   -266.09821   -171.60618    728.29128   -4203.8244 
39178000    70.316863   -5245.8462   -5105.2038   -5245.8462            0    8747.5222    17.686116    22.687305    19.111802    7668.6163    8714.6501    9208.1392    8319.7774    384.59295    344.02624    4.2594792   -4126.8905 
39179000    70.783097   -5243.6025   -5102.0276   -5243.6025            0    8762.4975    17.716679    22.738427    19.022386    7663.1574    8982.4203     8135.148    9169.9241    224.95887   -193.05639   -968.10963   -4122.7371 
39180000    66.389972   -5243.2783   -5110.4901   -5243.2783            0    7877.0274    17.800947    22.727695    19.019075    7694.6326    7310.9589    8103.5151    8216.6082   -138.03905   -469.60025   -1108.7171   -4226.5433 
39181000    65.715706   -5244.5256    -5113.086   -5244.5256            0    8210.8803    17.791742    22.633652    19.065938    7677.7028    8939.8205    7833.5554     7859.265    182.74175   -628.31235    409.68691   -4193.7021 
39182000    68.303534   -5242.6368   -5106.0213   -5242.6368            0    8907.2026    17.788396    22.557699    19.116769    7670.8958    8986.2147     8789.625    8945.7681    797.71901   -173.91997    618.26436   -4109.5534 
39183000    67.315668   -5249.3042   -5114.6646   -5249.3042            0    8716.0667    17.783021    22.518774    19.153506    7670.0565    8862.7644    8757.0743    8528.3613    287.25722   -528.78187    1118.2498   -4139.6862 
39184000    66.869149   -5249.7512   -5116.0047   -5249.7512            0    8766.7573    17.725992    22.622079    19.125169    7669.1696    9978.0957    8633.9543    7688.2219    75.527793   -421.68492    1059.3265   -4135.4694 
39185000    71.122716   -5247.3934   -5105.1392   -5247.3934            0     8040.721    17.741626     22.73098    19.067108    7689.4701    8486.7799     8511.007    7124.3761     177.3482    460.06645    791.02121   -4203.4284 
39186000    67.258669     -5237.63   -5103.1044     -5237.63            0    8455.7598     17.63587    22.888298    18.988936    7664.9798    8774.7482    7740.4639    8852.0672    407.22614   -1091.2237   -60.626614   -4157.8699 
39187000    70.636275   -5254.3066   -5113.0253   -5254.3066            0    8426.2138    17.789762    22.636469    19.086901    7686.2452    8308.9059    8694.6339    8275.1015    1241.8015    649.85832    165.01121   -4168.4804 
39188000    69.089677   -5241.7152   -5103.5273   -5241.7152            0    8318.4669    17.789481    22.603255    19.094367    7677.8484     8344.561    8841.6321    7769.2076   -511.68866     127.4702   -627.26895    -4172.079 
39189000     68.28154   -5255.8861   -5119.3145   -5255.8861            0    7166.2857    17.776146    22.589395    19.155667     7692.004    7412.7037    7150.2686    6935.8847   -56.872421    362.96695   -216.89766   -4315.4007 
39190000    71.710465    -5241.017   -5097.5872    -5241.017            0    8409.5755    17.808025    22.584579     19.12039    7689.9673    7166.8034    9077.3346    8984.5885   -109.90722   -216.52016   -429.38109   -4154.4509 
39191000    69.253822   -5246.5369   -5108.0207   -5246.5369            0    8395.7271    17.862276    22.598462    19.059495     7693.555    8181.2511    8180.7088    8825.2213    229.46446   -225.76183     453.5585   -4165.9982 
39192000    69.865443    -5246.327   -5106.5874    -5246.327            0    8122.7096    17.791681     22.78841    18.964102    7688.8837    7736.2756      7597.99    9033.8631    335.21496   -784.10224   -334.03826   -4195.7516 
39193000    69.128175   -5249.4125   -5111.1477   -5249.4125            0    8620.3038     17.76228    22.657099    19.078482    7677.9775    8090.3928    9191.2121    8579.3065   -180.80595    1204.6776    719.53571   -4145.8855 
39194000    66.496773   -5242.7309   -5109.7292   -5242.7309            0     8369.077    17.773387    22.686211    19.087112    7696.1296    8905.8566      7659.55    8541.8244   -131.04781   -422.91695   -344.10419   -4170.3827 
39195000     66.52715   -5239.5299   -5106.4673   -5239.5299            0    8806.7519    17.714012    22.641925     19.11417    7666.2983    9844.0108    8979.7774    7596.4675   -954.69026    273.75589    154.68081   -4121.8276 
39196000    68.161465   -5249.3114     -5112.98   -5249.3114            0    8367.4037    17.819586    22.601202    19.095496    7690.5979    8417.0947    8510.1209    8174.9955    1055.9977    531.47505     587.2706   -4174.4964 
39197000    69.348868   -5247.7872   -5109.0809   -5247.7872            0    8174.8501    17.781779    22.720358    19.037104    7691.1496    7878.9514    8454.5768    8191.0221    85.945494    660.01389    705.37363   -4192.1282 
39198000    67.915734   -5248.5543   -5112.7144   -5248.5543            0    7856.0133    17.748107    22.701225    19.093697    7692.9226     8162.341    7648.4876    7757.2112    167.95437   -53.031558   -517.32723   -4231.3217 
39199000     71.52266    -5247.943   -5104.8888    -5247.943            0    7825.4522    17.776306      22.6245    19.110779    7685.9737    7360.1816    8339.6858    7776.4893     1186.749   -481.05162    1082.4477   -4227.7179 
39200000    67.335704   -5248.5273   -5113.8476   -5248.5273            0    7624.1983    17.863533    22.640537    19.063259    7709.9443    6185.8402    8578.3665    8108.3884    938.20053    701.36413    13.406599   -4256.5703 
39201000    70.205935   -5250.7798   -5110.3593   -5250.7798            0    7656.2436    17.805557     22.67622    19.048148    7690.9321    7202.7977    8073.6013    7692.3318    1112.4773   -89.376994    647.11713   -4251.6016 
39202000    67.826129   -5246.6273   -5110.9667   -5246.6273            0    8358.6743     17.88903    22.545781    19.039483    7679.0454    6782.5811    8933.9241    9359.5178    643.49352    252.29685   -102.57726   -4174.8704 
39203000     66.06274    -5246.336   -5114.2023    -5246.336            0    8400.8324    17.778966    22.691841    19.008623     7668.791    8077.0768    8649.7028    8475.7176   -275.80276    -98.63736    65.691601    -4174.641 
39204000    65.980518   -5248.1439   -5116.1747   -5248.1439            0    8634.8107    17.770225    22.623899    19.068454    7666.1241    8101.0712    8908.5323    8894.8287    626.21154    381.80038   -411.15994   -4150.7808 
39205000    67.502783   -5253.9439     -5118.93   -5253.9439            0    7608.6948    17.778296    22.663629    19.094789    7693.6859    7590.5802    7673.4559    7562.0482    340.51981   -125.99352   -89.758689   -4265.2001 
39206000    66.099029   -5248.3753   -5116.1691   -5248.3753            0    7666.0683    17.868869    22.584153    19.087613    7702.8685    7178.1172    7520.4322    8299.6555    593.08799   -169.18654    245.41204   -4254.9749 
39207000    70.126551   -5251.2275   -5110.9657   -5251.2275            0    7867.9536    17.796161    22.577516    19.139511    7690.1238     8491.015     8155.783    6957.0627    792.95444   -144.03094    764.24356   -4228.5545 
39208000     73.09336     -5250.87   -5104.6743     -5250.87            0    7890.9869    17.692728    22.714831    19.151972    7696.9348    7390.9977    8167.3036    8114.6595   -227.53435    315.93711   -190.83126    -4218.896 
39209000    71.287281   -5250.3872   -5107.8039   -5250.3872            0     8704.347    17.762813    22.674657     19.04341    7670.0322    9562.9714    7923.6471    8626.4224    615.66543   -106.29819    887.94483   -4134.1395 
39210000      69.2597   -5241.9453   -5103.4174   -5241.9453            0    8161.8222    17.751987    22.757489    19.013251    7681.1755    8476.5953    8043.1236    7965.7477    66.761833   -287.75638   -487.22446   -4189.1132 
39211000    66.596364    -5240.526    -5107.325    -5240.526            0    8866.7441    17.802358    22.658305    19.033199    7677.4453    8290.3804    8748.8041    9561.0479    326.37954    707.69083    194.95542   -4114.5364 
39212000    66.108749   -5243.0877    -5110.862   -5243.0877            0    7589.9754    17.677739    22.757845    19.148183    7703.4524    8022.7683    7324.7067    7422.4511    304.73411   -238.50013    399.84227   -4258.1514 
39213000    69.307983   -5247.7779   -5109.1534   -5247.7779            0    8787.8217    17.769425    22.578909    19.112135    7668.0606    8695.8323    9054.7776    8612.8553   -674.25905    560.23727   -475.29288   -4126.4043 
39214000    66.715879   -5245.3788   -5111.9388   -5245.3788            0    8120.3028     17.81505    22.593085    19.129945    7699.7442     7484.456    8032.8783    8843.5741   -497.64679   -452.93512     285.7197   -4200.0867 
39215000    64.829745   -5250.1669   -5120.4994   -5250.1669            0    8880.0965    17.833558    22.630705    18.992708    7665.1909    7602.1605     9181.137     9856.992   -378.66119    271.69885   -625.48463   -4127.8027 
39216000    68.727675   -5250.8344   -5113.3705   -5250.8344            0    7808.7799    17.833763    22.684714    19.022553    7695.6465      7370.22     7571.837    8484.2827    222.82809   -198.59954   -176.14157   -4236.9669 
39217000    66.702963   -5255.2221    -5121.808   -5255.2221            0    8313.5157     17.76997    22.701056    19.054238     7686.424    8612.5603     8203.932    8124.0547   -351.15022    164.70874   -292.57493   -4189.8744 
39218000    70.947864   -5249.0925    -5107.188   -5249.0925            0    7657.1199    17.775152    22.720033    19.072659    7702.5322    6924.0391    7591.5039    8455.8168    299.32177    282.98453    1558.3867   -4247.0367 
39219000    67.733963   -5245.6708   -5110.1945   -5245.6708            0    8493.4144    17.719505    22.720742    19.034156    7663.1569    8453.4447    8492.9376    8533.8609   -130.13609   -108.58315   -128.65796   -4160.9766 
39220000    63.434128   -5244.6292   -5117.7531   -5244.6292            0    8157.5938    17.850401    22.523131     19.10632     7681.637    7420.3335    8367.2552    8685.1926    226.61086   -118.17571   -19.440246   -4203.8677 
39221000    66.029173   -5247.1022   -5115.0357   -5247.1022            0    7362.6974    17.788673    22.607376    19.144426    7699.0311    7854.7162    7045.7815    7187.5943    6.0619299   -215.51264   -27.995691   -4288.3338 
39222000    66.315523   -5253.9958   -5121.3565   -5253.9958            0    7428.7821    17.804732    22.590685    19.134436    7696.2736    7086.7637    7302.7302    7896.8526    94.996544   -204.17656    212.06797   -4287.5332 
39223000    66.169818   -5251.2026   -5118.8548   -5251.2026            0     8239.096    17.734895    22.645754    19.106829    7673.6864    8800.3849    7962.3102    7954.5929    199.24189   -225.28982   -167.01433   -4196.7941 
39224000    70.107949    -5251.795   -5111.5704    -5251.795            0    8218.4613    17.729916    22.803755    19.024774    7691.8809    8236.7517    7940.4222    8478.2101    1201.4561    465.93809    566.95023   -4189.6383 
39225000    68.527376   -5250.9616   -5113.8984   -5250.9616            0    8933.2968    17.753946    22.645052    19.096569    7677.5663    8460.3129    9162.2156     9177.362   -423.08905    101.73511    333.07074   -4113.6423 
39226000    66.308845   -5242.2824   -5109.6566   -5242.2824            0    8798.0134    17.837535    22.558141     19.06184    7670.1346    9624.9135    8289.9908     8479.136   -260.14737   -630.79888    212.98559   -4125.5016 
39227000    74.252265   -5239.3628    -5090.849   -5239.3628            0    9127.8575    17.879598    22.404874    19.136209    7665.7765    9577.0104    9357.9037    8448.6586   -863.56775   -72.332761   -1306.2695   -4070.3775 
39228000    66.919007   -5238.4011   -5104.5549   -5238.4011            0     8343.631    17.854395    22.617514    19.046259    7691.2991     7645.231    8396.0077    8989.6545    420.33045   -250.35869    403.85804   -4168.6522 
39229000    71.201975    -5248.261   -5105.8483    -5248.261            0     8649.489    17.787062    22.624306    19.079472    7677.9597     8426.115    9196.2265    8326.1255    83.056462    50.560898   -1049.9714   -4137.3203 
39230000    71.030164   -5239.3608   -5097.2917   -5239.3608            0    8703.1948     17.77182    22.740452    18.986952    7673.3721    8961.0103    8067.3286    9081.2456   -372.61376   -402.35633    265.10549   -4123.3323 
39231000    70.017201   -5243.8409   -5103.7978   -5243.8409            0    7830.1849    17.686398    22.849729    19.039057    7694.2427    8149.1958    7219.0536    8122.3053   -491.55682    161.16208   -826.87945   -4225.1521 
39232000    67.335467   -5242.8318   -5108.1525   -5242.8318            0     8041.583    17.793838    22.671568    19.060622    7689.3256    7389.0843    7975.8641    8759.8005   -37.859117    157.58875   -58.954399    -4206.362 
39233000    67.537687   -5253.3243   -5118.2406   -5253.3243            0    7152.5537    17.866196    22.621974     19.08294    7712.7257    7164.8906    7649.9826    6642.7878    132.60167    214.48631   -146.51985   -4313.7057 
39234000     68.76336   -5239.4352   -5101.8999   -5239.4352            0     8415.708     17.81841    22.549115    19.092276    7671.0738    8095.1456     8751.395    8400.5833    -768.6311    174.28758     236.4148   -4160.3948 
39235000    67.144382   -5252.9987   -5118.7016   -5252.9987            0    7941.6102    17.755286    22.558713    19.175862     7680.631    8667.5255    7882.0033    7275.3018    58.046106   -922.30144    284.77826   -4229.1291 
39236000    68.662538   -5251.2059   -5113.8724   -5251.2059            0    8202.9055    17.799453    22.575028    19.123999    7684.4653    8599.5501     8178.784    7830.3822   -967.43001    308.20581   -964.76643   -4194.5724 
39237000    68.362935   -5249.7796   -5113.0452   -5249.7796            0    8077.9671    17.779334    22.619427    19.105939    7683.6129    7291.5305    8369.6607    8572.7101    443.96063   -75.250811   -74.728265   -4207.8475 
39238000    67.905761   -5240.9472   -5105.1273   -5240.9472            0    8454.6156    17.778148    22.756422     19.00387    7688.3395    7498.8179    8466.1587    9398.8701   -309.19654    341.85127   -934.00918   -4157.1405 
39239000    66.220889   -5242.7488   -5110.2989   -5242.7488            0    8035.7277    17.737911    22.865957    19.011007    7710.7563    8335.5648     7462.263    8309.3554    38.696008    16.274318   -273.44715   -4206.6534 
39240000    67.821785   -5241.3616   -5105.7096   -5241.3616            0    8769.7942    17.765389    22.690371    19.054098    7680.7692    8590.6098     8659.947    9058.8258   -782.54429    222.17304    16.505649   -4123.3511 
39241000    67.690457   -5254.6714   -5119.2821   -5254.6714            0    7342.5403    17.891097    22.513087    19.142198    7710.1673    7702.3239    7501.5071      6823.79   -238.54163   -265.42583    634.98243    -4293.651 
39242000    67.300153   -5250.2238   -5115.6152   -5250.2238            0    8861.1017     17.83795    22.465927    19.162156    7679.1586    8334.2559    9389.7231    8859.3261    805.40409    -259.4868    516.76485   -4123.2369 
39243000     69.75169   -5242.2515   -5102.7395   -5242.2515            0    8353.2204    17.710941    22.561866    19.222238      7681.05    9832.1132    8177.4255    7050.1225   -256.58241    233.03581   -656.38406   -4167.0097 
39244000     69.26712   -5243.7959   -5105.2531   -5243.7959            0    8431.7565     17.72385    22.623958     19.17787    7690.0122    9050.0757     8499.175    7746.0188   -1038.7718    91.970663    -531.5236   -4159.6237 
39245000    70.275284   -5238.9511   -5098.3918   -5238.9511            0    8993.8191    17.765775    22.758213    18.941482    7658.3685    7802.5052    9086.4673    10092.485   -1227.8034    244.96893    111.85086   -4093.8771 
39246000    68.892408   -5248.7215   -5110.9281   -5248.7215            0    8971.3653    17.712923    22.844744    18.952601    7669.1169    8695.6163    8505.9637     9712.516    23.601143    584.60485    819.21455    -4107.515 
39247000    69.764552   -5248.1225   -5108.5847   -5248.1225            0    8014.1066    17.709416    22.765639    19.046967    7679.0923    8715.7931    7388.0458    7938.4808    1010.8141   -225.89073   -595.12095   -4211.0714 
39248000    68.085614   -5238.1781   -5101.9984   -5238.1781            0    8290.6184    17.799669    22.515694    19.142895    7671.9344    8265.8963    9096.2193    7509.7396    61.581856   -26.156466    6.5771736   -4174.3836 
39249000    65.171658    -5245.434   -5115.0826    -5245.434            0    8415.4602    17.851607    22.365402    19.238453    7681.1135    8573.2582    9017.7563    7655.3662   -1139.8227   -418.59675   -1521.7785    -4172.373 
39250000    69.900225   -5239.3256   -5099.5165   -5239.3256            0    8232.5032    17.891986    22.462378    19.118883    7683.8131    6345.6308    9334.5437    9017.3349   -1128.6867   -43.426051   -1541.8242   -4176.9778 
Loop time of 651.164 on 64 procs for 250000 steps with 1008 atoms

Performance: 66.343 ns/day, 0.362 hours/ns, 383.928 timesteps/s
360.0% CPU use with 16 MPI tasks x 4 OpenMP threads

MPI task timing breakdown:
Section |  min time  |  avg time  |  max time  |%varavg| %total
---------------------------------------------------------------
Pair    | 42.975     | 44.951     | 47.709     |  17.6 |  6.90
Bond    | 1.6452     | 1.9568     | 2.8692     |  21.1 |  0.30
Kspace  | 300.2      | 315.57     | 331.53     |  46.1 | 48.46
Neigh   | 0.81004    | 0.89352    | 0.94007    |   4.2 |  0.14
Comm    | 80.873     | 97.071     | 107.56     |  71.5 | 14.91
Output  | 0.50895    | 0.50933    | 0.51108    |   0.1 |  0.08
Modify  | 131.02     | 139.48     | 149.77     |  49.4 | 21.42
Other   |            | 50.73      |            |       |  7.79

Nlocal:        63.0000 ave          68 max          60 min
Histogram: 2 4 1 2 0 3 2 1 0 1
Nghost:        3492.56 ave        3506 max        3485 min
Histogram: 4 3 3 0 1 1 1 1 0 2
Neighs:        21760.1 ave       23486 max       20665 min
Histogram: 2 4 1 1 2 2 2 1 0 1

Total # of neighbors = 348162
Ave neighs/atom = 345.39881
Ave special neighs/atom = 2.0000000
Neighbor list builds = 1494
Dangerous builds = 0

unfix		3
unfix		2
unfix		1

write_data	data.final.${pid}
write_data	data.final.1
System init for write_data ...
PPPM initialization ...
  extracting TIP4P info from pair style
  using 12-bit tables for long-range coulomb (../kspace.cpp:340)
  G vector (1/distance) = 0.38009355
  grid = 24 27 32
  stencil order = 5
  estimated absolute RMS force accuracy = 0.002377942
  estimated relative force accuracy = 7.1611016e-06
  using double precision FFTW3
  3d grid and FFT values/proc = 7875 1344
Last active /omp style is kspace_style pppm/tip4p/omp
WARNING: Not all mixed pair coeffs generated from mixing. Use write_data with 'pair ij' option to store all pair coeffs. (../write_data.cpp:312)

write_restart   restart.lmp.${pid}
write_restart   restart.lmp.1
System init for write_restart ...
PPPM initialization ...
  extracting TIP4P info from pair style
  using 12-bit tables for long-range coulomb (../kspace.cpp:340)
  G vector (1/distance) = 0.38009355
  grid = 24 27 32
  stencil order = 5
  estimated absolute RMS force accuracy = 0.002377942
  estimated relative force accuracy = 7.1611016e-06
  using double precision FFTW3
  3d grid and FFT values/proc = 7875 1344
Last active /omp style is kspace_style pppm/tip4p/omp
Total wall time: 0:10:51
