LAMMPS data file via write_data, version 30 Jul 2021, timestep = 500000

972 atoms
2 atom types
648 bonds
1 bond types
324 angles
1 angle types

-0.02749025967882268 20.007489259681165 xlo xhi
-0.02075376101034543 20.020754761009343 ylo yhi
-0.05159205209873363 20.68159005210034 zlo zhi
0.13344773631020668 0.1618600126629851 0.3954437784346315 xy xz yz

Masses

1 1.008
2 15.999

Pair Coeffs # lj/cut/tip4p/long/omp

1 0 0
2 0.21084 3.1668

Bond Coeffs # harmonic/omp

1 450 0.9572

Angle Coeffs # harmonic/omp

1 55 104.52

Atoms # full

1 1 2 -1.1794 2.6097039772445654 2.708900441131707 0.1053359278628995 0 0 0
2 1 1 0.5897 1.8697667988886792 2.7465736568037835 0.7114270089219998 0 0 0
3 1 1 0.5897 2.597900986672978 2.3355480662025663 20.29549876281269 0 0 -1
4 2 2 -1.1794 4.642083922421141 1.7299129410805185 2.9608518095617433 0 0 0
5 2 1 0.5897 3.8390031179266497 1.3591005284564885 3.3267644902948987 0 0 0
6 2 1 0.5897 5.325022420120091 1.488555459510441 3.586628623298519 0 0 0
7 3 2 -1.1794 6.02356491243114 4.627809388734672 5.398581496813102 0 0 0
8 3 1 0.5897 5.880322544660558 3.9657956120333777 6.074772195506751 0 0 0
9 3 1 0.5897 5.323353260517804 4.477402192479022 4.7634902423731145 0 0 0
10 4 2 -1.1794 1.1352151151714178 4.040686468026335 3.9581079941234094 0 0 0
11 4 1 0.5897 0.7391073388028061 4.297200346763348 4.7907817604187946 0 0 0
12 4 1 0.5897 2.0741521787213584 4.17573756800584 4.087095095648956 0 0 0
13 5 2 -1.1794 4.519668755473729 6.004336889242676 1.4387758923008986 0 0 0
14 5 1 0.5897 3.982797864774769 5.86751335786139 0.6582826380500716 0 0 0
15 5 1 0.5897 5.419604892068898 5.883423369081064 1.1355638322790187 0 0 0
16 6 2 -1.1794 3.890296951229572 4.2360833778444755 3.5246956005926338 0 0 0
17 6 1 0.5897 4.08869260971197 4.798128705881276 2.7758655450574996 0 0 0
18 6 1 0.5897 4.2332734176675055 3.3772680313084273 3.2777218546430213 0 0 0
19 7 2 -1.1794 0.6928966391958561 5.6754552566794825 1.5416074435952227 0 0 0
20 7 1 0.5897 0.6412546726917479 5.109379805104593 2.311591090089365 0 0 0
21 7 1 0.5897 0.7161912526729459 6.563573744232287 1.8977158524969835 0 0 0
22 8 2 -1.1794 2.4750211672937183 0.8748251392639961 4.614157862996937 0 0 0
23 8 1 0.5897 2.5909589858752846 1.5152830626256104 5.315872946913472 0 0 0
24 8 1 0.5897 2.604262215312736 20.06955330155916 5.060276954040738 0 -1 0
25 9 2 -1.1794 2.6352481674638315 5.229359102798783 6.90673280826463 0 0 0
26 9 1 0.5897 2.61975565120022 5.714192278697944 6.081719102471318 0 0 0
27 9 1 0.5897 3.2884007989710846 5.683097721761672 7.439418379317961 0 0 0
28 10 2 -1.1794 6.2112267371745205 0.960640342135695 4.993379151309099 0 0 0
29 10 1 0.5897 7.153769582454564 0.878876301594913 4.847027376063547 0 0 0
30 10 1 0.5897 5.946244711016907 0.10628715277608813 5.3339231261079965 0 0 0
31 11 2 -1.1794 0.647073386184661 2.071339866110008 2.118833536877333 0 0 0
32 11 1 0.5897 0.7736242417988648 1.2010826485327581 2.496650847810677 0 0 0
33 11 1 0.5897 0.8996598922922324 2.6752113202299963 2.8171112446694004 0 0 0
34 12 2 -1.1794 5.4935079606184445 2.073676176581529 0.06519605383187695 0 0 0
35 12 1 0.5897 4.623637509498762 2.047849723957998 0.46401689828675996 0 0 0
36 12 1 0.5897 6.096857394022958 2.114164611440937 0.8071466522133888 0 0 0
37 13 2 -1.1794 9.585672431409447 2.892249989278456 20.462741022472557 0 0 -1
38 13 1 0.5897 9.362320931390917 2.230207695877652 19.808623370770647 0 0 -1
39 13 1 0.5897 10.533622985556809 2.8129986258171176 20.57051130766373 0 0 -1
40 14 2 -1.1794 10.924537625818909 1.0284229906659186 3.0379403426555354 0 0 0
41 14 1 0.5897 10.104238658288741 0.9787841169389975 3.528849669641582 0 0 0
42 14 1 0.5897 11.607585133137144 0.922121518912423 3.70003662170647 0 0 0
43 15 2 -1.1794 12.770359188477464 4.455208077790451 5.693230223394762 0 0 0
44 15 1 0.5897 13.45334523010573 4.262614287519749 5.050853240556971 0 0 0
45 15 1 0.5897 12.589716896694092 5.3882212023138125 5.579156581167298 0 0 0
46 16 2 -1.1794 8.061126397127351 3.9211196654584763 3.7241842495109703 0 0 0
47 16 1 0.5897 8.903319271603566 3.8957166536701413 4.178550683839376 0 0 0
48 16 1 0.5897 7.442507019702492 4.237793005931115 4.382380722490275 0 0 0
49 17 2 -1.1794 11.35322903346817 5.566862934247593 1.7590247380331299 0 0 0
50 17 1 0.5897 10.746760922505956 5.499353709037039 1.0215855380548313 0 0 0
51 17 1 0.5897 10.97797441647588 4.997846591594543 2.430926211443837 0 0 0
52 18 2 -1.1794 10.882754656094185 3.816160544048199 3.827461053543713 0 0 0
53 18 1 0.5897 11.53065408380879 3.8810685647975944 4.529042546390716 0 0 0
54 18 1 0.5897 10.975628602584308 2.922655545660923 3.497086651301746 0 0 0
55 19 2 -1.1794 7.6792992143897605 6.050573076683031 1.7858315087230447 0 0 0
56 19 1 0.5897 7.8725294454474755 5.445421888266755 2.501714348932712 0 0 0
57 19 1 0.5897 8.205248436943785 5.73071612379009 1.0528908033292748 0 0 0
58 20 2 -1.1794 8.902231778321523 0.7490521176479837 4.930379913876943 0 0 0
59 20 1 0.5897 9.024728805779578 1.5370466014217747 5.459641849041979 0 0 0
60 20 1 0.5897 9.35111576202865 20.077313062893793 5.485251077669645 0 -1 0
61 21 2 -1.1794 9.300279600138031 5.486666766226942 6.602840076268773 0 0 0
62 21 1 0.5897 10.032082123369031 5.755672442146867 7.1581584647981815 0 0 0
63 21 1 0.5897 8.523533215864225 5.825073128416989 7.048368566019982 0 0 0
64 22 2 -1.1794 12.72229583405328 0.49114364969236524 5.037254777882703 0 0 0
65 22 1 0.5897 13.673161075110544 0.5345993413834085 4.934962049559139 0 0 0
66 22 1 0.5897 12.5371434215538 1.0432940924744176 5.796781017335592 0 0 0
67 23 2 -1.1794 7.666973477266252 2.0231432710501673 1.8418421325440262 0 0 0
68 23 1 0.5897 7.843291915655956 2.710568696990945 2.484027188018287 0 0 0
69 23 1 0.5897 8.23724980390749 2.2336124873380103 1.1025069586569136 0 0 0
70 24 2 -1.1794 12.11389845864644 2.3655527003589274 0.18901529847736548 0 0 0
71 24 1 0.5897 12.480951432060973 3.619218091931559 20.551455312706537 0 0 -1
72 24 1 0.5897 12.64036155037438 2.3168346320113513 0.9868758976821224 0 0 0
73 25 2 -1.1794 16.00309311218934 2.645884431640621 -0.025620502798043163 0 0 0
74 25 1 0.5897 15.758578576193596 2.5693334007060042 19.980809190034407 0 0 -1
75 25 1 0.5897 15.806651578703441 3.9269711698375627 20.648694955800224 0 0 -1
76 26 2 -1.1794 17.71558135658205 1.4662867669937518 3.625237532107189 0 0 0
77 26 1 0.5897 17.68359495229459 0.8530975927788531 2.891072259384612 0 0 0
78 26 1 0.5897 18.572344786389515 1.3170306341152445 4.025347511580692 0 0 0
79 27 2 -1.1794 19.141087872271825 5.155924768210862 6.005969088973481 0 0 0
80 27 1 0.5897 19.352177833223514 6.0604809468661855 5.77502625336201 0 0 0
81 27 1 0.5897 18.2443726238956 5.0317152175749955 5.694656744628563 0 0 0
82 28 2 -1.1794 14.659163355669314 3.829160355657962 3.7728457891066567 0 0 0
83 28 1 0.5897 14.318113627136343 4.555644283643376 3.251270990466318 0 0 0
84 28 1 0.5897 14.422672265147993 3.0456455122215873 3.2765817260913517 0 0 0
85 29 2 -1.1794 17.802523219443785 5.683781191925266 1.5604458281017117 0 0 0
86 29 1 0.5897 17.646491777712598 5.092618686846718 2.2967722397034604 0 0 0
87 29 1 0.5897 18.742682088053613 5.615847441817384 1.3931875175326347 0 0 0
88 30 2 -1.1794 17.35135407417755 4.159164606480877 3.806568574294508 0 0 0
89 30 1 0.5897 17.550911222956657 3.226045264224019 3.881564719115789 0 0 0
90 30 1 0.5897 16.395039166356668 4.201886817064441 3.818639586101958 0 0 0
91 31 2 -1.1794 13.93536816196657 5.939462508951768 2.1840752422162883 0 0 0
92 31 1 0.5897 14.11021354029874 6.87538747171201 2.28209208244539 0 0 0
93 31 1 0.5897 13.035730624668954 5.896054315917804 1.8597101237953677 0 0 0
94 32 2 -1.1794 15.519378469727627 0.8944332462945295 5.19785445962755 0 0 0
95 32 1 0.5897 15.703719439564708 1.5562543483229958 5.864234356809169 0 0 0
96 32 1 0.5897 16.1352061374768 1.087714768250418 4.49106102772686 0 0 0
97 33 2 -1.1794 15.870605033540976 5.1469114945279815 6.860215774623523 0 0 0
98 33 1 0.5897 16.57039002522159 5.50070919203004 7.409192676399908 0 0 0
99 33 1 0.5897 15.693598400871286 5.837966281552852 6.222123940079144 0 0 0
100 34 2 -1.1794 19.854956088656685 1.155037517354795 5.347496142827216 0 0 0
101 34 1 0.5897 0.7406810157892072 1.2054265369113326 5.090190910604783 1 0 0
102 34 1 0.5897 19.667382710054476 0.2172167018133142 5.385414251056928 0 0 0
103 35 2 -1.1794 14.239600309671411 1.8780022962285627 1.9861169296836243 0 0 0
104 35 1 0.5897 14.87667570746956 2.0998735467994707 1.3071135820753086 0 0 0
105 35 1 0.5897 14.117503959826784 0.9325113211487602 1.9008828951741044 0 0 0
106 36 2 -1.1794 18.86483760115741 2.459488350768849 0.11822525869586362 0 0 0
107 36 1 0.5897 17.926007222546936 2.5428125602922527 0.28595774433980786 0 0 0
108 36 1 0.5897 19.247585201687322 2.2830940408433573 0.9775432380969493 0 0 0
109 37 2 -1.1794 2.562574098306367 9.037749713856481 0.021566857899552802 0 0 0
110 37 1 0.5897 3.5197634214843285 9.054690672826919 0.018522572818355107 0 0 0
111 37 1 0.5897 2.4908186674273973 8.92961555752789 19.975098409529533 0 0 -1
112 38 2 -1.1794 4.243618265342719 7.952332583980947 3.2672948185015542 0 0 0
113 38 1 0.5897 5.014760015134796 7.731982721154886 3.789900289691939 0 0 0
114 38 1 0.5897 4.272448088834407 7.344013391205323 2.5289595514197556 0 0 0
115 39 2 -1.1794 5.716946354317998 11.430797633931517 5.215540447773113 0 0 0
116 39 1 0.5897 6.605392877598367 11.272739959844476 4.896002899126737 0 0 0
117 39 1 0.5897 5.639987472210554 12.38426813093843 5.248941317449821 0 0 0
118 40 2 -1.1794 1.2909674977238081 10.656629901026138 3.6140276943014067 0 0 0
119 40 1 0.5897 1.1397610083749565 9.870418487042253 3.0895351693356923 0 0 0
120 40 1 0.5897 2.2434588433086233 10.714276538793095 3.691024331859096 0 0 0
121 41 2 -1.1794 4.457878311859622 12.599330829507057 1.2274876112689932 0 0 0
122 41 1 0.5897 4.269631918008168 11.84918741756962 1.791311402249914 0 0 0
123 41 1 0.5897 3.829469408057762 12.523399908889637 0.5094852925691309 0 0 0
124 42 2 -1.1794 3.913080219164292 10.625345910950353 3.1255534713369038 0 0 0
125 42 1 0.5897 4.4590594236985135 10.717581319324397 3.906275606653468 0 0 0
126 42 1 0.5897 4.0120020052951855 9.708088173972323 2.870628565783309 0 0 0
127 43 2 -1.1794 0.7338988223352465 12.68984981734004 1.8108386813786463 0 0 0
128 43 1 0.5897 19.876441025635117 12.447198828306744 1.5636392438153992 -1 0 0
129 43 1 0.5897 0.9413698855363469 12.119613464825523 2.550984702952556 0 0 0
130 44 2 -1.1794 2.197760486982023 7.334200365947636 5.122281467358996 0 0 0
131 44 1 0.5897 2.610598559882361 7.532587825985084 4.281910838439198 0 0 0
132 44 1 0.5897 1.263326279637387 7.476470109711604 4.970339888176756 0 0 0
133 45 2 -1.1794 2.733128681190735 12.006211304174627 6.514528057539937 0 0 0
134 45 1 0.5897 3.396642084644336 12.224181666179431 7.169076245875854 0 0 0
135 45 1 0.5897 2.5657297298583757 11.07276503135465 6.644077436781846 0 0 0
136 46 2 -1.1794 6.281174883475121 7.454475360067705 5.120711069694859 0 0 0
137 46 1 0.5897 6.291616160625819 6.529038464107767 5.3647789320079555 0 0 0
138 46 1 0.5897 7.203858414671499 7.70925084309226 5.106362239913382 0 0 0
139 47 2 -1.1794 0.8276607229416245 8.485741657497908 2.131331492458735 0 0 0
140 47 1 0.5897 20.00318440137842 8.799299417555321 1.8494393085287715 -1 0 0
141 47 1 0.5897 1.3913025738525084 8.611121373779179 1.3679928077885237 0 0 0
142 48 2 -1.1794 5.37299686447565 9.263199636414267 0.3544599640939188 0 0 0
143 48 1 0.5897 5.401541952101683 10.14304032478468 -0.021247390214714248 0 0 0
144 48 1 0.5897 5.893893898209771 9.09371287801365 20.403500308144423 0 0 -1
145 49 2 -1.1794 9.035570312395258 9.294666168332782 0.1144432208790157 0 0 0
146 49 1 0.5897 8.961931069275678 10.586139587673252 20.607150598719045 0 0 -1
147 49 1 0.5897 8.491724873644975 9.100366727209536 0.8777187750958138 0 0 0
148 50 2 -1.1794 11.098482879517489 7.981726989602869 3.249219085066675 0 0 0
149 50 1 0.5897 10.302539953654275 7.892730658080622 3.7734761401480172 0 0 0
150 50 1 0.5897 11.022240055066408 7.301691788158615 2.5800535074360917 0 0 0
151 51 2 -1.1794 12.62821893355698 11.342590309510925 5.424666598269773 0 0 0
152 51 1 0.5897 11.870236520472872 11.151280784442001 4.872248713927453 0 0 0
153 51 1 0.5897 13.383834226778822 11.1885019871031 4.857576736193635 0 0 0
154 52 2 -1.1794 8.026689814477788 10.752193999365485 3.740629023203718 0 0 0
155 52 1 0.5897 7.938615105456669 9.914530271056318 3.2860344853191226 0 0 0
156 52 1 0.5897 7.794661821354093 11.407748712761602 3.0830049790729706 0 0 0
157 53 2 -1.1794 11.390623939237726 12.457585666632925 1.4017045173755216 0 0 0
158 53 1 0.5897 11.149655114361991 11.719230621931867 1.9610057979474669 0 0 0
159 53 1 0.5897 11.233021745127589 13.230643386203338 1.943585130437286 0 0 0
160 54 2 -1.1794 10.717046733812454 10.745146327133684 3.5475009898988135 0 0 0
161 54 1 0.5897 9.8047294005226 10.74246800283714 3.837521464839194 0 0 0
162 54 1 0.5897 10.882319792554911 9.845122748835516 3.2668161067762758 0 0 0
163 55 2 -1.1794 7.221943132364604 12.773767565626741 1.7948237554766568 0 0 0
164 55 1 0.5897 7.28140228231179 13.68663879665314 2.076339959446416 0 0 0
165 55 1 0.5897 6.284080483524729 12.617849995435938 1.6826283709386711 0 0 0
166 56 2 -1.1794 9.095602600733091 7.762017541296541 5.078281547119135 0 0 0
167 56 1 0.5897 9.384838765329052 6.896270719413643 5.366360873258273 0 0 0
168 56 1 0.5897 9.263018750453874 8.332789842244798 5.828073945926665 0 0 0
169 57 2 -1.1794 9.36539552034422 12.160356647121063 6.640496256003359 0 0 0
170 57 1 0.5897 9.204427524564728 12.830389252238467 5.976277026505626 0 0 0
171 57 1 0.5897 10.106942146050264 12.495444782070814 7.14459698166659 0 0 0
172 58 2 -1.1794 12.689115754337484 7.042127861965269 5.323836845170419 0 0 0
173 58 1 0.5897 12.252259287901751 7.4304985705114674 4.565937037174236 0 0 0
174 58 1 0.5897 13.62319210154797 7.124448520009678 5.130963727900503 0 0 0
175 59 2 -1.1794 7.418638835947213 8.619520814560662 2.2151728202394403 0 0 0
176 59 1 0.5897 6.56781480260658 8.980473642136825 1.9656631808671912 0 0 0
177 59 1 0.5897 7.362845999328369 7.69223765946246 1.9846527041601787 0 0 0
178 60 2 -1.1794 11.721560049519606 9.362032473864948 0.624404053471737 0 0 0
179 60 1 0.5897 10.764638929882643 9.335397652688819 0.6146079386363054 0 0 0
180 60 1 0.5897 12.147560868478552 9.148863085039334 20.66775523690068 0 0 -1
181 61 2 -1.1794 15.928068705407858 9.02113996716231 -0.005353632426175224 0 0 0
182 61 1 0.5897 15.705064275301478 8.922512955471818 20.004057653488037 0 0 -1
183 61 1 0.5897 15.327980782894715 8.880360571886351 0.7269159126186658 0 0 0
184 62 2 -1.1794 17.463479303676593 7.691636084292298 3.4478138479970064 0 0 0
185 62 1 0.5897 17.689550643223065 7.137876846337334 2.7006288444499615 0 0 0
186 62 1 0.5897 17.54162146891754 8.586034484155698 3.1160847481923235 0 0 0
187 63 2 -1.1794 19.635233655811128 11.47115800049593 5.620624492612317 0 0 0
188 63 1 0.5897 19.640754110241588 12.36376565836942 5.2751985232982035 0 0 0
189 63 1 0.5897 0.19845860351849945 10.989099983786325 5.049674289572476 1 0 0
190 64 2 -1.1794 14.687456371095076 10.852311791547248 3.7197388235150233 0 0 0
191 64 1 0.5897 14.440117318537217 11.429256998800582 2.9972386501855497 0 0 0
192 64 1 0.5897 15.617903201900921 11.028556489816909 3.860015710249811 0 0 0
193 65 2 -1.1794 17.982548536246796 12.539780608084797 1.6002177499587003 0 0 0
194 65 1 0.5897 17.661117971068386 13.418073969454085 1.8038616361037525 0 0 0
195 65 1 0.5897 17.4444925294692 12.252507953856394 0.8625791533647272 0 0 0
196 66 2 -1.1794 17.57371621856234 10.751097606170088 3.5714573943962398 0 0 0
197 66 1 0.5897 17.816696274932887 11.411778775280787 2.9229967456512918 0 0 0
198 66 1 0.5897 18.008718508789215 11.033302157802423 4.3759432632387245 0 0 0
199 67 2 -1.1794 14.175441590145564 12.498952456445311 1.498675355922743 0 0 0
200 67 1 0.5897 13.230511352621418 12.399484652153973 1.381596304498768 0 0 0
201 67 1 0.5897 14.2761527496565 13.35009185282215 1.9247264506874524 0 0 0
202 68 2 -1.1794 15.308911734455567 7.179715604989983 5.008728992143181 0 0 0
203 68 1 0.5897 15.443051949607078 7.808576418564915 5.7176544358272166 0 0 0
204 68 1 0.5897 15.958031974512162 7.42103673822369 4.348016364152701 0 0 0
205 69 2 -1.1794 15.856808167671236 11.6512179605019 6.61618130988796 0 0 0
206 69 1 0.5897 15.22981679453072 11.977161591083025 7.261827517491787 0 0 0
207 69 1 0.5897 15.824255540499257 10.699176267813005 6.709385839964002 0 0 0
208 70 2 -1.1794 19.62478532008634 7.942589857292513 5.229085121776236 0 0 0
209 70 1 0.5897 18.907476981058466 7.943465666903186 4.595276807319282 0 0 0
210 70 1 0.5897 19.210551904105806 8.17413298719932 6.060246726712927 0 0 0
211 71 2 -1.1794 14.330675549791987 8.68340228641257 2.236765149745698 0 0 0
212 71 1 0.5897 14.475727376265985 9.385762951867527 2.870560885251266 0 0 0
213 71 1 0.5897 13.451971173897617 8.847178060762506 1.8940101037554522 0 0 0
214 72 2 -1.1794 18.673018896687665 9.011661431817249 0.561030062281533 0 0 0
215 72 1 0.5897 18.75804373293998 8.229796283174407 0.01556542090545325 0 0 0
216 72 1 0.5897 17.72861321395066 9.137190997037997 0.6550308381869819 0 0 0
217 73 2 -1.1794 2.3765339555567033 16.608028624540616 0.015145600008264593 0 0 0
218 73 1 0.5897 2.1166611204202304 16.131894486492776 0.8036593725147866 0 0 0
219 73 1 0.5897 2.057080146728357 16.57559293495499 20.040248748496417 0 0 -1
220 74 2 -1.1794 4.326706211889746 14.712800822074623 2.9541172995388956 0 0 0
221 74 1 0.5897 3.677875239759482 14.340926993291445 3.5515465041137078 0 0 0
222 74 1 0.5897 4.444225611605022 14.043106266464479 2.280506245918324 0 0 0
223 75 2 -1.1794 5.996367167686058 18.06491528285587 5.3099226128002694 0 0 0
224 75 1 0.5897 5.273400556850709 17.783652671939237 4.749133954169773 0 0 0
225 75 1 0.5897 6.78203314366677 17.906952398153187 4.786383011493921 0 0 0
226 76 2 -1.1794 1.3557333283168431 17.591197248609973 3.948436229131401 0 0 0
227 76 1 0.5897 1.263571809576284 16.80723554362718 3.407159759274853 0 0 0
228 76 1 0.5897 2.3012627176830347 17.718882511641873 4.026858562018415 0 0 0
229 77 2 -1.1794 5.0781714130737665 19.337318900057063 1.8110891787732828 0 0 0
230 77 1 0.5897 4.858012611307295 0.14477005821197053 2.2445156804121877 0 1 0
231 77 1 0.5897 5.981361020121696 19.3207599050196 1.4942002603262234 0 0 0
232 78 2 -1.1794 3.9776594356864106 17.41626745985188 3.3497819954775045 0 0 0
233 78 1 0.5897 3.9012085875534446 16.58700192923107 2.878015892370197 0 0 0
234 78 1 0.5897 4.42990410610872 17.99875117306143 2.739623678799538 0 0 0
235 79 2 -1.1794 0.7115781886174615 19.515728551501653 2.086745455766553 0 0 0
236 79 1 0.5897 1.0057084983908553 18.915637570413338 2.7719081553469103 0 0 0
237 79 1 0.5897 1.2653235946412908 19.309764807669055 1.3337024668551831 0 0 0
238 80 2 -1.1794 2.3472302205271407 14.142987981406817 4.851508790047945 0 0 0
239 80 1 0.5897 1.4102703905940999 14.119133338137974 4.656515101161912 0 0 0
240 80 1 0.5897 2.4926653984400877 13.389216495191196 5.423124766872999 0 0 0
241 81 2 -1.1794 2.9078775524788445 18.822503653977016 6.194229961241788 0 0 0
242 81 1 0.5897 2.923128289959231 17.881847248240767 6.370463347508536 0 0 0
243 81 1 0.5897 3.5763987778476385 19.18628575520072 6.774740168045888 0 0 0
244 82 2 -1.1794 6.143253591209802 14.13859735212381 4.919831135900791 0 0 0
245 82 1 0.5897 5.9209168877422655 14.663437691838897 5.688685200516836 0 0 0
246 82 1 0.5897 5.63276255653096 14.526309143794663 4.209038254664374 0 0 0
247 83 2 -1.1794 0.8171345271472866 15.435225830468442 2.0534162943749976 0 0 0
248 83 1 0.5897 19.99344852726837 15.704233623579581 1.7266850867508898 -1 0 0
249 83 1 0.5897 0.7821272062439282 14.47874720968284 2.0609573450284433 0 0 0
250 84 2 -1.1794 5.076913701622616 16.263397132577992 0.24087263325125707 0 0 0
251 84 1 0.5897 4.1632914783706685 16.242163412521208 -0.04426814182525848 0 0 0
252 84 1 0.5897 5.634830671865911 17.361527854545294 20.458809250811715 0 0 -1
253 85 2 -1.1794 9.175420232116338 15.694639117505709 0.03623991097741047 0 0 0
254 85 1 0.5897 9.183614547460568 15.575977883001318 19.97690465885667 0 0 -1
255 85 1 0.5897 10.12868008132126 15.738342494727604 0.11291244925533453 0 0 0
256 86 2 -1.1794 11.016719887163944 14.509825057543026 3.2951150053646887 0 0 0
257 86 1 0.5897 11.057102609600602 15.454905350971874 3.1491296228797765 0 0 0
258 86 1 0.5897 10.196484399432922 14.375221780783598 3.7699050331695507 0 0 0
259 87 2 -1.1794 12.676853141022189 17.787543596446405 5.293291551771555 0 0 0
260 87 1 0.5897 12.607132106981231 18.702573804268702 5.565301021272543 0 0 0
261 87 1 0.5897 12.58665500205715 17.288351401480192 6.104860110590362 0 0 0
262 88 2 -1.1794 8.132630213570549 17.58424389111032 3.605435099401472 0 0 0
263 88 1 0.5897 7.769199214451448 16.956866544709477 2.9806106881658003 0 0 0
264 88 1 0.5897 9.070598417566513 17.393135301475233 3.6195489868682245 0 0 0
265 89 2 -1.1794 11.471813093085663 18.942134231871265 1.2376571747061043 0 0 0
266 89 1 0.5897 11.219935834687572 19.71512514347272 1.7427945794184183 0 0 0
267 89 1 0.5897 10.739228495638232 18.797909738288375 0.638657071848315 0 0 0
268 90 2 -1.1794 10.797657916723743 17.225509986017286 3.2201812820700844 0 0 0
269 90 1 0.5897 11.142132795280054 17.79122355783462 2.5292841483581987 0 0 0
270 90 1 0.5897 11.22680670309739 17.53333839579556 4.018396724570769 0 0 0
271 91 2 -1.1794 7.873646469568211 19.25259583144215 1.4216074824939495 0 0 0
272 91 1 0.5897 7.845185929903481 0.14060465884086445 1.6243497414267496 0 1 0
273 91 1 0.5897 7.918570269829248 18.81499141871094 2.271576234618742 0 0 0
274 92 2 -1.1794 8.793527319004674 14.224315382123715 4.991898303876216 0 0 0
275 92 1 0.5897 8.937157175971922 14.9370996639467 5.614286783733897 0 0 0
276 92 1 0.5897 7.847941735657535 14.22315857378294 4.842368102670852 0 0 0
277 93 2 -1.1794 9.699294985829198 18.720827730001027 6.626401629872931 0 0 0
278 93 1 0.5897 8.863969003466226 18.783332015848316 7.089748216906287 0 0 0
279 93 1 0.5897 10.338821969375525 19.09461081312927 7.232620292572638 0 0 0
280 94 2 -1.1794 13.206924819511919 14.132214442487316 5.251265867838811 0 0 0
281 94 1 0.5897 12.704499023701002 14.398337030542542 4.481285458685183 0 0 0
282 94 1 0.5897 13.0893944714134 13.183476893134332 5.298324813195215 0 0 0
283 95 2 -1.1794 7.189309526024905 15.689046258116635 1.9989783283175862 0 0 0
284 95 1 0.5897 6.359786164886021 15.864435389097409 1.5545423545798691 0 0 0
285 95 1 0.5897 7.847289861934571 15.731565910210456 1.3051312504488404 0 0 0
286 96 2 -1.1794 11.890129815202439 16.1058371912452 0.27383836188612387 0 0 0
287 96 1 0.5897 12.32983321696242 17.279373519338023 20.52383956235315 0 0 -1
288 96 1 0.5897 12.193986702693596 15.776946554870618 20.39771763391872 0 0 -1
289 97 2 -1.1794 15.87772481475092 16.396965249391627 20.634532888906705 0 0 -1
290 97 1 0.5897 16.612223169335273 15.873854670573166 0.21230700766304217 0 0 0
291 97 1 0.5897 15.169580147749615 15.840925090599983 0.6706859921745827 0 0 0
292 98 2 -1.1794 17.41451590332416 14.589508478685108 3.2198148413543115 0 0 0
293 98 1 0.5897 17.53887256291074 15.529927369377283 3.3473833634444734 0 0 0
294 98 1 0.5897 16.69421369749677 14.360812913353643 3.807265858960462 0 0 0
295 99 2 -1.1794 19.398518295886674 18.40124173170993 5.720027363617999 0 0 0
296 99 1 0.5897 19.118671967508902 17.66405468652247 6.262514601463905 0 0 0
297 99 1 0.5897 20.08184999783294 18.03854719842552 5.156320742515385 0 0 0
298 100 2 -1.1794 14.942666508413975 17.435404793166995 3.486175684657185 0 0 0
299 100 1 0.5897 14.428655904474306 17.535617193771024 4.287317512026081 0 0 0
300 100 1 0.5897 15.852098186106465 17.419001507242506 3.7847193340987793 0 0 0
301 101 2 -1.1794 17.97972151589665 19.39136449619984 1.8267279787297341 0 0 0
302 101 1 0.5897 17.450547749214977 19.086750399685855 1.0896327025661 0 0 0
303 101 1 0.5897 18.884108227528976 19.2383929017429 1.5526084491489096 0 0 0
304 102 2 -1.1794 17.76502411294095 17.389736153533967 3.642700890842706 0 0 0
305 102 1 0.5897 18.275902795675172 17.790878781317026 4.34570699961477 0 0 0
306 102 1 0.5897 17.76898058894404 18.041162436362043 2.941534529573444 0 0 0
307 103 2 -1.1794 14.124833538555437 19.284850599396037 1.6009717949163607 0 0 0
308 103 1 0.5897 13.210365002489445 19.11207817387656 1.3765618855530104 0 0 0
309 103 1 0.5897 14.302578966564418 18.708538055077675 2.344135039260863 0 0 0
310 104 2 -1.1794 15.835862524513804 14.241490349061756 5.607077385472328 0 0 0
311 104 1 0.5897 14.887728579108309 14.25993267492262 5.475919850904627 0 0 0
312 104 1 0.5897 16.04714378480145 13.31269520157449 5.701226511695081 0 0 0
313 105 2 -1.1794 16.020644361887562 18.570138819396142 6.5355148850272995 0 0 0
314 105 1 0.5897 15.938778559821259 19.246625608804067 5.863434709266916 0 0 0
315 105 1 0.5897 15.587888221067736 18.941939232427004 7.304002236879047 0 0 0
316 106 2 -1.1794 19.599788080971855 14.219790200880299 5.012509115741001 0 0 0
317 106 1 0.5897 19.339206063893144 14.966600964281948 5.551463119157729 0 0 0
318 106 1 0.5897 19.1076257147758 14.327961723649738 4.198768756610904 0 0 0
319 107 2 -1.1794 14.072840117984185 15.330331854844124 2.0381854819384375 0 0 0
320 107 1 0.5897 13.26368817142966 15.61987715408942 1.6165029308607992 0 0 0
321 107 1 0.5897 14.382018350957928 16.098956377453803 2.5174929692687495 0 0 0
322 108 2 -1.1794 18.515741836590628 16.01315980971672 0.7738308361843363 0 0 0
323 108 1 0.5897 18.846036372572136 16.720169575079822 0.21964348969863634 0 0 0
324 108 1 0.5897 18.733305526661155 15.212517578686494 0.29658796077760347 0 0 0
325 109 2 -1.1794 3.0462027426344744 2.2946804362335276 6.8832278165406215 0 0 0
326 109 1 0.5897 3.963348208184294 2.285048080651129 7.157485814847068 0 0 0
327 109 1 0.5897 2.771654217762909 3.204756559820258 6.995320856564351 0 0 0
328 110 2 -1.1794 4.513442553865061 1.526276503108568 10.09269019807564 0 0 0
329 110 1 0.5897 4.247400661324157 2.445724778498414 10.097143897875792 0 0 0
330 110 1 0.5897 5.2412944742556205 1.483950009035726 10.71294581645754 0 0 0
331 111 2 -1.1794 6.195510670153111 5.104788791539616 12.531592931629785 0 0 0
332 111 1 0.5897 6.879082335510187 4.835380903698361 11.918083807889706 0 0 0
333 111 1 0.5897 6.348808650410849 4.570866272575678 13.310968921151462 0 0 0
334 112 2 -1.1794 1.4901908134891892 3.897692706331955 10.8720293936651 0 0 0
335 112 1 0.5897 1.4908507847175347 2.9822928826252086 10.592458691711057 0 0 0
336 112 1 0.5897 2.384169559081716 4.1989420861042674 10.70931394486631 0 0 0
337 113 2 -1.1794 4.566912819451079 6.3921488474328 8.439461228078718 0 0 0
338 113 1 0.5897 4.461554427838991 7.276044515878283 8.79122580109621 0 0 0
339 113 1 0.5897 5.513955596547471 6.253790525892355 8.417615656793425 0 0 0
340 114 2 -1.1794 4.141434282835894 4.465260893350344 10.40824620014509 0 0 0
341 114 1 0.5897 4.30810294335613 5.108671168199323 9.7195842615256 0 0 0
342 114 1 0.5897 4.507024213321326 4.860670894943105 11.199461862056019 0 0 0
343 115 2 -1.1794 0.4982077713239006 5.833297860736859 8.884733086669915 0 0 0
344 115 1 0.5897 1.0413514772930932 5.631266046101631 8.122963338776168 0 0 0
345 115 1 0.5897 0.6299822627140045 5.092636071994385 9.476436753835877 0 0 0
346 116 2 -1.1794 2.5645608778851883 0.35310294015998334 11.92177973868411 0 0 0
347 116 1 0.5897 3.101662937610583 0.7640165491979373 11.244450868710633 0 0 0
348 116 1 0.5897 1.6664183391822738 0.44080012114486333 11.602255649773921 0 0 0
349 117 2 -1.1794 2.8601259943324187 5.3211621376164 13.60534113928008 0 0 0
350 117 1 0.5897 2.2106478253296515 5.60611968594701 14.248145743187974 0 0 0
351 117 1 0.5897 2.7987943523378496 4.365992316103737 13.60944507199936 0 0 0
352 118 2 -1.1794 6.271065650029796 1.2468394586583111 12.297656991408871 0 0 0
353 118 1 0.5897 7.218603102677612 1.3233486743465124 12.184572055451941 0 0 0
354 118 1 0.5897 6.035348042221128 1.9877685135039904 12.855839476780831 0 0 0
355 119 2 -1.1794 1.4217998333610777 1.65439786666948 9.017186211026667 0 0 0
356 119 1 0.5897 2.0680241842523923 1.8184674519551771 8.330420962728452 0 0 0
357 119 1 0.5897 0.606694465948162 2.019046212502687 8.67216216599404 0 0 0
358 120 2 -1.1794 5.704467602230517 2.541641146270682 7.092157048463642 0 0 0
359 120 1 0.5897 5.858005962922396 1.8498091376574088 6.448852060912487 0 0 0
360 120 1 0.5897 6.35662424699032 2.3834612984702908 7.774716446921788 0 0 0
361 121 2 -1.1794 9.396975978058604 2.737454213129639 6.888701704195163 0 0 0
362 121 1 0.5897 10.331918112277844 2.57334025542414 7.012972555127204 0 0 0
363 121 1 0.5897 9.33699500557245 3.6805505171903907 6.736697549694832 0 0 0
364 122 2 -1.1794 10.944308982809066 1.686447425040668 10.102872923777156 0 0 0
365 122 1 0.5897 11.674765122373483 1.3548839723604502 10.625181278229618 0 0 0
366 122 1 0.5897 10.181793402786726 1.6020768152049396 10.675345922279224 0 0 0
367 123 2 -1.1794 12.62502693253467 4.703062576726953 12.563513475029904 0 0 0
368 123 1 0.5897 13.401362432436013 4.485544736544115 12.047450329425992 0 0 0
369 123 1 0.5897 12.63245496168894 5.658686272950278 12.617030212593157 0 0 0
370 124 2 -1.1794 7.729992190022355 4.261349798365183 10.48609348378496 0 0 0
371 124 1 0.5897 8.67028619361635 4.336310929984578 10.649517204712172 0 0 0
372 124 1 0.5897 7.62543485224726 3.4028544253471567 10.076028093051736 0 0 0
373 125 2 -1.1794 11.23791047957476 5.996812500512797 8.514525007210548 0 0 0
374 125 1 0.5897 10.930816345186322 5.450137461875113 9.237610047977983 0 0 0
375 125 1 0.5897 11.127333618054182 6.894258630112022 8.828358976973279 0 0 0
376 126 2 -1.1794 10.543388619236925 4.334335618445105 10.469279147613872 0 0 0
377 126 1 0.5897 11.124989222038579 4.615121185658793 11.17571530876687 0 0 0
378 126 1 0.5897 10.822557553515095 3.440825554174528 10.269582249586449 0 0 0
379 127 2 -1.1794 7.3554356836609625 6.107593169145755 8.447525492869843 0 0 0