LAMMPS (30 Jul 2021)
Processor partition = 1
  using 4 OpenMP thread(s) per MPI task
using multi-threaded neighbor list subroutines
variable        pid world 0 1
variable        phase world IceVI IceV

shell cd ${phase}
shell cd IceV
include Restart.lmp
echo both
log log.lammps
#include		in.partitions
include		in.temp
variable        temperature equal 115.77
variable	tempDamp equal 100.0
include		in.pressure
variable        pressure equal 8278.0
variable        pressureDamp equal 1000.0 # This is 1 ps
include		in.seed
variable        seed equal 745823

units		real
atom_style	full
read_restart    restart.lmp.${pid}
read_restart    restart.lmp.1
Reading restart file ...
  restart file = 30 Jul 2021, LAMMPS = 30 Jul 2021
  restoring atom style full from restart
  triclinic box = (-3.1021648 -0.13134344 0.076163868) to (14.712164 22.711342 19.153834) with tilt (-0.091054996 -6.6263623 0.027832298)
  2 by 4 by 2 MPI processor grid
  restoring pair style lj/cut/tip4p/long/omp from restart
  restoring bond style harmonic/omp from restart
  restoring angle style harmonic/omp from restart
  1008 atoms
  672 bonds
  336 angles
Finding 1-2 1-3 1-4 neighbors ...
  special bond factors lj:    0        0        0       
  special bond factors coul:  0        0        0       
     2 = max # of 1-2 neighbors
     1 = max # of 1-3 neighbors
     1 = max # of 1-4 neighbors
     2 = max # of special neighbors
  special bonds CPU = 0.001 seconds
  read_restart CPU = 0.005 seconds

include 	in.setup
variable	out_freq equal 1000
variable	out_freq2 equal 10000
variable	out_freq3 equal 1000

timestep	2.0

neigh_modify    delay 7 every 1

include		in.tip4p
# This is TIP4P/Ice

# create groups ###
group ox type 2
336 atoms in group ox
group hy type 1
672 atoms in group hy

# set charges - beside manually ###
set group ox charge -1.1794
Setting atom values ...
  336 settings made for charge
set group hy charge 0.5897
Setting atom values ...
  672 settings made for charge

# ### TIP3P Potential Parameters ###
pair_style lj/cut/tip4p/long/omp 2 1 1 1 0.1577 8.5
pair_coeff 1 1*2 0.000 0.000
pair_coeff 2 2 0.21084 3.1668
bond_style  harmonic
bond_coeff  1 450 0.9572
angle_style harmonic
angle_coeff 1 55 104.52
kspace_style pppm/tip4p/omp 1.0e-5
pair_modify tail yes

thermo          ${out_freq}
thermo          1000
thermo_style    custom step temp pe etotal epair emol press lx ly lz vol pxx pyy pzz pxy pxz pyz enthalpy

restart 	${out_freq3} restart.lmp.${pid} restart2.lmp.${pid}
restart 	1000 restart.lmp.${pid} restart2.lmp.${pid}
restart 	1000 restart.lmp.1 restart2.lmp.${pid}
restart 	1000 restart.lmp.1 restart2.lmp.1


include         in.dump
dump            myDump all atom ${out_freq2} dump.water.${pid}
dump            myDump all atom 10000 dump.water.${pid}
dump            myDump all atom 10000 dump.water.1
dump            myDump2 all dcd ${out_freq2} dump.dcd
dump            myDump2 all dcd 10000 dump.dcd
dump_modify     myDump append yes
dump_modify     myDump2 append yes


variable natoms 	equal  "count(all)"                        # NUMBER ATOMS
variable H      	equal  "enthalpy/v_natoms"                 # ENTHALPY-per-atom
variable Vol      	equal  "vol/v_natoms"                 # volume-per-atom
fix AVG all 		ave/time ${out_freq} 1 ${out_freq} v_Vol v_H file vol_enthalpy.dat
fix AVG all 		ave/time 1000 1 ${out_freq} v_Vol v_H file vol_enthalpy.dat
fix AVG all 		ave/time 1000 1 1000 v_Vol v_H file vol_enthalpy.dat



fix 		1 all shake 1e-6 200 0 b 1 a 1
Finding SHAKE clusters ...
       0 = # of size 2 clusters
       0 = # of size 3 clusters
       0 = # of size 4 clusters
     336 = # of frozen angles
  find clusters CPU = 0.000 seconds
fix             2 all nph tri ${pressure} ${pressure} ${pressureDamp}
fix             2 all nph tri 8278 ${pressure} ${pressureDamp}
fix             2 all nph tri 8278 8278 ${pressureDamp}
fix             2 all nph tri 8278 8278 1000
fix             3 all temp/csvr ${temperature} ${temperature} ${tempDamp} ${seed}
fix             3 all temp/csvr 115.77 ${temperature} ${tempDamp} ${seed}
fix             3 all temp/csvr 115.77 115.77 ${tempDamp} ${seed}
fix             3 all temp/csvr 115.77 115.77 100 ${seed}
fix             3 all temp/csvr 115.77 115.77 100 745823


run             250000
PPPM initialization ...
  extracting TIP4P info from pair style
  using 12-bit tables for long-range coulomb (../kspace.cpp:340)
  G vector (1/distance) = 0.37942951
  grid = 24 27 32
  stencil order = 5
  estimated absolute RMS force accuracy = 0.0024535179
  estimated relative force accuracy = 7.3886964e-06
  using double precision FFTW3
  3d grid and FFT values/proc = 7875 1344
Last active /omp style is kspace_style pppm/tip4p/omp
Neighbor list info ...
  update every 1 steps, delay 7 steps, check yes
  max neighbors/atom: 2000, page size: 100000
  master list distance cutoff = 10.8154
  ghost atom cutoff = 10.8154
  binsize = 5.4077, bins = 5 5 4
  1 neighbor lists, perpetual/occasional/extra = 1 0 0
  (1) pair lj/cut/tip4p/long/omp, perpetual
      attributes: half, newton on, omp
      pair build: half/bin/newton/tri/omp
      stencil: half/bin/3d/tri
      bin: standard
Setting up Verlet run ...
  Unit style    : real
  Current step  : 29750000
  Time step     : 2
Per MPI rank memory allocation (min/avg/max) = 12.46 | 12.47 | 12.48 Mbytes
Step Temp PotEng TotEng E_pair E_mol Press Lx Ly Lz Volume Pxx Pyy Pzz Pxy Pxz Pyz Enthalpy 
29750000    118.90312   -5142.1692   -4904.3483   -5142.1692            0     7091.693    17.814329    22.842686     19.07767    7763.2212    7825.3856    6254.2704    7195.4229    122.47779   -579.52854    581.16361   -4101.4366 
29751000    111.42845   -5143.7074   -4920.8368   -5143.7074            0    8366.0021    17.950272    22.413523    19.272872    7754.0322    7158.4748    9360.2111    8579.3203   -15.294693    159.39044    -480.1186   -3974.7707 
29752000    117.63482   -5153.1112    -4917.827   -5153.1112            0    7850.0329    17.691132    22.986702    19.020946    7735.0724    6939.6809    7638.6053    8971.8125   -1042.2513   -211.45892   -293.68864   -4032.2797 
29753000    116.11284   -5155.7127   -4923.4727   -5155.7127            0    7184.3005    17.877257     22.63023    19.181404    7760.1524    5877.9344    7696.7641     7978.203    345.95394    232.43686    1040.6694   -4110.3977 
29754000    114.28626   -5159.3999   -4930.8132   -5159.3999            0    9389.2302    17.796264    22.739662    19.057274    7712.1176    9256.2195    8779.4438    10132.027    37.744903    496.12338    753.25738   -3874.7753 
29755000    117.59787   -5158.2737   -4923.0634   -5158.2737            0    6420.5342    17.868187    22.770468    19.165227    7797.6982    6090.0047    6703.5129    6468.0852    761.96339    577.02806    1124.2719   -4192.9111 
29756000    117.77621   -5145.4715   -4909.9045   -5145.4715            0    8494.3566    17.835432    22.714416    19.086284    7732.2622    7576.8482    9114.7779    8791.4437    414.00872    300.57601   -406.40752   -3952.0205 
29757000    118.74631   -5155.1195   -4917.6122   -5155.1195            0    8828.7582    17.903338    22.645835    19.048689    7723.0252    8554.2025    8554.9621      9377.11   -124.74949   -648.07013   -1138.9229    -3923.208 
29758000    120.72526   -5153.1011   -4911.6357   -5153.1011            0    8677.0825    17.817129    22.781754    19.001999     7713.015    8489.1558     7510.292      10031.8   -1448.7106   -215.77932    72.033012   -3935.5818 
29759000    121.32201   -5144.7314   -4902.0724   -5144.7314            0    8232.3278    17.910717    22.582316    19.147621    7744.5516    8947.7938    7578.5958    8170.5939    550.10012   -160.91539   -1.9418892   -3972.2611 
29760000    117.47138   -5145.5466   -4910.5894   -5145.5466            0    8034.1856    17.823008    22.795036    19.085793    7754.1017    7763.0254    7918.2662    8421.2652   -558.06224    1172.7737    1242.1421   -4002.0385 
29761000    112.80309   -5141.2549   -4915.6348   -5141.2549            0    8418.0312    17.817512    22.640912     19.18157     7737.936    8118.0687    8720.7433    8415.2817    138.92448    482.23542   -1001.4432   -3965.6611 
29762000    120.11413   -5134.6349   -4894.3918   -5134.6349            0    8726.4825    17.748099     22.82568    19.067979    7724.6754    8718.4584    8308.3484    9152.6408   -712.47471   -289.53875   -45.506975   -3911.2971 
29763000    117.03658   -5133.2695   -4899.1819   -5133.2695            0    8041.6864    17.890254    22.654129    19.138549    7756.6268    7171.8768    8800.3742    8152.8081    568.76158   -28.442549   -853.59863   -3989.4866 
29764000    118.26961   -5156.0615   -4919.5076   -5156.0615            0    7561.7654    17.868854    22.714684    19.131491    7765.1922     7244.837    8108.8563    7331.6028   -680.02198    515.77478   -534.52237   -4063.1576 
29765000    116.81906   -5146.6276    -4912.975   -5146.6276            0    9397.2067    17.823199     22.63093    19.108412    7707.4843    7478.2089     10336.65    10376.762    335.63274    705.69749   -642.59983   -3856.6749 
29766000    110.94294   -5134.3427   -4912.4431   -5134.3427            0    8137.4356    17.876288    22.646822    19.145756    7750.9894    8134.7496     8117.494    8160.0632   -1048.5281    148.33821    413.22622   -3992.5855 
29767000    116.39947   -5146.7139   -4913.9005   -5146.7139            0    8341.2583    17.782583    22.840151    19.049197     7736.962     8846.222     7560.954     8616.599    88.630347   -422.31234    1211.2019   -3972.7092 
29768000     110.8666   -5148.6774   -4926.9306   -5148.6774            0    8181.2196    17.855045    22.561406    19.227408    7745.4714    8828.3224    7826.6363       7888.7   -407.22129    75.179119   -291.48635    -4002.782 
29769000    111.45048   -5143.3858   -4920.4711   -5143.3858            0    7215.6571    17.711753    23.079428    18.995886    7765.0838    7225.9843    6441.8383    7979.1487     375.4557   -243.10768    1272.2955   -4103.3283 
29770000    120.01359   -5158.8133   -4918.7713   -5158.8133            0    7474.4158     17.85784    22.541852    19.257166     7751.949    6089.1995    8795.0818     7538.966   -195.82716    218.59216    -785.6991    -4073.757 
29771000    112.54535   -5152.7923   -4927.6877   -5152.7923            0    8426.1151    17.822682    22.715905    19.132471    7745.9408    8292.6744    8218.2438    8767.4272   -50.004991   -523.25182    29.546721   -3975.8181 
29772000    120.33298   -5156.2239   -4915.5431   -5156.2239            0    8228.5572    17.794559    22.699684     19.16945    7743.1328    9230.8903    7026.5938    8428.1874    360.05173   -275.19322    498.25407   -3986.3279 
29773000    109.28266   -5138.2677   -4919.6888   -5138.2677            0    10795.136    17.711219    22.676179    19.142711    7688.1489    11854.297     10037.41      10493.7   -385.94568   -711.89383    401.55424   -3709.2976 
29774000    122.39199    -5137.772   -4892.9729    -5137.772            0    9171.4199    17.762998    22.669703    19.203425    7732.8717    10015.826    9241.4298    8257.0042    398.31555   -688.66652    371.26604   -3858.6568 
29775000    113.83556   -5127.8672    -4900.182   -5127.8672            0    9684.6723    17.654955     22.86576    19.121365    7719.1798    9743.9183    9323.3543    9986.7444   -1176.5699    267.86995    192.70883   -3809.9172 
29776000    116.93434   -5139.1638   -4905.2807   -5139.1638            0    9171.3123    17.853564    22.437335    19.280825    7723.6362     9738.394    9615.3254    8160.2174    420.14517    627.00727    855.10975    -3872.212 
29777000     119.9074   -5140.9044   -4901.0748   -5140.9044            0    7883.7919    17.757637    22.864262    19.051701    7735.2814    8470.6315    7141.6078    8039.1363    295.14442    367.93335   -812.12898   -4011.6952 
29778000     112.6485   -5144.0289    -4918.718   -5144.0289            0    9341.7333    17.805679    22.548379    19.221256    7717.1266    8884.3901    9459.1211    9681.6888    992.77892     202.2502    544.74018   -3867.3398 
29779000    114.77945   -5145.8849   -4916.3119   -5145.8849            0     7431.174    17.726814    22.956039    19.065244    7758.3616    7564.8784    7341.1997    7387.4439   -709.12403     274.2972   -232.84208   -4075.4913 
29780000    124.99113   -5154.2934   -4904.2957   -5154.2934            0    9341.9909    17.884655    22.515069    19.171637    7719.9247    9316.3932    9029.6668    9679.9126    -178.8154   -213.39779   -153.28192   -3852.5073 
29781000    122.85093   -5152.9095   -4907.1925   -5152.9095            0    6310.9536    17.801121    22.991991    19.022844    7785.7307    6164.0243    6049.5635    6719.2731    641.42941    283.19465    832.59646   -4190.6033 
29782000     114.6178   -5139.4616   -4910.2119   -5139.4616            0      7886.78    17.848217    22.518826     19.30476    7758.9865    8331.3808    7535.7748    7793.1843   -425.51526   -1485.1919   -1313.4661   -4017.7686 
29783000    118.12928   -5149.9671    -4913.694   -5149.9671            0    8060.3219    17.670037    22.951235    19.078753    7737.3724    8832.3103    7568.8407    7779.8147   -520.25015   -156.44816   -767.64284    -4004.154 
29784000    114.93461   -5156.4641   -4926.5807   -5156.4641            0    8411.2182    17.963963    22.436037    19.196599    7737.0002    8390.5767    9016.5632    7826.5147     781.3228    529.50458   -71.443116   -3977.4907 
29785000    113.38726   -5156.4316    -4929.643   -5156.4316            0    7700.6608    17.707007    22.822929    19.143059    7736.2035    8376.9691    7674.5613     7050.452    530.20476    174.91758   -371.45644   -4060.8191 
29786000    114.48143   -5159.8692   -4930.8922   -5159.8692            0    7062.7717    17.937011    22.575104    19.195368    7772.7779    5827.9186    7801.7028    7558.6936    998.60107   -102.06877    957.58652   -4130.2706 
29787000    118.65418   -5155.8385   -4918.5155   -5155.8385            0    7399.4964    17.732799    22.839189    19.152932    7756.9901    7488.0266    7130.0187    7580.4438   -1093.6756    606.18111    176.54958   -4081.4271 
29788000    115.81074    -5149.864   -4918.2282    -5149.864            0    8329.8293    17.747935    22.644116    19.258826    7739.8584    8874.4223    8663.3137    7451.7519   -256.87048    288.86746    160.21073   -3977.9746 
29789000    116.32864   -5146.2927    -4913.621   -5146.2927            0    8188.7414    17.975211    22.656925    18.971045    7726.2049    6724.7088    8420.6447    9420.8706     1531.788   -1013.6885   -143.36116   -3990.9237 
29790000    117.52533   -5146.8973   -4911.8322   -5146.8973            0    8676.4746    17.771986    22.708553    19.128096    7719.6422    10136.047     7992.902    7900.4744   -897.89245    90.376122    1534.8229   -3935.0081 
29791000    119.64409   -5148.7567   -4909.4537   -5148.7567            0    9708.9337    17.819841    22.768295    19.017671    7715.9904     10181.43    9136.4216    9808.9496    839.52381    -396.0553    204.62201   -3816.9093 
29792000    115.02951   -5148.1117   -4918.0385   -5148.1117            0    7019.3037    17.808826    22.680297    19.237014     7770.012    8282.2977    6825.1266    5950.4867   -577.47063   -327.05941    375.01282   -4122.6275 
29793000    119.86612   -5147.9503   -4908.2033   -5147.9503            0    8449.1259    17.823117    22.727648    19.105821    7739.3388    7889.0649    8691.8859    8766.4269    9.4287367    218.32229    537.02821   -3954.5478 
29794000    109.31586   -5144.9348   -4926.2896   -5144.9348            0    8889.0598    17.982167    22.513387    19.086214    7726.8533    9269.0225    9177.9891    8220.1678    396.82981     156.5814    1306.0875   -3924.5972 
29795000    112.06855   -5155.2947   -4931.1438   -5155.2947            0    6930.9695    17.784313    22.886655    19.058614    7757.3023    7165.9133    6614.9768    7012.0183   -705.84229    252.73339   -579.59618   -4147.0273 
29796000    113.88151   -5148.0458   -4920.2687   -5148.0458            0    9876.1334    17.922383    22.323605    19.255683    7704.0488    8749.1881    10688.215    10190.997    48.843917    344.94904    505.31191   -3810.6294 
29797000    117.69043   -5148.3188   -4912.9234   -5148.3188            0    9384.0498    17.647226    22.844124    19.151774    7720.7581    10556.438    9135.2906    8460.4204   -252.16178     1118.166   -79.661899   -3856.2857 
29798000    117.57704   -5162.4462   -4927.2776   -5162.4462            0    8353.2142    17.903197    22.610604    19.153569     7753.405    9323.0076    7784.1847    7952.4502      418.489   -662.48131     185.8416   -3982.7341 
29799000    119.46774   -5149.8895   -4910.9393   -5149.8895            0    8393.5177    17.776971      22.8148    19.084268    7740.1601    8526.2615    8647.6668    8006.6248   -775.80393    -477.5491    329.90621   -3963.4597 
29800000    109.35312   -5147.0477   -4928.3279   -5147.0477            0    7810.7628    17.812808    22.793923    19.069993    7742.8703    7104.2469    8034.4034     8293.638   -580.20898    1046.1065   -994.08833   -4046.3224 
29801000    121.74395   -5131.4352   -4887.9322   -5131.4352            0    9342.9166    17.917575    22.610059     19.09352    7735.1173    9068.9327    10137.626    8822.1914    195.95779    497.76195    508.66537   -3833.9695 
29802000    115.44006    -5157.452   -4926.5577    -5157.452            0    7723.6255    17.784918    22.710505     19.17354    7744.2785    7940.9476     8144.915     7085.014   -160.73053   -164.74993    198.14312   -4054.2332 
29803000    109.78267   -5154.9213   -4935.3424   -5154.9213            0    7257.7295     17.75116    22.743419    19.204699    7753.3606    6766.8304      7612.68    7393.6782   -660.02557     588.9765   -452.21278    -4114.676 
29804000    126.47243   -5153.4931   -4900.5326   -5153.4931            0    8226.5061    17.837269    22.655817    19.173875    7748.5064    7901.6813    8119.0705    8658.7667    547.45992    30.556152    588.57865   -3970.9043 
29805000    119.79527   -5148.8275   -4909.2221   -5148.8275            0    8950.1201    17.743796    22.703725    19.208639    7738.2049    8843.2931    9201.1061    8805.9611    -373.0083    101.86893    590.74952   -3899.1672 
29806000     117.6133   -5129.0176   -4893.7764   -5129.0176            0     9574.788    17.921095    22.597881    19.090693    7731.3252    9459.2589    9398.0629    9867.0422   -187.92977   -149.12554   -417.62841   -3814.1861 
29807000    116.41204   -5163.7772   -4930.9388   -5163.7772            0    7766.4654    17.816853    22.797386    19.040672     7733.896     8430.475     7421.564    7447.3571   -1470.2784   -14.001346   -632.24683   -4054.9518 
29808000    118.68941   -5164.2581   -4926.8646   -5164.2581            0     5008.906     17.88255      22.7403    19.219057    7815.5172    3917.2113    5325.6319    5783.8748   -828.66064    185.63722    305.09926    -4355.943 
29809000    118.82226   -5150.2204   -4912.5612   -5150.2204            0    9940.7356    17.735925    22.724991    19.049673    7677.9466    8446.4664    10584.614    10791.126   -172.34582    5.5975914   -996.49129   -3799.4475 
29810000    119.79949   -5162.2034   -4922.5896   -5162.2034            0    7974.5874    17.839095    22.711377    19.164864    7764.6525    7675.0417    8577.3498    7671.3707    491.23005    1104.8966    140.04402   -4019.5514 
29811000    119.79122   -5146.1233   -4906.5261   -5146.1233            0     8753.084    17.754263    22.549811    19.297134    7725.7097    9076.0797    9016.4521    8166.7202    164.71192   -494.87233   -170.59142   -3920.3025 
29812000    123.70515   -5140.2958   -4892.8702   -5140.2958            0    7911.6279    17.812335    22.799686     19.05797    7739.7398    8820.0559    7330.2087    7584.6193   -190.23948   -296.68444   -1294.6739    -3999.836 
29813000    122.52352   -5147.8661   -4902.8039   -5147.8661            0    8353.3947    17.939417    22.341338    19.311757    7739.9702    8480.0077    9675.6998    6904.4766    1536.0114    18.991148   -492.33807   -3959.8767 
29814000    117.41045   -5153.7728   -4918.9373   -5153.7728            0    7864.2874    17.839167    22.935943    18.896096    7731.4915    5686.2303    7780.8674    10125.765    474.01859    52.646896   -415.59387   -4032.1928 
29815000    111.27366   -5146.0205   -4923.4595   -5146.0205            0    9783.4952    17.762272    22.471276    19.315025    7709.4166    10455.872    10211.858    8682.7559    254.54394   -146.53565    787.99182   -3823.4626 
29816000    117.01242   -5133.7972   -4899.7579   -5133.7972            0    9354.4055    17.857038    22.771226    18.995685     7724.152    8430.1007    9972.7216    9660.3941   -312.78472    877.20708    1237.7256   -3845.9951 
29817000    111.40082    -5144.181   -4921.3656    -5144.181            0    8551.3737    17.914401      22.5795    19.155929    7748.5391     8744.974    8472.5278    8436.6193   -828.59425   -22.855705   -1414.7086   -3955.0219 
29818000    120.41458   -5155.4724   -4914.6284   -5155.4724            0    7044.9682    17.725261     22.88823    19.132282     7761.964    7143.3677    6595.4573    7396.0796     1429.895      407.256    196.09032    -4117.136 
29819000    110.64531   -5156.4398   -4935.1355   -5156.4398            0    7194.9096    17.824518    22.686343    19.233601    7777.5512    7489.7791    7664.3576    6430.5921    287.07784    124.19557    584.37614   -4119.0341 
29820000    120.96103   -5154.5278   -4912.5908   -5154.5278            0    7985.9203    17.852121    22.672854    19.124708    7740.8886    8365.6158    8377.4741     7214.671    305.37111     443.1673    203.67918   -4011.0369 
29821000    119.90257   -5153.2468   -4913.4268   -5153.2468            0    8207.8171     17.79323    22.665435    19.209299    7746.9434    7451.7038    8535.4809    8636.2667    1249.9434   -213.65115    745.08636   -3986.0976 
29822000    122.11541   -5139.9902   -4895.7443   -5139.9902            0    7188.3127    17.878581    22.903505    18.981955    7772.7722    6670.8656    6692.3801    8201.6925   -454.90096    212.15195   -739.74498   -4080.8922 
29823000    107.97597    -5147.265   -4931.2998    -5147.265            0    9111.7883    17.930556    22.534216    19.126485    7728.0758     7913.522    9118.8151    10303.028   -397.20348    173.88025   -1748.7531    -3904.346 
29824000    105.66757   -5142.0429   -4930.6947   -5142.0429            0    8942.7711    17.781902    22.736468     19.09535    7720.2049    9178.7406    8485.7549    9163.8177   -135.64003   -644.70434     1173.638   -3923.8167 
29825000    112.06302   -5142.4587   -4918.3188   -5142.4587            0    9879.0048    17.851537    22.677684    19.079171    7723.8495    9931.4463    9818.2128    9887.3554    655.97651    867.01648   -444.41518    -3805.504 
29826000     118.2632   -5152.8355   -4916.2945   -5152.8355            0    7012.5133    17.932449    22.730903    19.057747    7768.3333    6049.0201    7145.8306    7842.6891   -289.40918    10.796745   -495.00986   -4121.8246 
29827000    113.64324   -5164.6199   -4937.3194   -5164.6199            0    8234.2107    17.811309    22.662988    19.175257    7740.2362    8191.6316    7991.3828    8519.6177    81.323294    -399.0343    509.86529   -4007.8137 
29828000    118.32516   -5134.0283   -4897.3634   -5134.0283            0    8778.2603    17.783585    22.817818     19.09645    7749.0075    8692.9784    9152.1904    8489.6121     483.1162    165.84889    1146.4486   -3905.3206 
29829000    114.62422   -5153.4188   -4924.1562   -5153.4188            0    7926.6662    17.821915    22.574137    19.247193    7743.4217    7962.9541    8486.7056    7330.3388   -130.41845    625.57915     336.7935   -4028.9988 
29830000    121.01004   -5147.7812   -4905.7461   -5147.7812            0    6967.0144    17.850807    22.700256    19.189127    7775.7776    6750.6628    7282.3464    6868.0341   -631.01351    460.74511   -538.86406   -4115.6746 
29831000    116.51658   -5148.8318   -4915.7842   -5148.8318            0    7778.7464    17.730611    22.849761    19.150118    7758.4831    8690.5754    7244.4522    7401.2117    438.59993    143.77317    1039.8219   -4035.6228 
29832000     114.9359    -5157.454    -4927.568    -5157.454            0    8209.1999    17.903475    22.530136    19.163819    7730.0662     8423.147    8024.0582    8180.3946    88.108959   -786.59298    564.53093   -4002.1032 
29833000    119.77978   -5153.2247   -4913.6504   -5153.2247            0    7003.2202    17.744784    22.886556    19.156919    7779.9505    6717.0275    6153.3269    8139.3062    1507.9955   -310.13793    546.13801   -4119.0468 
29834000    119.18108   -5142.4647   -4904.0878   -5142.4647            0    6430.3449    17.994548    22.572902    19.177421    7789.6604    5581.3997    6665.4007    7044.2342   -231.52024    185.00014     1499.853   -4173.5736 
29835000    108.73626   -5138.4641   -4920.9781   -5138.4641            0    9141.1076    17.660832    22.793472     19.17202    7717.7291    9584.9778    9750.6243    8087.7207   -129.28011    539.65484    865.40292   -3892.0993 
29836000    112.11404     -5150.74   -4926.4981     -5150.74            0    7833.0204    17.813914    22.582569    19.272749    7753.1176     8005.525    8881.6233     6611.913    214.51792    617.61787    816.87505   -4040.8085 
29837000    120.01418   -5162.9082    -4922.865   -5162.9082            0     8534.062    17.740068    22.861502    19.056002    7728.4402    9169.4916    8366.6554    8066.0389    48.801581   -485.46433    186.84549   -3960.9792 
29838000    116.10673   -5150.3273   -4918.0995   -5150.3273            0    7228.2161    17.902984    22.595678    19.198125    7766.2185    7512.5812    7015.3491    7156.7181   -1842.9507   -1007.0893   -1335.1327   -4099.4149 
29839000    109.73088   -5159.4722   -4939.9969   -5159.4722            0    8178.2608    17.823493    22.874299    18.977149    7736.9817    8727.4952    7625.6351    8181.6522   -630.35233    508.09147    257.39785   -4017.1951 
29840000    113.07333   -5143.8831   -4917.7224   -5143.8831            0    9269.3364    17.923189    22.555592    19.100402     7721.684    10019.987    8529.6319      9258.39    -63.06099    479.45051   -788.46065   -3873.8761 
29841000    117.26949   -5156.6313   -4922.0778   -5156.6313            0    9699.7804    17.761489    22.776713    19.015581    7692.7219    9866.5394    9536.8243    9695.9774   -210.58046    291.37956    7.4301067    -3833.855 
29842000    111.59459   -5142.7321   -4919.5291   -5142.7321            0    8402.9323    17.809897    22.637423    19.150315    7720.8358    8389.5914    8276.6475     8542.558    250.64896   -477.74935    1041.6023    -3973.355 
29843000    119.03058   -5147.4516   -4909.3757   -5147.4516            0    7196.3426    17.849737    22.736815    19.172958    7781.2717    7659.9067    6894.8141    7034.3069   -1141.1975    504.59101   -1697.0849   -4092.7213 
29844000    113.18805   -5145.1408   -4918.7507   -5145.1408            0    8246.2241    17.945718    22.682183    19.037634    7749.2317     8891.081    7719.6861    8127.9051    92.582719    526.50854    756.52156   -3986.8071 
29845000    113.13042   -5159.4612   -4933.1864   -5159.4612            0    8243.2661    17.745752    22.781202    19.129494    7733.4723    8272.9267    8484.2227     7972.649    953.44856    566.04318    1102.8893   -4003.4716 
29846000    114.44199   -5136.5312   -4907.6331   -5136.5312            0    9016.4629    17.790483    22.738273    19.070057    7714.3122    9398.3354    9253.1491     8397.904   -423.96606    34.318915    856.74955   -3893.2329 
29847000    113.34416   -5147.2786   -4920.5763   -5147.2786            0    7557.0808    17.907089    22.648208    19.130185    7758.5043    6504.0492    8378.2407    7788.9524    315.41706    633.79832   -401.88599   -4065.4939 
29848000    116.48058    -5150.574   -4917.5984    -5150.574            0    8763.0224     17.72402    22.826412    19.093568    7724.7954    9549.0936    8458.8812    8281.0924    634.04283    178.60131   -328.94881    -3930.372 
29849000    115.04863   -5154.3908   -4924.2793   -5154.3908            0    6756.2873     17.92034    22.813897    19.038678    7783.6355    6232.7099    6982.8471    7053.3048     403.0151     456.4703    1961.1573   -4157.3303 
29850000    114.73906   -5154.1688   -4924.6765   -5154.1688            0    7878.3467    17.830753    22.731484    19.127894    7752.9079     7542.785    7607.8762     8484.379    -85.28649   -874.54107   -843.69274   -4033.8859 
29851000    111.07751   -5161.1119   -4938.9432   -5161.1119            0    7473.5851    17.704252    22.798705    19.241202    7766.4039    7820.3084    7097.6232    7502.8236    296.26711    350.81705   -1212.4581   -4092.4473 
29852000    112.89943   -5135.4652   -4909.6524   -5135.4652            0    9851.0918    17.860975    22.588299    19.113703    7711.4052     8726.221    10446.572    10380.483   -1386.3606    296.56458    27.752728   -3801.7697 
29853000    119.35593   -5148.1772   -4909.4506   -5148.1772            0    7381.8024    17.795595    22.768396    19.124493    7748.8077    6579.5502    8028.3307    7537.5264    954.99001    718.00738    1344.9613   -4075.2448 
29854000    118.22476   -5142.0787   -4905.6145   -5142.0787            0    8955.8089    17.789977    22.435515    19.326005    7713.5363    9298.6946    9968.6069    7600.1252   -48.478515    12.436927    23.852428   -3898.1396 
29855000    120.51147   -5146.1083   -4905.0705   -5146.1083            0    6685.7165    17.744359    23.023362    19.080298    7794.9657    6957.3526    6108.1826    6991.6144   -1533.8808    269.01473   -1085.0715   -4145.0277 
29856000    116.44308   -5160.8333   -4927.9327   -5160.8333            0    9056.3489      17.8482    22.564503    19.144044    7709.9909    10540.849    8991.7925    7636.4047    255.75753     86.93098     582.9156    -3909.616 
29857000    116.52352   -5145.7493   -4912.6878   -5145.7493            0    8586.9343    17.717604    22.859298    19.070173    7723.6488    9085.4874    7810.9094    8864.4061    186.50494   -503.01225     1294.973   -3945.4427 
29858000    118.62348   -5152.1847   -4914.9231   -5152.1847            0    7279.8094    17.932379    22.646973     19.15267    7778.1694    8460.7383    6373.1857    7005.5041   -1340.7775   -2041.7754   -901.74061   -4089.1261 
29859000    116.01342    -5152.402   -4920.3608    -5152.402            0    8132.4652    17.698144    22.848524    19.109158     7727.294    9083.6267    7709.3391    7604.4296    455.96204    40.506134    1471.6354   -4003.8755 
29860000    119.46952   -5145.0465   -4906.0926   -5145.0465            0    8774.2573    17.839179    22.650415    19.169367    7745.6664    9482.0853    8294.8069    8545.8798   -705.86718    178.75492   -246.99658   -3914.9297 
29861000    117.15841   -5131.9347   -4897.6035   -5131.9347            0    9105.5113    17.782926    22.744711    19.078505    7716.6352    7835.4343     9004.297    10476.803   -115.38077    306.80274    55.719407   -3872.8764 
29862000    117.23317   -5143.9691   -4909.4883   -5143.9691            0    9332.1326    17.880037     22.44317     19.24609    7723.1612    7957.7784    9990.9383    10047.681    838.35755    629.60053    1288.8137   -3858.3693 
29863000    116.86255   -5155.1953   -4921.4557   -5155.1953            0    8893.8854    17.819875    22.769596    19.021888    7718.1568     8265.537    8560.2529    9855.8664     158.8577    -24.77806    573.03587   -3920.3475 
29864000    119.42445   -5146.3037   -4907.4401   -5146.3037            0    8543.6096    17.810404    22.539017    19.260519    7731.7308    8968.6028    8686.8896    7975.3363   -35.730045    181.71154    -1232.402   -3944.0681 
29865000    119.04053   -5159.6841   -4921.5883   -5159.6841            0    7685.8803    17.804888    22.857659    19.075402    7763.2699     8020.722    7811.7009    7225.2181   -530.14139    231.42909   -243.36432   -4051.3981 
29866000    110.15121   -5153.9831    -4933.667   -5153.9831            0     7870.618    17.972217    22.486657    19.201555    7760.0222    6789.8055    8420.3951    8401.6535      64.3799     424.9515   -620.69838   -4042.9337 
29867000    112.91686   -5155.8954   -4930.0477   -5155.8954            0    8524.5134     17.84252    22.794714    18.993266    7724.8487    8305.0328    8660.7049    8607.8026    214.31208   -248.20497   -242.42308   -3969.6846 
29868000    115.99647   -5156.5319   -4924.5246   -5156.5319            0    8716.5393    17.831044    22.601794    19.186957    7732.6043    9531.1212    8960.7277    7657.7689   -1491.6421   -608.11989   -854.35917   -3941.5422 
29869000    115.12796   -5155.6175   -4925.3474   -5155.6175            0    9535.0525    17.742872    22.793061    19.061575    7708.7748    9065.5548    9614.0928    9925.5098     58.54913    445.18916    1236.2766   -3853.3732 
29870000    109.49321   -5144.4744   -4925.4744   -5144.4744            0    8397.1747     17.92697    22.517872    19.233016    7763.9305     8837.498    8357.7913     7996.235    520.82887   -448.62282    693.21385    -3974.671 
29871000    111.18598    -5145.223   -4922.8373    -5145.223            0    9201.2228    17.705407    22.873595    19.037914    7710.0948    8685.3984    9871.4698       9046.8   -181.75501    419.28637   -787.62449   -3888.2167 
29872000    113.58738   -5136.7175   -4909.5287   -5136.7175            0    6646.8534    17.964614    22.581836    19.198539    7788.3474    6368.9096    7322.8764    6248.7741   -101.52576     282.4194    374.12962   -4154.5455 
29873000    114.22126   -5145.1143   -4916.6577   -5145.1143            0     8918.756    17.815922    22.758507    19.070226     7732.286    9733.1293    8268.9852    8754.1536    157.71909   -558.81549   -1212.7623   -3910.9122 
29874000    120.85445   -5155.7021   -4913.9783   -5155.7021            0    7856.2399     17.98121    22.614386    19.063105    7751.7069    6292.5013    8854.4374     8421.781   -313.51314    -190.5797   -778.77231   -4025.8249 
29875000     115.5434   -5135.6513   -4904.5502   -5135.6513            0    8668.3699    17.688992    22.944758    19.043628    7729.2307     9829.048     7957.263    8218.7986   -242.69617    220.02958   -198.79513   -3927.4264 
29876000    118.36778   -5155.6348   -4918.8846   -5155.6348            0     9248.682    17.813817    22.592122    19.172513    7716.0148     8602.166    9508.7948    9635.0851   -584.04634    415.27743   -1088.1401   -3878.1289 
29877000    116.95278   -5159.9271   -4926.0071   -5159.9271            0    8196.8358    17.721999    22.922393    19.058805    7742.2707    9173.1928    7067.1013    8350.2134   -375.52646    109.72859    613.52979   -4000.4771 
29878000    115.22953     -5161.75   -4931.2767     -5161.75            0    8169.1223    17.764922    22.606732     19.29119    7747.4736    8826.3389    8589.0852    7091.9428    -729.0235   -10.079906    583.22286   -4008.2561 
29879000    119.55311   -5133.6848   -4894.5638   -5133.6848            0     8774.194    17.770729     22.84902    19.035426     7729.216    9066.1294     7601.947    9654.5055    551.37151   -443.24463   -77.613007   -3905.5131 
29880000    115.63092   -5163.1084   -4931.8322   -5163.1084            0    8798.2988    17.823952    22.552994    19.221341    7726.6619    8785.1702    9242.7201    8367.0062   -758.72091    71.406918   -614.18689   -3940.3921 
29881000    112.10732   -5153.8994   -4929.6709   -5153.8994            0    9495.2284    17.731832    22.811376    19.056769    7708.2245    8204.0898    10126.476    10155.119    1044.4817    736.99114    415.86713   -3862.2501 
29882000    121.11869   -5140.5275   -4898.2751   -5140.5275            0    9554.6523     17.91507    22.554305    19.092358    7714.4956    7633.5033     10073.03    10957.423   -1156.7849    471.33566   -232.86474   -3823.3003 
29883000    119.00669   -5149.3579   -4911.3298   -5149.3579            0     7271.236    17.828929    22.711615    19.156566    7756.9489    7278.0617    7598.7301    6936.9162    851.49053    -260.2631    -416.9732   -4088.7557 
29884000    117.52587   -5163.1363     -4928.07   -5163.1363            0    8162.4665    17.795676     22.77036    19.087938    7734.6987    8082.6736    7837.4587    8567.2672    -39.21721    50.597384    1556.0145   -4007.3222 
29885000     112.6937   -5151.9923    -4926.591   -5151.9923            0    7402.4512    17.839497    22.705246    19.138469    7752.0402    6758.2742    7546.1164    7902.9631     1094.065   -825.14479     432.9242   -4089.7028 
29886000    125.27463   -5159.8082   -4909.2435   -5159.8082            0    8213.9773    17.766412    22.793516    19.095414    7732.8597    8085.4984    7542.3496     9014.084   -1228.7731   -146.83376    -1047.792   -3982.9054 
29887000    114.42173   -5155.5268   -4926.6692   -5155.5268            0    7552.8924    17.884269    22.716997    19.164174    7785.9606    7292.6669    7608.6902      7757.32    233.17021   -368.85926   -126.18311   -4069.0363 
29888000    117.81055   -5158.2846   -4922.6489   -5158.2846            0    8662.5892    17.824061    22.644137    19.170071    7737.2417    8014.3512    9166.6633     8806.753    1166.6166    1198.5289   -90.563367   -3945.1647 
29889000    113.13738   -5160.9273   -4934.6386   -5160.9273            0     8854.589    17.900932    22.682584    19.036421    7729.5369    6490.6244    9886.9076    10186.235    48.450844   -187.45522   -200.56465   -3936.4841 
29890000    118.11214   -5150.5383   -4914.2995   -5150.5383            0    6879.0219    17.744208     22.88726    19.162554    7782.2258    8012.7234    6599.3943    6024.9481     305.8417   -718.64951    621.20741   -4133.5595 
29891000     113.2885   -5144.7139   -4918.1229   -5144.7139            0    9506.4364    17.777797     22.56785    19.222246    7712.0932    9293.0365    10318.346    8907.9266   -86.131102   -848.35204    -1332.772   -3848.9057 
29892000     116.1822    -5149.964   -4917.5853    -5149.964            0    8350.0865    17.936987    22.691425    18.998503    7732.6912    8379.1296    8181.1357    8489.9942   -316.49715    271.75675   -864.38146   -3975.9179 
29893000    116.53053   -5160.0822   -4927.0067   -5160.0822            0    7870.4689    17.818913    22.599052      19.2616    7756.4642    8828.7222    7679.0863    7103.5982    152.03149   -331.51505   -1173.3389   -4036.6987 
29894000    120.59346   -5155.9337   -4914.7318   -5155.9337            0    8837.6765    17.731037    22.834941    19.068401    7720.5508     8773.024    8723.8199    9016.1856   -435.74352    518.55233   -67.754425    -3919.642 
29895000    118.12909   -5150.7987   -4914.5259   -5150.7987            0    9811.2708    17.835918    22.463551    19.255391    7714.8275    9062.5788    10681.308    9689.9257    313.13272   -233.95857   -674.90019   -3810.6319 
29896000    113.26827   -5148.5491   -4921.9985   -5148.5491            0    8365.5262    17.798014    22.852128    19.010908    7732.1637    8496.1026    8027.5123    8572.9636    279.33885    277.91871    518.92589   -3978.6543 
29897000    114.10093   -5160.0096   -4931.7937   -5160.0096            0      8361.06    17.944611    22.493795    19.176895    7740.6084    8358.9108    8620.2096    8104.0596    374.65068    527.12349    17.728672   -3987.9233 
29898000    113.49536   -5147.4012   -4920.3965   -5147.4012            0     8869.198    17.831281    22.728122    19.021103    7708.7118    8845.6898    8353.6017    9408.3024    349.29854   -177.61986   -107.24085   -3923.2888 
29899000    119.36829   -5140.9761   -4902.2247   -5140.9761            0    8658.4447    17.819944    22.682846    19.141922    7737.2997    7921.6715    9292.8858    8760.7767    666.51586    413.22536    -401.2225   -3925.2008 
29900000     113.1075   -5149.0813   -4922.8523   -5149.0813            0     9120.253    17.830219     22.73711    19.059877    7727.0199    8718.5813    8915.2748    9726.9028   -436.80501    904.50631   -665.32425    -3895.085 
29901000    121.80201   -5139.4593   -4895.8402   -5139.4593            0    9319.7323    17.725999    22.700709    19.236424    7740.5976    9740.7682    9195.8429    9022.5857    264.55116   -148.75031   -259.32081    -3843.748 
29902000    116.71046   -5146.3409   -4912.9056   -5146.3409            0    9040.9262    17.818286     22.61615    19.172468    7726.1409    9193.4349    9077.3119    8852.0317    410.63081    468.96732    -363.4324   -3894.1935 
29903000    117.09443   -5146.1293   -4911.9259   -5146.1293            0    7441.6531     17.83309    22.809327    19.053025    7750.0233    7276.6349    8101.1921    6947.1324      692.727    360.93931    144.65534   -4070.8246 
29904000    116.25631   -5156.3654   -4923.8384   -5156.3654            0    6723.7319    17.731783    22.802337    19.209368    7766.8484    7915.5432    6093.3277    6162.3246    1025.8744   -1128.6609    1363.8861   -4162.2311 
29905000    110.25267   -5145.6931   -4925.1741   -5145.6931            0     8849.209    17.829488    22.648857    19.161649    7737.8093      9320.23    8814.0647    8413.3324   -636.50005    130.01685    598.80707   -3926.5585 
29906000    110.65757   -5153.3712   -4932.0424   -5153.3712            0    8062.9908    17.837789     22.63225    19.155696    7733.3326    7434.6569    8299.7842    8454.5314   -428.25353    130.39567    81.183979   -4022.6764 
29907000    115.12464   -5148.0171   -4917.7536   -5148.0171            0    8676.7304    17.908462    22.694702    19.027953     7733.478    7185.1862    9123.7601     9721.245    82.717835    769.44024   -610.34218   -3939.1499 
29908000    112.28989   -5153.3353   -4928.7417   -5153.3353            0    9111.7442    17.718561    22.662907    19.187126     7704.669    8593.6487    10377.402     8364.182    499.74675    577.24718    1177.7735   -3904.9033 
29909000    114.85931   -5155.0896   -4925.3568   -5155.0896            0    8559.8012    17.788238     22.75119    19.083839    7723.2984    8301.7922     8856.877    8520.7346    462.23372   -396.10729    647.01279   -3961.2117 
29910000    120.87764   -5156.6858   -4914.9156   -5156.6858            0    8626.8237    17.881819    22.627056    19.126398    7738.7876    8047.3353    8862.7602    8970.3757    700.12155    162.25222   -1432.3136   -3941.2726 
29911000     113.8491   -5155.9904   -4928.2781   -5155.9904            0     8409.175      17.8554    22.759127    19.056319    7743.9797    8157.6567     8094.049    8975.8193   -640.30836    338.30632    764.68699   -3978.5627 
29912000    116.95532   -5149.9915   -4916.0664   -5149.9915            0    8589.4532    17.750715    22.708793     19.17619    7729.8708    7577.7719     8693.228    9497.3598    1332.7457   -783.12466   -29.132514   -3947.7581 
29913000    114.27191   -5150.7057   -4922.1478   -5150.7057            0    8009.7573    17.818639    22.811593    19.066487    7749.9844    6179.2911    8594.0685    9255.9122   -1535.2147   -512.78137    78.560177   -4016.8403 
29914000    114.50739   -5154.2197   -4925.1908   -5154.2197            0    8890.1744    17.782789    22.718675    19.141929    7733.3663     9370.736    8623.3376    8676.4496   -479.98998    320.48231   -70.060238   -3922.5284 
29915000    113.94125   -5154.1058   -4926.2092   -5154.1058            0    7738.5154    17.842101    22.631645    19.201298    7753.4092    8188.7455    8340.6585    6686.1421   -195.34845   -61.522883    121.95254   -4051.1725 
29916000     120.7025   -5141.9846   -4900.5646   -5141.9846            0    9091.9632    17.910038    22.647462    19.093772     7744.757    8309.0861    8997.4754     9969.328    198.08775   -655.06311   -215.87853   -3873.6334 
29917000     114.0086   -5148.7723    -4920.741   -5148.7723            0    9021.4113    17.758053    22.755084     19.10233    7718.9838    8423.8769    9743.0598    8897.2973    227.41014    512.40808    165.81666   -3905.1695 
29918000    116.65571   -5141.7999    -4908.474   -5141.7999            0    8351.9491    17.780379     22.63056    19.273174    7755.1385    9229.6741    8911.3619    6914.8112    639.24939    174.89422    1602.9037   -3963.8624 
29919000    118.60741   -5140.3337   -4903.1042   -5140.3337            0     8091.201    17.864813    22.715518    19.125977    7761.4833    7712.4068    8050.7177    8510.4786   -1204.4637   -528.05039   -374.60935   -3987.2347 
29920000    115.01175   -5151.6423   -4921.6045   -5151.6423            0    7281.5044     17.81389    22.762978    19.154492    7767.0926    7416.8132    7183.3288    7244.3712     217.3589   -45.650171   -26.558081   -4096.7916 
29921000    116.46208   -5151.5642   -4918.6256   -5151.5642            0     7347.285    17.830531    22.586243    19.342012    7789.5066     7385.963    7687.0441    6968.8481    636.01334    423.70738    643.59676   -4083.9596 
29922000    114.32466   -5155.4189   -4926.7554   -5155.4189            0    8810.0422    17.837268     22.87619    18.911882    7716.9694    7911.8082    7901.5455    10616.773    187.45531   -645.32467     52.01333   -3935.2373 
29923000    114.48069   -5151.0901   -4922.1145   -5151.0901            0    10211.469     17.90468    22.476444    19.091167    7682.9262    9927.1641    10418.692    10288.552   -247.51683   -226.12246   -565.96334   -3777.9439 
29924000    116.01311   -5154.3732   -4922.3326   -5154.3732            0    8709.4243    17.759082    22.678801    19.163632    7718.2427    8153.5256    8597.2997    9377.4476     1088.642   -240.12411    295.89716   -3941.9767 
29925000    114.17281   -5152.6856   -4924.3259   -5152.6856            0    7513.0104    17.806412    22.693803     19.18965    7754.4456    8058.8052    7325.3655    7154.8605   -385.81539    127.80836     879.7661   -4074.6747 
29926000    113.27173   -5149.5632   -4923.0057   -5149.5632            0    7925.6514    17.825883    22.743531    19.093142    7740.8085    8474.4979    7139.6711    8162.7851    332.40182   -372.63429    1353.9172    -4028.265 
29927000    118.28271   -5144.5496   -4907.9695   -5144.5496            0    8478.3201    17.871894    22.583044    19.197068    7747.9706    8045.7066    9382.6962    8006.5576    660.69562    639.43333    -253.0369   -3949.9515 
29928000    121.64237   -5157.3303   -4914.0305   -5157.3303            0    8678.0737    17.807014    22.746503    19.111225    7740.9498    9341.0492    7756.6231    8936.5487    108.72818   -483.61573    152.61263   -3934.3297 
29929000    117.42161    -5146.147   -4911.2893    -5146.147            0    8025.3132    17.931699    22.791504    19.012843    7770.3663    7940.7814    7486.7898    8648.3683    720.36917    51.057125   -399.15504   -4001.8382 
29930000    115.33332   -5154.3652   -4923.6843   -5154.3652            0    6378.6032    17.897047    22.680105     19.24683    7812.4212     7159.898    6512.1157    5463.7961    369.62957    135.29948    415.43497   -4196.9308 
29931000    114.17822   -5153.8393   -4925.4688   -5153.8393            0    9131.0813    17.947194    22.760666    18.903632    7721.9462    8300.6192    8378.2176    10714.407    1402.1659   -278.71053   -511.79923   -3897.1568 
29932000    117.83942   -5153.4165   -4917.7231   -5153.4165            0     8331.408    17.753244    22.765381    19.162166    7744.5683     7674.261    8864.1054    8455.8577    343.41196    107.26401   -8.2051902    -3976.719 
29933000    115.87264    -5159.947   -4928.1874    -5159.947            0    8210.7794    17.947593    22.480695    19.147818    7725.6538    7266.2109    9372.1427    7993.9844   -156.41426    280.28979   -776.66041   -4003.0729 
29934000    114.58113   -5163.3109   -4934.1344   -5163.3109            0    8068.6631    17.848002     22.69169    19.135675    7749.9738    8715.3311    8026.9726    7463.6858    775.24697    101.39648   -643.40304   -4022.1704 
29935000    116.45351   -5141.2607   -4908.3393   -5141.2607            0    7844.7517    17.886133    22.588319    19.200829    7757.4746    6113.5124    8657.5448    8763.1979   -456.30153   -120.99867    279.09256   -4020.8248 
29936000    120.79907   -5149.1996   -4907.5865   -5149.1996            0    9238.2503    17.816723    22.774413    19.020328    7717.7912    8764.6466    9237.0993     9713.005   -117.51931    149.36198   -1465.5836   -3867.7654 
29937000    116.77119   -5157.2058    -4923.649   -5157.2058            0    8604.7353    17.958619    22.528412    19.114122    7733.1757    8031.3592    9986.6874    7796.1593    703.99891    278.82714    865.43208   -3953.2032 
29938000    118.41744    -5146.395   -4909.5455    -5146.395            0    7667.7066    17.749184    22.897412      19.0815    7754.9194    9000.1555    6362.5395    7640.4247    99.111722   -617.17183    264.35478   -4042.3467 
29939000    113.14251   -5155.0022   -4928.7032   -5155.0022            0    8878.0594    17.808165    22.690813    19.131539    7730.7055    9015.4845    8542.5094    9076.1842   -97.533597    540.02566   -1000.6955   -3927.7517 
29940000    121.02096   -5143.6874   -4901.6306   -5143.6874            0    7446.2748    17.796248     22.80292    19.141564    7767.7696    7472.0474    7570.2457    7296.5312     314.3229   -117.61694    278.03125   -4058.0797 
29941000    118.85609   -5143.8468     -4906.12   -5143.8468            0     10016.01     17.81522    22.629766    19.085554    7694.4223    9174.9171    10298.828    10574.286    145.74181    530.62557    15.203052   -3782.1708 
29942000    119.28945   -5160.9946   -4922.4009   -5160.9946            0    6015.7206    17.951975    22.783787    19.095667    7810.3943     7419.848    5002.3974    5624.9164    1304.0582    318.57565   -449.23665   -4237.1707 
29943000    115.36363   -5150.5233   -4919.7818   -5150.5233            0    8292.6578    17.832404    22.719659    19.087864    7733.3747    8388.6534    8315.9929    8173.3272     498.2864    569.99963    -860.3658   -3984.5082 
29944000     117.6691   -5153.5056   -4918.1528   -5153.5056            0    7667.4371    17.894126    22.673954    19.143714    7767.1906    7318.7949    7535.5073     8148.009   -203.72828   -746.24128    1089.1168   -4049.6123 
29945000    118.07407   -5151.0453   -4914.8826   -5151.0453            0    8835.5086    17.709557    22.738007    19.210337     7735.619    9461.0874    9091.3705    7954.0678    1514.8659   -46.455367      778.529   -3918.0953 
29946000    112.27806   -5150.2256   -4925.6556   -5150.2256            0    8007.6036    17.982511    22.578238    19.115972    7761.3412    6926.0229    8829.2032    8267.5847    794.08223    888.00646   -314.21784   -4019.2653 
29947000    112.72077    -5145.468   -4920.0125    -5145.468            0    7555.3927    17.852667    22.809518    19.090272    7773.7634    7485.3664    7022.2307    8158.5809    314.58918   -79.563308  -0.38484613   -4063.4398 
29948000    114.47143   -5146.8575   -4917.9005   -5146.8575            0    7762.9358    17.881578    22.535661    19.252867    7758.3888    8401.7077    8095.5096    6791.5903    -208.4364   -252.07394    78.674864   -4039.5387 
29949000    117.14407   -5145.3985   -4911.0959   -5145.3985            0    8056.1069    17.739112    22.871913    19.114296    7755.1941    8834.4232    8276.5865     7057.311   -392.30866   -208.57112   -38.791799   -3999.9377 
29950000    113.12861   -5149.4815   -4923.2103   -5149.4815            0    7667.3601    17.817422    22.721381     19.17408    7762.3662    7985.6225    7582.3861    7434.0716    286.08263    852.82681   -570.91439    -4055.218 
29951000     116.6972   -5152.6177   -4919.2089   -5152.6177            0    8104.0586    17.846789    22.583381    19.230732    7750.7701    9037.6956    7866.9217    7407.5584    335.71344    440.23283   -539.47455   -4003.1502 
29952000    114.78028   -5144.0452   -4914.4705   -5144.0452            0    9656.7855    17.887881    22.770586    18.938998     7714.186    8435.7583    10158.112    10376.486   -152.69062    937.51936   -529.10396   -3828.0484 
29953000    112.20903   -5158.3441   -4933.9122   -5158.3441            0    7272.6896     17.80849    22.687019    19.209242    7760.9481    7899.1668    7450.5404    6468.3614    -52.17232    49.493802   -1551.7398   -4110.7494 
29954000    112.00626   -5153.7056   -4929.6792   -5153.7056            0    8264.2091    17.805012    22.637942    19.134532    7712.5332    7235.7378    8975.0355    8581.8539    857.36013   -783.05471    181.74365   -4000.1261 
29955000    112.02586    -5154.112   -4930.0465    -5154.112            0    9099.5411    17.762396     22.83821    19.012212    7712.5192    8542.8945    8985.5347     9770.194   -1866.6069    1199.5655    -969.1718   -3906.5376 
29956000    109.70046   -5145.8922   -4926.4777   -5145.8922            0    8857.3836      17.8326    22.684143    19.119777    7734.2798    8494.5817    8715.8193    9361.7499   -822.12749   -102.29069   -581.86004   -3927.3955 
29957000    118.20588   -5148.1629   -4911.7365   -5148.1629            0    9927.8639    17.784986    22.650284    19.083023    7687.3093    10162.837    9392.6495    10228.105    673.76904   -1486.9071    93.059399   -3798.7086 
29958000    113.82185   -5139.5196   -4911.8618   -5139.5196            0    7850.4221    17.902121    22.733105    19.087033    7767.8653     8868.419    7198.6565    7484.1907    727.56334   -722.06158   -572.22886   -4022.5162 
29959000    116.62879   -5152.0828   -4918.8108   -5152.0828            0    8236.9288    17.874734    22.642186    19.159812    7754.4171    7584.3384    8430.1535    8696.2944   -442.55376    339.46431     538.5507   -3987.2947 
29960000    118.56752   -5147.9604   -4910.8108   -5147.9604            0    8135.5254    17.722087    22.748342    19.204959    7742.4424    8432.9558    7700.4881    8273.1323    -38.62507    63.224594   -1825.9999   -3992.1832 
29961000    118.46442   -5150.1888   -4913.2453   -5150.1888            0    8831.5955    17.841913    22.733884    19.036826    7721.6409    7456.0273    9812.6595    9226.0998   -124.01659    460.27707     172.3756   -3918.6998 
29962000    116.17122   -5155.3697   -4923.0129   -5155.3697            0    7414.7393    17.907636    22.685815    19.169721     7787.686    6687.8841    7664.5447    7891.7892   -146.32874   -136.34472    218.55395   -4080.8808 
29963000    116.81699   -5148.7651   -4915.1167   -5148.7651            0    9148.2198    17.896814    22.632948    19.046757    7715.0351    8784.6438    8335.6769    10324.339   -626.23637   -371.08818   -85.184236   -3885.7968 
29964000    116.57165   -5160.9539   -4927.7962   -5160.9539            0    6426.0141    17.844626    22.908625    19.066461      7794.29    7555.8943    5376.3785    6345.7694   -1056.8957    320.01142    398.06449   -4197.3401 
29965000    113.41978   -5166.6781   -4939.8245   -5166.6781            0    8228.6066    17.760889    22.637943    19.248313    7739.1691    8668.3499    8874.9176    7142.5524    241.25881    426.48246    67.580599   -4011.0794 
29966000    115.07759   -5151.6759   -4921.5065   -5151.6759            0    8308.7071    17.797658    22.795704    19.066202    7735.3511    9126.2007    7471.4717    8328.4489    97.031689    864.44691    1091.5774   -3984.1833 
29967000    112.33019   -5161.1719   -4936.4977   -5161.1719            0    7672.7422    17.921198    22.564785    19.147194    7742.8951    7517.1136    8001.4693    7499.6438   -357.25289   -219.60192   -2090.8025   -4070.0749 
29968000    120.73496    -5156.386   -4914.9012    -5156.386            0    7251.8612    17.800982     22.79846    19.180359    7784.0604    8056.5855    7029.7928    6669.2053    20.433206   -359.19029   -140.85477   -4091.6515 
29969000    114.35382   -5150.0411   -4921.3194   -5150.0411            0    7928.9801    17.743404    22.588885    19.329203    7747.2166    8516.3366    8412.1519     6858.452    202.67158    479.99668   -85.833093   -4025.4619 
29970000    109.07268   -5143.3712   -4925.2124   -5143.3712            0    9547.2409    17.709216    22.833947    19.003639    7684.5263    9658.5087    8972.9626    10010.251   -588.01403   -336.48254    315.07647   -3855.2442 
29971000    113.93633   -5148.9015   -4921.0148   -5148.9015            0    9200.2962    17.837334    22.520162    19.200997    7713.0337    10400.415    9615.4708    7585.0031    591.97222   -257.11345   -381.05073    -3886.104 
29972000    112.56478   -5160.6085   -4935.4651   -5160.6085            0    7962.7034     17.86889    22.705381    19.071489    7737.6837    6374.1331    8772.5368    8741.4404    373.75478   -410.07424    -871.6538   -4036.9044 
29973000     113.7226   -5160.3474   -4932.8882   -5160.3474            0    8265.5407    17.806537    22.706639    19.145908    7741.2002    7901.8412    8247.2379    8647.5431    677.28681     684.0536    814.56394   -3999.7296 
29974000    121.52271   -5161.1007   -4918.0403   -5161.1007            0    7730.1276    17.838909    22.744581    19.096053    7748.0037    7442.4336    7930.5545    7817.3948    982.61504    277.54473   -649.01439   -4044.5615 
29975000    113.71727   -5155.8267   -4928.3781   -5155.8267            0     8194.847    17.958228    22.566568    19.096259    7738.8652    7373.8892    8554.3766    8656.2752   -275.02435   -166.40472    -481.2998   -4003.4797 
29976000    111.59747   -5146.8553   -4923.6466   -5146.8553            0    8218.2465    17.739932    22.704589    19.231109    7745.8649    8054.5441    9058.2479    7541.9475    26.294496    122.94785   -1191.1782   -3995.2683 
29977000    121.80873   -5135.7258   -4892.0933   -5135.7258            0    8536.7645    17.841534    22.650431    19.183981    7752.6007    8118.4845    9031.9579    8459.8511   -59.437297    334.36055    129.40144   -3926.8948 
29978000    118.13489   -5144.2887   -4908.0043   -5144.2887            0    8177.2856    17.925342    22.614067    19.096855    7741.1944    7277.9015     8756.477    8497.4781   -146.50474    1064.6772   -1311.1454   -3984.8102 
29979000    118.81841    -5142.082   -4904.4305    -5142.082            0      9991.85    17.744034    22.669576    19.120617     7691.263    10499.976    9588.8589     9886.715    572.64619   -360.56644   -182.63477   -3783.6528 
29980000    119.47416   -5141.4019   -4902.4388   -5141.4019            0    7621.3331    17.872166     22.69072    19.135991    7760.2626    6439.3008    7801.9893    8622.7092     1336.931   -808.99617    -285.3347   -4039.8909 
29981000    121.54969    -5150.323   -4907.2086    -5150.323            0    8203.7206    17.727874    22.792983    19.180996    7750.4864     8006.703    7793.3624    8811.0965   -754.81274    426.54871   -402.03168   -3979.9183 
29982000    118.71519   -5154.8162   -4917.3712   -5154.8162            0    8972.8242    17.959053    22.510197    19.124362    7731.2494    7556.1622    10250.402    9111.9083   -157.15582     255.2515   -1151.6141   -3905.6642 
29983000    109.70093   -5142.9161   -4923.5007   -5142.9161            0    7496.7181    17.670855    22.925886    19.087907    7732.8931    7081.2744      8209.63    7199.2499    481.22639    247.17931    342.16864   -4078.0485 
29984000     118.5481   -5147.4182   -4910.3074   -5147.4182            0    7430.9714    17.850514    22.565834    19.272046     7763.006    6845.5652    8188.7215    7258.6275    365.97869   -492.80773   -344.53073   -4069.0064 
29985000    111.71416   -5155.5703   -4932.1282   -5155.5703            0    7968.4152    17.842156    22.736295    19.081276    7740.5963    8369.4773     8140.064    7395.7042    540.15924   -22.557727    469.13557   -4032.5845 
29986000    117.55446   -5156.6572   -4921.5337   -5156.6572            0    9178.8424    17.798055    22.649046    19.119118    7707.0878    9502.8469    9399.1366    8634.5439   -35.886554   -43.226926    642.84176   -3889.8321 
29987000    111.13625   -5146.3945   -4924.1082   -5146.3945            0    7920.7586    17.836549    22.739764    19.079595    7738.6629     10194.65    6354.4511    7213.1745    567.59079    1.2580873   -304.66717   -4030.1678 
29988000    117.97661   -5142.7784   -4906.8106   -5142.7784            0    8934.1796    17.801984    22.753764    19.048972    7716.0171    7876.2169    9000.8959    9925.4262    708.65301   -14.605661   -376.22245   -3901.4456 
29989000    117.40482    -5152.433   -4917.6089    -5152.433            0    8041.1644    17.899764     22.68224    19.092271    7751.5908    7918.5635    7871.5777    8333.3519    369.38077   -392.12516   -175.86314   -4008.5633 
29990000    120.27181   -5149.7392   -4909.1807   -5149.7392            0    8496.2667    17.739024    22.739633     19.19826    7744.1729     7932.697    8367.1421    9188.9609    621.12946   -153.28814   -590.87008   -3949.6054 
29991000    113.87982   -5155.6251   -4927.8514   -5155.6251            0    7540.2458    17.852213    22.640054    19.181943    7752.8634     7476.333    7767.7001    7376.7044   -168.08274    539.68584    964.76055   -4075.2942 
29992000    120.38238   -5165.5969   -4924.8172   -5165.5969            0    8107.6664    17.862172    22.649629     19.12313    7736.6749    7934.3772    7905.8456    8482.7764    637.11734   -712.24549    469.37975   -4010.0173 
29993000    115.45169   -5140.3178   -4909.4002   -5140.3178            0     7339.961    17.788925     22.82604    19.130003    7767.7513    7983.2635    6738.6086     7298.011   -686.22375   -464.51808    450.61737    -4077.895 
29994000    118.91185   -5146.9564    -4909.118   -5146.9564            0    7828.3123    17.849416    22.602204    19.202591    7747.0196     8429.779    8295.8583    6759.2995    340.00124   -433.54028    716.50443    -4024.657 
29995000    120.56562   -5146.8201    -4905.674   -5146.8201            0    7213.4043    17.845158    22.775771    19.119041    7770.6904    6128.6624    6964.5757    8546.9747   -283.73861    415.64479   -746.21853   -4088.1966 
29996000    116.36641   -5153.5832   -4920.8361   -5153.5832            0    8444.6809    17.750588    22.819289    19.142095    7753.6165    9099.4722    7479.2538    8755.3168   -24.992682   -728.47584   -396.92537   -3965.9238 
29997000    112.74083     -5150.69   -4925.1944     -5150.69            0    6343.4965    17.986003    22.653665    19.164008     7808.354    6407.5221    6619.6978    6003.2695     168.5338   -38.949267    1356.4469   -4202.8172 
29998000    119.15688   -5140.4314    -4902.103   -5140.4314            0    9907.8361    17.752071    22.790177    19.016327    7693.4896    9566.0135    9546.9046     10610.59    920.90868    196.57458   -457.96544   -3790.4274 
29999000    118.43661   -5163.1173   -4926.2295   -5163.1173            0    8218.8046    17.820996    22.688787    19.136101    7737.4293    8996.0644    7019.4244    8640.9251   -150.48459   -448.61597   -870.87485   -3998.7992 
30000000    118.82092    -5144.788   -4907.1315    -5144.788            0    7989.3609    17.875903    22.744585    19.094305    7763.3626    6822.8842    8949.8803     8195.318    105.07674    506.30087    786.00932   -4002.5706 
Loop time of 583.277 on 64 procs for 250000 steps with 1008 atoms

Performance: 74.064 ns/day, 0.324 hours/ns, 428.613 timesteps/s
383.0% CPU use with 16 MPI tasks x 4 OpenMP threads

MPI task timing breakdown:
Section |  min time  |  avg time  |  max time  |%varavg| %total
---------------------------------------------------------------
Pair    | 41.628     | 45.216     | 51.812     |  38.9 |  7.75
Bond    | 1.568      | 1.9067     | 2.8684     |  25.9 |  0.33
Kspace  | 296.49     | 302.78     | 314.39     |  30.2 | 51.91
Neigh   | 1.4017     | 1.5357     | 1.6793     |   6.9 |  0.26
Comm    | 76.754     | 87.957     | 97.803     |  61.2 | 15.08
Output  | 0.55617    | 0.55651    | 0.55812    |   0.1 |  0.10
Modify  | 116.54     | 121.2      | 125.18     |  22.5 | 20.78
Other   |            | 22.12      |            |       |  3.79

Nlocal:        63.0000 ave          68 max          61 min
Histogram: 2 6 3 0 3 1 0 0 0 1
Nghost:        3463.81 ave        3482 max        3447 min
Histogram: 1 0 4 3 0 1 4 1 1 1
Neighs:        21512.9 ave       23217 max       20710 min
Histogram: 2 6 0 3 2 1 1 0 0 1

Total # of neighbors = 344207
Ave neighs/atom = 341.47520
Ave special neighs/atom = 2.0000000
Neighbor list builds = 3075
Dangerous builds = 0

unfix		3
unfix		2
unfix		1

write_data	data.final.${pid}
write_data	data.final.1
System init for write_data ...
PPPM initialization ...
  extracting TIP4P info from pair style
  using 12-bit tables for long-range coulomb (../kspace.cpp:340)
  G vector (1/distance) = 0.37976854
  grid = 24 27 32
  stencil order = 5
  estimated absolute RMS force accuracy = 0.0024083045
  estimated relative force accuracy = 7.2525375e-06
  using double precision FFTW3
  3d grid and FFT values/proc = 7875 1344
Last active /omp style is kspace_style pppm/tip4p/omp
WARNING: Not all mixed pair coeffs generated from mixing. Use write_data with 'pair ij' option to store all pair coeffs. (../write_data.cpp:312)

write_restart   restart.lmp.${pid}
write_restart   restart.lmp.1
System init for write_restart ...
PPPM initialization ...
  extracting TIP4P info from pair style
  using 12-bit tables for long-range coulomb (../kspace.cpp:340)
  G vector (1/distance) = 0.37976854
  grid = 24 27 32
  stencil order = 5
  estimated absolute RMS force accuracy = 0.0024083045
  estimated relative force accuracy = 7.2525375e-06
  using double precision FFTW3
  3d grid and FFT values/proc = 7875 1344
Last active /omp style is kspace_style pppm/tip4p/omp
Total wall time: 0:09:43
