LAMMPS data file via write_data, version 30 Jul 2021, timestep = 2750000

1296 atoms
2 atom types
864 bonds
1 bond types
432 angles
1 angle types

-10.540301720552455 12.520301720552455 xlo xhi
-9.12337218438889 12.11337018438889 ylo yhi
0.24954758432586566 21.610451415678938 zlo zhi
-8.947282013326696 1.6368748460454619 2.7206961134482355 xy xz yz

Masses

1 1.008
2 15.999

Pair Coeffs # lj/cut/tip4p/long/omp

1 0 0
2 0.21084 3.1668

Bond Coeffs # harmonic/omp

1 450 0.9572

Angle Coeffs # harmonic/omp

1 55 104.52

Atoms # full

282 94 1 0.5897 -10.401451217368098 -4.100924685369463 1.6491133439925303 1 1 0
281 94 1 0.5897 -8.956169790108031 -3.7419668288811865 1.37637488268566 1 1 0
280 94 2 -1.1794 -9.539233504429319 -4.490398491158801 1.5034757410274855 1 1 0
299 100 1 0.5897 -6.717369509051844 -7.900534278903963 4.277972117661011 1 1 0
163 55 2 -1.1794 -7.233402303633415 -7.9556965608586285 0.9043539816173308 1 1 0
164 55 1 0.5897 -6.378268089002637 -8.319014508701843 1.1347493533675275 1 1 0
270 90 1 0.5897 -8.484558654360708 -7.537012462720408 2.2600894448952125 1 1 0
269 90 1 0.5897 -9.313430958193017 -6.271647358786565 2.3224783794456556 1 1 0
268 90 2 -1.1794 -9.138662881996972 -7.086129884902274 2.7939927137764475 1 1 0
44 15 1 0.5897 -9.797989446518507 0.8997980687892007 0.2993773222108613 1 0 0
324 108 1 0.5897 -6.762656249332871 -4.358201082760685 3.503623213010811 1 1 0
73 25 2 -1.1794 -8.140526380112789 -3.7400901079796522 4.592667267775538 1 0 0
298 100 2 -1.1794 -6.059349107618821 -7.212242007074526 4.375674486364077 1 1 0
314 105 1 0.5897 -8.864320027957103 -6.6492694025690025 4.5029935245792245 1 1 0
261 87 1 0.5897 -6.5136219849211185 -5.068329578422374 1.3284083250538825 1 1 0
59 20 1 0.5897 -13.380069730608593 -0.9517156224044978 3.5886008301319112 1 0 0
256 86 2 -1.1794 -11.922906537856159 -3.2279200973380364 2.0201686951351014 1 1 0
67 23 2 -1.1794 -10.449687129416697 -2.2432214685433705 4.120294671807054 1 0 0
68 23 1 0.5897 -11.185078480184323 -2.336428754824164 4.72584982528669 1 0 0
107 36 1 0.5897 -9.198197427757345 1.5055063601439933 3.310003488373406 1 0 0
84 28 1 0.5897 -7.925989093976881 -0.526962208266573 4.042833940605922 1 0 0
315 105 1 0.5897 -8.562891548071297 -5.360239581350284 5.2374057412660795 1 1 0
300 100 1 0.5897 -5.22405052298825 -7.6794644851038 4.393193833991069 1 1 0
259 87 2 -1.1794 -6.688629667627655 -5.286733978967014 0.4131251705376354 1 1 0
99 33 1 0.5897 -11.464218343006868 1.7504694924878166 5.206796444690159 1 0 0
301 101 2 -1.1794 -7.850420973016792 -2.2959589211536837 1.6503784968813606 1 1 0
260 87 1 0.5897 -6.891687069157614 -6.222096003565095 0.4241681770038163 1 1 0
69 23 1 0.5897 -10.782373219551692 -2.574441940420207 3.2861912955536754 1 0 0
272 91 1 0.5897 -9.368915052037334 -1.1843252614795379 1.4281575970373936 1 1 0
271 91 2 -1.1794 -10.178195025399045 -0.8047208713560998 1.0856694878016855 1 1 0
258 86 1 0.5897 -12.379531540852504 -2.658484730383006 1.4009069655419506 1 1 0
75 25 1 0.5897 -9.000545802318687 -3.465312653746702 4.274549681707979 1 0 0
52 18 2 -1.1794 -12.165643061437894 0.10543960046014611 2.800480381977957 1 0 0
53 18 1 0.5897 -12.233202966757045 1.0101221130503024 2.4951134003035134 1 0 0
54 18 1 0.5897 -11.457352976751604 -0.2717672507112727 2.2787142826755997 1 0 0
82 28 2 -1.1794 -8.767428818121765 -0.09766619918691788 4.197741078668333 1 0 0
83 28 1 0.5897 -9.403162386934186 -0.8131777507422147 4.210589062682368 1 0 0
98 33 1 0.5897 -11.915373628001348 0.48547539622473046 4.5081668886313 1 0 0
323 108 1 0.5897 -5.956332548151232 -5.637074397473132 3.4236907587843644 1 1 0
97 33 2 -1.1794 -11.718555237971664 0.8429278606278316 5.373948201531039 1 0 0
275 92 1 0.5897 -10.467549570258848 -8.011453758349939 3.3789683607463084 1 1 0
417 139 1 0.5897 -8.765605144670012 1.0805514867187132 5.585651763730337 1 0 0
313 105 2 -1.1794 -8.903852516189838 -6.2448521179407654 5.369568970534863 1 1 0
74 25 1 0.5897 -7.975728878496399 -3.181178266185656 5.3519929107687485 1 0 0
273 91 1 0.5897 -10.474442639903232 -1.4288383019410285 0.4232010683879553 1 1 0
420 140 1 0.5897 -9.109117811862864 -6.419471145498132 9.96904505455432 1 0 0
414 138 1 0.5897 -6.733121973843517 -4.913460702362422 7.598917568915238 1 0 0
413 138 1 0.5897 -7.6102414053426 -3.6797259885450995 7.5734062252224 1 0 0
412 138 2 -1.1794 -7.500166453567982 -4.521239342131869 8.016110727312377 1 0 0
350 117 1 0.5897 -7.114110259382109 -4.100367251079674 9.694683165429387 0 0 0
429 143 1 0.5897 -6.398553839542948 -7.165346427975767 8.726674458786453 1 0 0
428 143 1 0.5897 -6.501714181279731 -6.944128268169039 10.22060927007378 1 0 0
427 143 2 -1.1794 -5.920878230733766 -6.803389112717012 9.472980270069659 1 0 0
627 209 1 0.5897 -10.290379701643793 -6.747990745644179 6.378185654047621 1 1 0
618 206 1 0.5897 -7.9269767168331935 -7.294946613836572 6.640731646941608 1 1 0
419 140 1 0.5897 -8.885035486733132 -5.536717734847767 8.759831095948122 1 0 0
418 140 2 -1.1794 -9.575868718848868 -5.9497088984740145 9.277889531905748 1 0 0
351 117 1 0.5897 -7.032233709025032 -2.786853156333544 10.44286191332854 0 0 0
616 206 2 -1.1794 -7.506296080441903 -7.722907728692688 7.386440246746214 1 1 0
424 142 2 -1.1794 -7.846437845599006 -2.0606475463657947 6.722993022724761 1 0 0
402 134 1 0.5897 -10.716129946818866 -0.09170861664397378 6.614095952462721 1 0 0
401 134 1 0.5897 -10.994584000199007 -1.3190428398796934 7.455497225237021 1 0 0
522 174 1 0.5897 -9.702938152641112 2.2572620374756074 7.526811203860288 1 0 0
411 137 1 0.5897 -13.204791854411745 0.36278374026793436 6.35683885664055 1 0 0
527 176 1 0.5897 -11.712377553038777 1.7619521433048941 8.805886850467306 1 0 0
526 176 2 -1.1794 -12.422641864160333 1.2816373874017621 9.23139555152886 1 0 0
425 142 1 0.5897 -7.234981163089822 -1.3243500970759108 6.739320190262223 1 0 0
426 142 1 0.5897 -8.710202837905879 -1.6573115553380795 6.809923132355541 1 0 0
537 179 1 0.5897 -9.45884857041863 -0.11974283933841257 8.66448048042541 1 0 0
536 179 1 0.5897 -9.55464363699411 0.0773632940471014 10.162275498677808 1 0 0
535 179 2 -1.1794 -8.95071622428129 0.16318023363148093 9.42469184289038 1 0 0
528 176 1 0.5897 -11.983150616402522 0.7166411326090589 9.866903208633728 1 0 0
435 145 1 0.5897 -7.512570619938554 -0.7148750376105557 9.802019165044808 0 0 0
400 134 2 -1.1794 -10.289796161675902 -0.7301048988074257 7.185890017497459 1 0 0
349 117 2 -1.1794 -7.132012944122097 -3.729387722251305 10.576792675870408 0 0 0
626 209 1 0.5897 -10.491754197745914 -6.620458899732777 7.87304337986232 1 1 0
430 144 2 -1.1794 -12.296365124097674 -2.261687633563664 8.466015157275121 1 0 0
633 211 1 0.5897 -5.694571481416794 -5.959186790589802 5.737906264799688 1 1 0
410 137 1 0.5897 -13.427911051757816 0.5425255970447278 7.84321883358586 1 0 0
652 218 2 -1.1794 -5.897700587329505 -5.117555749123637 12.604623522450439 0 0 0
780 260 1 0.5897 -7.326269722737356 -3.9337583719868947 15.280664508013205 0 0 0
779 260 1 0.5897 -7.18912391193101 -2.9115462774057175 14.172507901734587 0 0 0
778 260 2 -1.1794 -7.841103988535391 -3.3946886106073118 14.680159270852917 0 0 0
768 256 1 0.5897 -9.462074764766008 -2.6823541882260926 14.953659693475194 0 0 0
654 218 1 0.5897 -6.385440302931748 -4.700479402743643 11.894427665291158 0 0 0
653 218 1 0.5897 -6.549313843623933 -5.64659582022025 13.064764256824033 0 0 0
888 296 1 0.5897 -10.551933448099865 3.0853352298352856 15.268158420278631 0 0 0
766 256 2 -1.1794 -10.307610191913104 -2.2343286159771782 14.97975662470625 0 0 0
740 247 1 0.5897 -10.847065132574903 -3.3959880779399905 12.19701164695172 1 0 0
729 243 1 0.5897 -7.976399560944484 -7.124035259390059 12.153681859152758 1 0 0
684 228 1 0.5897 -8.46015223118993 -6.442415849401927 14.26081051069058 0 0 0
682 228 2 -1.1794 -7.723379579833173 -6.8487817554714905 13.804449051224562 0 0 0
663 221 1 0.5897 -8.673384132388755 -4.08982970283008 11.651361067372994 0 0 0
662 221 1 0.5897 -8.825527440161382 -4.115831798329609 13.157218934559753 0 0 0
661 221 2 -1.1794 -9.283433916990813 -4.336913111459522 12.346297546617373 0 0 0
769 257 2 -1.1794 -12.323741985235191 2.6187213048170683 12.437353405874468 0 0 0
865 289 2 -1.1794 -12.739644743362692 1.2335032307469707 15.536670703322 0 0 0
770 257 1 0.5897 -11.948075428674546 2.8175596211351728 13.294942960771488 0 0 0
788 263 1 0.5897 -4.83721674693921 -4.5935832470822735 15.386972754981636 0 0 0
896 299 1 0.5897 -8.007184497562978 2.4754109393548234 15.635077944724083 0 0 0
757 253 2 -1.1794 -9.700323139126002 -5.980328725490706 15.578438285711785 0 0 0
857 286 1 0.5897 -13.192920426905765 0.9221654998596307 12.346033223832634 1 0 0
760 254 2 -1.1794 -8.619651158343384 1.63505401785892 12.794992648303591 0 0 0
762 254 1 0.5897 -9.049529103324595 2.022963670179566 12.032805738262505 0 0 0
792 264 1 0.5897 -11.536249600333731 0.4903157594343668 14.354970175732255 0 0 0
837 279 1 0.5897 -11.07838583415386 -0.08637350399334665 12.013040669156558 1 0 0
835 279 2 -1.1794 -11.078592547027796 -0.3871703935955093 11.104430378144187 1 0 0
791 264 1 0.5897 -10.730483326767837 -0.7654124779721165 14.098237269597076 0 0 0
790 264 2 -1.1794 -10.83783572087263 0.13874443150514892 13.802871343270885 0 0 0
761 254 1 0.5897 -9.325278166636382 1.1981106876125 13.271846641885405 0 0 0
767 256 1 0.5897 -10.95308750104325 -2.940876721885714 15.000405090368838 0 0 0
727 243 2 -1.1794 -8.030461463102299 -7.333270236881867 11.22129234026883 1 0 0
771 257 1 0.5897 -11.63566587936541 2.8519281174111786 11.814181709616967 0 0 0
1087 363 2 -1.1794 -6.399466636779767 -5.075361346867059 16.269474021729934 0 0 0
758 253 1 0.5897 -9.430877152933697 -5.36831623860039 16.263265889746982 0 0 0
836 279 1 0.5897 -11.276854999675502 -1.3219137213273875 11.161097941054376 1 0 0
1089 363 1 0.5897 -6.429491070738775 -4.710396673303068 17.15375705324945 0 0 0
1248 416 1 0.5897 -5.887195293206182 -1.4642697400467846 20.577730387952485 0 0 0
1152 384 1 0.5897 -6.973718289084166 -4.120263157264873 19.610606772842814 0 0 0
1225 409 2 -1.1794 -8.326896241732001 -3.4878308202820865 20.824205459056635 0 0 0
1227 409 1 0.5897 -9.160728137892525 -3.118708380195355 20.532986083087394 0 0 0
1109 370 1 0.5897 -8.71333575231553 -3.4380440702179786 17.63910671113093 0 0 0
1219 407 2 -1.1794 -10.565049467827574 -1.9823056143238809 20.25136015069029 0 0 0
1108 370 2 -1.1794 -9.333587663134406 -4.164784319213899 17.69754673935706 0 0 0
1142 381 1 0.5897 -8.899599619695595 -6.429335117189332 20.395095061281715 0 0 0
1151 384 1 0.5897 -6.1252776036333865 -5.352962328979 19.381205756184173 0 0 0
1150 384 2 -1.1794 -6.2751907596034995 -4.465691089238735 19.054793267619885 0 0 0
1088 363 1 0.5897 -6.694364705104331 -5.980107393199704 16.373075436866195 0 0 0
1196 399 1 0.5897 -9.741927087153233 1.2889120775127 16.603587194590723 0 0 0
1129 377 2 -1.1794 -7.717932989390073 -1.9224849754766549 17.79620114639527 0 0 0
1249 417 2 -1.1794 -11.650466667627377 1.0634722299397517 21.565577828867553 0 0 0
1217 406 1 0.5897 -11.849946347863465 3.5459229810812563 17.91151826660827 0 0 0
1130 377 1 0.5897 -7.294066759149477 -1.6802869862707661 18.619495363608955 0 0 0
1143 381 1 0.5897 -8.696183305236474 -5.180834546743309 21.22674521271491 0 0 0
1131 377 1 0.5897 -7.052694368866837 -1.7607185472215416 17.127284018073915 0 0 0
1229 410 1 0.5897 -7.910575290261113 3.7400712752057697 18.47611096515046 0 0 0
1121 374 1 0.5897 -4.938138351969467 -3.398884555680673 18.522945466702787 0 0 0
1097 366 1 0.5897 -9.337144658859952 -5.845096395189515 18.282539123701454 0 0 0
1251 417 1 0.5897 -11.609737027937198 2.018722284054599 21.519720335259137 0 0 0
1205 402 1 0.5897 -12.10726910859159 1.2141243341591927 18.59777595416346 0 0 0
1226 409 1 0.5897 -7.962249899195177 -2.8243744333477894 21.40990270222462 0 0 0
1246 416 2 -1.1794 -6.334392387100667 -0.8949336319191321 19.951537032929814 0 0 0
1100 367 1 0.5897 -9.110017392941586 -0.730180482752111 17.4811864824555 0 0 0
1009 337 2 -1.1794 -11.260054850428396 3.6656865876204616 20.78054870455926 0 -1 0
1260 420 1 0.5897 -9.968359801102526 3.0013224544151047 19.715187646563777 0 0 0
1259 420 1 0.5897 -9.095409678960612 1.786798770212128 19.480840502936466 0 0 0
1258 420 2 -1.1794 -9.232137681090778 2.6883342038065816 19.189619065484493 0 0 0
1250 417 1 0.5897 -11.615771566087584 0.7776997008701905 20.652790072709443 0 0 0
1236 412 1 0.5897 -8.019419471825483 -0.20172489663294968 20.20417723032658 0 0 0
1235 412 1 0.5897 -9.492955126412475 -0.5430286194478899 20.27000186779265 0 0 0
1234 412 2 -1.1794 -8.890211596637155 0.19509896888889777 20.179775055114604 0 0 0
1197 399 1 0.5897 -9.410728138714378 2.5124483899524392 17.43126590503489 0 0 0
1216 406 2 -1.1794 -12.434903682493253 2.7932369002628867 17.82456348495559 0 0 0
1206 402 1 0.5897 -11.230900851707661 0.012519384955391288 18.314680930153393 0 0 0
1099 367 2 -1.1794 -9.968858439611262 -0.45096850098687646 17.16373756797018 0 0 0
1011 337 1 0.5897 -12.084520780318481 4.047012084764377 20.478573668319527 0 -1 0
1195 399 2 -1.1794 -9.545475914916553 2.2227826318012607 16.52904179619575 0 0 0
1204 402 2 -1.1794 -11.86384839955614 0.3560302847470602 18.945189655660343 0 0 0
1110 370 1 0.5897 -10.193972460053281 -3.745431787392282 17.712305460847446 0 0 0
1218 406 1 0.5897 -13.314998443755364 3.1687305787870343 17.852447718771366 0 0 0
1141 381 2 -1.1794 -8.839372762747177 -6.124415447947875 21.30033507709674 0 0 0
866 289 1 0.5897 -12.549348154736125 1.780499716513802 16.29870897314254 0 0 0
1010 337 1 0.5897 -11.03649752818361 4.167379890695726 21.56441287190053 0 -1 0
165 55 1 0.5897 -5.936754890811667 -5.828172126365946 21.59551554360994 1 1 -1
1101 367 1 0.5897 -10.12572940677871 -0.9912076203943716 16.38937254000942 0 0 0
40 14 2 -1.1794 -14.769758704593627 3.702218098929661 1.909498528271595 1 0 0
177 59 1 0.5897 -14.119736898892743 4.569993851149839 3.3285319558078768 1 0 0
42 14 1 0.5897 -15.244715264885524 4.21548216244422 1.2558818099496796 1 0 0
55 19 2 -1.1794 -12.913743027892867 6.2262007918884965 1.0758894070797012 1 0 0
56 19 1 0.5897 -12.120260120522781 5.845518739744508 1.4524500821357156 1 0 0
66 22 1 0.5897 -13.244164487497985 2.953362109385914 1.6652511673925035 1 0 0
65 22 1 0.5897 -11.760587523172498 3.2148981447667992 1.51454025326706 1 0 0
64 22 2 -1.1794 -12.402974171367902 2.5071816148044483 1.5670248487320648 1 0 0
191 64 1 0.5897 -12.438868894555176 6.1950950369491125 4.056884749904025 1 0 0
162 54 1 0.5897 -14.307543861436063 6.610830314334514 2.1576561535315735 1 0 0
183 61 1 0.5897 -12.208833965433502 3.6522419260035512 4.413027810682431 1 0 0
181 61 2 -1.1794 -11.341751434828609 3.308170922301203 4.627812112614483 1 0 0
176 59 1 0.5897 -14.366873873972926 4.551738975082593 4.821856842905161 1 0 0
175 59 2 -1.1794 -13.694411439509702 4.7434818751380075 4.168253902485377 1 0 0
108 36 1 0.5897 -9.99001733478021 2.7854443392679276 3.4737704526168236 1 0 0
190 64 2 -1.1794 -11.845861338015956 6.946414096780595 4.06846884377988 1 0 0
45 15 1 0.5897 -9.728523249304828 2.135296092638354 1.1714236103872455 1 0 0
85 29 2 -1.1794 -10.735547356539772 4.7711057212022006 1.6766438959296093 1 0 0
152 51 1 0.5897 -12.610796128981029 7.758431949780315 0.5174119046131023 1 0 0
193 65 2 -1.1794 -13.854603690143552 11.892410203919072 1.6118533712973129 1 0 0
153 51 1 0.5897 -12.447344702098318 9.118223563404873 1.162457584685137 1 0 0
43 15 2 -1.1794 -9.696242183727579 1.8507006553247667 0.25817835017072654 1 0 0
206 69 1 0.5897 -14.743310875017942 7.441510150739932 4.335941540493683 1 0 0
215 72 1 0.5897 -12.20172458200004 8.591978543298376 3.414443957041723 1 0 0
106 36 2 -1.1794 -9.300314300418725 2.384443344232503 2.944895912104041 1 0 0
174 58 1 0.5897 -16.29039924701039 10.000786234301865 1.8089918846614637 1 0 0
173 58 1 0.5897 -14.837819827352591 10.310764131415075 1.5157198309230284 1 0 0
172 58 2 -1.1794 -15.424856829556 9.594964548714897 1.759178225267062 1 0 0
161 54 1 0.5897 -15.137900063596652 7.861569851716643 2.353111337691557 1 0 0
285 95 1 0.5897 -17.085327149565572 11.586823651788999 3.187021833119676 1 0 0
148 50 2 -1.1794 -17.859377116093114 10.892513334946257 1.786965478202171 1 0 0
150 50 1 0.5897 -18.314671745641064 11.490561014765975 1.1942594095695864 1 0 0
289 97 2 -1.1794 -14.401185725948093 10.445720332923296 4.719052800521729 1 0 0
291 97 1 0.5897 -15.120946056254859 10.852197598715604 4.236329903414417 1 0 0
284 95 1 0.5897 -17.32659235461862 11.644700417064795 4.680295039718729 1 0 0
216 72 1 0.5897 -13.128742121516956 9.788354814821476 3.452019677187006 1 0 0
283 95 2 -1.1794 -16.693650551837024 11.89076724147918 4.005762894069694 1 0 0
160 54 2 -1.1794 -15.007883682339383 6.977825168780937 2.697139908587847 1 0 0
207 69 1 0.5897 -14.578868953557112 8.74211344721858 5.09303507424961 1 0 0
167 56 1 0.5897 -16.457303106512484 6.093784254223969 3.5562657447066073 1 0 0
151 51 2 -1.1794 -12.498321150511448 8.6861030918822 0.30996069212647664 1 0 0
214 72 2 -1.1794 -12.399937403586293 9.410619284937445 2.9596967140313017 1 0 0
57 19 1 0.5897 -13.198399650199587 5.588646660776087 0.4211717101225884 1 0 0
205 69 2 -1.1794 -14.623400572926235 7.794084361227801 5.217637276853502 1 0 0
182 61 1 0.5897 -11.027744565561258 3.8726904537957 5.334116556772483 1 0 0
194 65 1 0.5897 -13.489603295546221 12.170883706654324 2.451704180308057 1 0 0
192 64 1 0.5897 -10.974216656611816 6.565913673948488 3.9599516523607297 1 0 0
41 14 1 0.5897 -15.454829514252111 3.3132698382337527 2.4531791691377434 1 0 0
290 97 1 0.5897 -14.194020817721984 11.071581249117992 5.412967203813847 1 0 0
525 175 1 0.5897 -11.962808715561753 8.060617359699934 5.579842871970853 1 0 0
1118 373 1 0.5897 -15.635490310840819 8.58367879061179 0.33414593576488894 0 -1 1
532 178 2 -1.1794 -10.779153465661242 5.063167416819621 6.691541956535276 1 0 0
521 174 1 0.5897 -10.49212059401539 3.533326810959819 7.729014848194721 1 0 0
534 178 1 0.5897 -11.6189108731176 5.516355639661153 6.767429383546616 1 0 0
645 215 1 0.5897 -12.486096120858027 6.707389751877491 8.602876730738664 1 0 0
644 215 1 0.5897 -12.66177041342834 6.924693586002222 10.090605218910833 1 0 0
643 215 2 -1.1794 -12.006319139960961 6.953541352861523 9.393685286371962 1 0 0
510 170 1 0.5897 -13.819959135955191 6.680909922854992 6.52647957183825 1 0 0
508 170 2 -1.1794 -13.326043532090967 6.1543760911537255 7.155010850099758 1 0 0
543 181 1 0.5897 -10.496263665146046 6.106607463740133 9.807386879733174 0 0 0
509 170 1 0.5897 -13.980061501973138 5.579851890376801 7.553033465020074 1 0 0
636 212 1 0.5897 -15.181428192492554 7.439609168644372 9.787892793795436 1 0 0
518 173 1 0.5897 -16.477402893562864 7.559512894495315 7.811958135617891 1 0 0
327 109 1 0.5897 -13.498680321733492 13.282266354916553 9.85724324158104 0 -1 0
520 174 2 -1.1794 -10.366299206323925 2.6558065600169165 8.090111816849717 1 0 0
519 173 1 0.5897 -16.113169115219684 7.361136265937061 6.356138102146008 1 0 0
538 180 2 -1.1794 -15.273836608384645 4.792491068629181 8.384115069087544 1 0 0
458 153 1 0.5897 -10.192249138086035 2.8388100419856084 9.959951426200465 0 0 0
634 212 2 -1.1794 -15.56302588768327 8.093338204059828 9.201999416414838 1 0 0
640 214 2 -1.1794 -14.094119286592587 12.144922295261898 6.946601070679549 1 0 0
630 210 1 0.5897 -13.032985867830263 9.307167503319237 7.587767921974917 1 0 0
629 210 1 0.5897 -13.802520314332295 10.596466260101652 7.781544416453894 1 0 0
628 210 2 -1.1794 -13.643482681591957 9.742163375325442 8.18295343086843 1 0 0
566 189 1 0.5897 -13.276769891716679 10.120576369680498 9.936562862117064 0 0 0
635 212 1 0.5897 -14.810217074564264 8.567137364112599 8.848380798439118 1 0 0
642 214 1 0.5897 -14.9292361226614 12.612628849695975 6.959606320028376 1 0 0
617 206 1 0.5897 -17.156258102411094 13.017192086753157 7.805751691286872 1 0 0
459 153 1 0.5897 -9.889490470263723 4.029740440358564 10.844137064988804 0 0 0
641 214 1 0.5897 -13.436384578872868 12.82388451134277 7.097191880674889 1 0 0
646 216 2 -1.1794 -18.312130046244746 11.976536424777985 8.449268447721689 1 0 0
457 153 2 -1.1794 -10.049729224449507 3.086485537402993 10.873414587496182 0 0 0
585 195 1 0.5897 -18.451878220268142 11.715909554123394 6.7011036121554275 1 0 0
325 109 2 -1.1794 -12.76620738039 12.908853778276272 10.347500652988593 0 -1 0
523 175 2 -1.1794 -11.693582162071161 8.592313677223837 6.328803935340444 1 0 0
565 189 2 -1.1794 -13.211140281469863 10.211222230505731 10.8871018041021 0 0 0
874 292 2 -1.1794 -13.449145989592381 4.820303662946618 14.973223490687115 0 0 0
887 296 1 0.5897 -10.33778215481311 4.124337406531689 14.188175842070798 0 0 0
876 292 1 0.5897 -12.56401483548251 4.473020545825797 14.862465979320756 0 0 0
945 315 1 0.5897 -14.131527939075117 6.868673938229746 12.023967622847296 1 0 0
848 283 1 0.5897 -13.676393086476908 3.526889815682404 11.981017676652874 1 0 0
900 300 1 0.5897 -14.773668460535012 7.565601773999914 14.371904196511702 0 0 0
899 300 1 0.5897 -13.817997756530925 6.4126949611486666 14.149365216570057 0 0 0
898 300 2 -1.1794 -14.04766963173941 7.2805106598479 13.81707246985408 0 0 0
728 243 1 0.5897 -17.237962926185226 12.982636121895032 11.196665372963947 1 -1 0
680 227 1 0.5897 -11.190518667060438 9.570966962778234 15.499077821329525 0 -1 0
659 220 1 0.5897 -17.081444148069842 10.994907755915248 14.911744254487596 0 -1 0
670 224 2 -1.1794 -13.971718091992 10.558806151255288 14.48069550602838 0 -1 0
868 290 2 -1.1794 -11.844701528488159 8.478746060219839 12.696805385420193 0 0 0
660 220 1 0.5897 -15.592783279230865 11.258888965328717 14.83220421939637 0 -1 0
869 290 1 0.5897 -12.589989648572503 8.075353461649785 13.141839140323492 0 0 0
879 293 1 0.5897 -14.836225528246224 9.752068796071464 11.64571873177018 0 0 0
877 293 2 -1.1794 -15.515371526473974 9.589016795309464 12.300192262488348 0 0 0
878 293 1 0.5897 -15.103601273268929 9.81427082166225 13.134361857968353 0 0 0
956 319 1 0.5897 -16.95939410771878 10.801544355081719 12.150554666940504 1 0 0
658 220 2 -1.1794 -16.437828776069374 11.703364057914113 14.90054646953832 0 -1 0
683 228 1 0.5897 -16.595006833288828 13.518395988812122 14.19737113855516 0 -1 0
870 290 1 0.5897 -12.221262800118549 8.879176245266786 11.913201142427573 0 0 0
875 292 1 0.5897 -13.999451219614741 4.0446463537466055 15.081807614540452 0 0 0
672 224 1 0.5897 -13.612660501352238 10.003970246361552 15.173118247069088 0 -1 0
671 224 1 0.5897 -13.226826589123192 11.07924862225685 14.179799765552252 0 -1 0
886 296 2 -1.1794 -11.02441924401281 3.6453932545907506 14.652250778381703 0 0 0
650 217 1 0.5897 -15.800360686903769 8.641911413820518 16.195046375012062 0 -1 0
943 315 2 -1.1794 -14.17377994184881 6.56428893715208 11.117532015098613 1 0 0
944 315 1 0.5897 -14.24485145161027 5.612252239656806 11.187113327136773 1 0 0
847 283 2 -1.1794 -14.471408366307369 3.9429546031377107 11.647597253668538 1 0 0
681 227 1 0.5897 -10.942780795883033 9.254038600298403 14.03976142970866 0 -1 0
567 189 1 0.5897 -13.15128936721813 11.155103154990735 11.034570328893464 0 0 0
1126 376 2 -1.1794 -14.803159621093767 14.211132962153519 20.12600897444939 0 -1 0
1018 340 2 -1.1794 -12.030391175329157 7.321414908112603 20.431513073833408 0 -1 0
1019 340 1 0.5897 -12.654923737214052 6.6247929581871965 20.229145664974602 0 -1 0
1020 340 1 0.5897 -11.174903018152063 6.892943697077422 20.401734683190064 0 -1 0
1030 344 2 -1.1794 -9.54396185222161 6.047746650860221 19.871983624573375 0 -1 0
1043 348 1 0.5897 -12.231323885144192 8.841844774511278 19.445668531013432 0 -1 0
1032 344 1 0.5897 -9.114462484057167 5.491498316746181 20.521869992964923 0 -1 0
1239 413 1 0.5897 -10.151366969851047 5.156906078937771 17.086756882370047 0 0 0
1237 413 2 -1.1794 -10.841836106622294 5.060718757141332 17.742626183243623 0 0 0
1003 335 2 -1.1794 -13.543921576043271 5.012939924336793 20.131382254488543 0 -1 0
1208 403 1 0.5897 -12.302377797655435 6.109003285188068 17.473142744710735 0 0 0
1207 403 2 -1.1794 -13.107011434045944 6.498023453902071 17.13027745797683 0 0 0
1238 413 1 0.5897 -10.426755196570204 5.314654771852819 18.566858834525036 0 0 0
990 330 1 0.5897 -14.503944214967909 6.9935180511444255 18.339881841467687 0 -1 0
980 327 1 0.5897 -12.88312240857563 8.224173000449364 16.55550246044738 0 -1 0
979 327 2 -1.1794 -12.721210396927788 9.16199771411018 16.45287506916989 0 -1 0
981 327 1 0.5897 -12.614239651158371 9.486334429478726 17.34698589308701 0 -1 0
989 330 1 0.5897 -15.213826293133724 8.321173936626886 18.49935607094458 0 -1 0
1013 338 1 0.5897 -11.012152726947388 10.623950280058638 18.321291285728563 0 -1 0
1035 345 1 0.5897 -14.384656879780433 8.971436475023813 21.579193223241 0 -1 0
1034 345 1 0.5897 -14.7947771551693 7.889045866173332 20.603514543836205 0 -1 0
1000 334 2 -1.1794 -15.55627072883616 9.841007986577457 17.567723447776686 0 -1 0
992 331 1 0.5897 -15.417576373762738 13.133042718110142 17.48885162115819 0 -1 0
1023 341 1 0.5897 -13.199632670468846 12.362329466967813 17.16018487068326 0 -1 0
1111 371 2 -1.1794 -16.484301113340194 12.101614781928392 20.113164392633102 0 -1 0
1140 380 1 0.5897 -11.970520528342854 12.402225154505631 20.598721229256867 0 -1 0
1138 380 2 -1.1794 -12.443109799906235 13.008870872858845 20.028717578186658 0 -1 0
1128 376 1 0.5897 -13.939797218220765 13.79866626507315 20.09747527920235 0 -1 0
1022 341 1 0.5897 -13.478169973143867 12.201402825495785 18.639356545377602 0 -1 0
1127 376 1 0.5897 -15.413406354170867 13.48280070294883 20.2417897994373 0 -1 0
1033 345 2 -1.1794 -14.686989877193646 8.06414769272038 21.538277604460376 0 -1 0
1119 373 1 0.5897 -15.086612844867563 11.05452569992971 20.6724370371533 0 -1 0
1117 373 2 -1.1794 -14.253868339798535 10.707075423100084 20.992039956172654 0 -1 0
1044 348 1 0.5897 -13.043776688848286 10.096196108384534 19.687624224276917 0 -1 0
1042 348 2 -1.1794 -12.344979578395147 9.741189503269785 19.138214819317085 0 -1 0
1021 341 2 -1.1794 -13.87566698497961 12.08166317788608 17.77692629388787 0 -1 0
991 331 2 -1.1794 -16.170272950957852 13.539753632834875 17.059487237226186 0 -1 0
1001 334 1 0.5897 -14.948127620538306 10.57963594042423 17.597169266097637 0 -1 0
1098 366 1 0.5897 -17.488877610433853 14.115024187839422 18.11113833989112 0 -1 0
1002 334 1 0.5897 -16.42327315791677 10.241086898634473 17.6353393986725 0 -1 0
993 331 1 0.5897 -16.397256426137822 12.936988924409087 16.351473527748816 0 -1 0
1031 344 1 0.5897 -8.831066502015883 6.359957722509561 19.3147641905301 0 -1 0
1209 403 1 0.5897 -13.303770426548006 5.988675074621323 16.344172923792456 0 0 0
3 1 1 0.5897 -1.2044232272040318 -3.5682205947420798 4.451423442704576 0 0 0
25 9 2 -1.1794 -3.84612190613874 0.8048889818813301 5.238594598589951 0 0 0
306 102 1 0.5897 -0.9151348555500576 -7.387229004328516 2.191970287873343 1 1 0
242 81 1 0.5897 -1.2768489891346135 -6.82568554940554 4.556126796304667 0 1 0
310 104 2 -1.1794 -3.6613422210153352 -8.423092186038708 3.959926436883848 1 1 0
304 102 2 -1.1794 -1.541299469956284 -7.01768368586025 2.814485155942999 1 1 0
293 98 1 0.5897 -4.7368403919001 -3.6414801136509274 2.289226608478317 1 1 0
305 102 1 0.5897 -1.8267054249737615 -6.198329197746846 2.4101650967926993 1 1 0
318 106 1 0.5897 -2.715389670584119 -4.057110684994884 1.453636123467694 1 1 0
311 104 1 0.5897 -2.9320502937799464 -7.958913846647572 3.5489366001222735 1 1 0
316 106 2 -1.1794 -1.8989396822781401 -4.55550415191204 1.4903153698212743 1 1 0
243 81 1 0.5897 -0.8426222693141625 -5.648725128433073 5.403474967946188 0 1 0
27 9 1 0.5897 -3.8311306821619375 1.7503260951084894 5.089620925645062 0 0 0
294 98 1 0.5897 -4.636306273418866 -2.6426570260896556 1.1561020023247965 1 1 0
303 101 1 0.5897 -7.2301899323724035 -2.1144296603425534 0.9443290787468421 1 1 0
104 35 1 0.5897 -3.329283963403806 -2.437781692509784 4.58473747110971 1 0 0
292 98 2 -1.1794 -4.103658145844678 -3.1341526351166618 1.7813797525604185 1 1 0
88 30 2 -1.1794 -4.27797434726809 -0.055089352012409165 2.6698454198173556 1 0 0
26 9 1 0.5897 -4.000321294713271 0.4278699999357922 4.372474903066155 0 0 0
89 30 1 0.5897 -4.4259525209657875 0.8484980368592545 2.390730016380683 1 0 0
96 32 1 0.5897 -6.011254696653145 -1.876251615817461 4.463397064134189 1 0 0
105 35 1 0.5897 -3.0061089893642867 -2.7156128455399537 3.1322254645597236 1 0 0
95 32 1 0.5897 -5.696107483906034 -0.8584681278785986 3.3879724035191576 1 0 0
90 30 1 0.5897 -3.6089509126674137 -0.3850761819400397 2.070099891067132 1 0 0
103 35 2 -1.1794 -2.6015047884807876 -2.4688678671720137 3.9638172778289062 1 0 0
94 32 2 -1.1794 -6.426362685983541 -1.2995053307925977 3.8220791619475425 1 0 0
241 81 2 -1.1794 -1.0562116905778929 -6.5804068318418985 5.454592288334673 0 1 0
317 106 1 0.5897 -1.210566138902296 -3.8938951935712423 1.4218011359858322 1 1 0
201 67 1 0.5897 0.242852928871077 -8.696710133293518 0.35899241641678453 1 1 0
302 101 1 0.5897 -7.358053680025753 -2.1224631450137466 2.4526441267966055 1 1 0
199 67 2 -1.1794 0.4443491218244411 -8.044912115130062 1.0303394014181158 1 1 0
322 108 2 -1.1794 -6.031888889873349 -4.764445633643091 3.0376006980539305 1 1 0
356 119 1 0.5897 0.984985006086827 -7.209547094226094 10.06699128432784 0 0 0
405 135 1 0.5897 -4.817965156762734 -2.4388062274607085 6.619198826427912 1 0 0
360 120 1 0.5897 -5.499236234454694 -1.5509619963008987 8.810273957376753 0 0 0
553 185 2 -1.1794 -3.2218405745181515 -6.876824625760809 7.039599953297773 0 1 0
346 116 2 -1.1794 -1.7597864808488666 -5.9289032942454485 9.227416378498777 0 0 0
546 182 1 0.5897 -0.17973212898071722 -7.510936947873901 6.6900731798274755 0 1 0
347 116 1 0.5897 -1.020232204404266 -5.546716413093348 8.754958650153986 0 0 0
336 112 1 0.5897 -3.429288270578514 -4.889646454917675 9.360851101490745 0 0 0
334 112 2 -1.1794 -4.314722205823521 -4.526035133784701 9.349097260767774 0 0 0
339 113 1 0.5897 -5.472414811839439 0.3683796692973793 6.13633780697391 0 0 0
359 120 1 0.5897 -4.808286543531129 -2.8911325140486417 8.674007853168339 0 0 0