LAMMPS data file via write_data, version 30 Jul 2021, timestep = 12500000

1920 atoms
2 atom types
1280 bonds
1 bond types
640 angles
1 angle types

-0.03995473326109611 24.76995573326257 xlo xhi
-0.10046400369377828 24.830465003685795 ylo yhi
-0.06856736064788826 22.878567360655115 zlo zhi

Masses

1 1.008
2 15.999

Pair Coeffs # lj/cut/tip4p/long/omp

1 0 0
2 0.21084 3.1668

Bond Coeffs # harmonic/omp

1 450 0.9572

Angle Coeffs # harmonic/omp

1 55 104.52

Atoms # full

1 1 2 -1.1794 4.404283765390518 1.4189172856839938 4.082334918267669 0 0 0
2 1 1 0.5897 4.6131752607954475 2.157480414388444 4.654248956557593 0 0 0
3 1 1 0.5897 5.130300340494665 1.3848258825085278 3.459496333179962 0 0 0
4 2 2 -1.1794 2.773549126020766 1.5288330893745405 1.8156118501331822 0 0 0
5 2 1 0.5897 3.018969873075817 1.4790867704592394 2.7394752491596126 0 0 0
6 2 1 0.5897 1.8165247800396567 1.5435849763141594 1.8220116346322248 0 0 0
10 4 2 -1.1794 3.1604725369603885 4.622184811330636 3.447118355569804 0 0 0
11 4 1 0.5897 2.6432490370411785 5.193022618501154 4.015284651124074 0 0 0
12 4 1 0.5897 2.8031448430687536 4.767830560069008 2.571146833146997 0 0 0
13 5 2 -1.1794 1.4695943283306556 2.8931408447019358 4.725199386625224 0 0 0
14 5 1 0.5897 2.228406802688208 3.16482516373325 4.2088929727142865 0 0 0
15 5 1 0.5897 1.6063629699298345 1.9584040181046594 4.879246686223882 0 0 0
22 8 2 -1.1794 1.546306520265893 4.580379050066928 1.215556505824936 0 0 0
24 8 1 0.5897 1.3171435043903699 5.288873016028294 0.614127813701238 0 0 0
23 8 1 0.5897 0.7534968992340558 4.438821363336441 1.7328506246859767 0 0 0
20 7 1 0.5897 3.950693594977838 2.935796662513514 0.94254256227571 0 0 0
9 3 1 0.5897 5.056898569172845 4.730064126195385 3.4472228938620137 0 0 0
21 7 1 0.5897 5.443564455757854 3.058405290020986 1.1616540374652382 0 0 0
19 7 2 -1.1794 4.7142908119023 3.4504926919137806 0.6814393280941377 0 0 0
27 9 1 0.5897 4.657538726072695 5.244904639895886 0.5037473548295833 0 0 0
7 3 2 -1.1794 6.0087351193131395 4.635435210824907 3.481980139585892 0 0 0
28 10 2 -1.1794 1.5691696660066734 0.08260292558869162 4.989147904473505 0 0 0
16 6 2 -1.1794 -0.030244401334392143 1.4140767693400196 1.937121822572267 0 0 0
47 16 1 0.5897 6.02357028055181 0.9703674337329455 1.5969647841758867 0 0 0
387 129 1 0.5897 4.011036330938716 0.22626473717235673 0.9898290116782074 0 1 0
867 289 1 0.5897 4.403737221251851 0.07305586712883316 5.64198106637492 0 1 0
99 33 1 0.5897 0.19415003991306296 3.7943055282840095 3.7731895370312984 1 0 0
1455 485 1 0.5897 1.6452628290073659 3.419962409739452 -0.049539004099955264 0 0 1
180 60 1 0.5897 8.250841102922914 5.838051850337143 4.662260109628286 0 0 0
8 3 1 0.5897 6.305046705462862 5.380546776585548 4.004662239113761 0 0 0
55 19 2 -1.1794 10.92909965950287 5.983149696807956 0.5317345535586081 0 0 0
58 20 2 -1.1794 7.462048604035271 0.17159897371931387 4.726830323131496 0 0 0
46 16 2 -1.1794 6.431242680797762 1.7381753584857678 1.9975328202962301 0 0 0
31 11 2 -1.1794 10.659884247283928 1.5761474384164982 4.1139754890916755 0 0 0
32 11 1 0.5897 10.706419212727496 2.4165758724032145 4.569719890885974 0 0 0
34 12 2 -1.1794 9.197023552673118 1.5351394705008017 1.8887191498009515 0 0 0
36 12 1 0.5897 9.566981916533827 2.237577057388717 1.3540245459668234 0 0 0
39 13 1 0.5897 11.129666107409975 4.962979422252856 3.428654866954665 0 0 0
40 14 2 -1.1794 9.371957424908164 4.741679577127597 3.648141880316123 0 0 0
41 14 1 0.5897 9.106518103260463 4.773794442833251 2.7290440421101216 0 0 0
42 14 1 0.5897 8.817349743075807 4.063999785967761 4.034586257261629 0 0 0
43 15 2 -1.1794 7.707603169322782 2.8162559156257814 4.655291251963689 0 0 0
45 15 1 0.5897 6.968841324341456 3.2207585547375226 4.2005541244918945 0 0 0
48 16 1 0.5897 7.370320789746414 1.5559880020089327 1.9644377664675354 0 0 0
49 17 2 -1.1794 10.861267025440508 3.280843376573482 0.5307804466113831 0 0 0
52 18 2 -1.1794 7.806043442948845 4.919264511342852 1.457461650814462 0 0 0
53 18 1 0.5897 7.85166348106525 4.127861821200226 0.9209987819915059 0 0 0
54 18 1 0.5897 7.1204918701474424 4.734818691004956 2.099481973706715 0 0 0
35 12 1 0.5897 9.55067352954642 1.6887189596365522 2.7648291272041567 0 0 0
33 11 1 0.5897 10.670272880658814 0.9229307859933593 4.813553865903375 0 0 0
59 20 1 0.5897 7.416121863554353 1.1241635086109703 4.8085873492946565 0 0 0
50 17 1 0.5897 11.37797594538154 2.6894320231105078 1.0779846536535402 0 0 0
56 19 1 0.5897 10.885869192466792 5.032499806698499 0.6345155336015251 0 0 0
78 26 1 0.5897 11.923129820789073 1.7064134544141567 2.823639254230987 0 0 0
37 13 2 -1.1794 12.02043033308816 4.670871372842275 3.2353372485624154 0 0 0
416 139 1 0.5897 10.267307691123666 0.14939376918061892 1.2673594609259946 0 1 0
77 26 1 0.5897 12.275600251341023 0.9130372626317067 1.5834090381397026 0 0 0
60 20 1 0.5897 8.337113305455304 0.0026098076806125164 4.377729499923922 0 0 0
44 15 1 0.5897 7.610347631631097 3.0944868951301996 5.5659817688805 0 0 0
496 166 2 -1.1794 -0.02126543818410198 1.7017093312082785 7.902511466796196 0 0 0
629 210 1 0.5897 1.714746756617114 6.051009126017091 9.793755540074986 0 0 0
578 193 1 0.5897 0.05215808447023465 3.5597568231237386 9.744557614389159 1 0 0
508 170 2 -1.1794 1.1646135541365765 0.19401346725809376 10.524968267524516 0 0 0
494 165 1 0.5897 1.3872360339598662 2.036700258565308 10.660123866784335 0 0 0
504 168 1 0.5897 1.6130135750192995 4.062227622311056 6.710775928612254 0 0 0
501 167 1 0.5897 4.436235870554497 3.9502619630978124 6.263567456579196 0 0 0
499 167 2 -1.1794 4.6187334548180665 3.012368984346903 6.320306476876448 0 0 0
483 161 1 0.5897 4.522351124195207 1.9298702839389374 10.675621057247158 0 0 0
492 164 1 0.5897 2.8516492110844833 4.021591484037851 9.6407742919896 0 0 0
493 165 2 -1.1794 1.5667967930139808 2.9704207247356518 10.55015740436208 0 0 0
491 164 1 0.5897 2.690950392771954 4.934263583372999 8.443668448759613 0 0 0
485 162 1 0.5897 2.9929959324344555 1.7397548104177043 8.536362811392381 0 0 0
481 161 2 -1.1794 4.311612080060402 1.5088994960297657 9.842199281547 0 0 0
482 161 1 0.5897 5.126767873360256 1.5456714234407798 9.341853270886443 0 0 0
502 168 2 -1.1794 1.4058661281679554 4.828441125948974 7.245750751016625 0 0 0
500 167 1 0.5897 3.786148395580744 2.6214714199984166 6.585198148668133 0 0 0
490 164 2 -1.1794 3.2461218817413506 4.778579876746223 9.207706536215753 0 0 0
503 168 1 0.5897 0.7335637838943979 4.521726298968152 7.854129949165693 0 0 0
498 166 1 0.5897 0.9151013552289925 1.5179182693733406 7.827672774324425 0 0 0
484 162 2 -1.1794 2.6083303802950955 1.5832901130342434 7.6739407201453 0 0 0
489 163 1 0.5897 5.099787289701466 4.793794030371538 9.141499079201914 0 0 0
486 162 1 0.5897 3.119373455832063 0.8599718466451415 7.310859235162609 0 0 0
528 176 1 0.5897 6.00896624247006 1.9584235124106102 7.695514423165272 0 0 0
487 163 2 -1.1794 6.05692266048522 4.79965958056812 9.145016816151053 0 0 0
527 176 1 0.5897 5.503587527167692 0.5319793892988885 7.655777402589761 0 0 0
1347 449 1 0.5897 4.314145279120466 0.10867370887847921 11.135235592328694 0 1 0
150 50 1 0.5897 1.3467110256056678 5.8903397712616625 5.778640263154191 0 0 0
505 169 2 -1.1794 4.242625411056341 5.764131420944101 6.235596771107823 0 0 0
518 173 1 0.5897 12.097101354148078 3.6770269123569053 9.690182045785022 0 0 0
531 177 1 0.5897 10.531005472043029 4.246638620455231 6.444002357240299 0 0 0
512 171 1 0.5897 10.007625693395793 1.3168228559885033 9.290994294373686 0 0 0
1377 459 1 0.5897 10.65298690829075 0.10412432948397096 11.06020973159891 0 1 0
520 174 2 -1.1794 9.266502631963634 4.432798338236543 9.113050637271616 0 0 0
896 299 1 0.5897 11.478437322869857 -0.02359245788235033 6.55492368504034 0 1 0
522 174 1 0.5897 8.777308979937377 4.376506984837411 8.292237479993952 0 0 0
529 177 2 -1.1794 10.626157838256422 3.30338233064851 6.3121490433279295 0 0 0
516 172 1 0.5897 9.348160452564839 0.8358867068458886 7.172648971380011 0 0 0
538 180 2 -1.1794 7.579293346036183 -0.009935173773028994 10.606945517272283 0 0 0
511 171 2 -1.1794 10.792093340004923 1.359989009869662 9.837736778980998 0 0 0
519 173 1 0.5897 11.049757254967819 4.550766713971378 9.033356252573412 0 0 0
488 163 1 0.5897 6.299337140366472 4.064885486831497 9.708516513681593 0 0 0
526 176 2 -1.1794 6.187554046882703 1.0823294797064749 8.037193535240519 0 0 0
513 171 1 0.5897 11.510021437804443 1.4875043326556785 9.217646420745462 0 0 0
515 172 1 0.5897 7.997084815204712 1.1381079944558137 7.785019103977302 0 0 0
530 177 1 0.5897 9.951561119147646 2.9140509553665725 6.868499772336806 0 0 0
533 178 1 0.5897 7.470962107333367 5.361838689893469 6.597965089665734 0 0 0
517 173 2 -1.1794 11.984840441909606 4.510904501140652 9.233851119167545 0 0 0
532 178 2 -1.1794 7.566402860571431 4.503726663382433 7.011141692467164 0 0 0
523 175 2 -1.1794 7.538731896881454 2.8489049644076356 10.599349766411718 0 0 0
524 175 1 0.5897 8.293143648514658 3.069116364624196 10.052950238426064 0 0 0
534 178 1 0.5897 6.8998112002520715 4.492585798476414 7.697967145374634 0 0 0
525 175 1 0.5897 7.458367128873483 1.8979781648593659 10.52552647875125 0 0 0
514 172 2 -1.1794 8.905669524735428 1.4387851432273688 7.770066752147259 0 0 0
521 174 1 0.5897 9.062288510511765 5.3031925932808 9.45493925713358 0 0 0
535 179 2 -1.1794 10.665128127930046 6.114557069345561 6.647682663281193 0 0 0
558 186 1 0.5897 12.088861894885232 2.1958775209018384 7.159863138287483 0 0 0
1010 337 1 0.5897 10.799908666471024 2.742934255053766 11.251150054729198 0 0 0
660 220 1 0.5897 7.706308222837295 6.015832524523265 11.226385344633675 0 0 0
961 321 2 -1.1794 4.633871064745373 1.479081150281439 15.65696623426377 0 0 0
962 321 1 0.5897 5.228711240773092 1.3386483759949552 14.920317477337239 0 0 0
963 321 1 0.5897 4.759444760899782 0.7125782994219848 16.2163418532296 0 0 0
964 322 2 -1.1794 2.6996336436164556 1.4362715009794256 13.541271394118684 0 0 0
965 322 1 0.5897 3.2191860038985167 1.229398132937608 14.318111407575312 0 0 0
966 322 1 0.5897 1.7922281224006609 1.3122197356337357 13.81946001156479 0 0 0
970 324 2 -1.1794 3.1054689700928058 4.557445502308681 14.838048021817876 0 0 0
971 324 1 0.5897 4.055290847819398 4.454397129832536 14.779916779535075 0 0 0
972 324 1 0.5897 2.808293433101083 3.7803456401863493 15.311319241674866 0 0 0
973 325 2 -1.1794 1.3980093401617817 2.7270004468598033 16.22945532117007 0 0 0
975 325 1 0.5897 0.9030298621684798 3.346570448220027 15.693434354176041 0 0 0
982 328 2 -1.1794 1.4236677645888742 4.765894020520042 12.64619276591412 0 0 0
983 328 1 0.5897 1.5234188546271257 5.445416238797967 11.979483091329369 0 0 0
984 328 1 0.5897 2.0861914632140293 4.976200511363867 13.304246435317516 0 0 0
980 327 1 0.5897 3.7635617782949513 2.8075475391062743 12.571344012574665 0 0 0
981 327 1 0.5897 5.219885819357582 2.4222922208933535 12.721022880426593 0 0 0
979 327 2 -1.1794 4.639349578742035 3.018125950898514 12.24758899243992 0 0 0
990 330 1 0.5897 1.3854498978585228 0.8353782601385328 16.510212099293604 0 0 0
986 329 1 0.5897 4.7233145931655836 4.955285078435134 12.318309095510088 0 0 0
1008 336 1 0.5897 5.853761258196294 0.3261853585238238 13.057337401672314 0 0 0
967 323 2 -1.1794 5.723644316497256 4.475238708662855 14.928186904208946 0 0 0
1346 449 1 0.5897 3.785809681791492 0.32378874683423214 12.537542389770712 0 1 0
1109 370 1 0.5897 0.7569021896402628 5.760752451982749 15.855652822515083 0 0 0
1460 487 1 0.5897 4.692518504222323 2.6276817022465373 16.9513913845447 0 0 0
974 325 1 0.5897 1.4423858935996117 3.1383981822691536 17.092594019825924 0 0 0
968 323 1 0.5897 6.115845952933986 5.1543652961007265 15.476960934317734 0 0 0
1058 353 1 0.5897 0.07453972757022474 4.56998550263142 14.0937664147575 1 0 0
495 165 1 0.5897 1.475412302220521 3.3375433567494572 11.429417645935125 0 0 0
985 329 2 -1.1794 4.633009420170735 5.895947032635674 12.166086487055743 0 0 0
1110 370 1 0.5897 2.2629218973642122 5.897114930292533 15.926441677417515 0 0 0
1376 459 1 0.5897 9.916336045243936 0.0821217202373277 12.382600242356641 0 1 0
1497 499 1 0.5897 10.958500546835387 5.931303676513233 17.079641385498405 0 0 0
1015 339 2 -1.1794 10.803247391110968 5.86365003014066 11.734498828816097 0 0 0
1006 336 2 -1.1794 6.204534814859708 1.0789158645083694 13.533296694634117 0 0 0
969 323 1 0.5897 6.196898753956813 3.676248648573513 15.16017732985415 0 0 0
991 331 2 -1.1794 10.225094077340241 1.1511537935425558 15.4594288394355 0 0 0
992 331 1 0.5897 10.981378342070212 1.1749113929865802 14.87320851929774 0 0 0
993 331 1 0.5897 10.419806122054233 0.4434823686430621 16.073826593477683 0 0 0
994 332 2 -1.1794 8.839618245928023 1.4134744485184598 13.067107921797131 0 0 0
995 332 1 0.5897 9.230089665161131 2.1754508429198784 12.639201319360875 0 0 0
998 333 1 0.5897 10.978717529494775 4.5030217237638945 14.517516985883294 0 0 0
1000 334 2 -1.1794 9.136785072005372 4.538979031264546 14.57652620263945 0 0 0
1001 334 1 0.5897 8.644219922122584 3.871575501469064 15.054163988552988 0 0 0
1002 334 1 0.5897 8.584321470530218 4.752873422682506 13.82470315508965 0 0 0
1003 335 2 -1.1794 7.546030736340025 2.700630674217984 16.080167958804388 0 0 0
1004 335 1 0.5897 7.715835290316095 1.7648168201867396 16.187817957022126 0 0 0
1007 336 1 0.5897 7.150024294046754 1.033139479177098 13.391470126427764 0 0 0
1012 338 2 -1.1794 7.244250620999407 4.938851158358547 12.658460920457582 0 0 0
1014 338 1 0.5897 7.2434065619357355 4.160491564702914 12.101371657698387 0 0 0
1011 337 1 0.5897 11.210798757151174 2.7422760158242276 12.708225979720208 0 0 0
1009 337 2 -1.1794 10.641480905810448 3.190105842419978 12.08251115080733 0 0 0
996 332 1 0.5897 9.129475455799644 1.4745937156143074 13.977313729575856 0 0 0
1013 338 1 0.5897 6.635629448985028 4.727915035476766 13.366476284143006 0 0 0
1017 339 1 0.5897 10.845909149562795 4.908942555077831 11.788190368985724 0 0 0
1139 380 1 0.5897 8.32028993656365 5.949122071165585 15.752581960836853 0 0 0
1016 339 1 0.5897 10.001603725422154 6.094806820942792 12.203655642723199 0 0 0
1038 346 1 0.5897 12.352524772058581 0.8118287941015541 12.796948617932525 0 0 0
1490 497 1 0.5897 10.819295283839384 2.3140387203179102 16.687937128841376 0 0 0
1005 335 1 0.5897 7.748473859746947 3.081128216329703 16.93483737280563 0 0 0
997 333 2 -1.1794 11.862518190471013 4.506119338026229 14.885015465429547 0 0 0
1826 609 1 0.5897 4.196100240057119 0.10844465249608087 18.29980526276757 0 1 0
1456 486 2 -1.1794 0.20749390449480526 1.6329975583097578 19.51237577259848 0 0 0
386 129 1 0.5897 4.9230174154934225 -0.048271705596103165 22.760207314388403 0 1 -1
1539 513 1 0.5897 0.42091341862070436 5.322951860069525 20.988049676417617 1 0 0
1590 530 1 0.5897 2.483201203065158 6.066330262398303 21.80926648327935 0 0 0
1468 490 2 -1.1794 1.6670722671673806 0.0796369971704744 22.277639714912347 0 0 0
1538 513 1 0.5897 0.36020179648971906 3.8193982767997947 20.822591431317363 1 0 0
1454 485 1 0.5897 2.3592460699201205 3.170524301682279 21.58615939825578 0 0 0
1464 488 1 0.5897 1.230332112174484 4.581548068949469 19.109815731265876 0 0 0
1443 481 1 0.5897 4.497571032220455 2.338394310352166 21.97687491462346 0 0 0
1450 484 2 -1.1794 3.658923795376568 4.200035014264299 20.708518680457928 0 0 0
1469 490 1 0.5897 1.7235855311221933 1.0350870478673744 22.268133938728717 0 0 0
1442 481 1 0.5897 3.995498151302354 1.4477321237387064 20.860419601326754 0 0 0
1453 485 2 -1.1794 1.6214760479033221 2.868230750593721 22.115777980311087 0 0 0
1444 482 2 -1.1794 3.0035900806264464 1.2703390178378653 19.260224454980936 0 0 0
1463 488 1 0.5897 1.5106325999611407 5.156381037527072 17.7376375604655 0 0 0
1452 484 1 0.5897 3.593697045949713 4.23557764107175 19.75420013728892 0 0 0
1441 481 2 -1.1794 4.721996660793552 1.555316108693288 21.47427138674282 0 0 0
1451 484 1 0.5897 4.594905078447049 4.287827141291793 20.88853203502756 0 0 0
1445 482 1 0.5897 2.048710603368726 1.2850192392721307 19.32459567649967 0 0 0
1446 482 1 0.5897 3.216026160920918 1.9989463499090991 18.676956705392 0 0 0
1461 487 1 0.5897 5.486368074598911 2.6887600306212107 18.23899631240772 0 0 0
1459 487 2 -1.1794 4.7545402360924545 3.1017079021486245 17.78065138311132 0 0 0
1462 488 2 -1.1794 1.7945341333153007 4.472601968723799 18.344300550482117 0 0 0
1466 489 1 0.5897 4.867479409407147 4.934099194760153 17.785744650089995 0 0 0
1488 496 1 0.5897 5.929060696993276 0.8009560178590437 18.67835637648799 0 0 0
1465 489 2 -1.1794 4.656988217959711 5.867762215668485 17.797515031943092 0 0 0
1487 496 1 0.5897 5.881126732621498 1.4241446508042972 20.057201018583683 0 0 0
1517 506 1 0.5897 12.184584069006384 1.6978796068679993 18.405882193907246 0 0 0
1476 492 1 0.5897 9.438225802680178 0.4746749275211749 18.626290417747143 0 0 0
1489 497 2 -1.1794 10.931342617068234 2.738131725936366 17.538709333525155 0 0 0
1496 499 1 0.5897 11.16934007302964 4.557996746656355 17.680757218481382 0 0 0
51 17 1 0.5897 11.059499335294362 3.0124050568773764 22.580768166762553 0 0 -1
1485 495 1 0.5897 7.639144985895946 1.8702573288512674 22.381723383298215 0 0 0
1620 540 1 0.5897 8.89250589240307 5.7397341701429205 21.77597873667213 0 0 0
1492 498 2 -1.1794 8.058523445496903 4.266976810649908 18.468760775945846 0 0 0
1447 483 2 -1.1794 6.460312189519592 4.46448149648847 20.688220025746446 0 0 0
1448 483 1 0.5897 6.841063946166845 5.236429284327242 21.106913182905174 0 0 0
1477 493 2 -1.1794 12.141050474488502 4.414770690688502 20.800917026548653 0 0 0
1518 506 1 0.5897 12.357744669687303 1.3349902380372565 19.86540917133852 0 0 0
1449 483 1 0.5897 6.795572104608221 3.7259153539317653 21.196468888195717 0 0 0
1481 494 1 0.5897 10.40241948016802 4.154323674583929 20.765503614991324 0 0 0
1498 500 2 -1.1794 7.813923507738039 0.08945684707337828 22.04020941691323 0 0 0
1472 491 1 0.5897 10.89649003678924 0.6995330138521627 21.969131753671476 0 0 0
1473 491 1 0.5897 10.195981487087655 1.3638984939827241 20.80305579698134 0 0 0
1484 495 1 0.5897 8.340675320041257 3.1236278281879035 21.903527093253658 0 0 0
1483 495 2 -1.1794 7.612175814223825 2.8247655173657304 22.447727515383725 0 0 0
1494 498 1 0.5897 7.3756199079340785 4.325874681429527 19.13686752420029 0 0 0
1480 494 2 -1.1794 9.453641925532521 4.242479182798902 20.856080104119243 0 0 0
1482 494 1 0.5897 9.117043560176421 4.139939466847124 19.965901550699108 0 0 0
1493 498 1 0.5897 7.917589018806535 5.0336306382213385 17.91326960828018 0 0 0
1486 496 2 -1.1794 6.411445521638687 1.3872884793712599 19.261201491840225 0 0 0
1491 497 1 0.5897 10.1914224013326 2.4280347984602146 18.060765296414388 0 0 0
1471 491 2 -1.1794 10.99837783180714 1.3990167097545063 21.323733304700433 0 0 0
1475 492 1 0.5897 8.275566730605146 1.3083315792695145 19.12124414875865 0 0 0
1474 492 2 -1.1794 9.225272941336588 1.2145907702988274 19.194944877233148 0 0 0
1495 499 2 -1.1794 10.984729743384705 5.467162457067884 17.91636384051951 0 0 0
1619 540 1 0.5897 7.859539695853573 5.8489519174685505 22.87727721290597 0 0 0
121 41 2 -1.1794 4.576694368383114 7.566262148885081 4.209585686676498 0 0 0
122 41 1 0.5897 3.788223883204929 7.5220366935646625 3.668710183403187 0 0 0
123 41 1 0.5897 5.299677116914451 7.507360723301292 3.585068565937985 0 0 0
124 42 2 -1.1794 2.7932207623470884 7.851436231258314 2.021625026234743 0 0 0
125 42 1 0.5897 2.9693225133671453 6.985659703038347 1.6533884354237094 0 0 0
126 42 1 0.5897 3.4024714995112397 8.433689569644786 1.5677792741291992 0 0 0
129 43 1 0.5897 5.138175104566767 10.849826020811744 3.2399190439643504 0 0 0
130 44 2 -1.1794 3.2005853382201837 10.753755163709325 3.335846450245089 0 0 0
132 44 1 0.5897 2.8470128600910183 9.993703085286684 3.7978963170605775 0 0 0
133 45 2 -1.1794 1.7797705126812633 8.989508151610933 4.838195404225708 0 0 0
135 45 1 0.5897 1.013857016000711 9.437469710929921 4.479193826832428 0 0 0
137 46 1 0.5897 1.0106295642573928 7.845569366184864 2.2447713518621577 0 0 0
139 47 2 -1.1794 4.789989610902861 9.563088038037437 0.6243610173424483 0 0 0
142 48 2 -1.1794 1.405864933134717 11.018105862884118 1.2207009358100334 0 0 0
143 48 1 0.5897 2.1334494340185857 11.015681806100604 1.8426360046530523 0 0 0
144 48 1 0.5897 1.6712655494544966 11.640062038361135 0.5432548694754252 0 0 0
149 50 1 0.5897 1.4829473970408458 7.19628240162969 5.025163060667522 0 0 0
131 44 1 0.5897 2.796175731459364 11.50639691876324 3.76733308914168 0 0 0
140 47 1 0.5897 4.685032931292163 10.514468480030583 0.6296754171985276 0 0 0
621 207 1 0.5897 4.639770276825057 8.843848505926584 5.514771561933591 0 0 0
168 56 1 0.5897 5.965615050943847 8.509668953704681 1.5785209289470723 0 0 0
127 43 2 -1.1794 6.0785860258876365 10.746948153533921 3.385529411955418 0 0 0
134 45 1 0.5897 1.9696421275939868 9.45439364237628 5.653087778064666 0 0 0
270 90 1 0.5897 0.927544625559588 12.279240140642145 4.607367062443754 0 0 0
218 73 1 0.5897 0.24468547017889192 10.805605001392204 2.87323220994647 1 0 0
136 46 2 -1.1794 0.06108353003317418 7.935107135991174 2.32539190800096 0 0 0
148 50 2 -1.1794 1.3048397180786018 6.264393963123899 4.898552108613345 0 0 0
1574 525 1 0.5897 1.8547332455045151 9.613067119178222 0.06925812512840698 0 0 1
26 9 1 0.5897 5.193191633935749 6.549474211609488 1.0541369385548036 0 0 0
507 169 1 0.5897 4.300157609603027 6.213583852362474 5.392446469559173 0 0 0
25 9 2 -1.1794 4.558233401567505 6.194212829617055 0.4321953105051898 0 0 0
128 43 1 0.5897 6.3258728611894055 11.51125872611055 3.9059774885228986 0 0 0
166 56 2 -1.1794 6.281581806485738 7.7763600616524995 2.106359415393069 0 0 0
151 51 2 -1.1794 10.747416155849374 7.478172020597885 4.243787983658575 0 0 0
152 51 1 0.5897 10.02595861464353 7.38987002549742 3.620976790490753 0 0 0
153 51 1 0.5897 10.622226098553973 6.756491530873728 4.859994957565055 0 0 0
154 52 2 -1.1794 9.08524134868938 7.683464840516097 1.8658454672796323 0 0 0
155 52 1 0.5897 9.630595314741013 8.32827076825602 1.4152978772441513 0 0 0
156 52 1 0.5897 9.23540756904363 6.86714791014838 1.3891236742309516 0 0 0
158 53 1 0.5897 11.255083855645958 10.770191639390639 3.209316246438495 0 0 0
160 54 2 -1.1794 9.438464538159277 10.809619840382124 3.2445986958162423 0 0 0
161 54 1 0.5897 8.933473098853867 10.902679006571972 2.4368011993435137 0 0 0
162 54 1 0.5897 9.06692161076729 10.038169440806612 3.6723827927764687 0 0 0
163 55 2 -1.1794 7.756275389685932 8.994616451643326 4.88828049468235 0 0 0
164 55 1 0.5897 7.04490943084783 9.500151402898634 4.495133045557021 0 0 0
167 56 1 0.5897 7.2351508480499 7.854764650867328 2.0796344817786774 0 0 0
169 57 2 -1.1794 10.895184021787687 9.48537710597372 0.7481196561411687 0 0 0
172 58 2 -1.1794 7.813849724202003 11.033652283813375 1.1761747339035633 0 0 0
173 58 1 0.5897 7.925594064149782 10.265473662654156 0.6161676818669574 0 0 0
174 58 1 0.5897 7.166600699044708 10.763654561736283 1.827608210936846 0 0 0
179 60 1 0.5897 7.711711542472482 7.228202840135153 4.924113791380575 0 0 0
171 57 1 0.5897 11.02464319009668 10.433739253922983 0.752181803332114 0 0 0
57 19 1 0.5897 11.464407868281935 6.2799859029178995 1.267625959202562 0 0 0
198 66 1 0.5897 12.130230713498973 7.7791730051556485 2.9884464572102236 0 0 0
178 60 2 -1.1794 7.543174355575597 6.304014061018702 5.107533205140411 0 0 0
175 59 2 -1.1794 10.968268400448748 12.278412773526098 0.8976853165109582 0 0 0
300 100 1 0.5897 8.55545267593787 12.051930448323402 4.369876105048985 0 0 0
157 53 2 -1.1794 12.172085381977839 10.559749364154971 3.3853585644704745 0 0 0
197 66 1 0.5897 12.126553656062132 8.398531108309912 1.6070499168852388 0 0 0
625 209 2 -1.1794 4.417265873682543 12.120208157240157 6.445908787573718 0 0 0
616 206 2 -1.1794 0.278018595467195 7.867675257782825 7.6930113124890624 0 0 0
617 206 1 0.5897 0.1176314744960365 7.974682373241226 8.630595309271603 0 0 0
699 233 1 0.5897 0.5611037556631372 10.540036412191979 8.40267573516134 1 0 0
630 210 1 0.5897 1.2010450031728457 7.200272768351001 10.634644571768407 0 0 0
614 205 1 0.5897 2.3473566073435985 9.22006867341481 10.328282358183287 0 0 0
605 202 1 0.5897 3.2610551981874205 8.355337222545923 7.533982284165129 0 0 0
623 208 1 0.5897 2.46116580135721 10.595170690928754 7.787993099706816 0 0 0
601 201 2 -1.1794 4.55878821019283 7.776512275033418 10.01221300705181 0 0 0
619 207 2 -1.1794 4.6551988571557725 9.353583796204484 6.324805200963423 0 0 0
613 205 2 -1.1794 1.5457836987825866 8.902106173064851 10.743675835644511 0 0 0
622 208 2 -1.1794 1.7760307331018217 10.51832817395117 7.124002019013537 0 0 0
603 201 1 0.5897 3.7626661207844316 7.5629077030116365 9.525654068958715 0 0 0
606 202 1 0.5897 1.959114624288171 7.618745349256549 7.766582393484053 0 0 0
626 209 1 0.5897 4.426024153881778 11.16368703014194 6.411861381622659 0 0 0
611 204 1 0.5897 4.237455459998999 10.776512314433633 9.395003899384239 0 0 0
624 208 1 0.5897 1.9112806198815033 11.273109088084492 6.551109528815451 0 0 0
604 202 2 -1.1794 2.907752043810901 7.524828879139183 7.852742809906736 0 0 0
602 201 1 0.5897 4.7202640665459485 7.006924438422991 10.557976935065803 0 0 0
610 204 2 -1.1794 3.3037080008027373 10.581237203707607 9.473348242529758 0 0 0
615 205 1 0.5897 0.8440293711922833 9.39802979371157 10.322043490538682 0 0 0
612 204 1 0.5897 2.9515114476254016 11.299775231512172 9.998562207572267 0 0 0
620 207 1 0.5897 5.334275507755996 8.938595525404121 6.856620587245482 0 0 0
647 216 1 0.5897 5.6030082187870445 7.606518967009278 8.55896390427015 0 0 0
648 216 1 0.5897 5.876755992645199 6.831731642773978 7.2874991187321445 0 0 0
607 203 2 -1.1794 6.12681384293599 11.079249377657552 9.220398031722942 0 0 0
697 233 2 -1.1794 -0.013176793199669135 10.75561094000044 9.13747741434925 1 0 0
698 233 1 0.5897 0.48294938857827296 11.393208474269363 9.650811548530587 1 0 0
628 210 2 -1.1794 0.9976770930968888 6.301350230637044 10.376275539253985 0 0 0
627 209 1 0.5897 5.249350458152028 12.353316090387462 6.857577211769371 0 0 0
506 169 1 0.5897 3.6130654875298926 6.2794927922879165 6.739825836305253 0 0 0
1101 367 1 0.5897 4.73636238316633 9.128544114918103 11.377991846516917 0 0 0
637 213 2 -1.1794 12.255375868074262 10.967986516822329 8.963027240583699 0 0 0
536 179 1 0.5897 11.383331730171912 6.658727708136645 6.970527680573883 0 0 0
635 212 1 0.5897 9.19384328058439 7.897656735676348 8.694366656970995 0 0 0
165 55 1 0.5897 7.790770421839097 9.29501921343825 5.796465084398031 0 0 0
634 212 2 -1.1794 8.909157512747251 7.67727918880294 7.807452611499959 0 0 0
608 203 1 0.5897 6.6545332282476 11.840208658920544 9.46251866906617 0 0 0
537 179 1 0.5897 9.875714623806962 6.524981064420006 7.000596108629769 0 0 0
678 226 1 0.5897 12.326948143333924 8.524105601983194 7.3543729000164255 0 0 0
655 219 2 -1.1794 10.778575716334775 12.072623086350417 6.495724934983397 0 0 0
632 211 1 0.5897 11.491874611396797 7.869055619457266 9.22996879065427 0 0 0
650 217 1 0.5897 10.659452535136852 8.725499933317138 5.672017641629889 0 0 0
642 214 1 0.5897 9.387851956317723 10.379789176825005 9.865634030969957 0 0 0
631 211 2 -1.1794 10.974547044586533 7.9948539847796365 10.0254293723288 0 0 0
649 217 2 -1.1794 10.694914996744151 9.285963831009694 6.447156559474509 0 0 0
653 218 1 0.5897 7.243791732753254 11.041765794596392 7.904234016008306 0 0 0
609 203 1 0.5897 6.538425378259661 10.346301319987283 9.678158528739226 0 0 0
640 214 2 -1.1794 9.646447564852137 11.181229610616708 9.410649071113816 0 0 0
658 220 2 -1.1794 7.839649088053417 6.50887117412987 10.416849529149207 0 0 0
651 217 1 0.5897 10.135247275166366 8.846183313838075 7.087126333536504 0 0 0
636 212 1 0.5897 7.954627930907208 7.7407416968628855 7.839089765387655 0 0 0
645 215 1 0.5897 7.9587428737612536 8.265478850826241 10.85816305242633 0 0 0
657 219 1 0.5897 11.033792871454796 11.155794229624233 6.393467018699068 0 0 0
299 100 1 0.5897 7.926169678630372 12.013240168703092 5.746240373642422 0 0 0
641 214 1 0.5897 10.575674650169718 11.058037301632602 9.2169165602699 0 0 0
646 216 2 -1.1794 6.203108760393584 7.560975943611185 7.814645664588303 0 0 0
643 215 2 -1.1794 8.00604030924112 9.212526841735988 10.727643668527643 0 0 0
652 218 2 -1.1794 7.896450275744502 10.866078426712091 7.226469138494554 0 0 0
633 211 1 0.5897 10.925878946490625 7.124257562940175 10.420248223832871 0 0 0
654 218 1 0.5897 8.734906478181474 10.89627288036444 7.687178734190676 0 0 0
659 220 1 0.5897 7.101670828155886 6.260437420187097 9.860203907226945 0 0 0
779 260 1 0.5897 8.495465355246546 12.257095345520641 10.324081905144615 0 0 0
1081 361 2 -1.1794 4.537077254478786 7.448776411903683 15.662992510564099 0 0 0
1082 361 1 0.5897 4.528141829921979 8.16894337233173 16.293455566189692 0 0 0
1083 361 1 0.5897 4.442171394527287 6.660571735460336 16.197705678568376 0 0 0
1084 362 2 -1.1794 2.8575257120417903 7.553514125512647 13.468882110061394 0 0 0
1085 362 1 0.5897 3.4115090823080276 7.489993676615859 14.24687642659007 0 0 0
1086 362 1 0.5897 3.209679069475517 8.29972645436767 12.983765181223104 0 0 0
1089 363 1 0.5897 5.124476333027124 10.541162839252088 15.101163411907438 0 0 0
1090 364 2 -1.1794 3.21670869638732 11.038855308714803 15.301016801658351 0 0 0
1091 364 1 0.5897 2.69410384296624 11.765441636659345 15.640322794777697 0 0 0
1092 364 1 0.5897 2.774516142285405 10.253817321224654 15.624057450596487 0 0 0
1095 365 1 0.5897 0.6920240162164675 9.45088647719568 15.828525643050725 0 0 0
1097 366 1 0.5897 1.038896187027467 7.820993561670053 13.491723776742221 0 0 0
1099 367 2 -1.1794 4.795640844526695 9.455112175147939 12.275807691503045 0 0 0
1102 368 2 -1.1794 1.510720899246955 10.63826541034032 12.821499596357183 0 0 0
1104 368 1 0.5897 2.070515528368437 10.495197195852972 13.584629734646892 0 0 0
1093 365 2 -1.1794 1.4075981103047597 9.025523258813546 16.300962929262326 0 0 0
1103 368 1 0.5897 1.6779646044145695 9.884038284958276 12.256377710848453 0 0 0
1100 367 1 0.5897 5.500469642953687 8.94252225178397 12.67159535805203 0 0 0