LAMMPS data file via write_data, version 30 Jul 2021, timestep = 10000000

1296 atoms
2 atom types
864 bonds
1 bond types
432 angles
1 angle types

-10.50556640206532 12.48556640206532 xlo xhi
-9.053228104463459 12.043226104463459 ylo yhi
0.2652049122028828 21.594794087803688 zlo zhi
-9.154157496486722 1.7506854353462975 2.7433662188493697 xy xz yz

Masses

1 1.008
2 15.999

Pair Coeffs # lj/cut/tip4p/long/omp

1 0 0
2 0.21084 3.1668

Bond Coeffs # harmonic/omp

1 450 0.9572

Angle Coeffs # harmonic/omp

1 55 104.52

Atoms # full

282 94 1 0.5897 -10.356456190358111 -4.077773669223791 1.649689793703634 1 1 0
280 94 2 -1.1794 -9.476614491909558 -4.445140079210829 1.5664228590351643 1 1 0
299 100 1 0.5897 -6.532622834361479 -7.807610236248293 4.1695005562739675 1 1 0
163 55 2 -1.1794 -7.082486786129354 -7.882346538592514 1.0109626906150262 1 1 0
164 55 1 0.5897 -6.273312693460498 -8.229727684112511 1.3860185315643005 1 1 0
270 90 1 0.5897 -8.380994143835153 -7.333187760779698 2.1845636560105817 1 1 0
269 90 1 0.5897 -9.1374302413138 -6.033493810274521 2.358868048037072 1 1 0
268 90 2 -1.1794 -9.058269697426145 -6.917290755253973 2.7179096375326735 1 1 0
324 108 1 0.5897 -6.91955567104921 -4.177003890918076 3.721178752398221 1 1 0
73 25 2 -1.1794 -8.24274629913399 -3.6707419438373625 4.883065606317135 1 0 0
298 100 2 -1.1794 -5.908527844397226 -7.08194870905232 4.173887813609701 1 1 0
314 105 1 0.5897 -8.711993836841962 -6.552564879179641 4.479316153547304 1 1 0
323 108 1 0.5897 -6.131166310533234 -5.447551735313622 3.4847050002421533 1 1 0
74 25 1 0.5897 -8.037295504916953 -3.0483427304482635 5.580706740102502 1 0 0
261 87 1 0.5897 -6.7117612125113215 -4.9298556859566 1.3508786565784374 1 1 0
315 105 1 0.5897 -8.425404403061293 -5.351434843823078 5.355179714497719 1 1 0
67 23 2 -1.1794 -10.541735811583793 -2.4081847544012795 4.1750652567939355 1 0 0
300 100 1 0.5897 -5.050071117626077 -7.503720082336408 4.139371854732191 1 1 0
281 94 1 0.5897 -8.894211150032694 -3.6875687619932513 1.6212767189276058 1 1 0
75 25 1 0.5897 -9.008794186960413 -3.2979596012847043 4.446794015501938 1 0 0
260 87 1 0.5897 -6.833095890070826 -6.193269656725768 0.5256185342945316 1 1 0
259 87 2 -1.1794 -6.6637725208122145 -5.254089844914107 0.45147554695487674 1 1 0
97 33 2 -1.1794 -11.763851442749695 0.7317869812399795 5.449936555173978 1 0 0
83 28 1 0.5897 -9.527815587023586 -0.8235965428602015 4.235892605330655 1 0 0
313 105 2 -1.1794 -8.624906648869443 -6.286768802475601 5.394813220841552 1 1 0
68 23 1 0.5897 -11.20559519242973 -2.6653098855681776 4.814844980706196 1 0 0
99 33 1 0.5897 -11.538512352802826 1.6617991803746328 5.427232591568696 1 0 0
271 91 2 -1.1794 -10.097478368882003 -0.814690409447099 1.0190618478163955 1 1 0
272 91 1 0.5897 -9.257793187186477 -1.1798168463114829 1.297783483309553 1 1 0
69 23 1 0.5897 -10.943058314481037 -2.591633557167257 3.3255942733455144 1 0 0
44 15 1 0.5897 -9.871563448661961 0.8509601567632359 0.43898254049462265 1 0 0
258 86 1 0.5897 -12.294109069153183 -2.689164180897568 1.3136288831901142 1 1 0
53 18 1 0.5897 -12.119378038558299 1.039557805627119 2.390924198321637 1 0 0
59 20 1 0.5897 -13.296871415661005 -0.7445742187104241 3.503292768370618 1 0 0
54 18 1 0.5897 -11.280806196653067 -0.208193892580244 2.2129903933939827 1 0 0
52 18 2 -1.1794 -11.982110665386392 0.16238037724868626 2.7486826330649503 1 0 0
256 86 2 -1.1794 -11.904076136181335 -3.2929036399092126 1.9458219961171723 1 1 0
82 28 2 -1.1794 -8.909807413660914 -0.09346605728386592 4.203132603865736 1 0 0
107 36 1 0.5897 -9.204138568756054 1.5164731767072173 3.433374869807338 1 0 0
301 101 2 -1.1794 -7.793710951970641 -2.195841084195802 1.7232316346282508 1 1 0
98 33 1 0.5897 -11.741696317485507 0.45704304940379537 4.533209751673129 1 0 0
275 92 1 0.5897 -10.428234516957529 -7.786242504119371 3.4506294656206835 1 1 0
84 28 1 0.5897 -8.047515044070119 -0.5087523417612996 4.207626509133297 1 0 0
417 139 1 0.5897 -8.788161859377333 1.0465449709466625 5.583093439131308 1 0 0
273 91 1 0.5897 -10.371181056780019 -1.3714889867447706 0.2901189469735256 1 1 0
420 140 1 0.5897 -8.91847017987389 -6.445457768788761 9.814621065629606 1 0 0
414 138 1 0.5897 -6.687843296592165 -4.84291320674234 7.524406296543947 1 0 0
413 138 1 0.5897 -7.528026767710507 -3.5935511948049186 7.68228557367081 1 0 0
412 138 2 -1.1794 -7.382919572728245 -4.460953944541979 8.060218459083949 1 0 0
350 117 1 0.5897 -7.155963103357568 -4.171855659024837 9.783789963978013 0 0 0
429 143 1 0.5897 -6.3640608741437 -7.106801656774624 8.596247149058781 1 0 0
428 143 1 0.5897 -6.543201865213618 -7.081966466482807 10.099421604114273 1 0 0
427 143 2 -1.1794 -5.908320935240843 -6.889437995582558 9.409479946528597 1 0 0
627 209 1 0.5897 -10.235679970584892 -6.618129784944079 6.326554657536672 1 1 0
618 206 1 0.5897 -7.690406524075266 -7.3010486494625315 6.541307069173291 1 1 0
419 140 1 0.5897 -8.6904120193168 -5.387782529673597 8.755663509769558 1 0 0
418 140 2 -1.1794 -9.382981270639938 -5.872640189884038 9.204387795678597 1 0 0
616 206 2 -1.1794 -7.263071636416472 -7.865046749297958 7.18596419434423 1 1 0
349 117 2 -1.1794 -7.1128648140886295 -3.888891893639359 10.69726661537025 0 0 0
351 117 1 0.5897 -6.980532623884651 -2.942103116333434 10.649197579665861 0 0 0
633 211 1 0.5897 -5.689821852966155 -6.033912306931949 5.601079888278601 1 1 0
402 134 1 0.5897 -10.812125850749618 -0.2487428535065721 6.7476891631692935 1 0 0
527 176 1 0.5897 -11.89584752027305 1.6943832750957686 8.792087798903813 1 0 0
522 174 1 0.5897 -9.787769031508814 2.2618291898567513 7.483617121846942 1 0 0
426 142 1 0.5897 -8.694628467664858 -1.6153652996393735 7.156721365796382 1 0 0
526 176 2 -1.1794 -12.63402794068464 1.2515210848545824 9.210457280434806 1 0 0
401 134 1 0.5897 -11.092378125412264 -1.3703773548465659 7.725153390087557 1 0 0
537 179 1 0.5897 -9.596533546981242 -0.07923881049203985 8.713350235486095 1 0 0
536 179 1 0.5897 -9.697574436289054 0.07654096943286781 10.215939564383541 1 0 0
535 179 2 -1.1794 -9.076900881583363 0.13084564991980763 9.489310159804575 1 0 0
528 176 1 0.5897 -12.235164152150903 0.7145392288487837 9.89519088006321 1 0 0
424 142 2 -1.1794 -7.828018508873019 -1.9903174181560512 7.000459130623552 1 0 0
435 145 1 0.5897 -7.566352804023014 -0.9084136227569974 9.841815894031749 0 0 0
400 134 2 -1.1794 -10.37658537229099 -0.8907211211913211 7.30844088116455 1 0 0
411 137 1 0.5897 -13.336232467035968 0.3996974017896484 6.292811905428918 1 0 0
425 142 1 0.5897 -7.235508993440594 -1.23874684551725 7.014055431139422 1 0 0
410 137 1 0.5897 -13.43912130797505 0.4799784308099273 7.801196373053037 1 0 0
626 209 1 0.5897 -10.362848249209335 -6.5638864090592515 7.834246743617564 1 1 0
415 139 2 -1.1794 -8.578670916373882 1.6166774235448607 6.322930165042615 1 0 0
652 218 2 -1.1794 -5.741524523296151 -5.395990217179725 12.530332733359854 0 0 0
788 263 1 0.5897 -5.13616912768105 -4.533939152018989 15.40311209303687 0 0 0
780 260 1 0.5897 -7.503145346104725 -4.015716301443986 15.168364648658834 0 0 0
779 260 1 0.5897 -7.149013191242375 -2.990127479518894 14.112523643172569 0 0 0
778 260 2 -1.1794 -7.889010597798846 -3.4723280585228142 14.481238215572988 0 0 0
768 256 1 0.5897 -9.593010736528615 -2.6798713500850173 14.797811106860925 0 0 0
654 218 1 0.5897 -6.179848254413931 -4.803086855819488 11.919909419976893 0 0 0
653 218 1 0.5897 -6.453787288785465 -5.800399180595488 13.025536508246844 0 0 0
766 256 2 -1.1794 -10.451190122361384 -2.2620626282621217 14.868475425334841 0 0 0
740 247 1 0.5897 -10.863935927908745 -3.2547207223730483 12.002323575803995 1 0 0
729 243 1 0.5897 -8.011051567928114 -6.989379193322098 12.019152098173658 1 0 0
684 228 1 0.5897 -8.497410216756162 -6.30068032836578 14.329251197114308 0 0 0
682 228 2 -1.1794 -7.797985083446853 -6.680227965151606 13.797398294309854 0 0 0
663 221 1 0.5897 -8.668898661088338 -4.2235986407603425 11.589399055522101 0 0 0
662 221 1 0.5897 -8.845865346937652 -4.151043008760314 13.09128245068308 0 0 0
661 221 2 -1.1794 -9.326375422799016 -4.312546248633664 12.279297089757875 0 0 0
835 279 2 -1.1794 -11.270904467692661 -0.2659754780432433 11.081071051517174 1 0 0
727 243 2 -1.1794 -8.018710206411775 -7.333760605636897 11.126011837487773 1 0 0
791 264 1 0.5897 -10.649825406140982 -0.5864054891822992 14.049486745240257 0 0 0
767 256 1 0.5897 -11.074863142427809 -2.9870348594573795 14.829140042393092 0 0 0
770 257 1 0.5897 -11.915986345544146 2.8025625326787136 13.238832680550127 0 0 0
836 279 1 0.5897 -11.432921280762958 -1.2082882026732964 11.126059429133084 1 0 0
790 264 2 -1.1794 -10.818701028258133 0.3064214056388881 13.748476886098736 0 0 0
771 257 1 0.5897 -11.67556488075344 2.744341746719007 11.745169003143026 0 0 0
769 257 2 -1.1794 -12.362467153159194 2.6529178734982093 12.40542713940156 0 0 0
761 254 1 0.5897 -9.488725583377722 1.1431473781753958 12.93014923123102 0 0 0
888 296 1 0.5897 -10.483911270141377 3.126329475817908 15.229869197118122 0 0 0
762 254 1 0.5897 -9.195845287592315 2.211912096523399 11.8986356100644 0 0 0
760 254 2 -1.1794 -8.769870405303768 1.6327031665085343 12.530574723311446 0 0 0
792 264 1 0.5897 -11.46882619264447 0.6477012403729656 14.362490671988683 0 0 0
837 279 1 0.5897 -11.173287041458057 0.004590233529743415 11.99410488212909 1 0 0
896 299 1 0.5897 -8.132096314399313 2.5203831323397647 15.384175411384906 0 0 0
757 253 2 -1.1794 -9.800889615925492 -5.821593952002355 15.528355931906097 0 0 0
789 263 1 0.5897 -4.8339046693161505 -4.604146672502758 13.921253238992518 0 0 0
758 253 1 0.5897 -9.5169778640762 -5.269596122465444 16.257042842780542 0 0 0
897 299 1 0.5897 -7.9100644209803495 2.3875009871578126 13.892441908627225 0 0 0
865 289 2 -1.1794 -12.68603118074967 1.2403869588179468 15.556028493110645 0 0 0
1089 363 1 0.5897 -6.607596820376946 -4.664633336649682 17.270737291570356 0 0 0
1152 384 1 0.5897 -6.8702703326717165 -4.032432817471388 19.6189847876736 0 0 0
1225 409 2 -1.1794 -8.100944786049919 -3.4257455817406477 20.789608902456376 0 0 0
1227 409 1 0.5897 -8.942271387355461 -3.100947655466433 20.469066376317723 0 0 0
1109 370 1 0.5897 -8.813022805463458 -3.356141910460291 17.684105114219257 0 0 0
1219 407 2 -1.1794 -10.380141871673525 -1.998090332861807 20.014253754740714 0 0 0
1108 370 2 -1.1794 -9.342619605767783 -4.153391403726047 17.676646041410475 0 0 0
1129 377 2 -1.1794 -7.75556163546598 -1.8971837767973785 17.708597765076327 0 0 0
1151 384 1 0.5897 -6.08475484562925 -5.291115662573524 19.318231855224266 0 0 0
1150 384 2 -1.1794 -6.257639896212792 -4.409591390187181 18.98763325898863 0 0 0
1248 416 1 0.5897 -5.855199588607039 -1.551597136826679 20.546125912250577 0 0 0
1097 366 1 0.5897 -9.027929734483685 -5.717731719113514 18.408033119476055 0 0 0
1130 377 1 0.5897 -7.284387268924645 -1.6958360264022794 18.51714388237385 0 0 0
1143 381 1 0.5897 -8.380483442842747 -5.15209501302759 21.240402430525787 0 0 0
1195 399 2 -1.1794 -9.527155162009432 2.1314839637167307 16.397466835648 0 0 0
1141 381 2 -1.1794 -8.512747424536789 -6.096895056218509 21.318455907538546 0 0 0
1110 370 1 0.5897 -10.246205224940983 -3.841539833102795 17.724388032017306 0 0 0
1131 377 1 0.5897 -7.103842531675797 -1.7852021548681378 17.016595484051596 0 0 0
1011 337 1 0.5897 -11.992661938268952 4.012490164243458 20.506839993278625 0 -1 0
1121 374 1 0.5897 -4.960094394496933 -3.445294953546277 18.378948456912433 0 0 0
1088 363 1 0.5897 -6.6598380826700945 -5.959518062542511 16.488095316884127 0 0 0
1204 402 2 -1.1794 -11.967933136768126 0.37834394160007534 18.80497219111532 0 0 0
1229 410 1 0.5897 -7.9330578734775425 3.6302185535839033 18.30739616037814 0 0 0
1217 406 1 0.5897 -11.75301896694234 3.6757635666815904 17.726076910457703 0 0 0
1218 406 1 0.5897 -13.210481401951036 3.2688732702632617 17.687567990254053 0 0 0
1249 417 2 -1.1794 -11.571172916115405 1.043341040365938 21.450519371721825 0 0 0
1196 399 1 0.5897 -9.753849603616867 1.2031032902349725 16.45163540802972 0 0 0
1246 416 2 -1.1794 -6.325012023388723 -1.0109110647100188 19.91113369621567 0 0 0
1250 417 1 0.5897 -11.672539014523249 0.6837025785870914 20.569193345888234 0 0 0
1009 337 2 -1.1794 -11.153402964209691 3.6852087525777453 20.830262549146067 0 -1 0
1260 420 1 0.5897 -9.923131559933594 3.067882285444057 19.635216548900296 0 0 0
1259 420 1 0.5897 -9.040662208018926 1.8551450175884519 19.429679362977005 0 0 0
1258 420 2 -1.1794 -9.227143753181117 2.7244721287136375 19.075041390700783 0 0 0
1100 367 1 0.5897 -9.25695836579109 -0.8984199928183454 17.307733843732073 0 0 0
1236 412 1 0.5897 -7.903187974356136 -0.1805716399436843 20.164622080201813 0 0 0
1235 412 1 0.5897 -9.38503927609535 -0.4830165044382273 20.10241258118166 0 0 0
1234 412 2 -1.1794 -8.76326447081982 0.23732193018554604 20.205422352314386 0 0 0
1205 402 1 0.5897 -12.100762887457792 1.26828626394426 18.478433258029355 0 0 0
1197 399 1 0.5897 -9.436409794168302 2.409918328216202 17.308841683317347 0 0 0
1216 406 2 -1.1794 -12.32371606533659 2.908944520550234 17.676943431154456 0 0 0
1206 402 1 0.5897 -11.275448836051257 0.019941965078727364 18.249871681441963 0 0 0
1099 367 2 -1.1794 -10.067056971265094 -0.5209350242161452 16.96519367290523 0 0 0
1251 417 1 0.5897 -11.344709219171413 1.9626724979710506 21.309933741282165 0 0 0
1142 381 1 0.5897 -8.595809328615921 -6.402995628323466 20.415259283478434 0 0 0
1087 363 2 -1.1794 -6.596798903034466 -5.0107231919721045 16.378290748009032 0 0 0
1096 366 2 -1.1794 -8.945206869249496 -6.636805784755985 18.66243899234711 0 0 0
1226 409 1 0.5897 -7.846040521974068 -2.801827863780783 21.46933934545176 0 0 0
1221 407 1 0.5897 -10.848436976132891 -2.23066629240002 19.212445857184996 0 0 0
165 55 1 0.5897 -5.511973369444391 -5.706534727914661 21.59106619452678 1 1 -1
866 289 1 0.5897 -12.40886002081416 1.802354306155042 16.279672370656613 0 0 0
1101 367 1 0.5897 -10.362965086062259 -1.1470983423390573 16.304412959364978 0 0 0
40 14 2 -1.1794 -15.019824493798787 3.7556010437070757 1.9676436061584035 1 0 0
177 59 1 0.5897 -14.022306758417425 4.47239046555749 3.3534063127799834 1 0 0
42 14 1 0.5897 -15.494960932447526 4.314430321973882 1.352641545794851 1 0 0
85 29 2 -1.1794 -10.949858120850955 4.967495387903165 1.6938920819289363 1 0 0
55 19 2 -1.1794 -13.274563122792184 6.228649777743339 0.993424113129807 1 0 0
56 19 1 0.5897 -12.433684874907751 5.858790784043206 1.2621179816530042 1 0 0
66 22 1 0.5897 -13.404990772345599 2.990073784665908 1.6936428937551984 1 0 0
65 22 1 0.5897 -11.955592397272891 3.424902710552553 1.6561962476748397 1 0 0
64 22 2 -1.1794 -12.515347036427187 2.6508022384135277 1.596488472757 1 0 0
191 64 1 0.5897 -12.654650024611493 6.113456611717661 4.229681576188302 1 0 0
190 64 2 -1.1794 -12.078600255184796 6.877293876204176 4.258544313154071 1 0 0
183 61 1 0.5897 -12.066884377175352 3.7028776549863167 4.533605462592791 1 0 0
181 61 2 -1.1794 -11.236758939570775 3.357557551721147 4.8618184393948285 1 0 0
176 59 1 0.5897 -14.314927362012593 4.536894010225586 4.837460544001109 1 0 0
175 59 2 -1.1794 -13.609370569361962 4.644424156760767 4.199691887616909 1 0 0
108 36 1 0.5897 -10.01396661413332 2.781074487580467 3.624987833159915 1 0 0
162 54 1 0.5897 -14.505409401622211 6.848932762068575 2.2562575277671657 1 0 0
45 15 1 0.5897 -9.704325416199898 2.1202861387997096 1.2469562963217933 1 0 0
167 56 1 0.5897 -16.525327771004484 6.222602620590349 3.517976368437733 1 0 0
206 69 1 0.5897 -15.073295917174093 7.392185047425928 4.64850717276969 1 0 0
152 51 1 0.5897 -12.890516043529685 7.9397877403351185 0.4328395225450987 1 0 0
43 15 2 -1.1794 -9.766776299034834 1.7980240817472168 0.34773238977432097 1 0 0
151 51 2 -1.1794 -12.71265606588491 8.88001348823129 0.40920911417955474 1 0 0
160 54 2 -1.1794 -15.217410547456588 7.174756195733755 2.806718780875679 1 0 0
284 95 1 0.5897 -17.308175260194655 11.6787913225445 4.739730928070142 1 0 0
153 51 1 0.5897 -12.722494767707012 9.149265892268529 1.32777670633875 1 0 0
205 69 2 -1.1794 -14.946246430841525 7.723000139129036 5.537763011601844 1 0 0
216 72 1 0.5897 -13.136789651653142 9.787616164870938 3.6456204711525877 1 0 0
215 72 1 0.5897 -12.380263827996227 8.485922449408582 3.4873666391944607 1 0 0
174 58 1 0.5897 -16.437664363521435 10.04092703154887 1.7768345442686264 1 0 0
173 58 1 0.5897 -14.958721599005507 10.33055461861826 1.6352075360045801 1 0 0
172 58 2 -1.1794 -15.58925904584245 9.61126531655078 1.6689784007397157 1 0 0
161 54 1 0.5897 -15.358411724534628 8.07367363072967 2.509512452747894 1 0 0
193 65 2 -1.1794 -13.972288608577536 11.831386072994507 1.6491722095840096 1 0 0
283 95 2 -1.1794 -16.667030375481943 11.802588241527245 4.039895035168598 1 0 0
285 95 1 0.5897 -17.130238000133957 11.547659204243443 3.2419390914126223 1 0 0
148 50 2 -1.1794 -18.09689347231838 10.805884736982064 1.9402004898268257 1 0 0
150 50 1 0.5897 -18.52618986650186 11.326946234877285 1.261602749825907 1 0 0
289 97 2 -1.1794 -14.408926746560617 10.344540841082464 4.792172999075611 1 0 0
291 97 1 0.5897 -15.184320611396833 10.770297352143805 4.426642327957818 1 0 0
192 64 1 0.5897 -11.19612558513297 6.515266084223786 4.17986585955806 1 0 0
207 69 1 0.5897 -14.741595541761878 8.650824080314228 5.42165067645874 1 0 0
57 19 1 0.5897 -13.588855353530159 5.637855499567548 0.3089846700038376 1 0 0
290 97 1 0.5897 -14.142027061900194 10.912005050392937 5.51538968110992 1 0 0
182 61 1 0.5897 -10.981720172674482 3.9652768374759066 5.55602411641616 1 0 0
106 36 2 -1.1794 -9.371109080712417 2.374747518530313 3.043805054036929 1 0 0
214 72 2 -1.1794 -12.470074546831835 9.360198072497711 3.1080890492668036 1 0 0
532 178 2 -1.1794 -11.094596068685474 5.053853634411675 7.0132277958512965 1 0 0
521 174 1 0.5897 -10.593225638002814 3.5012514063585733 7.810457813745889 1 0 0
534 178 1 0.5897 -11.96333118103816 5.452051767587594 7.06578488167749 1 0 0
645 215 1 0.5897 -12.452676737289714 6.960347893986521 8.790644148756634 1 0 0
644 215 1 0.5897 -12.657712031144385 7.098125187504438 10.284366534397801 1 0 0
643 215 2 -1.1794 -11.996984287654588 7.1959957804337 9.598794132399801 1 0 0
510 170 1 0.5897 -13.96810728724156 6.829560283408183 6.805542236846463 1 0 0
508 170 2 -1.1794 -13.512921945644276 6.2981070901415155 7.458725952463814 1 0 0
543 181 1 0.5897 -10.59614937887776 6.223393585690133 9.871121223860776 0 0 0
509 170 1 0.5897 -14.210870541213957 5.826922638900905 7.913637540802283 1 0 0
636 212 1 0.5897 -15.217240320356066 7.62446109754074 9.99686657982571 1 0 0
459 153 1 0.5897 -10.148929292636625 4.147958670525414 10.718921163303545 0 0 0
519 173 1 0.5897 -16.44726365675455 7.437065464254202 6.532429415635746 1 0 0
533 178 1 0.5897 -10.488354762385827 5.792068628037166 7.073361703890963 1 0 0
518 173 1 0.5897 -16.590519114525815 7.48325640853813 8.038943600551814 1 0 0
642 214 1 0.5897 -14.86595007470713 12.40412604462283 7.027849277716614 1 0 0
565 189 2 -1.1794 -13.156063241306589 10.214427682156819 10.832907526888485 0 0 0
640 214 2 -1.1794 -14.007143025444302 11.982289141882502 7.004738685904324 1 0 0
641 214 1 0.5897 -13.38336349525977 12.708230098111004 7.001903346463879 1 0 0
457 153 2 -1.1794 -10.24839837915942 3.1970847535171227 10.76558552027023 0 0 0
617 206 1 0.5897 -17.138698891538205 12.796272660618145 7.640075445488663 1 0 0
567 189 1 0.5897 -13.07507958950703 11.166650460634004 10.778582160947114 0 0 0
630 210 1 0.5897 -12.839986268752284 9.212720830982432 7.66546537654566 1 0 0
628 210 2 -1.1794 -13.508089914352132 9.603049065665738 8.22885888120906 1 0 0
629 210 1 0.5897 -13.693751588212466 10.452239394202591 7.828003101364889 1 0 0
634 212 2 -1.1794 -15.636035141353467 8.212044120109626 9.36786659311773 1 0 0
635 212 1 0.5897 -14.910087479385776 8.587059997038589 8.869421099833199 1 0 0
566 189 1 0.5897 -13.252647274673443 9.92957485987978 9.924121217907189 0 0 0
520 174 2 -1.1794 -10.469940645093383 2.5882682135066037 8.070311202233517 1 0 0
327 109 1 0.5897 -13.62218753991812 13.235566043277933 9.80906841495687 0 -1 0
458 153 1 0.5897 -10.273278365568805 2.913270308582307 9.851695280019106 0 0 0
523 175 2 -1.1794 -11.725564464663353 8.586304222187279 6.3992181640285635 1 0 0
646 216 2 -1.1794 -18.436406819136714 11.896097333694408 8.4866279660117 1 0 0
525 175 1 0.5897 -11.986077238038657 7.932780948502208 5.750129903368823 1 0 0
874 292 2 -1.1794 -13.409808537704205 4.730196711962446 14.892717041068195 0 0 0
887 296 1 0.5897 -10.203908336677395 4.130921708848774 14.132385299238011 0 0 0
876 292 1 0.5897 -12.538833370484952 4.339461047779983 14.823844565491004 0 0 0
945 315 1 0.5897 -14.153533030558714 6.99532688046631 12.025136533645389 1 0 0
848 283 1 0.5897 -13.756166710027784 3.5981858991925826 11.985704949170815 1 0 0
900 300 1 0.5897 -14.434550387589079 7.629596874161409 14.404004549921142 0 0 0
899 300 1 0.5897 -13.649501676338799 6.35362484487406 14.186363905139697 0 0 0
898 300 2 -1.1794 -13.766701210173034 7.238564735780672 13.840792747023178 0 0 0
886 296 2 -1.1794 -10.915626432789768 3.650658953461953 14.555333312835327 0 0 0
944 315 1 0.5897 -14.345473054555416 5.708865532593471 11.250446537247312 1 0 0
869 290 1 0.5897 -12.443935138008879 8.190147334039947 13.123986750869285 0 0 0
943 315 2 -1.1794 -14.254578650423667 6.654868526916923 11.13618542916693 1 0 0
659 220 1 0.5897 -17.109894057528123 11.182716779278929 14.883539115682922 0 -1 0
868 290 2 -1.1794 -11.73165099317828 8.633552788787144 12.663409997090259 0 0 0
660 220 1 0.5897 -15.626746540349206 11.476708689036213 14.812441899814772 0 -1 0
670 224 2 -1.1794 -14.068599996779753 10.639962456252812 14.515171739217115 0 -1 0
956 319 1 0.5897 -16.74868562749119 10.703014416559379 12.085861223272184 1 0 0
877 293 2 -1.1794 -15.337997226239166 9.584821797921188 12.369335226036211 0 0 0
878 293 1 0.5897 -14.905327880834104 9.872491527759928 13.173286136212736 0 0 0
879 293 1 0.5897 -14.689797324763026 9.73419344204869 11.681091333178266 0 0 0
875 292 1 0.5897 -14.005967271624161 3.9823012524357804 14.929555693586865 0 0 0
728 243 1 0.5897 -17.278807662872133 12.817540841740255 11.234182264146181 1 -1 0
680 227 1 0.5897 -11.059198725610356 9.528686112113766 15.488151022999887 0 -1 0
683 228 1 0.5897 -16.851021245224654 13.52583910092269 14.133930037762168 0 -1 0
658 220 2 -1.1794 -16.48339006805528 11.903492151059195 14.819735967626709 0 -1 0
672 224 1 0.5897 -13.632898497991857 10.063285921206687 15.142781659155725 0 -1 0
870 290 1 0.5897 -12.171125828224358 9.189601512580248 12.020015710684554 0 0 0
671 224 1 0.5897 -13.363022208801484 11.172887495454772 14.148799205571676 0 -1 0
649 217 2 -1.1794 -15.813116683225882 8.150664076980624 15.471001428408382 0 -1 0
955 319 2 -1.1794 -17.54143907047061 11.133197696488763 11.765578081154036 1 0 0
650 217 1 0.5897 -15.615546573676799 8.73704497710087 16.201363370076404 0 -1 0
1018 340 2 -1.1794 -11.866171122705332 7.29867458002102 20.139813468269182 0 -1 0
1019 340 1 0.5897 -12.440072172527803 6.533049815196465 20.163712353614393 0 -1 0
1020 340 1 0.5897 -10.981496355455116 6.934501545039346 20.112524414375773 0 -1 0
1030 344 2 -1.1794 -9.397673703990742 6.100373290120061 19.88788771349664 0 -1 0
1043 348 1 0.5897 -12.127986032593572 8.89859487077076 19.375735910482923 0 -1 0
1032 344 1 0.5897 -8.991238418526521 5.531293723543028 20.54153478194889 0 -1 0
1239 413 1 0.5897 -10.185083170950076 5.2886599487643355 17.036040283431607 0 0 0
1237 413 2 -1.1794 -10.828343602914593 5.1581850132370946 17.7327095581264 0 0 0
1003 335 2 -1.1794 -13.466070104063405 5.000499065237042 20.169393617345996 0 -1 0
1208 403 1 0.5897 -12.278025049976334 6.1345825958893325 17.43865236423241 0 0 0
1207 403 2 -1.1794 -13.081650272618592 6.495573220918324 17.06452013827169 0 0 0
1238 413 1 0.5897 -10.361556438797603 5.386823054091822 18.536526026651686 0 0 0
990 330 1 0.5897 -14.402489073652864 7.058033969659663 18.199037206098808 0 -1 0
989 330 1 0.5897 -15.139591234487009 8.366593221664372 18.389157952924908 0 -1 0
1034 345 1 0.5897 -14.848335792549689 7.753821828534418 20.548026123980577 0 -1 0
980 327 1 0.5897 -12.768060220857794 8.160902266444973 16.386108271804694 0 -1 0
1035 345 1 0.5897 -14.60344243215692 8.970220812056565 21.415427952152243 0 -1 0
1113 371 1 0.5897 -16.924445933303733 11.923620624658449 19.32441351637038 0 -1 0
1002 334 1 0.5897 -16.27515539338623 10.3180185871957 17.63917260129849 0 -1 0
1033 345 2 -1.1794 -14.807570093679224 8.03619570513653 21.46179173955571 0 -1 0
979 327 2 -1.1794 -12.606431099081888 9.102891520037952 16.33357482368906 0 -1 0
988 330 2 -1.1794 -15.052485714858197 7.486653720794349 18.75575656244632 0 -1 0
1042 348 2 -1.1794 -12.31882523116432 9.774618177525467 19.040424177981958 0 -1 0
1021 341 2 -1.1794 -13.736571880162423 12.114247470171035 17.67762624585331 0 -1 0
1098 366 1 0.5897 -17.407613031575707 14.115594539798986 18.097434609972673 0 -1 0
992 331 1 0.5897 -15.185283561360439 13.117890750225127 17.31158177428703 0 -1 0
1001 334 1 0.5897 -14.795303564828224 10.634275291501273 17.604092529494203 0 -1 0
1000 334 2 -1.1794 -15.417238578346236 9.9121538075615 17.515564841344325 0 -1 0
991 331 2 -1.1794 -16.034827106389386 13.460306719999151 17.033924196419353 0 -1 0
1111 371 2 -1.1794 -16.43167670426618 12.05416298659374 20.134615825166478 0 -1 0
1023 341 1 0.5897 -13.038920214868412 12.241446496878917 17.034798487067228 0 -1 0
981 327 1 0.5897 -12.602180430498663 9.396815808468288 17.244592573994666 0 -1 0
1140 380 1 0.5897 -11.988867144598867 12.473406775885605 20.549022409263095 0 -1 0
1138 380 2 -1.1794 -12.41568814700182 13.058083707429157 19.92271244122735 0 -1 0
1128 376 1 0.5897 -13.94568651721452 13.907835160239975 20.088982837774356 0 -1 0
1022 341 1 0.5897 -13.344415031354194 12.372198610939185 18.511881610605702 0 -1 0
1127 376 1 0.5897 -15.410956321870254 13.535507145992883 20.163688962020128 0 -1 0
1126 376 2 -1.1794 -14.822561926627134 14.289521670016375 20.126719590932332 0 -1 0
1119 373 1 0.5897 -15.009829432383782 11.07646238218699 20.51426281967035 0 -1 0
1117 373 2 -1.1794 -14.216836035477538 10.657425591398441 20.848432582846797 0 -1 0
1044 348 1 0.5897 -12.980058098860777 10.121864060344004 19.639036010363117 0 -1 0
1013 338 1 0.5897 -10.853587171381733 10.654606145327241 18.468693348235657 0 -1 0
993 331 1 0.5897 -16.284773748218925 12.909439356992321 16.292052776248095 0 -1 0
1209 403 1 0.5897 -13.33687822250295 5.865382797700089 16.39072452596833 0 0 0
1010 337 1 0.5897 -10.911608923485343 4.293551014339636 21.52865108617132 0 -1 0
1118 373 1 0.5897 -13.912123204231136 11.2404478131386 21.543786902760754 0 -1 0
311 104 1 0.5897 -2.724993898224981 -7.908308456968923 3.4344551896159494 1 1 0
316 106 2 -1.1794 -1.843840464094649 -4.391235849363102 1.689971600803677 1 1 0
201 67 1 0.5897 0.3410229995810301 -8.316818596057933 0.30283672822275404 1 1 0
243 81 1 0.5897 -0.904489167301934 -5.394271186332483 5.326116400542099 0 1 0
241 81 2 -1.1794 -1.0684044231820202 -6.328867527319002 5.45218140192912 0 1 0
306 102 1 0.5897 -0.7052932143182762 -7.207394753603842 2.179411500654683 1 1 0
305 102 1 0.5897 -1.572634167521377 -6.00277411742703 2.476627371141663 1 1 0
293 98 1 0.5897 -4.977637664733702 -3.6625096593092783 2.2964855126581365 1 1 0
304 102 2 -1.1794 -1.3858901258589285 -6.893089318307883 2.7745033978059164 1 1 0
318 106 1 0.5897 -2.7083996601183777 -3.9807756655105404 1.6994858184973047 1 1 0
310 104 2 -1.1794 -3.4359842548679174 -8.36193002575407 3.887012014256209 1 1 0
242 81 1 0.5897 -1.1898650910251956 -6.672708501574658 4.567096348073976 0 1 0
3 1 1 0.5897 -1.472363727816429 -3.313077713132084 4.56935273516454 0 0 0
95 32 1 0.5897 -5.76280671495536 -0.8088522843078181 3.546258628716094 1 0 0
26 9 1 0.5897 -4.129024581502545 0.38815158425736307 4.56216597423208 0 0 0
96 32 1 0.5897 -6.015634651858287 -1.8692093588293046 4.596875888144746 1 0 0
88 30 2 -1.1794 -4.491593280114059 0.11572705616246637 2.788855899323208 1 0 0
104 35 1 0.5897 -3.6121683149441326 -2.4095695048594727 4.868829824489568 1 0 0
90 30 1 0.5897 -3.791436395886821 -0.21759040061775714 2.2277824040926264 1 0 0
94 32 2 -1.1794 -6.466060412447143 -1.2902461237380125 3.9819005054929484 1 0 0
27 9 1 0.5897 -3.971868589295302 1.6608982910078272 5.3667777522789875 0 0 0
25 9 2 -1.1794 -4.106916682750273 0.7179245361348414 5.4605647470908565 0 0 0
303 101 1 0.5897 -7.156795838789327 -2.0536162498037474 1.0230362222389406 1 1 0
292 98 2 -1.1794 -4.276565592445604 -3.1701513663617904 1.8696757719187527 1 1 0
294 98 1 0.5897 -4.7271451811552145 -2.6084241003838775 1.239025059994558 1 1 0
103 35 2 -1.1794 -2.938060674420151 -2.2375751131868356 4.2114625875901845 1 0 0
105 35 1 0.5897 -3.3749738922815347 -2.3907406699539173 3.373634216180527 1 0 0
89 30 1 0.5897 -4.660129853392543 0.9997480319607366 2.4627095920795536 1 0 0
317 106 1 0.5897 -1.229712482619858 -3.657203728679894 1.7020020999520835 1 1 0
307 103 2 -1.1794 -2.5264244779899183 -0.7771768250314199 1.0633837931312295 1 1 0
309 103 1 0.5897 -2.783112258345925 -1.3591377889899698 0.3480325851762505 1 1 0
1 1 2 -1.1794 -0.6861054665998676 -3.720698507232129 4.932333861210269 0 0 0
322 108 2 -1.1794 -6.295722805116932 -4.5792741246119775 3.1168855494235244 1 1 0
302 101 1 0.5897 -7.331600550041211 -1.9444989740368266 2.5229601459659245 1 1 0
1262 421 1 0.5897 -2.016994572206144 -5.51862204074633 0.3075394443130226 0 0 1
404 135 1 0.5897 -5.196698123866158 -3.7536946693789 5.8646916887986755 1 0 0
335 112 1 0.5897 -4.95820413064263 -5.333135485190622 9.423321767026325 0 0 0
336 112 1 0.5897 -3.4630165600612726 -5.102610792679721 9.473218209632659 0 0 0
334 112 2 -1.1794 -4.2993970848034495 -4.638920225871879 9.434426114167616 0 0 0
346 116 2 -1.1794 -1.8677964668738696 -5.849164713811497 9.231250905300247 0 0 0
632 211 1 0.5897 -4.652032861540367 -5.9069160860299625 6.6959283104425245 1 1 0
356 119 1 0.5897 1.1202584004603384 -6.92751526720863 10.0919952025414 0 0 0