LAMMPS (30 Jul 2021)
  using 1 OpenMP thread(s) per MPI task
package omp 0
using multi-threaded neighbor list subroutines
echo both

include		in.partitions
variable        pid world 0
include		in.temp
variable        temperature equal 263.26
variable	tempDamp equal 100.0
include		in.pressure
variable        pressure equal 6625.0
variable        pressureDamp equal 1000.0 # This is 1 ps
include		in.seed
variable        seed world 745823

units		real
atom_style	full

read_restart	restart.lmp.${pid}
read_restart	restart.lmp.0
Reading restart file ...
  restart file = 30 Jul 2021, LAMMPS = 30 Jul 2021
  restoring atom style full from restart
  orthogonal box = (0.010071840 0.079020816 0.014300551) to (19.989929 19.920980 20.685697)
  4 by 4 by 4 MPI processor grid
  restoring pair style lj/cut/tip4p/long/omp from restart
  restoring bond style harmonic/omp from restart
  restoring angle style harmonic/omp from restart
  972 atoms
  648 bonds
  324 angles
Finding 1-2 1-3 1-4 neighbors ...
  special bond factors lj:    0        0        0       
  special bond factors coul:  0        0        0       
     2 = max # of 1-2 neighbors
     1 = max # of 1-3 neighbors
     1 = max # of 1-4 neighbors
     2 = max # of special neighbors
  special bonds CPU = 1.545 seconds
  read_restart CPU = 1.946 seconds
include 	in.setup
variable	out_freq equal 1000
variable	out_freq2 equal 10000
variable	out_freq3 equal 1000

timestep	2.0

neigh_modify    delay 7 every 1

include		in.tip4p
# This is TIP4P/Ice

# create groups ###
group ox type 2
324 atoms in group ox
group hy type 1
648 atoms in group hy

# set charges - beside manually ###
set group ox charge -1.1794
Setting atom values ...
  324 settings made for charge
set group hy charge 0.5897
Setting atom values ...
  648 settings made for charge

# ### TIP3P Potential Parameters ###
pair_style lj/cut/tip4p/long/omp 2 1 1 1 0.1577 8.5
pair_coeff 1 1*2 0.000 0.000
pair_coeff 2 2 0.21084 3.1668
bond_style  harmonic
bond_coeff  1 450 0.9572
angle_style harmonic
angle_coeff 1 55 104.52
kspace_style pppm/tip4p/omp 1.0e-5
pair_modify tail yes

thermo          ${out_freq}
thermo          1000
thermo_style    custom step temp pe etotal epair emol press lx ly lz vol pxx pyy pzz pxy pxz pyz enthalpy

restart 	${out_freq3} restart.lmp.${pid} restart2.lmp.${pid}
restart 	1000 restart.lmp.${pid} restart2.lmp.${pid}
restart 	1000 restart.lmp.0 restart2.lmp.${pid}
restart 	1000 restart.lmp.0 restart2.lmp.0


include         in.dump
dump            myDump all atom ${out_freq2} dump.water.${pid}
dump            myDump all atom 10000 dump.water.${pid}
dump            myDump all atom 10000 dump.water.0
dump            myDump2 all dcd ${out_freq2} dump.dcd
dump            myDump2 all dcd 10000 dump.dcd
dump_modify     myDump append yes
dump_modify     myDump2 append yes


variable natoms 	equal  "count(all)"                        # NUMBER ATOMS
variable H      	equal  "enthalpy/v_natoms"                 # ENTHALPY-per-atom
variable Vol      	equal  "vol/v_natoms"                 # volume-per-atom
fix AVG all 		ave/time ${out_freq} 1 ${out_freq} v_Vol v_H file vol_enthalpy.dat
fix AVG all 		ave/time 1000 1 ${out_freq} v_Vol v_H file vol_enthalpy.dat
fix AVG all 		ave/time 1000 1 1000 v_Vol v_H file vol_enthalpy.dat


timer           timeout 02:55:00 every 1000
New timer settings: style=normal  mode=nosync  timeout=02:55:00

fix 		1 all shake 1e-6 200 0 b 1 a 1
       0 = # of size 2 clusters
       0 = # of size 3 clusters
       0 = # of size 4 clusters
     324 = # of frozen angles
  find clusters CPU = 1.225 seconds
fix             2 all nph aniso ${pressure} ${pressure} ${pressureDamp}
fix             2 all nph aniso 6625 ${pressure} ${pressureDamp}
fix             2 all nph aniso 6625 6625 ${pressureDamp}
fix             2 all nph aniso 6625 6625 1000
fix             3 all temp/csvr ${temperature} ${temperature} ${tempDamp} ${seed}
fix             3 all temp/csvr 263.26 ${temperature} ${tempDamp} ${seed}
fix             3 all temp/csvr 263.26 263.26 ${tempDamp} ${seed}
fix             3 all temp/csvr 263.26 263.26 100 ${seed}
fix             3 all temp/csvr 263.26 263.26 100 745823


run             250000
PPPM initialization ...
  extracting TIP4P info from pair style
  using 12-bit tables for long-range coulomb (../kspace.cpp:340)
  G vector (1/distance) = 0.37160628
  grid = 24 24 24
  stencil order = 5
  estimated absolute RMS force accuracy = 0.0035842519
  estimated relative force accuracy = 1.0793868e-05
  using double precision FFTW3
  3d grid and FFT values/proc = 2197 216
Last active /omp style is kspace_style pppm/tip4p/omp
Neighbor list info ...
  update every 1 steps, delay 7 steps, check yes
  max neighbors/atom: 2000, page size: 100000
  master list distance cutoff = 10.8154
  ghost atom cutoff = 10.8154
  binsize = 5.4077, bins = 4 4 4
  1 neighbor lists, perpetual/occasional/extra = 1 0 0
  (1) pair lj/cut/tip4p/long/omp, perpetual
      attributes: half, newton on, omp
      pair build: half/bin/newton/omp
      stencil: half/bin/3d
      bin: standard
Per MPI rank memory allocation (min/avg/max) = 9.222 | 9.225 | 9.228 Mbytes
Step Temp PotEng TotEng E_pair E_mol Press Lx Ly Lz Volume Pxx Pyy Pzz Pxy Pxz Pyz Enthalpy 
10750000    268.23206   -4661.4033   -4144.0952   -4661.4033            0    7415.1275    19.979857    19.841959    20.671397    8194.9586     8171.172    7418.0812    6656.1294    1317.1243    167.26919   -763.57599   -3257.8758 
10751000    260.30709   -4688.1091    -4186.085   -4688.1091            0    6612.0766    19.865758    20.095155    20.412145    8148.6405    7279.5645    5116.1746    7440.4908    186.26588    262.53167   -542.49741   -3400.3087 
10752000    266.88815   -4691.9777   -4177.2615   -4691.9777            0    8622.5712    19.838626    19.984024    20.517508    8134.2806    7969.4348    10408.256     7490.023    59.692916    24.890635    280.97243   -3154.3646 
10753000    261.98781   -4700.2851   -4195.0196   -4700.2851            0    5136.0174    20.019749    19.754427    20.900511    8265.7066    2835.6269    6751.8748    5820.5506    642.08197   -70.193228   -717.72816   -3575.8889 
10754000    257.65049   -4724.6793   -4227.7787   -4724.6793            0    6946.4255    19.969109    19.761225    20.725964    8178.7569    6089.1559    8052.4189    6697.7017   -300.69028   -1265.0204   -371.16616   -3399.2175 
10755000    249.02139   -4668.1522   -4187.8936   -4668.1522            0     7028.021    19.984839    19.932307    20.574398    8195.6867    6591.7608    6226.9096    8265.3926    171.91263   -122.41557    230.09232   -3347.8645 
10756000    268.56681   -4686.9082   -4168.9545   -4686.9082            0    7458.3361    19.853722    20.017272    20.522837    8156.1319    5967.4151    8544.8926    7862.7007    231.63431   -187.87294    1128.9525   -3281.7942 
10757000    255.41132   -4666.6263    -4174.044   -4666.6263            0    8074.7258    19.845764    19.910113    20.637107    8154.3694    8192.8783    7290.0357    8741.2633   -626.28491    505.58458   -679.75696   -3213.7725 
10758000    254.22231   -4671.6384   -4181.3493   -4671.6384            0    7501.7205    19.863495    20.016949    20.625128    8200.6865    6782.0106    8800.9498    6922.2011   -201.29305   -223.55889    249.93099    -3284.154 
10759000    277.98351   -4682.9604   -4146.8458   -4682.9604            0    7410.6764    20.058929    19.893061    20.414491    8146.0655    7971.8854    5956.2664    8303.8774     427.3078    1243.5875    454.53617   -3266.4426 
10760000    274.66875    -4687.401   -4157.6792    -4687.401            0     8069.595    19.990035    19.855288    20.519623    8144.4004    7186.7479    8578.3715    8443.6654    932.17219   -1030.2023    927.27219   -3199.1911 
10761000    260.07455   -4683.3867   -4181.8111   -4683.3867            0    7357.7294    20.134458    19.691733     20.58734    8162.5173    4482.5084    10368.633    7222.0469      129.832    728.40721     218.3931   -3305.9327 
10762000    273.18014   -4665.3929   -4138.5421   -4665.3929            0    6937.4429    19.826448    20.065471    20.593093    8192.4892    7348.3984    6644.1423    6819.7879    283.03398   -651.72037   -954.78919    -3309.663 
10763000    273.66262   -4666.4208   -4138.6394   -4666.4208            0     6345.144    20.000516    19.943133    20.414656    8142.8543    4326.8351    7763.3099    6945.2871   -299.28716   -277.43923    918.84834   -3385.1207 
10764000    255.66119   -4692.8964   -4199.8323   -4692.8964            0     5820.564    19.942605     20.01482     20.67198     8251.172    6097.2084    5888.1597    5476.3241   -1182.7487     396.2308   -364.01126   -3499.4154 
10765000    260.29499   -4692.6952   -4190.6944   -4692.6952            0    7131.2473    19.757184    19.934279    20.812563    8196.9283    7989.3273    6554.0012    6850.4133    607.92135   -2186.2301   -691.27956   -3338.1981 
10766000    250.63231   -4673.6982   -4190.3328   -4673.6982            0    4868.2219    20.151212    19.929891    20.671372      8301.86    3695.7734    5463.3813     5445.511    226.59561   -300.17991    1278.9368   -3600.9171 
10767000    270.37119    -4703.584   -4182.1504    -4703.584            0    6523.9019    19.954379    20.222865    20.419033    8239.7885     6468.417    5592.7925    7510.4964   -149.97112    715.86296   -206.89139   -3398.1805 
10768000    249.84922   -4698.8256   -4216.9704   -4698.8256            0    4183.1389    20.102541    20.129764    20.390618    8251.2557    4552.7621    1856.5646      6140.09   -203.59267    50.442024    760.45417   -3713.5878 
10769000     273.7059   -4719.0654   -4191.2005   -4719.0654            0    6429.0289    19.929292    19.917875    20.774068    8246.2485     6901.578    5929.0422    6456.4666    298.73411    2270.3188    1090.7396   -3418.0257 
10770000    272.70364   -4714.6242   -4188.6923   -4714.6242            0    7219.1829    19.825518    19.860765    20.701503    8151.2158    8525.4355    6625.5916    6506.5216   -106.79027   -411.80866    -309.8562   -3330.4966 
10771000     258.4725   -4716.5314   -4218.0454   -4716.5314            0    5741.3633    19.918388    20.068197    20.668061    8261.5642    6949.5498    4501.6888    5772.8514    470.02473     827.0956    -308.9399    -3526.289 
10772000    268.42186   -4699.5293   -4181.8552   -4699.5293            0    7641.0908    19.924146    19.909015    20.565328     8157.651    8287.1207    6673.1459    7963.0057    553.55265    562.51325   -22.863446   -3272.7872 
10773000    252.60386   -4693.7169   -4206.5491   -4693.7169            0    8280.4921    19.639029    20.118187    20.597908    8138.2674     10300.49    6193.3019    8347.6846    505.48685    1680.2492    260.71176   -3223.7517 
10774000    275.98609   -4666.0215   -4133.7591   -4666.0215            0    6079.7419    20.129737    19.703994    20.704772    8212.2624     4395.875    8019.0592    5824.2914    999.88196    720.55939    738.45267   -3405.6041 
10775000    273.02757   -4675.1541   -4148.5975   -4675.1541            0    7452.4188    19.800267    20.009366    20.555024     8143.711    8750.7887     6558.424    7048.0437    32.129185   -92.278439    961.06968    -3263.491 
10776000    277.54815   -4693.3291   -4158.0541   -4693.3291            0    8679.2802    19.967616    20.011286    20.428974    8162.9615    7925.3299    8941.0975    9171.4131    841.77865    1532.6419    1329.2778   -3124.7995 
10777000    274.05912   -4675.4206   -4146.8745   -4675.4206            0    5461.7241    19.958291    20.082485    20.584774    8250.6261    4265.0311    4727.5758    7392.5653    315.13659    610.78482    375.82389   -3489.6821 
10778000    264.29369   -4711.3296    -4201.617   -4711.3296            0    5320.8639    19.657052    20.060512    20.877855    8232.7754    4807.7673    5996.1166    5158.7078    551.35969    108.53082    1386.2885    -3562.759 
10779000     262.6628   -4678.3339   -4171.7666   -4678.3339            0    7162.5144    19.833301    19.993659    20.566403     8155.407    7180.5778    7432.5559    6874.4095   -535.16733    749.69457    -88.64033   -3319.8697 
10780000    268.40801   -4674.6474        -4157   -4674.6474            0      8165.69    19.713124    20.125458    20.520009    8141.0191     9620.393    5808.2627    9068.4144    767.03241   -2338.5911    785.81699   -3187.5006 
10781000     259.3865   -4647.0539   -4146.8053   -4647.0539            0    7890.5769    19.947536    20.020454    20.415801    8153.2278    7239.8974    8488.7465    7943.0867   -947.05008    737.39046   -1045.8701   -3208.5647 
10782000    258.40351   -4665.1135   -4166.7606   -4665.1135            0    6646.0901    19.795827    19.905539    20.755367    8178.5817    7952.9812    5324.1804    6661.1086     832.5894    121.05463    331.08453     -3374.04 
10783000    270.09522   -4690.8204    -4169.919   -4690.8204            0    6563.0688    19.926983    19.918175     20.64109    8192.6373    6770.6793    6567.4316    6351.0954   -291.69758   -339.08051    588.67975   -3385.7556 
10784000    270.27712    -4726.197   -4204.9448    -4726.197            0    6024.1207    19.929051    20.057458     20.51603    8200.7928     5836.843    3574.9584    8660.5607   -632.25619   -477.15731   -227.59671   -3484.4591 
10785000    248.86651   -4714.7099   -4234.7499   -4714.7099            0    8074.1421    19.915651    20.004452    20.559776    8191.0497    8063.0629    7627.2417    8532.1219    124.18505    282.40712   -848.69333   -3270.2285 
10786000    258.61501   -4718.6776   -4219.9168   -4718.6776            0    5846.4092    19.925839    19.915681    20.821302    8262.6556    4495.4555     7602.848    5440.9243    218.09521     389.2314    1266.5587   -3515.4107 
10787000    259.74382   -4689.6238    -4188.686   -4689.6238            0    8305.7904    19.843715    19.853903    20.726342    8165.6648    9181.2645    8646.4899    7089.6169     105.4665    162.50902    270.17315   -3199.5673 
10788000    274.65054    -4693.169   -4163.4824    -4693.169            0    7139.5355    19.788067     20.19068     20.47468    8180.3417    9369.6503    5198.4609    6850.4953   -611.78826   -380.89073    150.13053   -3311.7223 
10789000    255.50311   -4707.3354   -4214.5761   -4707.3354            0    5417.2604    20.068165    19.953909    20.688877    8284.6196     6409.197    4339.4599    5503.1242    166.59002    614.44354   -85.838195   -3560.0482 
10790000    263.50774   -4699.6895   -4191.4927   -4699.6895            0     7893.481    19.969115    19.767354     20.72317    8180.1926    7595.5321    10243.314     5841.597   -403.09494   -397.05794    2159.1938   -3249.8026 
10791000    265.57432   -4690.9122   -4178.7297   -4690.9122            0    5835.6157    19.798612    20.257303    20.520228    8229.9758    6301.9179    5064.5776    6140.3515   -541.24185    1013.5433   -374.65755   -3478.3056 
10792000    269.72865   -4710.8819   -4190.6875   -4710.8819            0     5811.781    20.043866    19.999991    20.490245    8214.0712    7499.2202    4159.4893    5776.6336   -363.25287    713.12572    95.986276   -3494.4721 
10793000    267.08426    -4683.803   -4168.7085    -4683.803            0     7562.823     19.95897    19.956941    20.513023    8170.7468    5758.3072    10081.195    6848.9669   -64.843611    846.59757    1918.2626   -3267.5077 
10794000    253.34851   -4707.6159    -4219.012   -4707.6159            0    5738.2056    20.182635    19.940989    20.410082    8214.2763    6315.4213    4968.5107    5930.6848    504.81587    280.91733    306.15086   -3531.5933 
10795000    244.66639   -4683.4515   -4211.5918   -4683.4515            0    7885.0506     19.96287    19.938049    20.585769    8193.5615    7942.3868    7568.1642    8144.6008    1081.6298   -922.25969   -6.9523011   -3269.3701 
10796000     255.0404   -4690.8885   -4199.0216   -4690.8885            0    6098.3125    20.016811    19.853893    20.695212    8224.5176    5317.7157    7287.4485    5689.7733   -186.67725    459.77261    1475.9505   -3467.5525 
10797000    263.87349   -4678.6957   -4169.7935   -4678.6957            0    8924.3867    19.957082    19.942831    20.458243    8142.3953    9361.3004     8835.961    8575.8989    62.922166    532.68848    205.35831   -3110.0361 
10798000    251.24527   -4685.9911   -4201.4435   -4685.9911            0    7304.4493    20.009578     19.80624    20.547594      8143.31    6079.0227    8849.6247    6984.7006    257.35765   -763.82825   -1135.5123   -3333.9538 
10799000    270.29015   -4688.0495   -4166.7722   -4688.0495            0    7024.3735    19.660089    19.987152    20.774323    8163.2532    8492.3299    6526.5142    6054.2764    90.408851    -443.6985   -602.60179   -3330.5017 
10800000    246.61219    -4682.308   -4206.6957    -4682.308            0    8367.3116    20.213002     19.55424    20.583244     8135.525    6541.4859     9125.481    9434.9679  -0.16717214   -1152.3323   -2012.5446   -3213.9285 
10801000    283.01457    -4661.728   -4115.9106    -4661.728            0    6527.2711    20.005797    20.094786    20.466311    8227.7067    7132.7581    5887.7178    6561.3374    569.56531    442.26585   -326.57165   -3332.6859 
10802000    259.35139   -4707.4184   -4207.2374   -4707.4184            0    7940.9134    20.006765    19.959911    20.332642    8119.4999    7717.3158    6476.5936    9628.8307    524.82087   -287.65087    1572.0306   -3266.9175 
10803000    263.74046   -4736.1345   -4227.4888   -4736.1345            0    5385.0547     19.88868    19.898897     20.77935    8223.6935    7805.8647    4410.3883    3938.9111    1123.9204    558.66029    485.63546   -3581.6369 
10804000    271.89111   -4682.8326   -4158.4678   -4682.8326            0    6795.2267     19.90764    20.039234    20.603775    8219.5432    7737.2477    6090.3454    6558.0871    835.73461    657.58876   -509.40623   -3343.8994 
10805000    256.84004   -4677.2949   -4181.9572   -4677.2949            0    6901.3972    20.166237    20.066022    20.377466    8245.8669    5787.9765     7140.886    7775.3292    587.43295   -567.72686   -615.48041   -3352.0124 
10806000    272.93306   -4670.6823    -4144.308   -4670.6823            0     6993.892    20.017158    19.759349    20.686235    8181.9439    8092.0923    6453.4521    6436.1314     604.0558   -340.71275    75.747197     -3309.76 
10807000    256.24844   -4710.5656   -4216.3689   -4710.5656            0    7372.6168    19.995677    19.828749    20.575131    8157.8186     6540.622    8272.1887    7305.0397   -309.79754    96.402487   -1212.2683   -3339.2235 
10808000    261.31993   -4697.7181   -4193.7407   -4697.7181            0    4385.9916    20.088623    20.117604    20.490372    8280.8756    4670.2957    3570.1834    4917.4957    109.63074     1859.189    511.21994   -3664.0529 
10809000    263.49351   -4700.5682   -4192.3988   -4700.5682            0    5469.5431    20.035981    19.979565    20.667184    8273.2843    5184.9178    5148.3179    6075.3937   -204.64291    207.79727    -681.2083   -3532.4582 
10810000    252.29197   -4673.5516   -4186.9853   -4673.5516            0    7207.2928    19.717875    20.027851    20.698626    8174.0252    9525.0299    5124.5704    6972.2782   -185.38568   -647.90717    843.20665   -3327.8056 
10811000    269.41665   -4693.8271   -4174.2345   -4693.8271            0    7554.5549    19.938928    19.928171    20.586141    8179.8282    5068.5309    10827.119    6768.0145   -555.84836    182.66716    655.05778   -3273.0183 
10812000    278.71247    -4680.313   -4142.7926    -4680.313            0     6214.571    19.952502     20.15795    20.505558    8247.3669    7293.7678    3745.8244    7604.1209    562.28425    222.82464    618.73353   -3395.3078 
10813000    274.92177    -4683.863   -4153.6533    -4683.863            0    7620.0918    20.103008    19.694464    20.652333    8176.6298    7107.4971    8132.2946    7620.4838    730.20598   -209.40473   -2750.8158   -3244.9744 
10814000    267.55697   -4704.9405   -4188.9344   -4704.9405            0    5816.8847    20.003624    20.141034    20.483647    8252.7316    4365.6743    6957.4698      6127.51   -24.908857    1261.1927    79.341758   -3488.8279 
10815000    268.91182   -4718.6615   -4200.0425   -4718.6615            0    7882.6426    20.029159     20.00376      20.4063    8175.9572    8214.5719    6762.1061    8671.2498   -458.68691   -137.28676    1131.3334   -3260.1323 
10816000    272.80158   -4672.2661   -4146.1453   -4672.2661            0    6486.9569    20.011517    19.952182    20.679634    8256.8286    6276.9585    6520.6343    6663.2779    912.01628   -2009.1224    664.24931    -3365.003 
10817000     260.4102   -4713.9383   -4211.7153   -4713.9383            0     6754.871      20.0441    19.981781    20.517924    8217.7732    6659.1346    6645.4549    6960.0234   -401.60388     226.3726   -609.49413    -3402.159 
10818000    273.24514   -4719.2091   -4192.2329   -4719.2091            0    5929.1653    19.967862    19.899421    20.750703    8245.2691    5733.9153    5606.8935    6446.6872   -777.34102   -245.72454   -446.10462   -3479.2579 
10819000    245.63958   -4701.0072   -4227.2706   -4701.0072            0    5703.3731    19.660656    20.173609    20.771252    8238.4267    6690.9308    4731.3443    5687.8443    340.32653    602.94415    1118.8318   -3542.0161 
10820000     263.2144   -4680.1485   -4172.5174   -4680.1485            0    7274.6372    20.256574    19.905059    20.473879     8255.238    5578.2314    6988.2203      9257.46   -233.57533   -1440.7366    320.52706   -3296.6934 
10821000    265.07132   -4692.8757   -4181.6634   -4692.8757            0    6197.5047    19.980184    20.040943    20.559939    8232.6462    7542.3306    6005.3648    5044.8187   -89.135431    14.009894    618.28867   -3437.5618 
10822000    273.12309   -4662.1891   -4135.4483   -4662.1891            0    5003.8472    20.133826    20.000987    20.655054    8317.7156    3067.9503    6341.6671    5601.9242     292.2486    1778.4952   -1320.4868   -3528.4548 
10823000    255.28945   -4715.6884   -4223.3412   -4715.6884            0    5890.7863    20.046585    19.999265    20.594601    8256.7249    6508.3819    5986.7112    5177.2658   -58.445959    32.190113     135.4985   -3513.9971 
10824000    251.02774   -4700.4722   -4216.3441   -4700.4722            0    5921.0849    20.128313    19.902273    20.591274    8248.8477    5344.7742    6638.5764    5779.9041   -124.06178    295.26234   -2295.8795   -3504.0318 
10825000    265.47931   -4706.6326   -4194.6335   -4706.6326            0    5370.4146    19.667225    20.038624    20.855625    8219.2881    6114.4338    4908.5157    5088.2944   -913.28167    171.94791    759.69067   -3550.8825 
10826000    252.44554   -4675.1602   -4188.2978   -4675.1602            0    6142.0066    19.956364    19.963923    20.639928     8223.098    7110.0885    4912.4279    6403.5033    602.20263    125.46175   -30.780426   -3451.7149 
10827000    256.53686   -4731.0292   -4236.2763   -4731.0292            0    6667.2212    19.808403    20.072917    20.543903    8168.5115    6786.1516    6120.8658    7094.6462   -904.30756    687.63489    314.76571   -3442.0145 
10828000    274.94599   -4675.7043   -4145.4478   -4675.7043            0    6608.0479    20.021489     19.95234    20.637723    8244.2661    5368.0051    8122.8957    6333.2428       174.86    393.89236     -884.802   -3350.9347 
10829000    252.46782   -4698.8524    -4211.947   -4698.8524            0    6896.4667     19.93759    20.039079    20.538863    8205.9112    6987.3964    6632.9825    7069.0211   -604.40206    491.69203   -20.080397   -3386.6138 
10830000    267.88989   -4690.3591   -4173.7109   -4690.3591            0    6742.1779    20.021967    20.034848    20.553993    8244.9687    6512.0495    6956.3398    6758.1442    70.022483   -993.01274    631.01182   -3363.0017 
10831000    268.32018   -4693.8075   -4176.3295   -4693.8075            0    7101.9462    19.961577    19.852509    20.644117    8181.0034    6979.2671    7472.3759    6854.1957   -1229.6455    857.39339   -1398.8527   -3328.9853 
10832000    247.80052   -4693.6974   -4215.7932   -4693.6974            0    6901.1879    19.948912    19.853585    20.795829    8236.3426    5858.1288    8382.0943    6463.3406   -136.92528    814.43313      1912.42   -3386.8322 
10833000     265.5972   -4697.7373   -4185.5108   -4697.7373            0    7298.8289    20.208712    19.976866    20.535429    8290.2907    7090.9344    7350.2322    7455.3201    99.302278   -934.61892    2013.4623    -3303.043 
10834000    272.71637   -4676.7203   -4150.7638   -4676.7203            0    7098.6305    20.002996    20.047045    20.515202    8226.6155    7628.9656    7088.5356    6578.3904   -59.176713    497.62944   -137.29072   -3299.0932 
10835000    256.37269   -4696.3131   -4201.8768   -4696.3131            0    8173.3266    19.781006    19.776507    20.793602    8134.4404    8629.4427    8096.8697    7793.6673   -149.21787   -1271.5854      483.512   -3232.2549 
10836000    263.61059   -4724.1234   -4215.7282   -4724.1234            0    3999.6888    19.939851    20.021356    20.767024    8290.6706     4304.075    3485.7327    4209.2588    -389.4327    660.55838   -805.66137   -3732.1221 
10837000    258.24433   -4710.4035   -4212.3576   -4710.4035            0    5507.3636    19.864356    20.176929    20.682626    8289.6312    6621.2088    4682.5487    5218.3333    4.4527109   -329.18602   -111.00592   -3546.5406 
10838000    259.76797   -4678.7627   -4177.7783   -4678.7627            0    6276.4402    20.167881    19.869481    20.370223    8162.8646    3709.0741      8006.23    7114.0166    350.37145   -1888.5361   -414.20289   -3430.5869 
10839000    260.09498   -4736.9703   -4235.3552   -4736.9703            0    8108.4252    19.966577    20.016421    20.275975    8103.4844    8675.4773    7174.2658    8475.5325    128.01305   -498.61286    938.47194   -3277.0934 
10840000     263.2164   -4708.2574   -4200.6225   -4708.2574            0    7300.9004     19.90399    19.982791    20.516822    8160.3047    8524.2273    6291.9736    7086.5005   -662.86444   -318.52184    608.79344   -3331.7447 
10841000    252.99138   -4690.8262   -4202.9111   -4690.8262            0    4880.2548    19.744103    19.994782      20.9139    8256.3694    5790.6329    6396.6244    2453.5069    24.975087     366.4261    522.53272   -3615.2763 
10842000    272.63352   -4719.2244   -4193.4277   -4719.2244            0    5537.9815    19.935062     19.90677     20.71738    8221.5406    7607.9052    3045.1796    5960.8598    -577.3515   -442.22508    1592.6682   -3529.4086 
10843000    271.69861   -4692.4076    -4168.414   -4692.4076            0    4424.3362     20.17942    19.913829    20.550974    8258.3989    3557.4178    4592.0204    5123.5705   -67.702901     100.5641    919.39579   -3635.5457 
10844000    261.04603   -4691.2623   -4187.8131   -4691.2623            0    7924.7927    19.999098    19.976265    20.440263    8166.0338    7577.0219    8355.0996    7842.2566   -1708.8852   -986.06776    1072.3563    -3244.024 
10845000    255.89365   -4723.3386   -4229.8262   -4723.3386            0    6648.8438    19.926127    19.944401    20.620849    8195.0278    6795.8038    5912.3776    7238.3502    575.39312    1451.6501   -256.88232   -3435.1825 
10846000    264.77245   -4680.8635   -4170.2276   -4680.8635            0    7924.1418     19.86109    19.861666    20.751572    8185.9622    10231.266    6542.7573    6998.4024    74.929978     1007.126    327.79586   -3224.2129 
10847000    273.13107   -4710.6361   -4183.8798   -4710.6361            0    6630.2285    19.756075     19.91373    20.734117    8157.1569    7024.8393    6159.7713    6706.0749   -484.37113   -78.344472   -2033.0084   -3395.1229 
10848000    255.99004   -4686.3985   -4192.7002   -4686.3985            0    7436.8182    20.048853    20.041307    20.478515    8228.3746    7739.0105    7583.0512    6988.3929    1143.7386   -78.524753   -335.50406   -3300.2641 
10849000    253.95779   -4677.8008   -4188.0218   -4677.8008            0    7895.2818    20.096035    19.740432    20.562212    8157.1202    7406.7042    8917.0179    7362.1234    469.76742   -604.43527   -941.95068   -3248.7736 
10850000    268.84316   -4709.4673   -4190.9806   -4709.4673            0    7185.9239    19.789606    19.921647    20.768207    8187.6901    7644.2057    7289.6657    6623.9003    175.21282    826.20418    238.35272   -3332.9162 
10851000    252.09198   -4718.6672   -4232.4866   -4718.6672            0    7015.9922    19.868168      19.9019    20.751499    8205.4391    6962.6035    7968.1618    6117.2113    608.38019   -1188.0059   -1052.1074   -3392.8974 
10852000    252.31141   -4675.1955   -4188.5917   -4675.1955            0    6503.8535    20.004919    20.171199     20.36541    8217.9155    6716.6142     6387.846    6407.1001   -322.40904   -633.43223    820.54796   -3409.1057 
10853000     265.7664   -4683.8019    -4171.249   -4683.8019            0    4751.0012    20.046632    19.991509    20.585208    8249.7777    3778.0118    4224.6115    6250.3802   -621.47556    1276.6347    -411.9587   -3599.6345 
10854000    264.57649   -4678.9576   -4168.6995   -4678.9576            0    8602.8617    19.818202     19.93577    20.530709    8111.5011    9436.1053    8767.7027     7604.777   -370.19989   -460.46364   -1492.0335   -3150.9989 
10855000    266.55307   -4645.1891   -4131.1191   -4645.1891            0    7457.8946    19.926986    19.837099    20.767855    8209.4001    5819.2489    9627.9265    6926.5085   -616.49438    914.93968   -824.63267   -3238.2176 
10856000    248.91135   -4700.5074    -4220.461   -4700.5074            0    6361.5353    19.928104    20.023721    20.662999    8245.2555    7722.9166    4882.3771    6479.3121    809.47212    1806.8819    606.44731   -3455.4953 
10857000    267.10452   -4703.1551   -4188.0216   -4703.1551            0    5798.5802    20.006456    20.060773    20.524382    8237.3575    7305.0676    4215.9728    5874.7002    774.73302    304.98576    484.01011   -3491.4183 
10858000    270.64313   -4697.1589   -4175.2008   -4697.1589            0    5269.0797    20.073826    20.151037    20.483869    8285.8974    5984.2751    4333.5775    5489.3864     717.8492    145.85861   -1041.9243   -3538.4783 
10859000     258.6261   -4691.6356   -4192.8534   -4691.6356            0    4514.0012    19.856496    19.936527    20.938136    8288.7706     6152.992    4006.3979    3382.6136   -402.64874    668.10083    192.68201   -3647.1864 
10860000    280.96989   -4702.3614   -4160.4874   -4702.3614            0    7038.7535     20.12401    19.836484    20.543138    8200.6073     9170.913    6542.0777    5403.2697    28.562146    393.81488    1016.1495   -3318.6704 
10861000     267.0765   -4671.2604   -4156.1809   -4671.2604            0     5106.959    19.999022    20.282389    20.389344    8270.4876    6677.6905    3826.6067    4816.5799    652.72709    781.79559   -412.27768    -3540.197 
10862000     265.6513    -4696.415   -4184.0841    -4696.415            0    7234.8007    20.007552    19.923965    20.638187    8226.9959    7543.9768    8184.9731    5975.4523   -584.43411   -1128.5541    1217.4077   -3316.0361 
10863000    254.58503   -4710.8333   -4219.8447   -4710.8333            0     5976.213    19.984477    19.846578    20.706203    8212.5663     5697.978    6645.4265    5585.2344    64.692793   -55.782328    1.9981233   -3504.0625 
10864000    265.01474   -4696.7912    -4185.688   -4696.7912            0    6099.4385    20.116634    19.888417    20.624474    8251.6048    5625.2315    4998.9127    7674.1713     783.7438    470.64159    -953.8894   -3451.6743 
10865000    261.81664   -4693.4972   -4188.5618   -4693.4972            0    5783.5515    19.955683    20.125559    20.468111     8220.388    5733.5115    3920.2306    7696.9123    99.967292   -775.22007   -166.01958   -3495.1954 
10866000    253.83325   -4710.3682   -4220.8294   -4710.3682            0    5474.9721    19.935455    19.863843    20.768314    8224.1435    6467.7634    4586.8686    5370.2844    357.36394   -503.22982   -82.621908   -3564.1575 
10867000    257.86762   -4723.5896   -4226.2702   -4723.5896            0    5384.3381     19.83654     20.05499    20.719985     8242.858    5197.9229    6956.4848    3998.6066    1198.4939    404.93948    496.72573   -3578.9993 
10868000    253.67715   -4694.8757    -4205.638   -4694.8757            0    4925.6968    19.971811    20.079584       20.563    8246.2904    6851.5429    2742.0148    5183.5326   -313.57246   -639.77052   -403.93133   -3613.2556 
10869000    256.98798   -4711.8607   -4216.2378   -4711.8607            0    6267.8605    20.069778    20.088492    20.413491    8230.1394     7230.093    5406.4394    6167.0489   -701.25686    -575.3362    1418.2378   -3463.9181 
10870000    259.75564   -4683.8918   -4182.9312   -4683.8918            0    7087.5189    19.986104    20.009694    20.422043    8167.0982    6547.0876    8169.9425    6545.5266     426.4915   -431.55212     527.4548   -3338.7457 
10871000    240.89441   -4687.5111   -4222.9259   -4687.5111            0    6767.5456    20.030111    19.805371    20.701638    8212.4184    6863.1699    6929.6803    6509.7865    28.274989    679.48459   -987.91312    -3412.379 
10872000    269.03109   -4687.7767   -4168.9276   -4687.7767            0    5877.8243     19.93673    19.884846    20.829809     8257.745      7151.38    5012.8657    5469.2273    100.04217    791.95043    593.20979   -3461.0568 
10873000    269.19048   -4700.0395    -4180.883   -4700.0395            0    6568.1641    19.814621    19.705114    20.981435    8192.1881    8035.2131    6707.6633    4961.6158   -252.05198   -707.72047    411.21501   -3396.1538 
10874000    263.83232   -4690.6091   -4181.7863   -4690.6091            0    8185.8153    19.975215     20.02108    20.500307    8198.5932    10430.346    5826.2039    8300.8964   -594.55575    1690.9321   -480.66032   -3203.0241 
10875000    263.67827   -4656.6645   -4148.1388   -4656.6645            0    7839.4517     20.15016    19.878398    20.357907    8154.4186    7745.2244    8988.2043    6784.9264   -783.34481    149.41528   -1520.8536   -3215.8411 
10876000    257.13581   -4717.8393   -4221.9312   -4717.8393            0    6531.1937    20.017913    19.974652    20.508234     8200.235    6117.4614    7087.7938    6388.3259    695.93437    330.82145    1307.5582   -3440.8526 
10877000    271.24676   -4716.8005   -4193.6783   -4716.8005            0     5000.635    19.814793    19.885492    20.981758    8267.3773    5045.5761    6294.6274    3661.7014    359.05044    506.16327   -433.75154   -3590.7457 
10878000    251.24963    -4688.133   -4203.5769    -4688.133            0    5305.2915    20.087766    19.978616    20.609545    8271.1412    4981.2676    4124.8468    6809.7601   -428.20754    2024.3978   -607.12454   -3563.6202 
10879000    266.82924   -4669.9054   -4155.3028   -4669.9054            0    4797.8208    20.044814     20.10878    20.621667    8312.1147    4909.0043    4995.1646    4489.2934    469.05212    296.77211   -57.577349   -3573.6933 
10880000    248.76152   -4711.2037   -4231.4462   -4711.2037            0    6128.9926    19.979568    20.175224    20.372447    8211.9753    7086.5483    4537.1566     6763.273    264.52468   -24.064428    91.960283   -3497.4182 
10881000    254.67537   -4718.8857   -4227.7229   -4718.8857            0    7600.9919    19.976089    20.033528    20.341367    8140.4429    8152.8334    7198.7369    7451.4053   -630.33348   -1901.3987   -158.01986    -3325.333 
10882000     272.8592   -4686.1757   -4159.9438   -4686.1757            0    4939.0764    19.983652    20.181288    20.540278    8283.8086    4416.2875    5041.9926    5358.9491    41.865632    149.91678    568.29302   -3563.2498 
10883000    271.57673   -4668.2077   -4144.4492   -4668.2077            0    6935.9669    19.884975    19.866686    20.614839     8143.862    6995.8435     7690.201    6121.8561    479.25025   -712.08953    202.72295   -3320.6653 
10884000    248.53771   -4687.0145   -4207.6886   -4687.0145            0    8227.7018    19.931835    19.794245     20.80717    8209.1701    10757.029    7601.0072    6325.0688   -654.40256    1973.4237    1252.9173    -3222.649 
10885000    261.57336   -4697.8113   -4193.3451   -4697.8113            0    6917.1773    19.979287    19.931644    20.515788    8169.7976    6515.6226    6860.7191    7375.1903    161.55459   -385.50922  -0.36704243   -3369.1764 
10886000    270.89592   -4707.2916    -4184.846   -4707.2916            0    5916.1134    19.966074    20.181897     20.41818    8227.5721    5053.3253    6846.6742    5848.3408   -30.376974   -1294.4503    145.55149   -3474.9674 
10887000    256.00833   -4701.5676    -4207.834   -4701.5676            0    5836.7179     20.01767    19.977035    20.680067    8269.8282    3867.3937     8210.007    5432.7528   -277.28429   -360.06933   -572.60902   -3503.8852 
10888000     268.6367   -4720.5771   -4202.4886   -4720.5771            0    6952.8396    19.989624    19.881225    20.640915    8203.0754    7231.8372    7401.4335    6225.2481   -175.00846   -25.641704   -654.90838   -3370.6965 
10889000    246.20853   -4702.7336   -4227.8997   -4702.7336            0    7210.0219    19.823911    20.034067    20.645046    8199.2533    7371.8172    6925.1854     7333.063    234.71927     2669.894   -728.47264   -3365.7419 
10890000    263.13573   -4680.8892   -4173.4098   -4680.8892            0    7135.6091    20.059456    19.897135    20.469742    8170.0003    8451.0275    5844.2029    7111.5968   -231.60089     105.5615    767.06148   -3323.1943 
10891000    259.32312   -4693.6659   -4193.5394   -4693.6659            0    7763.1691    19.956033    19.905387    20.443246     8120.723    7080.6774     6283.366    9925.4639    -149.9228   -81.764813    1458.8401   -3274.1286 
10892000    271.02852   -4708.6431   -4185.9418   -4708.6431            0    5730.7193    19.957241     19.86779    20.746095    8225.9566    6347.4417    5115.7427    5728.9735    221.65278   -84.298478   -86.662093   -3498.4438 
10893000    261.79801   -4698.0198   -4193.1203   -4698.0198            0    6922.0566    19.826319    19.773274    20.822408    8163.0341    7560.1363    7739.2178    5466.8156   -156.99115    742.25831   -54.689871    -3369.053 
10894000    273.13241   -4705.0824   -4178.3236   -4705.0824            0    7824.1588    20.042547    19.736485    20.635677    8162.8431    7161.4828    7796.1131    8514.8805   -431.20472    1063.2385    1042.3283   -3246.8834 
10895000    269.52289   -4710.2311   -4190.4335   -4710.2311            0    4359.0892    20.111529     20.07995    20.447088     8257.321    4560.4812    2821.9911    5694.7954   -42.591972    -60.36087   -1184.9302   -3665.4921 
10896000    266.04929   -4725.4087   -4212.3103   -4725.4087            0    5213.7218    20.283598    19.721103    20.759599    8304.1495    3552.4677    7033.3217    5055.3759    75.572819   -167.54538    266.38669   -3580.8895 
10897000    246.44608   -4698.9214   -4223.6294   -4698.9214            0    5295.0943    19.821869     20.17599    20.596984    8237.2658    5159.7158    4435.0173    6290.5497   -1129.0876   -366.05561    106.03028   -3587.5187 
10898000    248.00239   -4681.5405    -4203.247   -4681.5405            0    7793.0242    20.072474    19.994385    20.309229    8150.8407    6628.2494    8360.5282     8390.295    2.6973489    497.34022   -141.90637   -3276.8773 
10899000    262.21841   -4673.2903     -4167.58   -4673.2903            0    6589.1124    20.021038    19.776363    20.777525    8226.7223    6076.8079    8849.0799    4841.4493   -499.28467    299.65735    -126.3014   -3377.0295 
10900000    257.67407   -4691.2156   -4194.2695   -4691.2156            0     7640.878    19.868878     19.86156    20.598712     8128.806    8345.5427    6868.4062     7708.685    335.28477    -507.6683    609.44791   -3288.4412 
10901000    272.82903   -4678.1897   -4152.0159   -4678.1897            0    4903.9496    20.102327    19.860039     20.62585    8234.5199    1968.7914    7012.0986    5730.9588    51.771178   -56.775888   -189.49891   -3563.0907 
10902000    269.60614   -4693.8668   -4173.9087   -4693.8668            0    4474.8705     20.01783    20.032449    20.618855     8268.288    5246.2066    2264.6298     5913.775     213.6884    717.89618    427.75634   -3634.3087 
10903000    264.79618   -4703.6638   -4192.9821   -4703.6638            0     5697.009    19.962082     19.88041    20.746399    8233.2991    4550.7413    7055.9889    5484.2968     142.0648    340.11333   -816.10806   -3508.9181 
10904000    266.66012   -4703.8707   -4189.5942   -4703.8707            0    6585.4324    19.969443    19.976321    20.639362     8233.372    5783.7345    7070.4993    6902.0635    108.66294    296.45742    89.628922   -3398.8466 
10905000    251.52097   -4681.9055   -4196.8262   -4681.9055            0    5770.6178    20.188103    20.111083    20.305417    8244.0929    3607.0564    5728.0031    7976.7938    221.86383     305.1306   -425.25677   -3503.0153 
10906000    265.89426   -4722.8952   -4210.0957   -4722.8952            0    5324.2041    20.022601    20.027259    20.637305     8275.514     6494.756    3918.2651    5559.5911   -55.473947    395.42327   -702.94042   -3567.5182 
10907000    253.32064   -4674.8581    -4186.308   -4674.8581            0      6531.85    19.802749    19.949345    20.823096    8226.2026    6336.6464    7402.5478    5856.3557    127.64282    1446.0092   -420.46378   -3402.6772 
10908000    257.48453   -4719.0454   -4222.4648   -4719.0454            0    7313.8701    19.880859    20.061215    20.509829    8180.0208    8681.9432    7037.8605    6221.8065    264.56938   -914.62473   -303.58597   -3349.9405 
10909000    267.68336   -4726.7651   -4210.5152   -4726.7651            0    6513.9839    20.223727    19.898073    20.449636    8229.2036    5938.2472    6982.2791    6621.4254    603.17253   -825.63819   -1524.0768   -3428.7427 
10910000    271.14197   -4707.3596   -4184.4395   -4707.3596            0    6178.4685    19.836587    20.012559    20.651729    8198.3414    8338.4181    5024.7513     5172.236    272.36125    430.37817     283.4996   -3445.7147 
10911000    258.15338    -4704.948   -4207.0775    -4704.948            0    5936.1872    19.975503    19.838279    20.647894    8182.3396    4613.2292    7449.2044     5746.128    230.83556   -625.35347    904.68511   -3498.7061 
10912000    264.79853   -4696.7856   -4186.0994   -4696.7856            0    6421.4552    19.946245    19.852649     20.64281    8174.2597    8580.3814    5011.1199    5672.8644   -46.274507    816.22644   -439.95017   -3420.5772 
10913000    269.94657   -4698.9115   -4178.2969   -4698.9115            0    7372.3093    20.051395    19.952201    20.500831    8201.7563      6775.61    7156.4152    8184.9027    249.80292   -298.09948    843.44991    -3296.464 
10914000    266.74185   -4707.2524   -4192.8183   -4707.2524            0     6806.309    20.058114    20.050163    20.415733    8210.5639    6662.0255    5744.9753    8011.9264      1294.66    1078.3505     475.7753   -3377.8128 
10915000    271.63437   -4715.7295   -4191.8598   -4715.7295            0    6522.2921    19.992113    19.955105    20.626058    8228.6569    7641.4206    6231.1775    5694.2782   -585.45439    475.94858     1142.649   -3409.1422 
10916000    271.97236   -4700.7148   -4176.1933   -4700.7148            0     6902.446    19.846551    20.032374    20.759871     8253.575    6561.9637    8078.3822    6066.9921    193.01088   -792.46223   -664.36371   -3345.3463 
10917000    262.59834    -4687.469    -4181.026    -4687.469            0    7449.4782    19.820892    19.913656    20.765138    8196.1333    7669.6333    8557.8656    6120.9357    547.62299     232.7975   -295.64119   -3290.5735 
10918000    276.03396   -4683.4323   -4151.0776   -4683.4323            0    6369.9138    19.883796    20.047205    20.597251    8210.3637    7446.6234    4983.3386    6679.7793   -237.71833    1698.2948   -126.82634   -3388.3458 
10919000    275.28745   -4677.8241   -4146.9091   -4677.8241            0    8852.5108    20.178107    19.863231    20.347932    8155.5001    8663.4111    8311.3352    9582.7861   -838.73422    1630.2482    -1610.948    -3093.995 
10920000    276.06441   -4702.5878   -4170.1743   -4702.5878            0    7485.0507    20.099627    19.821101    20.524607    8176.9363    7725.4491      6737.27    7992.4331   -285.72283   -372.29616   -921.34681   -3277.5653 
10921000    263.03415    -4675.464   -4168.1805    -4675.464            0    6381.8323    20.033064    19.965341    20.541349     8215.861    5459.6483    7342.5045    6343.3442    195.45115   -428.60006    270.54403     -3403.51 
10922000     258.4473   -4706.3368   -4207.8994   -4706.3368            0    6410.1174    19.929054    19.868797    20.786834    8230.8866    7918.3785    5696.7699     5615.204   -234.03888   -676.94624    256.12762   -3438.4351 
10923000    243.64093   -4688.0129   -4218.1309   -4688.0129            0    6633.1312    20.013017    19.824033    20.663601    8198.0503    7155.2706    7352.0046    5392.1184    730.93049    174.68181    341.66558   -3425.0727 
10924000    267.42932   -4700.4785   -4184.7186   -4700.4785            0    8415.1896     19.87842    19.939641    20.577246    8156.1733     7672.809    9646.3079     7926.452   -37.183944   -708.85475    595.94027   -3183.7366 
10925000    267.27875   -4702.0004   -4186.5308   -4702.0004            0    8757.7414    19.936961    19.948039     20.26448      8059.25    7298.4494    9611.6273    9363.1476    615.32678   -580.91999    40.810426   -3157.1819 
10926000    257.94012   -4712.3444   -4214.8852   -4712.3444            0     7568.766    19.911676    19.746258    20.716765    8145.4401    8878.1686     6455.134    7372.9953    221.46665    955.85832    159.72502   -3315.7696 
10927000    266.73235   -4701.9929   -4187.5771   -4701.9929            0    7554.5257    19.857507     19.94789    20.563857    8145.6598    5824.5393    9175.8223    7663.2154   -361.41033    1074.3921    798.63254    -3290.129 
10928000    265.11555   -4701.2519   -4189.9542   -4701.2519            0    5699.9182    19.810645    19.936532     20.81701     8221.794    6324.9431    5087.1705     5687.641    246.58419    613.78672   -134.24829   -3506.4974 
10929000    273.51234   -4687.2454   -4159.7539   -4687.2454            0    7620.7706     20.24535    19.936618    20.323024    8202.8562    6226.0582    9154.9078    7481.3459   -48.924854   -726.75971   -289.76056   -3248.0792 
10930000    265.57645   -4684.8577   -4172.6712   -4684.8577            0    6505.4152    19.931014    19.995163    20.524248     8179.403    6998.7953    6317.9626    6199.4877   -42.765405   -133.14059    724.54722   -3396.6519 
10931000    264.77448   -4713.4249    -4202.785   -4713.4249            0    7360.5436    19.936898     19.91283    20.634921    8192.0646    4918.3324    8955.3681    8207.9304    905.02144   -942.91042   -160.88109   -3323.3998 
10932000     253.8488   -4679.4137    -4189.845   -4679.4137            0    7764.9543    19.856505    20.013253     20.64148    8202.7848    7928.5333    8679.6108    6686.7187     634.7812    979.26559    571.06003   -3260.9297 
10933000    246.63425   -4697.6318   -4221.9769   -4697.6318            0    7121.2906     20.04878    20.074031    20.390614    8206.4032    4783.9063    8617.8809    7962.0847    342.80958    59.570844    693.84317   -3369.6868 
10934000    261.20017   -4728.2041   -4224.4576   -4728.2041            0    8110.4574    19.858883    19.904296    20.527326    8113.9815    6841.7544    8416.5084    9073.1095   -567.40272   -601.89196   -111.65386   -3264.7139 
10935000    267.66375   -4674.1004   -4157.8884   -4674.1004            0    7627.2773    19.976313    19.687593    20.703015    8142.1961    6157.0053    9148.0825    7576.7443   -28.473418    -194.4247    618.45659   -3252.1829 
10936000    273.20208   -4694.9636   -4168.0704   -4694.9636            0    6689.0298    19.830915    20.035302    20.757683    8247.4087    7932.4616    5316.7747    6817.8531    29.681768    2791.5904    785.71116   -3363.5139 
10937000    262.40241   -4714.7586   -4208.6934   -4714.7586            0    5966.1955    20.068826    20.042293    20.521077    8254.0961    5199.9681    7088.7084    5609.9102    375.81093    -1015.535    661.03321   -3490.4976 
10938000     278.0904   -4708.6764   -4172.3557   -4708.6764            0     7612.027    19.957668    20.083093    20.364538    8162.3451    7350.3664    7925.6383    7560.0762   -755.94381   -138.29858    773.36023   -3266.2244 
10939000    259.66666   -4716.5703   -4215.7814   -4716.5703            0      6679.26    19.925645    20.013591    20.596123    8213.3982    8439.9121     4451.883    7145.9848    212.55478    1015.0218    1409.3855    -3415.713 
10940000    259.56587   -4647.9865   -4147.3919   -4647.9865            0     6694.516    19.695301    19.795355    21.133623    8239.4813     7990.975    7104.4073    4988.1656    226.34829    273.68548    1766.9192   -3342.9496 
10941000    267.16012   -4708.9714   -4193.7306   -4708.9714            0    6977.8467    20.055865    19.941214    20.549982    8218.7249    5811.2212    7842.7724    7279.5464    363.30118    269.83502    883.84617   -3357.3542 
10942000    267.67875   -4696.5738   -4180.3329   -4696.5738            0    6812.6091    19.951591    20.000135    20.469433    8168.0105    8068.4289    4987.2076    7382.1907    243.48659   -369.68324   -777.64006   -3368.8009 
10943000    262.51462   -4697.4129   -4191.1314   -4697.4129            0    6254.6567    20.107726    19.942106    20.663775    8285.9757    6856.5518     6290.239    5617.1795    -811.7037   -161.33541   -702.80455   -3435.3033 
10944000     271.4728   -4690.4577   -4166.8996   -4690.4577            0    7419.4317    19.903889    19.942443     20.76704    8243.1064    8636.1379    5645.0283    7977.1288   -176.48112    337.96395   -232.52139   -3274.9559 
10945000    255.41833   -4692.8892   -4200.2935   -4692.8892            0    5676.9876    20.013069     19.99316     20.73464    8296.4374    5413.6732     5919.191    5698.0985    523.06136   -575.63048   -1430.4915   -3513.4062 
10946000    258.37846   -4701.7577   -4203.4531   -4701.7577            0    6826.8518    20.277629    19.888492     20.43669    8241.9429    4857.8876    6950.8574    8671.8105   0.09925655    1221.6998   -373.90494   -3382.8635 
10947000     255.3436   -4685.2472   -4192.7956   -4685.2472            0    5134.3303    20.023886    20.035216    20.566151    8250.7877    6328.1209    3924.2265    5150.6434   -315.04555    180.06776    1346.5104   -3574.9854 
10948000     266.4587   -4689.1208   -4175.2328   -4689.1208            0    7111.8735    19.947777    20.135427    20.444746    8211.7756    5631.4775    6773.5924    8930.5507   -833.78098      780.206   -529.32539   -3323.5125 
10949000    265.61584   -4674.4432   -4162.1807   -4674.4432            0    6484.9849    20.050235    19.930909    20.565767      8218.48    5887.7384    5146.7495    8420.4668    462.67443   -491.40335    995.82235   -3384.9027 
10950000    256.93584   -4701.7885   -4206.2661   -4701.7885            0    4971.8146     19.99024    19.971712    20.836435    8318.7237    4364.2923    6894.8064    3656.3451    436.79319    769.66908    1059.1212   -3603.0853 
10951000    251.46191   -4687.3895   -4202.4241   -4687.3895            0    5179.0449    19.926812    19.967945    20.781014    8268.7131    5856.6026    4868.8946    4811.6375    234.40186   -54.100681   -637.31884   -3577.8794 
10952000    268.73337   -4700.5153   -4182.2404   -4700.5153            0    7646.1372    19.932017    20.063033    20.401926    8158.6633    7845.7141    6926.4599    8166.2376    26.313486   -839.56227    145.48778   -3272.4591 
10953000    255.43541   -4714.3594   -4221.7307   -4714.3594            0    5693.2858     20.01157    20.083378    20.536354    8253.5589    5438.9528    3919.8682    7721.0365    51.585812    1392.3779   -1227.7289   -3536.4316 
10954000    250.71892   -4697.5023   -4213.9698   -4697.5023            0    6536.7203     19.92667    19.862365    20.739833    8208.6351    6227.2047    7580.5026    5802.4534    649.32463    1033.9285     1803.057   -3431.4294 
10955000    251.63181   -4711.9666   -4226.6735   -4711.9666            0    7065.3602     19.86946    19.909322    20.702923    8189.8172    8619.2152    7367.2681    5209.5972    -842.2175    -872.6922   -798.15425   -3382.7863 
10956000    257.15562   -4711.3307   -4215.3845   -4711.3307            0     7849.548    20.050069    19.840807     20.52878    8166.5449    3991.4819    11341.745    8215.4175   -61.829743   -543.43311    38.515382    -3280.498 
10957000    253.40542   -4680.4598   -4191.7461   -4680.4598            0    4023.0163    20.176677    20.142406    20.378341    8281.8968      2697.59    4620.5895    4750.8694   -158.95333    199.89334   -845.82518   -3705.8342 
10958000    251.36463   -4663.4163   -4178.6385   -4663.4163            0    7730.1804      19.8918    19.892585     20.65732    8174.0875    6942.9705    7946.7482    8300.8224    24.479456   -89.594705    -343.5478   -3257.1184 
10959000    259.95077   -4691.3878   -4190.0508   -4691.3878            0    8153.4922     19.81521    19.753827    20.859953    8165.1329     10345.67    6818.4475    7296.3591     1703.632    1184.1496    1568.0083   -3219.1323 
10960000    267.87008    -4669.749    -4153.139    -4669.749            0    5092.4972    20.142116    19.876877    20.551777    8228.1583    3589.6776    6941.4189     4746.395   -10.158838    61.619811   -84.172754   -3542.0432 
10961000    263.94384   -4694.2824   -4185.2445   -4694.2824            0    5221.0432    20.049224    19.852468    20.474643    8149.4524    5055.2153    4898.2138    5709.7007    304.21471    351.04223     720.1029   -3564.7162 
10962000    261.08368   -4689.5601   -4186.0383   -4689.5601            0    7812.6471    19.809453    19.852644    20.777017    8170.9781    7938.1644    7970.7764    7529.0004    169.91893    1206.3574   -433.16508   -3255.0416 
10963000    259.19893   -4666.2528   -4166.3658   -4666.2528            0    5305.3638    20.081501    19.798529    20.790697    8266.0524    4891.6802    7554.0393     3470.372   -271.34825    1370.0449    326.14268   -3526.7942 
10964000    267.37834   -4690.9288   -4175.2672   -4690.9288            0    7218.7944    19.904845    20.019361    20.550986    8189.2036    6506.2694    6627.4053    8522.7087    -178.2066    150.83486   -111.65771   -3313.1184 
10965000    250.39912   -4725.6985   -4242.7827   -4725.6985            0    6044.6486    20.028501    19.946351    20.626503    8240.1955    7109.2828    4418.1816    6606.4815    -180.1394    983.51474   -646.69219   -3516.3683 
10966000    254.48407   -4696.7008   -4205.9069   -4696.7008            0    8110.0382    19.872013    20.043561    20.579298    8196.8557    7088.3666    8314.5821    8927.1659    714.90426    449.80267    -384.6602   -3236.4108 
10967000    248.06663   -4711.5679   -4233.1506   -4711.5679            0    6089.9683    20.106203    19.896611    20.653911    8262.5002    5074.4137    6719.5831    6475.9081    -976.0147    83.337965   -1481.8849   -3499.3088 
10968000    276.14394   -4702.2719   -4169.7051   -4702.2719            0    6333.6556    19.912007     20.21254    20.432586    8223.5484    6082.8413    5447.6251    7470.5003    719.72477    20.226098   -557.46431    -3410.097 
10969000     266.0866   -4692.8162   -4179.6459   -4692.8162            0     6191.507    20.062366    19.892111    20.758694    8284.4376    5579.9784    6468.8097    6525.7328   -254.04697   -417.98676    557.21704   -3431.5878 
10970000    257.67186   -4706.3195   -4209.3777   -4706.3195            0    8240.8496    19.902547    19.738588    20.659046    8115.8689    6198.5344    10154.324    8369.6905    421.84305   -110.10369    571.41909   -3233.9773 
10971000    258.26404   -4692.8381   -4194.7542   -4692.8381            0    6430.3089    19.900761    20.192694    20.371904    8186.4493    4814.9866    8204.8898    6271.0502    -557.0113    470.57002    406.55077   -3427.0334 
10972000    253.13358   -4703.2318   -4215.0424   -4703.2318            0    6167.9878    20.068997     19.86896     20.52306    8183.5723    5916.6223     6859.612    5727.7292   -829.97141    1681.2102    343.76567   -3478.8991 
10973000    265.82814   -4718.7128   -4206.0409   -4718.7128            0    5640.0313    19.990332    19.880759    20.740433    8242.7245    5585.9651    7237.6388    4096.4899    307.36865    236.08588    577.09987   -3528.0432 
10974000    252.29055   -4679.8061   -4193.2426   -4679.8061            0    6330.7517    19.818011    19.848143    20.817333    8188.5131    5532.7786    7436.8933    6022.5831   -223.41226   -1082.5996    538.23976   -3437.2175 
10975000    265.57388   -4723.5145    -4211.333   -4723.5145            0    7817.3655    19.853368    19.952852    20.497342    8119.6392    8463.5111    7117.5536    7871.0318    91.663922    628.18459   -686.41934    -3285.627 
10976000    265.71388   -4705.9457   -4193.4941   -4705.9457            0    8146.3909    19.913942    19.952197    20.708533    8228.0572    7970.6606    7730.7111    8737.8009   -345.94057   -896.82167    875.94994   -3215.9453 
10977000    274.87688   -4654.1013   -4123.9781   -4654.1013            0     5731.304    20.075221    20.041948    20.346457    8186.3267    5563.3037     5016.904    6613.7043   -173.60094    1714.3555    339.26818   -3439.7224 
10978000    269.09709   -4685.9772   -4167.0008   -4685.9772            0    5941.4396    19.982616    20.094675    20.563799    8257.2736    6301.3697    5214.4298    6308.5194   -210.44236    119.41793    310.15565   -3451.5097 
10979000     262.2297     -4681.07    -4175.338     -4681.07            0    8639.2263    19.983653     19.94471    20.483351    8164.0118    6448.5336    10263.885    9205.2606   -164.02153    798.78278    522.54222   -3146.7194 
10980000    258.84518   -4659.9228   -4160.7181   -4659.9228            0    5224.1634    19.979013    20.013771    20.740445    8293.1789    5084.2887    6815.2292    3772.9724    -196.3701   -470.59233    564.07525   -3528.8686 
10981000     276.2294   -4699.5463   -4166.8147   -4699.5463            0    7931.2123    19.816108    20.060851    20.499763    8149.2297    8512.4237    7630.8719    7650.3414   -79.408208   -435.97692   -1231.6485   -3224.2047 
10982000    262.01908   -4685.4142   -4180.0883   -4685.4142            0    6126.9536    20.033045    19.925286    20.548767    8202.3313    7149.8015    5671.4654     5559.594    261.79904    156.44623   -207.17414   -3447.1663 
10983000    264.66177   -4713.8642   -4203.4417   -4713.8642            0    4750.9539    20.167431    20.151421    20.390756    8286.8521    2398.6406    6058.9781    5795.2429   -182.24961    209.79998   -677.98659   -3629.2641 
10984000    265.11599   -4688.6434   -4177.3449   -4688.6434            0    6153.1011    19.876795    19.888405    20.854555     8244.176    6660.5106    6568.2556    5230.5371   -88.570689    360.33164    29.386539     -3437.54 
10985000    263.82209    -4733.517   -4224.7139    -4733.517            0    5421.6751    19.927611    20.020887    20.627269    8229.6296    5222.7716    4741.5114    6300.7422    864.09216    161.57232    573.96377   -3574.0007 
10986000    247.01607   -4696.6546   -4220.2633   -4696.6546            0    6601.5076    20.278884    20.047246    20.262179    8237.3007    4915.6986    7503.0369    7385.7873   -506.74548   -354.62069    386.87738   -3427.2072 
10987000    256.21713   -4693.2866   -4199.1503   -4693.2866            0     6229.377    19.926777     19.94652    20.747399    8246.4659    5759.9059      8411.49     4516.735    384.54238    286.76742    1316.9429   -3449.9665 
10988000    264.99648   -4687.2328   -4176.1648   -4687.2328            0    5656.0881    19.842534    20.073482    20.722187    8253.8285    5252.1637    4933.6605      6782.44   -692.57869    163.25018    1481.2839    -3495.321 
10989000    251.21376   -4675.4173   -4190.9304   -4675.4173            0    6336.7087    19.988891    19.976731    20.469632    8173.7837    6757.1025    5948.1472    6304.8763     20.12907    615.37468   -1142.8075   -3435.5552 
10990000    264.99476    -4689.999   -4178.9343    -4689.999            0    6882.7782    19.979901    19.808519    20.793272       8229.4    8078.3875    6306.8351    6263.1121   -425.40307    1412.9977    644.05621   -3352.8815 
10991000    262.76689   -4711.0526   -4204.2846   -4711.0526            0    6852.5295    19.814414    20.110855    20.463913    8154.5582    8036.2177    5897.9617    6623.4091    882.87203    737.51883    455.86341   -3389.3416 
10992000    254.47131   -4683.0956   -4192.3262   -4683.0956            0    6223.0763    20.123954    19.917624    20.450098     8196.836    6903.5982    5764.7749    6000.8559     -242.681    237.09243   -1832.4922   -3448.4045 
10993000    261.24906   -4668.9498   -4165.1091   -4668.9498            0    8417.2817    19.883786    19.888028    20.616921    8152.9472    8665.5101    8673.2582    7913.0767    434.20967   -105.69926   -649.68232   -3164.2743 
10994000    260.28103   -4681.5401   -4179.5662   -4681.5401            0    7401.5756    20.037689    19.900232    20.539091    8190.0584    8788.1071    7434.3945     5982.225   -287.88802   -335.42916    1329.4478   -3295.4954 
10995000    276.95861   -4675.5273   -4141.3893   -4675.5273            0    6469.7819    20.018184    20.037224    20.466309    8209.2177    7107.4861    5657.9988    6643.8609     690.6685   -828.32697     -1543.28   -3366.8075 
10996000    271.86857   -4702.9184    -4178.597   -4702.9184            0     3891.711    20.120379    19.958467    20.641579    8289.0785    5411.7199    2034.8546    4228.5584   -327.12009    684.41761    252.79954    -3708.137 
10997000    257.66317   -4703.0405   -4206.1154   -4703.0405            0    4248.2555    20.025026    19.839849    20.819047    8271.2718    4473.0561    4008.9261    4262.7842    513.54689    657.89086   -58.075805   -3693.6567 
10998000    264.79355   -4667.0345   -4156.3579   -4667.0345            0    7138.7014    19.798354    20.034337    20.650022    8190.7671    5739.1717    8435.6425    7241.2901    970.92185     528.9134   -1058.0901   -3303.6119 
10999000    255.47159   -4698.2563   -4205.5579   -4698.2563            0    4595.3318    19.959786    19.969379    20.745395    8268.7932    4971.1578    5058.3862    3756.4512   -205.45137    1030.5038   -224.49564   -3651.3982 
11000000    271.38272   -4666.4345     -4143.05   -4666.4345            0    5869.9416    20.149422    19.817063    20.678553    8256.9952    4341.7071    7346.6473    5921.4705   -1094.8717   -144.69778   -50.752983   -3436.1928 
Loop time of 529.526 on 64 procs for 250000 steps with 972 atoms

Performance: 81.582 ns/day, 0.294 hours/ns, 472.121 timesteps/s
99.1% CPU use with 64 MPI tasks x 1 OpenMP threads

MPI task timing breakdown:
Section |  min time  |  avg time  |  max time  |%varavg| %total
---------------------------------------------------------------
Pair    | 21.151     | 28.685     | 37.542     |  77.4 |  5.42
Bond    | 0.27001    | 0.28032    | 0.30184    |   1.1 |  0.05
Kspace  | 214.3      | 227.61     | 244.53     |  44.8 | 42.98
Neigh   | 3.2167     | 3.7599     | 4.7408     |  20.1 |  0.71
Comm    | 116.55     | 131.5      | 142.08     |  57.7 | 24.83
Output  | 1.2247     | 1.2275     | 1.2471     |   0.4 |  0.23
Modify  | 127.51     | 130.95     | 133.55     |  13.9 | 24.73
Other   |            | 5.513      |            |       |  1.04

Nlocal:        15.1875 ave          20 max          11 min
Histogram: 1 6 7 9 12 12 10 4 2 1
Nghost:        2241.27 ave        2280 max        2207 min
Histogram: 4 5 5 13 10 9 8 3 5 2
Neighs:        4762.22 ave        6500 max        3295 min
Histogram: 5 3 8 11 11 10 4 7 2 3

Total # of neighbors = 304782
Ave neighs/atom = 313.56173
Ave special neighs/atom = 2.0000000
Neighbor list builds = 8063
Dangerous builds = 0

unfix		3
unfix		2
unfix		1

write_data	data.final.${pid}
write_data	data.final.0
System init for write_data ...
PPPM initialization ...
  extracting TIP4P info from pair style
  using 12-bit tables for long-range coulomb (../kspace.cpp:340)
  G vector (1/distance) = 0.37140308
  grid = 24 24 24
  stencil order = 5
  estimated absolute RMS force accuracy = 0.0036099648
  estimated relative force accuracy = 1.0871302e-05
  using double precision FFTW3
  3d grid and FFT values/proc = 2197 216
Last active /omp style is kspace_style pppm/tip4p/omp
WARNING: Not all mixed pair coeffs generated from mixing. Use write_data with 'pair ij' option to store all pair coeffs. (../write_data.cpp:312)

write_restart   restart.lmp.${pid}
write_restart   restart.lmp.0
System init for write_restart ...
PPPM initialization ...
  extracting TIP4P info from pair style
  using 12-bit tables for long-range coulomb (../kspace.cpp:340)
  G vector (1/distance) = 0.37140308
  grid = 24 24 24
  stencil order = 5
  estimated absolute RMS force accuracy = 0.0036099648
  estimated relative force accuracy = 1.0871302e-05
  using double precision FFTW3
  3d grid and FFT values/proc = 2197 216
Last active /omp style is kspace_style pppm/tip4p/omp
Total wall time: 0:08:54
