LAMMPS data file via write_data, version 30 Jul 2021, timestep = 10250000

864 atoms
2 atom types
576 bonds
1 bond types
288 angles
1 angle types

0.40949706562895827 17.798075334362977 xlo xhi
1.5738647232376142 22.055313076763234 ylo yhi
0.4995854635938155 21.71361033641173 zlo zhi

Masses

1 1.00794
2 15.9994

Pair Coeffs # lj/cut/tip4p/long/omp

1 0 0
2 0.21084 3.1668

Bond Coeffs # harmonic/omp

1 450 0.9572

Angle Coeffs # harmonic/omp

1 55 104.52

Atoms # full

227 1 1 0.5897 3.8000829688898192 2.5871712412886003 1.7557799714803939 4 -3 -1
276 1 1 0.5897 2.2767120070660236 2.751271619817234 5.4376904251382 -2 3 -2
355 1 2 -1.1794 3.547124840432704 6.684166451928378 2.7769913775624597 1 -1 2
787 1 2 -1.1794 4.487508695686971 4.295983921864657 1.5963861319049257 4 -3 5
226 1 2 -1.1794 3.4286475998351316 1.7663112453273166 2.079147786974832 4 -3 -1
789 1 1 0.5897 4.12987603564909 5.011445772812233 2.1222121895169215 4 -3 5
275 1 1 0.5897 3.6858482430669173 3.2614443577384735 5.652261190289852 -2 3 -2
684 1 1 0.5897 0.7924698624465787 2.948883022458231 3.6604948950176923 6 0 -5
316 1 2 -1.1794 0.6069383539114563 5.323984404277773 1.133357797468431 -3 -4 0
788 1 1 0.5897 4.009758452878687 4.344656870636047 0.7683370700266415 4 -3 5
259 1 2 -1.1794 3.396409201761561 6.2828344303716746 5.405625456526104 2 -2 6
682 1 2 -1.1794 1.3858513797994032 2.20995565898576 3.7952698565900134 6 0 -5
318 1 1 0.5897 0.5152836472608274 6.25470794375056 1.337364815717205 -3 -4 0
683 1 1 0.5897 2.057407236875917 2.315444233682526 3.1213573536717147 6 0 -5
251 1 1 0.5897 1.7417603892490188 5.1959168902498085 5.705303649635514 3 -3 1
250 1 2 -1.1794 0.795780476026907 5.334121470807421 5.657489684509326 3 -3 1
356 1 1 0.5897 3.4811591552313814 6.516567465793708 3.7171466883742066 1 -1 2
260 1 1 0.5897 4.297019389860479 6.321820103959698 5.727776761111582 2 -2 6
779 1 1 0.5897 4.631835591760962 2.762463719660853 8.664764992422178 -2 1 -1
252 1 1 0.5897 0.41753000312913546 4.531710748287953 6.01711073873853 3 -3 1
722 1 1 0.5897 3.1031928903911723 5.528373454287493 9.782878541579214 0 1 -1
592 1 2 -1.1794 1.0514210455105346 3.5195154318801576 9.373581529067765 -1 0 -1
721 1 2 -1.1794 3.6364903878421537 5.903596389918377 9.082118576378292 0 1 -1
593 1 1 0.5897 1.8729692553046944 3.0332168152792374 9.303966365824863 -1 0 -1
778 1 2 -1.1794 3.682222102521111 2.859608249934498 8.735922850504764 -2 1 -1
780 1 1 0.5897 3.37331902719578 2.868512654953798 7.82993661541862 -2 1 -1
723 1 1 0.5897 3.8470275066896478 5.160511077305358 8.516640335399982 0 1 -1
594 1 1 0.5897 0.5294919906915051 3.0202323198858445 10.001729002093139 -1 0 -1
147 1 1 0.5897 4.626970013258494 3.8988118812686103 11.005010290100108 0 2 -3
274 1 2 -1.1794 2.8835298165613903 3.0336710816951467 6.122011444802545 -2 3 -2
691 1 2 -1.1794 1.0020485324647002 3.5692302591355105 12.944378292678396 3 2 4
838 1 2 -1.1794 2.9267108083976145 4.971524764893101 11.680655015774834 0 -2 -3
730 1 2 -1.1794 3.6141286358713467 5.5328175990557575 14.211214902546866 2 3 -5
842 1 1 0.5897 3.852786682685193 2.0723396272713095 14.082297936923748 -3 0 2
731 1 1 0.5897 2.7324890195632396 5.903833720392709 14.248657851756592 2 3 -5
841 1 2 -1.1794 3.6907605878167073 2.237242134162641 13.153407056412028 -3 0 2
732 1 1 0.5897 3.7246886116224074 5.268700937572362 13.297799399813968 2 3 -5
843 1 1 0.5897 2.782245794162972 2.5365743157232337 13.11770471464005 -3 0 2
839 1 1 0.5897 2.6602917076486965 5.887230181143647 11.763025919330639 0 -2 -3
69 1 1 0.5897 4.353834784392239 2.0064611209580683 16.210068193221346 3 -3 -4
585 1 1 0.5897 1.6641501375465872 2.0946254729132683 15.80653560848288 5 -2 2
575 1 1 0.5897 4.219011748478382 5.435317348193524 15.891800044042638 3 0 0
692 1 1 0.5897 1.034756636853424 3.423684653963183 13.889900614074712 3 2 4
583 1 2 -1.1794 0.8699237613754371 2.611605920759189 15.671597922038611 5 -2 2
840 1 1 0.5897 2.249320781415195 4.48161473497573 12.146919473307978 0 -2 -3
76 1 2 -1.1794 0.9067041102724243 6.2526280179789895 14.253018332744498 -5 -4 -3
67 1 2 -1.1794 3.513513266260636 1.7287367125712505 15.845362667647779 3 -3 -4
419 1 1 0.5897 0.9545670435454005 6.157875759225048 16.39519667502828 -6 -2 5
420 1 1 0.5897 1.737699669271733 6.648430907376391 17.59440269828606 -6 -2 5
566 1 1 0.5897 2.9170240298984833 3.983523431046381 19.749640790770457 -1 5 -5
161 1 1 0.5897 3.061223278423845 3.5051289141391053 17.33676033735712 2 8 4
162 1 1 0.5897 1.9962175608036787 4.334660624857852 18.02207312165347 2 8 4
567 1 1 0.5897 1.9568795606758629 4.25336272147473 20.888629795578836 -1 5 -5
565 1 2 -1.1794 2.8887025151595664 4.246040439468734 20.669719773193698 -1 5 -5
418 1 2 -1.1794 1.1430735834796268 5.953807118567753 17.311232667542697 -6 -2 5
153 1 1 0.5897 3.0657530678741383 6.1220294376019515 20.5370364366415 2 0 0
576 1 1 0.5897 4.048291908639453 5.894316651917971 17.324345555517795 3 0 0
160 1 2 -1.1794 2.5369243462952684 3.5530667795187667 18.136187344018715 2 8 4
11 1 1 0.5897 1.7835645900224093 2.0570588716697786 18.67545770465326 -4 1 4
584 1 1 0.5897 0.5724072629981914 2.8294589548299625 16.554943150043286 5 -2 2
574 1 2 -1.1794 4.562124256210483 5.301931457678284 16.77540425243727 3 0 0
599 1 1 0.5897 2.4408162315254196 9.097470036329494 3.563766577155843 0 -1 -4
600 1 1 0.5897 2.1937955517067174 10.590864105042838 3.5908063662306535 0 -1 -4
598 1 2 -1.1794 2.587602822442479 9.879480039151616 4.095923070780007 0 -1 -4
664 1 2 -1.1794 1.362407452391912 8.016175713303921 2.058317433025921 2 4 2
159 1 1 0.5897 1.457713064303913 10.102195418145966 5.399737957104163 2 2 -2
313 1 2 -1.1794 4.418018883247117 11.335565515466051 1.1492092019622961 -2 -1 0
357 1 1 0.5897 2.683354714517286 7.015421459015187 2.5311088537729383 1 -1 2
665 1 1 0.5897 1.562949870221197 8.59872016436676 1.3257067822019515 2 4 2
666 1 1 0.5897 0.5196889562071991 8.32747430471609 2.388744892391717 2 4 2
677 1 1 0.5897 2.432554906406096 10.52773667457745 0.5119176261345144 2 0 -2
157 1 2 -1.1794 0.5965777738825115 10.240072849530172 5.794328389204363 2 2 -2
264 1 1 0.5897 1.3149598267277147 11.600706078359364 6.466565575518921 2 -3 6
107 1 1 0.5897 3.1296006954971602 8.742521491659964 7.603778065959123 -3 0 5
121 1 2 -1.1794 4.182349710968674 10.135448746947862 8.338802589324697 -1 -1 -2
108 1 1 0.5897 2.854963740792015 7.294690369316845 7.950720811949236 -3 0 5
298 1 2 -1.1794 2.0215500875533587 10.562653713310118 10.894000658833571 -3 -3 1
63 1 1 0.5897 1.0881085454740145 8.733502050405367 8.321395094592756 -1 2 4
106 1 2 -1.1794 2.5294549761284255 8.020313846150234 7.418001815820027 -3 0 5
261 1 1 0.5897 2.9020532616316825 6.839815646436255 6.007008484745285 2 -2 6
300 1 1 0.5897 1.6476763000299042 9.978083307043512 10.234639196722423 -3 -3 1
61 1 2 -1.1794 0.5774237338159207 8.97429862286454 9.094365933537915 -1 2 4
123 1 1 0.5897 4.245031018660713 11.090550422708652 8.32778465742782 -1 -1 -2
535 1 2 -1.1794 1.0810869383138566 9.037960528623698 15.198146720602002 6 5 3
294 1 1 0.5897 3.4334169991913934 8.067295737996272 13.160397365529862 -2 0 1
537 1 1 0.5897 1.9966461249809075 9.274238926079132 15.049171646919246 6 5 3
231 1 1 0.5897 4.465855300542085 9.320095029190513 14.445144661210444 3 5 0
229 1 2 -1.1794 3.8783307591532012 8.67511540594824 14.8389472200606 3 5 0
536 1 1 0.5897 0.6308893241208504 9.304802411522516 14.396653843705149 6 5 3
446 1 1 0.5897 1.3749428939002208 8.449158137181847 12.225763534311332 1 -1 0
293 1 1 0.5897 3.6707048430507974 8.277271651640977 11.67999991484303 -2 0 1
299 1 1 0.5897 1.472149122717733 10.434717185937311 11.667351264053972 -3 -3 1
77 1 1 0.5897 0.9925663730398763 7.1348201438869525 14.61447102901625 -5 -4 -3
292 1 2 -1.1794 3.042890926127474 7.908019318639743 12.301103850878333 -2 0 1
505 1 2 -1.1794 1.163120863541362 11.467586708810003 13.814890459110396 5 0 -3
492 1 1 0.5897 3.941078716478586 11.14046815726744 11.124614666678758 0 3 3
230 1 1 0.5897 4.462433707267662 8.018059950685558 15.217583116007056 3 5 0
445 1 2 -1.1794 0.4597537189867282 8.619322747115532 12.448792789842594 1 -1 0
91 1 2 -1.1794 1.6517735656032018 10.503287452113709 18.925264774230556 1 -5 0
861 1 1 0.5897 3.120327351664584 7.47441502361037 18.889699592538953 -2 -2 2
151 1 2 -1.1794 3.378515370243679 7.014391506990984 20.685821721071726 2 0 0
308 1 1 0.5897 4.357125663947051 10.918858829928418 18.7039912413045 0 4 -1
678 1 1 0.5897 1.5082135599393345 10.165975959159255 20.582836629835867 2 0 -3
93 1 1 0.5897 2.5299827788302056 10.325455740579859 18.58853009843675 1 -5 0
152 1 1 0.5897 2.581149415923611 7.537442657037549 20.7688375090913 2 0 -1
860 1 1 0.5897 3.7706421793858356 8.311997256055601 17.809183419613568 -2 -2 2
859 1 2 -1.1794 3.3013314415443173 7.489671092939544 17.949874924848665 -2 -2 2
92 1 1 0.5897 1.0827942103717172 9.90701775652588 18.438429411144483 1 -5 0
309 1 1 0.5897 4.096523602757472 10.570491985329026 17.253922413810457 0 4 -1
811 1 2 -1.1794 0.7834077572736067 7.6107885269302376 19.786161855263998 -3 5 -5
307 1 2 -1.1794 4.2290033062798855 10.174897852651114 18.11544699438815 0 4 -1
813 1 1 0.5897 0.6336353233723095 7.815315098841776 18.86311241893575 -3 5 -5
676 1 2 -1.1794 1.5804013278743845 10.134889407610988 21.53681931997216 2 0 -3
668 1 1 0.5897 4.64878468100255 8.078572549191811 21.673544591920212 -7 -4 -2
378 1 1 0.5897 1.9933260998709406 14.462384002549612 1.3055832564974181 2 4 3
460 1 2 -1.1794 3.8474002514306673 15.331583705881576 1.3308299492246538 2 3 -1
190 1 2 -1.1794 0.8661651277471425 14.348966486124457 5.344750740552455 5 4 -6
461 1 1 0.5897 4.395675191142683 14.992068362560456 0.6234368861295692 2 3 -1
116 1 1 0.5897 1.5227102073368632 12.791756745004603 2.349200211855565 -1 -2 4
117 1 1 0.5897 1.1775870910684643 13.388778300673824 3.696971971013773 -1 -2 4
462 1 1 0.5897 4.205765085167928 16.199497090836587 1.5168051771243465 2 3 -1
192 1 1 0.5897 1.4511940964181498 14.936222260569398 4.866069980074057 5 4 -6
196 1 2 -1.1794 3.3145445597870773 14.729875742682735 4.261826784181945 -1 -3 0
115 1 2 -1.1794 1.2674137212071432 12.552398130136009 3.240159161255195 -1 -2 4
197 1 1 0.5897 3.4318748001782313 15.005223068360763 3.3525976056248807 -1 -3 0
198 1 1 0.5897 3.3600593248129837 13.774221877259915 4.230919183159987 -1 -3 0
376 1 2 -1.1794 1.6460512843269093 13.77324990728739 0.739227957834794 2 4 3
375 1 1 0.5897 3.9441676876125005 16.247663395791022 5.575860085438 5 6 -2
112 1 2 -1.1794 1.4940826627302166 16.370978685982216 2.604720219396336 -2 -4 2
114 1 1 0.5897 0.5770271168789125 16.517384932959363 2.372596418943374 -2 -4 2
44 1 1 0.5897 3.9072839621894877 13.833157444497452 8.559007935691817 2 6 -2
43 1 2 -1.1794 4.114716705487991 13.05026715414312 8.048773147103427 2 6 -2
165 1 1 0.5897 1.0361997249925614 12.605956570388695 8.666075319690487 -4 0 -1
163 1 2 -1.1794 0.9468845174340711 12.748908772612532 9.608342658317978 -4 0 -1
831 1 1 0.5897 2.3181411231083104 15.782163724800885 9.614058645549202 6 3 5
829 1 2 -1.1794 2.679857080939949 14.932182005051192 9.86498577733996 6 3 5
45 1 1 0.5897 3.3081089709954656 12.85361762780705 7.572334553665793 2 6 -2
262 1 2 -1.1794 1.691762433603524 12.341353407794946 6.941683573387445 2 -3 6
830 1 1 0.5897 2.0177690664988663 14.29852661165722 9.588521898419177 6 3 5
263 1 1 0.5897 1.3328728091630582 13.114039652974762 6.505307117226999 2 -3 6
164 1 1 0.5897 1.2488481760675458 11.931633766591844 10.004771453758538 -4 0 -1
75 1 1 0.5897 0.4333583717313907 14.976171496250938 7.152492051911967 3 0 3
708 1 1 0.5897 0.9565179583135975 12.895450079308173 12.609313453537691 1 -2 -5
332 1 1 0.5897 2.666505984537603 16.114942173659486 14.815385899231611 1 -2 -2
323 1 1 0.5897 1.1985146914582776 14.761147542027654 15.342455661375084 6 -2 -2
660 1 1 0.5897 1.6808941212433401 16.580312499259822 12.122447681009515 1 0 0
706 1 2 -1.1794 0.7623029439567002 13.758681776420225 12.244068423025261 1 -2 -5
487 1 2 -1.1794 3.077565899458222 12.233594455216233 15.824436444209736 1 -5 3
488 1 1 0.5897 3.7509000139437743 12.910046747416546 15.897252689456009 1 -5 3
24 1 1 0.5897 4.441154837716621 15.14191506605322 12.420992796139343 -6 3 1
707 1 1 0.5897 0.854429887720412 13.645250645736676 11.298062041084725 1 -2 -5
22 1 2 -1.1794 3.899297859497062 15.904330842852008 12.21757157859532 -6 3 1
322 1 2 -1.1794 1.2215697424807697 15.284703589947297 14.541436458360225 6 -2 -2
324 1 1 0.5897 1.2589025885089475 14.640343260343082 13.834562691432113 6 -2 -2
23 1 1 0.5897 3.5000514001987924 15.696502055019765 11.372773188642434 -6 3 1
414 1 1 0.5897 4.141306679877924 14.959006940548976 15.42093246474765 3 0 1
331 1 2 -1.1794 3.370511966141976 16.515487008694606 15.325492137112374 1 -2 -2
489 1 1 0.5897 2.258120010743358 12.688819235753419 16.018274949384708 1 -5 3
507 1 1 0.5897 1.84134814141707 11.837751567286876 14.379974122499013 5 0 -3
272 1 1 0.5897 3.320607304747028 13.726384651821443 19.365287166221577 -1 2 3
377 1 1 0.5897 2.1058442670333823 13.891335849892304 21.122032846601577 2 4 2
781 1 2 -1.1794 3.120267740084595 16.832809661709575 18.20695361093582 -2 -3 2
409 1 2 -1.1794 0.9990304576041561 13.57673722824538 17.058804449276998 4 1 -8
273 1 1 0.5897 2.9121441093296196 15.131676242903191 18.97745453815012 -1 2 3
271 1 2 -1.1794 2.552374909883554 14.280491315447511 19.227185573427953 -1 2 3
411 1 1 0.5897 1.5116348484598179 13.700720081894662 17.857652644088645 4 1 -8
531 1 1 0.5897 4.6548930974811915 12.223155856314548 20.578404535317176 -3 -1 -6
529 1 2 -1.1794 4.565324491783111 12.424150535608087 19.646818378613567 -3 -1 -6
783 1 1 0.5897 3.3632996944167144 16.689781012145414 17.292200187511213 -2 -3 2
17 1 1 0.5897 1.226147327191466 17.227369510791974 4.235313158231893 0 3 2
527 1 1 0.5897 3.6701328209306627 18.307582890914986 1.1641761345318242 -4 -3 2
832 1 2 -1.1794 2.31354526609644 20.22216877377138 4.72321769880307 2 -3 0
18 1 1 0.5897 1.6829935735076142 18.481154497772557 4.950356990465477 0 3 2
228 1 1 0.5897 2.762345272234274 22.01462013241086 1.4326049515234989 4 -4 -1
833 1 1 0.5897 1.754936858092967 20.970788425148434 4.513941444543661 2 -3 0
526 1 2 -1.1794 4.558044555453806 18.13588135936442 1.4778951338050899 -4 -3 2
16 1 2 -1.1794 1.1795407846206678 17.677249757502018 5.07893706423352 0 3 2
709 1 2 -1.1794 1.0955144724445396 21.949959516823483 0.5352740396403578 -4 -4 -2
834 1 1 0.5897 3.195796258968625 20.589293745126305 4.779186077851763 2 -3 0
710 1 1 0.5897 0.6645649619506578 21.1078873583983 0.6817784884247368 -4 -4 -2
213 1 1 0.5897 4.67969700814264 17.936555265558738 4.470086555553907 3 1 3
374 1 1 0.5897 2.802360589707702 17.241235390206548 5.608411261618103 5 6 -2
113 1 1 0.5897 1.9572827926769218 17.12528584409137 2.240339584038315 -2 -4 2
373 1 2 -1.1794 3.7405453254002166 17.160368765584106 5.780292921294044 5 6 -2
473 1 1 0.5897 1.340976039286522 18.755272951345333 0.5720874044967914 1 2 -1
459 1 1 0.5897 0.824078690115772 20.19267768564695 9.840880553546903 1 -2 -1
7 1 2 -1.1794 3.9393778460406383 20.47787778157558 7.44039310778156 3 0 1
8 1 1 0.5897 3.326019345357213 20.89142851858432 8.047875927060144 3 0 1
425 1 1 0.5897 1.517961702380443 17.93455358129141 8.829867307462484 10 -7 2
424 1 2 -1.1794 2.122500528412142 17.59627816634122 9.490449642493878 10 -7 2
457 1 2 -1.1794 1.5012766277279663 20.703426796636897 9.397247018192324 1 -2 -1
426 1 1 0.5897 1.6661585618477945 17.72534814964417 10.321927425200931 10 -8 2
716 1 1 0.5897 4.5489384102183195 17.62306318788812 7.726099493929175 6 -7 -4
458 1 1 0.5897 2.196842706137774 20.79639901325433 10.048258841073675 1 -2 -1
86 1 1 0.5897 0.9511585319573258 20.878363144777396 7.685691295737361 -2 4 2
717 1 1 0.5897 3.9596897093508585 17.86309711930189 9.099839219857436 6 -7 -4
740 1 1 0.5897 4.612312855025581 20.75730065210101 10.812600229552645 -1 0 2
85 1 2 -1.1794 0.6175827221938351 21.035130532271957 6.802281397341411 -2 4 2
87 1 1 0.5897 1.397617211255254 21.03387776254811 6.247477725171102 -2 4 2
9 1 1 0.5897 4.119046408980978 19.6208543339867 7.827063302408812 3 0 1
32 1 1 0.5897 1.203160537218142 19.28866970892826 14.890421120171641 5 7 0
31 1 2 -1.1794 1.1533853160863892 19.57610929435954 13.978739026408913 5 7 0
741 1 1 0.5897 3.665415922283967 21.445875580309384 11.772421739158677 -1 0 2
477 1 1 0.5897 4.221838445444239 17.70440705022888 12.634478645580545 7 -3 -2
739 1 2 -1.1794 3.7394205680189936 20.6834016859637 11.19842361387078 -1 0 2
475 1 2 -1.1794 4.215221157696554 18.541612289130697 13.098501336542768 7 -3 -2
400 1 2 -1.1794 3.893213661986999 19.58740216013406 15.62690410394911 -3 -3 2
33 1 1 0.5897 1.4432772223538328 18.81765206947962 13.471810903355358 5 7 0
476 1 1 0.5897 3.8897818091925296 19.17044555538095 12.454331119093265 7 -3 -2
68 1 1 0.5897 3.6047230374161643 21.264926814048195 15.725183544947617 3 -4 -4
333 1 1 0.5897 3.8223381239483816 17.086353725087957 14.704013884127024 1 -2 -2
401 1 1 0.5897 3.9014561205944602 19.287389971950624 14.717955278029269 -3 -3 2
658 1 2 -1.1794 1.0929060560362829 17.32600917261406 12.002139954787161 1 0 0
402 1 1 0.5897 4.610890006176257 19.110359912364707 16.04360137309508 -3 -3 2
784 1 2 -1.1794 0.7398753627645622 18.749987339001684 16.62364391026724 4 4 3
474 1 1 0.5897 2.0129894086802764 17.770387200990797 20.853153174373276 1 2 -2
141 1 1 0.5897 3.7215419083406647 19.859525890815128 17.52493410108869 0 -1 -2
10 1 2 -1.1794 1.5264710483953796 21.668448565993053 18.980683030771843 -4 0 4
139 1 2 -1.1794 3.8106252674870964 20.176858236375807 18.42362358529487 0 -1 -2
382 1 2 -1.1794 0.5134341608203138 17.38462718684538 19.613987629104436 -9 -4 -3
711 1 1 0.5897 1.2699428384393106 21.96979221390791 20.80831655121068 -4 -4 -3
785 1 1 0.5897 1.4319641558925364 18.308698223288495 17.116167151147877 4 4 3
12 1 1 0.5897 2.2886977393099657 21.117114567337794 18.803738417093363 -4 0 4
140 1 1 0.5897 4.434314604303493 19.57502891575257 18.829921181372185 0 -1 -2
472 1 2 -1.1794 2.175605629710934 18.316021414686816 21.622651158683567 1 2 -2
782 1 1 0.5897 3.943412384400189 17.055063495161086 18.642044277345192 -2 -3 2
306 1 1 0.5897 4.624213951288221 21.734485782626308 19.300475087522777 5 -3 -7
383 1 1 0.5897 0.9556800261264116 17.23669412454492 18.778043524073276 -9 -4 -3
19 1 2 -1.1794 5.257755581114695 3.2338613645029755 4.333136821016899 -3 -3 3
119 1 1 0.5897 8.252397738239122 3.19256966145365 5.400583617196065 3 -2 -1
120 1 1 0.5897 6.996784890699654 3.9042154118565655 4.94338089293422 3 -2 -1
118 1 2 -1.1794 7.7117109649543405 3.9624601187087953 5.577243270258735 3 -2 -1
21 1 1 0.5897 4.871172125853681 3.2595471748827527 3.457797380588009 -3 -3 3
694 1 2 -1.1794 6.921478855312771 5.76912154701551 2.2041675653043606 2 -1 -2
696 1 1 0.5897 6.0959408173422505 5.4917589636096675 1.8068858621321264 2 -1 -2
329 1 1 0.5897 8.584905836629138 2.8106662656966837 2.73841037476924 2 6 1
328 1 2 -1.1794 8.7057864607914 3.75428220968257 2.632369250852446 2 6 1
695 1 1 0.5897 7.466866565450817 4.982481752668759 2.1983037557900786 2 -1 -2
20 1 1 0.5897 5.22492813986881 2.310393401368433 4.582949881997493 -3 -3 2
649 1 2 -1.1794 6.94460990651328 5.256507913496433 8.927665243249441 0 -1 -1
651 1 1 0.5897 7.163608648136836 4.373148995266261 8.631033592683773 0 -1 -1
358 1 2 -1.1794 8.7190473388413 4.931200248155173 10.815702636117758 3 2 -6
516 1 1 0.5897 6.148366963494557 5.8940623646822 7.398324945795807 -1 -4 0
497 1 1 0.5897 6.741908880767424 3.0388456435692834 6.756726005349402 1 1 2
368 1 1 0.5897 5.84554687483742 1.8321473845709746 10.603309285525103 1 6 -2
496 1 2 -1.1794 6.541357428401258 2.6841012329457703 7.622870640817708 1 1 2
514 1 2 -1.1794 5.693805926537843 6.374827565059517 6.706528110062791 -1 -4 0
650 1 1 0.5897 7.513006307537186 5.403592895679589 9.683695421117417 0 -1 -1
146 1 1 0.5897 5.96290027749619 4.25779712810081 10.389839056480609 0 2 -3
176 1 1 0.5897 9.019643718815741 5.497514250621876 7.713281956371212 1 -3 7
498 1 1 0.5897 6.654566901058832 1.738445206485922 7.526995261898081 1 1 1
145 1 2 -1.1794 5.482676163345845 3.53029906011102 10.78531839623609 0 2 -3
515 1 1 0.5897 6.373419670579155 6.564436711682509 6.059661258721799 -1 -4 0
177 1 1 0.5897 8.750018281701848 5.362180640646345 6.229712654571213 1 -3 7
360 1 1 0.5897 9.063082684591844 5.782191345562618 10.544093300375602 3 2 -6
187 1 2 -1.1794 6.426569362222899 3.5697392630235734 13.748166292685637 -1 4 2
433 1 2 -1.1794 8.711927960215185 2.869529661253826 12.67811715171105 -3 3 -3
13 1 2 -1.1794 6.571374721670973 6.190760657573941 12.759430406390445 0 -3 -5
14 1 1 0.5897 6.475684535433953 5.23956616673993 12.807820545347798 0 -3 -5
188 1 1 0.5897 7.174159089000345 3.1995684016641155 13.278751128165034 -1 4 2
189 1 1 0.5897 5.679128886277204 3.045339396821012 13.460731326711233 -1 4 2
435 1 1 0.5897 8.767787790577255 3.6515565400133196 12.128937692774368 -3 3 -3
479 1 1 0.5897 6.2751060472625975 2.9567326380373338 15.64791415063629 -3 2 -3
224 1 1 0.5897 8.405044819384905 6.274166972331558 12.932037875556606 5 2 -7
15 1 1 0.5897 6.276582152011913 6.5054039347905475 13.614043069229275 0 -3 -5
675 1 1 0.5897 5.965241846960767 6.408960005444242 16.079853010235965 -4 -2 -5
371 1 1 0.5897 8.542314197020245 5.445999462046556 16.216728461671153 4 7 -1
794 1 1 0.5897 8.037633582915149 2.55690700045925 19.82640862355902 -3 1 5
626 1 1 0.5897 8.5578476577127 4.841099979097219 19.051808362163726 -4 -2 3
793 1 2 -1.1794 7.865264244181257 1.6187542033774576 19.90652975864902 -3 1 5
27 1 1 0.5897 6.922381622921506 6.2154017734510765 21.360393526944257 0 4 7
304 1 2 -1.1794 5.140554120875415 1.6183078482558124 20.019006278798805 5 -2 -7
25 1 2 -1.1794 6.619297891979088 6.067876640715288 20.464493303704515 0 4 7
254 1 1 0.5897 6.383602534558633 4.567527324652441 19.485385848317577 2 7 -8
253 1 2 -1.1794 5.904738173044142 3.9824063334939277 18.898358596564954 2 7 -8
480 1 1 0.5897 6.211560255057922 3.301159440159335 17.120769656454115 -3 2 -3
305 1 1 0.5897 5.404178642721579 2.484667289221166 19.70880478545819 5 -2 -7
52 1 2 -1.1794 8.17068647285091 6.483675991810926 18.049935411725244 -5 -2 2
255 1 1 0.5897 5.328567157619887 4.561684252334684 18.39961318043104 2 7 -8
625 1 2 -1.1794 8.925698112189801 4.189109449471244 19.64836082313355 -4 -2 3
478 1 2 -1.1794 5.982565002081247 2.6156808010405763 16.493114995446682 -3 2 -3
654 1 1 0.5897 8.86690376417936 7.2625723105083555 4.207799601966096 -1 1 -1
606 1 1 0.5897 6.626249045653243 9.578777741572226 1.7648796173521593 -6 0 -1
847 1 2 -1.1794 7.09557164908078 7.294262100803127 4.608237846175775 0 -3 5
604 1 2 -1.1794 7.532516675010149 9.873169504146688 1.8559427345834982 -6 0 -1
94 1 2 -1.1794 5.7168661212098 9.782934956368509 4.584001820612393 -2 0 1
302 1 1 0.5897 8.283501916578501 9.98809794208816 3.669785904483693 -2 2 6
667 1 2 -1.1794 5.218034093302978 8.406671284253111 1.155636513629693 -7 -4 0
605 1 1 0.5897 8.051023811261452 9.187810097995026 1.4343130717142238 -6 0 -1
389 1 1 0.5897 5.611221560770315 11.460411044062505 4.2130052229989765 2 7 3
96 1 1 0.5897 5.864411853345688 9.65537719686149 5.5211487661096275 -2 0 1
849 1 1 0.5897 6.553032889469306 8.082756699137228 4.622513798084398 0 -3 5
194 1 1 0.5897 8.314665431307983 11.468630998042599 1.0887414822802646 0 -5 2
301 1 2 -1.1794 8.898153654963954 10.376223679820031 4.29255606826199 -2 2 6
66 1 1 0.5897 8.542579542356446 11.671929086836236 5.458023689741817 4 1 -3
669 1 1 0.5897 4.9390394919868275 7.930944206143539 1.938017519326491 -7 -4 0
848 1 1 0.5897 7.019076246601922 6.966505156722356 3.712136640547761 0 -3 5
95 1 1 0.5897 4.764356028287612 9.786005833121816 4.489250356618772 -1 0 1
314 1 1 0.5897 4.763816810665992 10.444168108112631 1.1953473989781476 -2 -1 0
315 1 1 0.5897 4.793631343031527 11.778371352257853 1.9101961811892618 -2 -1 0
265 1 2 -1.1794 5.472263402510277 7.548300772348995 10.652802572084152 -2 -1 -2
345 1 1 0.5897 8.402012111780063 8.789716863167936 9.942398221104353 -2 1 0
541 1 2 -1.1794 7.642002206287995 11.500309164173611 8.623010635005967 -5 1 3
343 1 2 -1.1794 7.61322104936778 9.253929203881553 10.22271734840777 -2 1 0
543 1 1 0.5897 7.641588232216123 10.627937370190631 9.017005999414774 -5 1 3
344 1 1 0.5897 6.929893758395006 8.583642709230425 10.229402785942728 -2 1 0
206 1 1 0.5897 7.480759239360775 8.80647149983337 7.221974209949663 -4 3 -2
207 1 1 0.5897 6.2060886077634585 7.992031038802156 7.285137088611085 -4 3 -2
122 1 1 0.5897 5.039291496183433 9.835202719227958 8.035856976871171 -1 -1 -2
205 1 2 -1.1794 6.5459404243221115 8.877432420367162 7.4152499605745845 -4 3 -2
267 1 1 0.5897 5.1435200625826125 6.921454500295751 10.008399388374718 -2 -1 -2
490 1 2 -1.1794 4.877880528848154 11.085386140072776 10.935762113900731 0 3 3
491 1 1 0.5897 4.938394455686021 10.481348681142194 10.195662853275921 0 3 3
835 1 2 -1.1794 7.696248227834688 10.447292637845923 12.639941796444912 -1 4 -2
404 1 1 0.5897 5.942837263590963 10.737632261821812 13.316831195714364 4 -5 -1
837 1 1 0.5897 7.50057408424936 10.165416800452745 11.74634186015126 -1 4 -2
466 1 2 -1.1794 8.554243841583348 8.667697850538204 16.31757775202764 3 -2 5
405 1 1 0.5897 5.766245591581259 11.097052862534953 14.77684574499301 4 -5 -1
403 1 2 -1.1794 5.272895160798092 10.884109912518385 13.984663547191001 4 -5 -1
836 1 1 0.5897 8.153971350550027 11.281249375356195 12.53372882712991 -1 4 -2
467 1 1 0.5897 7.989083533936458 9.434352661081158 16.222137674089062 3 -2 5
674 1 1 0.5897 7.1058435110287546 7.399745475199602 15.98315927978612 -4 -2 -5
673 1 2 -1.1794 6.291693250210295 7.138362842452183 15.552917188127656 -4 -2 -5
809 1 1 0.5897 7.959883517663466 11.462533686688253 15.756254838237503 2 -2 -2
266 1 1 0.5897 5.802703002840806 7.005534968792257 11.368699268948125 -2 -1 -2
808 1 2 -1.1794 7.08843871678119 11.190406796785751 16.044020673103716 2 -2 -2
26 1 1 0.5897 6.061463603782499 6.821752480710737 20.272656911891204 0 4 7
799 1 2 -1.1794 8.685801833779731 9.669367157357193 19.437384040572333 -2 -2 3
689 1 1 0.5897 5.7287312138409145 9.296011181907176 18.855553302416418 3 -2 3
810 1 1 0.5897 6.9439829102489625 11.670882360257316 16.85921276666543 2 -2 -2
688 1 2 -1.1794 6.2681645787211275 8.626098102774334 19.275660399678195 3 -2 3
690 1 1 0.5897 7.155754132976101 8.983796441552142 19.25317946991145 3 -2 3
53 1 1 0.5897 8.601409117051992 7.310377050103313 17.832355588266253 -5 -2 2
362 1 1 0.5897 7.3860814271612885 11.368120385263268 19.212814283034618 5 -5 -1
54 1 1 0.5897 7.541119161166101 6.71366549831705 18.73334398069065 -5 -2 2
800 1 1 0.5897 9.046535474215725 9.28478866369997 20.23628305747519 -2 -2 3
429 1 1 0.5897 6.860729035177146 14.617240770271648 2.6616927846995195 2 0 -5
195 1 1 0.5897 8.042174796375882 12.952016902004944 0.9571190551970168 0 -5 2
427 1 2 -1.1794 7.094193524125059 13.75358102199302 2.3213289851520087 2 0 -5
428 1 1 0.5897 6.486680932457643 13.153117478756592 2.753338602973207 2 0 -5
546 1 1 0.5897 7.826811480318805 16.56228893865828 3.6358184400757163 -5 3 5
388 1 2 -1.1794 5.378850503965107 12.328235578848346 3.882617823481674 2 7 4
390 1 1 0.5897 5.610160656131058 12.925662190022338 4.593846156996787 2 7 4
284 1 1 0.5897 8.70161205852321 13.793635178109405 2.798133777951471 3 0 -2
544 1 2 -1.1794 7.175743206277041 16.4364517926169 2.945502039146491 -5 3 5
193 1 2 -1.1794 8.486835678237284 12.222790749745407 0.5249379249805799 0 -5 2
545 1 1 0.5897 7.595504094657225 16.775781848679646 2.154962086094052 -5 3 5
818 1 1 0.5897 7.016522675577914 16.484274215460516 8.022449986607395 4 -2 2
814 1 2 -1.1794 5.995697579990897 15.780228122245346 9.608210449062595 -4 5 -5
815 1 1 0.5897 5.390755586512968 16.47108922663781 9.33799499170803 -4 5 -5
817 1 2 -1.1794 7.366383542272321 16.225050670385528 7.170003854232293 4 -2 2
569 1 1 0.5897 8.925032568429181 15.560959572744697 7.96260454064045 2 -1 1
65 1 1 0.5897 7.958861315824552 11.920775031517547 6.832585995324977 4 1 -3
819 1 1 0.5897 6.81450545660956 15.492182908062091 6.896872115997818 4 -3 2
391 1 2 -1.1794 6.60041033323715 13.052797523185987 10.572657179584576 2 -4 -2
393 1 1 0.5897 6.327034370447781 13.727629697106764 9.951265135761956 2 -4 -2
59 1 1 0.5897 5.475137173323816 13.564491551890095 6.488158898670976 3 -1 -1
392 1 1 0.5897 5.9648545897470555 12.34672799040159 10.455164809031322 2 -4 -2
64 1 2 -1.1794 8.197492226690567 12.366115611696872 6.019547111018506 4 1 -3
816 1 1 0.5897 6.468171524209289 16.152639846416864 10.352756396828877 -4 5 -5
58 1 2 -1.1794 6.130272740690653 14.100000560832132 6.040612630165078 3 -1 -1
60 1 1 0.5897 6.908975212924844 13.544599526255674 6.002676364719813 3 -1 -1
542 1 1 0.5897 7.786629374734004 12.095722639589585 9.358503199365646 -5 1 3
572 1 1 0.5897 8.939906448329678 15.815550871651439 11.406147017480707 1 -3 -4
804 1 1 0.5897 7.417864403451295 16.50953347967225 14.64085373790901 5 1 -1
412 1 2 -1.1794 4.773385389045295 14.252841718526907 15.555416083937256 3 0 1
743 1 1 0.5897 8.193446298368354 12.874695964491943 11.518852418950281 -2 1 1
129 1 1 0.5897 4.960612115865002 12.730311206113367 13.17738772047835 -1 1 -4
128 1 1 0.5897 5.923026341239077 13.366615834594933 12.197155504375539 -1 1 -4
742 1 2 -1.1794 8.966804808130107 12.748860679650063 12.068716226478879 -2 1 1
482 1 1 0.5897 9.031331085219666 14.427379142694553 15.13139159106554 1 5 -1
127 1 2 -1.1794 5.310186825251291 13.577643993944207 12.901540757072956 -1 1 -4
481 1 2 -1.1794 8.534346963565438 15.06629002990578 15.642331979646803 1 5 -1
413 1 1 0.5897 5.183921445139638 14.131933621478163 14.699198685132528 3 0 1
483 1 1 0.5897 8.090184281424921 14.545331611149724 16.31134807214923 1 5 -1
607 1 2 -1.1794 8.942501260208473 14.544322315367321 19.206080844707103 3 5 1
609 1 1 0.5897 8.387771296193204 15.324253725714845 19.22166920635388 3 5 1
586 1 2 -1.1794 6.004873616369458 14.90947828087427 20.72489702054252 0 1 2
354 1 1 0.5897 6.043427787476491 16.419599206233357 17.650439544172876 5 4 -3