LAMMPS data file via write_data, version 30 Jul 2021, timestep = 500000

2268 atoms
2 atom types
1512 bonds
1 bond types
756 angles
1 angle types

-0.06598355299051661 46.72598155299188 xlo xhi
0.040223704298609775 19.959777295700462 ylo yhi
-2.3536430433068745e-05 20.700021536430064 zlo zhi

Masses

1 1.008
2 15.999

Pair Coeffs # lj/cut/tip4p/long/omp

1 0 0
2 0.21084 3.1668

Bond Coeffs # harmonic/omp

1 450 0.9572

Angle Coeffs # harmonic/omp

1 55 104.52

Atoms # full

6 2 1 0.5897 4.343265883166437 0.6876554485416592 2.758207734064251 0 0 0
19 7 2 -1.1794 0.7873094462866136 6.186234761231273 1.4454232719905846 0 0 0
2 1 1 0.5897 2.986664625719892 2.099885246165186 0.3197439327233599 0 0 0
4 2 2 -1.1794 4.2511467402336445 1.392450161012842 3.399271763626559 0 0 0
5 2 1 0.5897 3.4018391911520567 1.2329241964779873 3.8109883959357003 0 0 0
20 7 1 0.5897 0.9492471131609876 7.127421482417615 1.5092501553582975 0 0 0
31 11 2 -1.1794 0.4550930897059533 2.1383842146744763 2.4875055338752667 0 0 0
10 4 2 -1.1794 1.3502303961399988 4.428583388483358 3.7912342676856965 0 0 0
11 4 1 0.5897 1.2046126242321602 5.131090319074844 3.1576196295935 0 0 0
12 4 1 0.5897 2.2990630228481934 4.411307571133501 3.9165818911312122 0 0 0
13 5 2 -1.1794 4.584252745747107 5.445615771746387 1.3601286511587631 0 0 0
14 5 1 0.5897 4.345113373598951 4.967048491159632 2.15385958994293 0 0 0
15 5 1 0.5897 3.8357454512754674 5.329101907511905 0.7749463733460783 0 0 0
16 6 2 -1.1794 4.119391558664963 4.13293426027912 3.6333573318351826 0 0 0
17 6 1 0.5897 4.746976763775977 4.306792966952221 4.334910848124258 0 0 0
18 6 1 0.5897 4.218910974122545 3.199128782019535 3.4483328076764805 0 0 0
3 1 1 0.5897 1.6716370253651622 2.053050902742824 1.0684334042033548 0 0 0
1041 347 1 0.5897 1.2103338284375973 9.529144097621927 9.558331435870915 0 0 0
1009 337 2 -1.1794 2.6994583335464166 9.290647495944297 6.522062455034411 0 0 0
760 254 2 -1.1794 3.807951207273794 0.8834323713266591 10.015790572584875 0 0 0
1012 338 2 -1.1794 4.1920578976548875 7.888420364164161 9.952736987286407 0 0 0
25 9 2 -1.1794 2.6946414554903106 5.522414739556061 6.46290091839779 0 0 0
26 9 1 0.5897 1.9858251590062732 5.791885149409447 7.0470501053251855 0 0 0
27 9 1 0.5897 2.7050866633098702 4.567216663070843 6.523015005268214 0 0 0
524 175 1 0.5897 0.411703483793822 0.39526921198392584 2.3157088818629914 0 1 0
777 259 1 0.5897 0.9568238766149921 7.051361590492248 8.814070408671405 0 0 0
32 11 1 0.5897 0.808955113158182 2.856990394602553 3.0115016338712612 0 0 0
787 263 2 -1.1794 0.525229881483344 2.1839715201867445 8.74162856575991 0 0 0
270 90 1 0.5897 4.842987141668371 9.597208848365826 3.0752539025183516 0 0 0
1040 347 1 0.5897 0.2618225537976599 8.998989591566145 8.504191457194757 0 0 0
1011 337 1 0.5897 2.008990147875961 9.149232017159715 7.169771038218261 0 0 0
256 86 2 -1.1794 4.143551383584787 7.792119552717098 2.9987849974900516 0 0 0
257 86 1 0.5897 4.2094145197144 7.176046220472576 2.2691819961945354 0 0 0
258 86 1 0.5897 3.2333691716604727 7.725622044390634 3.2876376289608236 0 0 0
776 259 1 0.5897 1.007063559277364 5.5810881718896015 9.17103015120798 0 0 0
274 92 2 -1.1794 1.925898016414222 7.4717693314297975 4.478764175016148 0 0 0
275 92 1 0.5897 2.208048070382879 6.69927251062118 4.968470981523273 0 0 0
276 92 1 0.5897 2.081459876586689 8.203999922436989 5.075270246170544 0 0 0
29 10 1 0.5897 5.455402361637278 0.9965134402760221 4.605668723896871 0 0 0
264 88 1 0.5897 1.2558386826673635 9.860941336734694 3.1323602136636337 0 0 0
283 95 2 -1.1794 0.7889974847889688 8.843293200481172 1.5204892477553031 0 0 0
285 95 1 0.5897 1.586405356096267 9.063956530647545 1.0391132271939387 0 0 0
1281 427 1 0.5897 0.6436193813307476 0.3883071676853057 8.470913754207576 0 1 0
761 254 1 0.5897 3.816403668849909 1.7583823048483969 9.627800576876629 0 0 0
22 8 2 -1.1794 1.9744219482921146 1.1132298522261 4.860405160585725 0 0 0
757 253 2 -1.1794 2.538828801122225 2.7429010369350286 6.950740217418875 0 0 0
758 253 1 0.5897 2.3289671390950066 2.262544726253044 6.149843058104208 0 0 0
759 253 1 0.5897 3.440226118152703 2.491526710482762 7.152173871686912 0 0 0
762 254 1 0.5897 3.9414905805843237 0.29143136294602684 9.275582827916859 0 0 0
790 264 2 -1.1794 5.094644550606351 1.7820045604490702 7.54562836939715 0 0 0
286 96 2 -1.1794 5.4043641567836085 9.3387678720248 0.055334502195076775 0 0 0
772 258 2 -1.1794 3.977363436746213 3.786192520255433 10.00815821639248 0 0 0
769 257 2 -1.1794 4.815961725234513 5.857706362739146 8.243433671295227 0 0 0
770 257 1 0.5897 4.608012038409354 6.5888641472180645 8.825105353537586 0 0 0
771 257 1 0.5897 4.222075414875341 5.965628549069323 7.5005203775410445 0 0 0
1010 337 1 0.5897 3.5108227137619252 9.279496416020363 7.029847361215757 0 0 0
791 264 1 0.5897 5.326051784230777 1.2244549109616583 6.80279676970625 0 0 0
498 166 1 0.5897 0.16206214044026618 7.396859001853198 4.713735589533774 1 0 0
1539 513 1 0.5897 1.887031911838424 5.5764691646212095 0.1383546750277373 0 0 1
1039 347 2 -1.1794 1.1332302166120316 8.862302085763428 8.876011034906393 0 0 0
789 263 1 0.5897 1.204086634419516 2.387294447747545 8.098138221426467 0 0 0
775 259 2 -1.1794 0.8095699611103299 6.178577651360007 8.449775191990499 0 0 0
24 8 1 0.5897 2.2024739100776465 0.29653228481632143 5.304429037717011 0 0 0
23 8 1 0.5897 1.0195974418310518 1.1563693703605447 4.912780490472912 0 0 0
773 258 1 0.5897 4.259544551216128 4.323445716246311 9.2679240901616 0 0 0
284 95 1 0.5897 0.08896523451824123 8.916615657758463 0.8717574695510549 0 0 0
282 94 1 0.5897 4.8390288171405835 7.63916242456127 4.750216086821755 0 0 0
34 12 2 -1.1794 4.973681059895377 1.9172734235637703 0.30345531326104447 0 0 0
1 1 2 -1.1794 2.057502907435748 2.3124897189582025 0.23174278980940988 0 0 0
767 256 1 0.5897 0.9734612506423317 3.4529590981397833 10.193211544257625 0 0 0
280 94 2 -1.1794 5.477618238347927 7.3379690896480705 5.39654584463131 0 0 0
281 94 1 0.5897 5.364920831129412 7.930747779850047 6.139590593611349 0 0 0
1042 348 2 -1.1794 5.279568644539902 9.362041863020156 7.344153060074883 0 0 0
1026 342 1 0.5897 4.297370651249325 9.784433030498151 10.123621933894102 0 0 0
35 12 1 0.5897 5.588730486045198 1.975913820760913 1.034581442919815 0 0 0
288 96 1 0.5897 5.776797467758901 9.151137741939827 0.916929059924661 0 0 0
1013 338 1 0.5897 3.27421128443977 7.931196664089669 10.221100549134713 0 0 0
1546 516 2 -1.1794 5.382958795325083 2.8796228221700244 14.264849429221863 0 0 0
764 255 1 0.5897 5.305935064473608 5.7523808930264435 12.183054453065814 0 0 0
255 85 1 0.5897 2.438099456433943 8.562142970759497 19.695676946371673 0 0 -1
1795 599 2 -1.1794 0.7953588738806988 8.782488305800785 15.66074611199048 0 0 0
1800 600 1 0.5897 4.361808172525623 9.074403597297106 14.205112079379502 0 0 0
287 96 1 0.5897 5.567269842075894 8.545250647082476 20.245518077139785 0 0 -1
1786 596 2 -1.1794 1.9971137462920039 7.383139189327902 18.427581671946882 0 0 0
1548 516 1 0.5897 5.4495373627446195 2.1877060623750517 13.60681630429757 0 0 0
785 262 1 0.5897 5.185425664354478 1.1518521992438153 11.299720309183577 0 0 0
779 260 1 0.5897 2.1034251352257742 2.0178749715844395 12.585348004546201 0 0 0
1532 511 1 0.5897 0.5169892822550403 7.010942430990935 15.580343157104469 0 0 0
781 261 2 -1.1794 2.240850160141953 5.882320481559424 13.676481282991938 0 0 0
782 261 1 0.5897 1.455331937820217 5.911461292399559 14.222734410149886 0 0 0
783 261 1 0.5897 2.4978036750511983 4.960308060428141 13.674627281213438 0 0 0
1014 338 1 0.5897 4.66322231462149 7.639260489328565 10.747833934564362 0 0 0
2036 679 1 0.5897 0.6559597541600981 0.2582897911931581 15.56622014005061 0 1 0
981 327 1 0.5897 -0.011524706305013198 4.647671317449223 11.77941009761241 1 0 0
1787 596 1 0.5897 2.76275082101669 7.719838168258945 17.962072433941202 0 0 0
2010 670 1 0.5897 0.16433785261179007 7.402173328490904 18.687043328296458 1 0 0
1030 344 2 -1.1794 1.9124429165537633 7.6786401154082515 11.601188442445267 0 0 0
1031 344 1 0.5897 0.9586404550207503 7.6169605207565825 11.54874236604424 0 0 0
1032 344 1 0.5897 2.1622356443132693 7.003833084032205 12.232402816893206 0 0 0
1521 507 1 0.5897 5.219935016915676 4.173259174848134 19.010401438452075 0 0 0
1513 505 2 -1.1794 2.574983799829968 3.1572642351409135 14.132744199182499 0 0 0
1514 505 1 0.5897 2.0648365412660517 2.6842769444563137 14.790216652737598 0 0 0
1515 505 1 0.5897 3.4867676859936623 3.005136555073156 14.381327723921968 0 0 0
1516 506 2 -1.1794 4.024638970844258 1.689437204756473 17.036872847140767 0 0 0
1517 506 1 0.5897 3.227398199750593 1.34655100173557 17.440727820234834 0 0 0
1518 506 1 0.5897 4.737261225681659 1.293192178188418 17.53828818224088 0 0 0
768 256 1 0.5897 2.204456981655498 4.294657877891413 10.454205346875549 0 0 0
1788 596 1 0.5897 2.1866801793827215 6.454492293538633 18.561063545018197 0 0 0
1522 508 2 -1.1794 1.0940020767210443 4.626745335177376 17.563322991345327 0 0 0
1758 586 1 0.5897 0.0413585283594993 0.783476617136429 18.874049178533014 1 0 0
1524 508 1 0.5897 0.6970804945092977 5.144183321111831 16.86265432577765 0 0 0
1525 509 2 -1.1794 4.313907547213765 6.129531664590008 15.453817615263256 0 0 0
1526 509 1 0.5897 3.9770292289881484 5.525667272814575 16.115687332262805 0 0 0
1527 509 1 0.5897 3.5883667039507214 6.2413718154988 14.839523696250508 0 0 0
1528 510 2 -1.1794 3.92603152350628 4.30231244518541 17.644657545362453 0 0 0
1529 510 1 0.5897 2.9981646918857416 4.217653146018372 17.864173877206234 0 0 0
1530 510 1 0.5897 4.1752700968613095 3.437772490141586 17.31815951179545 0 0 0
1797 599 1 0.5897 1.4563828082402717 9.049506695789852 15.021987231043004 0 0 0
1799 600 1 0.5897 5.54753465477105 9.948592162177833 13.856181984424275 0 0 0
1002 334 1 0.5897 0.016193589337320277 1.039004814932748 12.180412313467489 1 0 0
1535 512 1 0.5897 1.9135205444868373 1.4561062908196674 19.43114280745236 0 0 0
766 256 2 -1.1794 1.2498622516940197 4.307539460562427 10.524040958663834 0 0 0
780 260 1 0.5897 2.492519104814386 1.3146681175556592 11.30238437885532 0 0 0
1543 515 2 -1.1794 0.98004228732343 2.249082848658257 16.03433399992121 0 0 0
1531 511 2 -1.1794 0.20943338821232116 6.115657809672495 15.438855651962907 0 0 0
1545 515 1 0.5897 1.028724666987821 2.9476857114265442 16.68684339864759 0 0 0
2031 677 1 0.5897 4.417945863718638 0.4461575902582084 15.601878743537696 0 1 0
765 255 1 0.5897 5.672716050630828 4.511226030064084 12.968389924046154 0 0 0
778 260 2 -1.1794 1.774298325305496 1.4039552730453715 11.928850685601493 0 0 0
1765 589 2 -1.1794 2.5551383544780673 9.346908165657494 13.74021660195592 0 0 0
1766 589 1 0.5897 2.214004095322829 8.937554092975803 12.945048263098263 0 0 0
1768 590 2 -1.1794 4.552309075146625 8.166733377793035 17.31778729486464 0 0 0
1769 590 1 0.5897 5.085521033954512 7.711525240149983 17.96948143603321 0 0 0
1770 590 1 0.5897 4.53276625566787 7.573507167576093 16.56685234347593 0 0 0
774 258 1 0.5897 4.585426142758188 4.009997319867409 10.712738368722427 0 0 0
1544 515 1 0.5897 0.2614823058716345 2.5088416777845937 15.457736915365833 0 0 0
253 85 2 -1.1794 2.612587765148161 9.338793224038977 20.22722318990652 0 0 -1
1534 512 2 -1.1794 1.7507905897505556 0.9131817019561411 18.65980416436726 0 0 0
1796 599 1 0.5897 -0.03879745599353597 9.024383788820314 15.25832063182365 0 0 0
1523 508 1 0.5897 0.43223089836370565 4.61147236145682 18.254768708331376 0 0 0
784 262 2 -1.1794 5.724608804081304 1.087216036814521 12.087989707734266 0 0 0
1520 507 1 0.5897 5.667911204722778 3.4984351663638074 20.289394011859464 0 0 0
1798 600 2 -1.1794 5.315280663840849 9.120484774276116 14.276250063470727 0 0 0
1538 513 1 0.5897 2.2065972207827467 4.147712787993694 20.45342890659914 0 0 0
763 255 2 -1.1794 5.589030039846284 4.844462865481623 12.074975214337101 0 0 0
1537 513 2 -1.1794 2.487133970404772 5.05134796299846 20.308911946264757 0 0 0
254 85 1 0.5897 3.562028776670905 9.452057482317011 20.18222719539204 0 0 -1
36 12 1 0.5897 5.41546594925377 1.3605512922307357 20.362326589815144 0 0 -1
271 91 2 -1.1794 0.7758953372607361 12.287214797651407 1.9445580690288091 0 0 0
1025 342 1 0.5897 4.641366818442706 11.256605525256276 10.045999396222307 0 0 0
1296 432 1 0.5897 5.504433113793945 16.5508591926314 6.634442979879938 0 0 0
1294 432 2 -1.1794 5.149582180439096 15.847971377372453 7.1787040460613225 0 0 0
265 89 2 -1.1794 4.381001849794596 12.714221898571672 1.4459285093230965 0 0 0
1273 425 2 -1.1794 4.737519246119896 18.723176063729568 8.369415454453787 0 0 0
268 90 2 -1.1794 4.689156141735634 10.492701689692383 3.376201226040369 0 0 0
519 173 1 0.5897 3.808557277974149 19.013701539986606 0.8345421940532026 0 0 0
269 90 1 0.5897 4.892876192964238 11.03921715007141 2.6172324733443237 0 0 0
539 180 1 0.5897 5.405989183517642 15.11225649721687 0.9224677767316501 0 0 0
272 91 1 0.5897 1.4247930421628543 12.157454948801071 1.2529192645613925 0 0 0
273 91 1 0.5897 1.0538721083343048 11.700169650603558 2.6476350279125187 0 0 0
277 93 2 -1.1794 2.682365445317077 11.99147127529592 6.806504123480149 0 0 0
278 93 1 0.5897 2.666912671279833 11.070486153096493 6.546348369628048 0 0 0
279 93 1 0.5897 2.3828552090764723 12.465071124329887 6.030472452905061 0 0 0
510 170 1 0.5897 3.75406192094712 14.193943137514758 2.576044849443608 0 0 0
535 179 2 -1.1794 0.48891691753191724 15.017718835907958 2.4783381697240894 0 0 0
538 180 2 -1.1794 4.84345671486272 15.452259503799986 0.22661661148126866 0 0 0
263 88 1 0.5897 2.499767389006113 10.426110685788101 3.7844360416152614 0 0 0
508 170 2 -1.1794 3.792245676896235 14.650618819203057 3.4164102754171464 0 0 0
509 170 1 0.5897 3.789076651949225 15.579396578552084 3.185122835516079 0 0 0
523 175 2 -1.1794 0.42052422513613963 19.504685796317204 1.806037831334343 0 0 0
266 89 1 0.5897 3.7180090133450903 12.501715591338389 0.7890071130270905 0 0 0
514 172 2 -1.1794 1.0151952264346613 17.391094180258072 3.719843403964504 0 0 0
1029 343 1 0.5897 0.24737841696058627 12.715108695595115 8.566995063878707 0 0 0
516 172 1 0.5897 0.8874243341889437 16.459512319596442 3.541064163463197 0 0 0
513 171 1 0.5897 5.085535930276114 17.647036913938678 4.610490823463661 0 0 0
506 169 1 0.5897 3.051318785923284 15.637163829031259 0.5034286756866815 0 0 0
1027 343 2 -1.1794 1.09302730746627 13.027140707564726 8.889156966034289 0 0 0
520 174 2 -1.1794 3.773635513276115 17.369871725519232 3.406324827884754 0 0 0
521 174 1 0.5897 2.848102047736628 17.468279955071395 3.629917167950663 0 0 0
522 174 1 0.5897 3.9444383633478406 18.07086456906427 2.7773349959401803 0 0 0
1279 427 2 -1.1794 0.6953724375824478 19.386780104923176 8.21582735002667 0 0 0
525 175 1 0.5897 0.5224722790687045 18.81183792170684 2.4585339174887375 0 0 0
526 176 2 -1.1794 1.739297835518745 13.932631159860607 5.075983615040626 0 0 0
527 176 1 0.5897 2.358027534218898 14.019570330786728 4.350806274825495 0 0 0
528 176 1 0.5897 2.068224462029246 14.532620425155171 5.745334067544554 0 0 0
529 177 2 -1.1794 2.5917366010469642 18.86999461698359 6.399553274262677 0 0 0
530 177 1 0.5897 2.52591364159559 17.939426925530498 6.1854432676536035 0 0 0
531 177 1 0.5897 1.8494356771630158 19.035597206151678 6.980790432216264 0 0 0
533 178 1 0.5897 5.10711876208554 14.411622643783536 4.640296652229855 0 0 0
262 88 2 -1.1794 1.5452725495236708 10.416455774439886 3.85613464936262 0 0 0
517 173 2 -1.1794 4.3246116805021595 19.184528025581308 1.6224302293980586 0 0 0
515 172 1 0.5897 0.3522530155692453 17.60242830392209 4.377195159724295 0 0 0
1291 431 2 -1.1794 0.6917716164283383 15.73847131572649 8.802079904201046 0 0 0
2042 681 1 0.5897 1.8458278811749298 19.195081898652816 0.27086479956813564 0 0 1
537 179 1 0.5897 0.5874974261578496 14.08268102606857 2.2991257541270573 0 0 0
1293 431 1 0.5897 0.9620989033049505 14.883222252799802 9.136186719670407 0 0 0
1021 341 2 -1.1794 4.992221519953034 12.417185888613767 8.683639482617231 0 0 0
1022 341 1 0.5897 4.707830782063697 13.324043467883603 8.797114411068241 0 0 0
1023 341 1 0.5897 4.511040199038441 12.109117967373008 7.915649249611266 0 0 0
1275 425 1 0.5897 4.187596846061723 18.697843783466915 7.586338659104529 0 0 0
505 169 2 -1.1794 2.2275189968001445 16.045444341625476 0.23711724378470028 0 0 0
1028 343 1 0.5897 1.7260573040011393 12.715933907421372 8.242102275224632 0 0 0
1261 421 2 -1.1794 2.4486466559939535 16.173191981489545 6.615215202589685 0 0 0
1262 421 1 0.5897 1.8631152120532364 16.155942143404893 7.372264383298452 0 0 0
1263 421 1 0.5897 3.3240361803958325 16.06232277709961 6.986275481355236 0 0 0
1280 427 1 0.5897 1.1199811860286046 18.95586277138986 8.957615313265201 0 0 0
1292 431 1 0.5897 0.9223132195238484 16.352275925990874 9.499429055584171 0 0 0
1274 425 1 0.5897 4.250188812542013 18.21939865206557 9.02129126038305 0 0 0
518 173 1 0.5897 5.23442122869606 19.130563636324787 1.329813112173287 0 0 0
507 169 1 0.5897 1.6290896629623024 15.875201065108945 0.9645542926532488 0 0 0
1019 340 1 0.5897 1.55130439775052 11.800003472968822 10.155376868069313 0 0 0
477 159 1 0.5897 0.07895153311663805 10.650457747377816 5.051240439056886 1 0 0
267 89 1 0.5897 5.215559331861921 12.583042911173566 0.9958294079525966 0 0 0
1264 422 2 -1.1794 4.024793797016474 14.599213885864264 9.823725366653637 0 0 0
1043 348 1 0.5897 5.661967924788122 10.01308867762073 6.755844882010024 0 0 0
261 87 1 0.5897 5.5584612351249225 11.063625600594959 4.889880774121059 0 0 0
534 178 1 0.5897 5.687840061950304 14.600025569295205 6.0256567164825725 0 0 0
750 250 1 0.5897 0.0444710673832418 13.690788100183607 5.248999544008446 1 0 0
1266 422 1 0.5897 3.214892138630316 14.400053827459493 10.29348537648101 0 0 0
1767 589 1 0.5897 2.6194535056346053 10.276801527802766 13.522746522788436 0 0 0
1271 424 1 0.5897 0.5055819797519877 17.776987170106032 11.116935335810618 0 0 0
1775 592 1 0.5897 1.3779538044244204 10.170257256613887 16.910059128237958 0 0 0
2052 684 1 0.5897 5.418116234160051 15.271422249708046 13.329523823179978 0 0 0
540 180 1 0.5897 5.256536226035029 15.153369840145036 20.11655097223356 0 0 -1
1033 345 2 -1.1794 2.713706576539266 12.10749233543541 13.38027697174627 0 0 0
1034 345 1 0.5897 3.527017761517626 12.00407026741138 13.874351994764847 0 0 0
1035 345 1 0.5897 2.0337823359027225 12.181393979567671 14.049989004577961 0 0 0
1783 595 2 -1.1794 1.2020054772537896 12.866252772816557 15.642524043578055 0 0 0
1265 422 1 0.5897 4.714248787440617 14.496427706601377 10.47974244378004 0 0 0
1785 595 1 0.5897 1.0680848599185233 13.769883600211612 15.928280899666102 0 0 0
1773 591 1 0.5897 4.9862845909441 11.650785823981018 18.98100916183358 0 0 0
1781 594 1 0.5897 3.2715515190795896 10.850034777974525 17.606517764264222 0 0 0
2041 681 2 -1.1794 2.4076353338180247 18.791091006122855 20.309540219477853 0 0 0
2037 679 1 0.5897 0.7959876680505051 19.011237224169463 14.611658477158745 0 0 0
1016 339 1 0.5897 5.25580533136965 10.913414353484306 12.040487249645562 0 0 0
1282 428 2 -1.1794 2.0567980803492945 14.43868369787698 11.736446211750527 0 0 0
1283 428 1 0.5897 1.9337244579873722 15.176734871070787 12.333365506085055 0 0 0
1284 428 1 0.5897 2.2303579344829587 13.692445338411144 12.310187895784736 0 0 0
1285 429 2 -1.1794 2.330393175411444 19.14084280317845 13.522670764211233 0 0 0
2035 679 2 -1.1794 0.28983699925081613 19.316796617278158 15.364451671902287 0 0 0
1287 429 1 0.5897 3.1796812767749376 19.321748368420984 13.925489841112904 0 0 0
1024 342 2 -1.1794 4.345512369630243 10.57948278810876 10.65441430145651 0 0 0
1286 429 1 0.5897 2.0955310416301125 19.95688918645935 13.081003976509505 0 0 0
1272 424 1 0.5897 2.0157673255961974 17.849182582180077 11.038331923192507 0 0 0
2051 684 1 0.5897 4.276902427725711 15.86658157515742 14.12662619510467 0 0 0
1232 411 1 0.5897 0.2901552648387476 11.236430708167612 11.922946245382738 1 0 0
2046 682 1 0.5897 5.226638648732505 14.515060853687688 18.011494849147525 0 0 0
1020 340 1 0.5897 2.597150712849492 10.787431820929937 10.571032158301318 0 0 0
1774 592 2 -1.1794 1.5998679597138576 10.938406534933748 17.436244445508358 0 0 0
1776 592 1 0.5897 1.5065298360198824 11.676694730769174 16.834248863533826 0 0 0
1777 593 2 -1.1794 4.676891711630063 12.493971217610905 15.31268034699617 0 0 0
1778 593 1 0.5897 4.274022700450895 11.816089076430933 15.855234097430815 0 0 0
2040 680 1 0.5897 0.8192923297843923 14.55641512552229 18.643254314299412 0 0 0
2043 681 1 0.5897 2.3293513191076727 17.85077154410326 20.47016443423482 0 0 0
1276 426 2 -1.1794 3.914387193520974 17.167169432891782 10.529733631260015 0 0 0
2050 684 2 -1.1794 5.230251710848835 15.88243520760211 14.04196362436766 0 0 0
1277 426 1 0.5897 4.604637534018327 17.401681898511065 11.150075402569314 0 0 0
2047 683 2 -1.1794 0.6779227714912938 15.597734833752746 15.75248767099478 0 0 0
2039 680 1 0.5897 2.0048612403581654 15.094631223702235 19.41573228671221 0 0 0
1791 597 1 0.5897 2.2161193095518406 12.86365501397291 19.705042009982787 0 0 0
2038 680 2 -1.1794 1.77162973754214 14.488782558284518 18.712342238247224 0 0 0
2017 673 2 -1.1794 2.197637131523324 16.386801676390533 13.62339223409731 0 0 0
2018 673 1 0.5897 2.144417789840482 17.341467641453633 13.579731600178562 0 0 0
2019 673 1 0.5897 1.8382940220341333 16.165465122091227 14.482539305316124 0 0 0
2020 674 2 -1.1794 3.8590868095959383 14.875779845842649 16.763249881476483 0 0 0
2021 674 1 0.5897 3.1568070755064737 14.591933542177399 17.348483669914977 0 0 0
2022 674 1 0.5897 4.078412361911606 14.09485810443205 16.255089374551517 0 0 0
1505 502 1 0.5897 0.15820940814629694 14.058603048866495 11.77849281955431 1 0 0
2049 683 1 0.5897 0.6259001564608646 16.330637435845006 16.365941114808194 0 0 0
2026 676 2 -1.1794 1.2278921904521858 17.760478392999623 17.410557606982145 0 0 0
2027 676 1 0.5897 2.161789858008343 17.64269251302258 17.236624660217 0 0 0
2028 676 1 0.5897 0.9273722256514885 18.34973995088579 16.718700751025555 0 0 0
1784 595 1 0.5897 0.3289429915945658 12.560511087044278 15.396437364350525 0 0 0
1018 340 2 -1.1794 1.6638239084990387 10.986171799145632 10.646477330896296 0 0 0
2024 675 1 0.5897 4.934452845529748 17.860089543571284 18.746335570395328 0 0 0
2032 678 2 -1.1794 3.99724887191306 17.763446040667297 17.02685918896649 0 0 0
2033 678 1 0.5897 4.296976379765094 18.34256747146788 16.32615110087784 0 0 0
2034 678 1 0.5897 4.0937653914934 16.8817201351633 16.667152202746315 0 0 0
2029 677 2 -1.1794 4.528539974267655 19.5710231288424 15.079950309768698 0 0 0
2023 675 2 -1.1794 5.560153387700822 17.82912782134624 19.47008316602074 0 0 0
1779 593 1 0.5897 5.593373776780158 12.228082835729024 15.237522310142058 0 0 0
1780 594 2 -1.1794 4.2221741948043 10.929284242546688 17.52696025397051 0 0 0
1270 424 2 -1.1794 1.2285534918797123 17.849255674185073 10.493745280336896 0 0 0
1988 663 1 0.5897 0.4255169737782935 11.313247662603464 19.12784214049277 1 0 0
1536 512 1 0.5897 1.9411275414962104 19.940657489566213 18.94982802796888 0 -1 0
2030 677 1 0.5897 5.476393568553714 19.474802683032415 14.987173672178596 0 0 0
1789 597 2 -1.1794 2.5145152259592045 12.219038160882176 20.346625739455632 0 0 0
2240 747 1 0.5897 0.2259803402898632 17.79999926892689 19.26310112149402 1 0 0
1790 597 1 0.5897 2.59097211211961 11.404188526549692 19.850306064822725 0 0 0
1771 591 2 -1.1794 5.667150694129478 11.965347907713916 19.575762480009054 0 0 0
2025 675 1 0.5897 5.190215321213409 17.19087451939488 20.079985120430262 0 0 0
1278 426 1 0.5897 3.9259655798915634 16.21033484305618 10.508310030691186 0 0 0
1289 430 1 0.5897 5.7097520749340145 13.004244579298291 12.311165527324166 0 0 0
1268 423 1 0.5897 5.713784178378608 17.656709273540677 13.026360861326822 0 0 0
1288 430 2 -1.1794 5.7531883694536745 13.88355318354132 11.935568269537258 0 0 0
1772 591 1 0.5897 5.68749421079123 11.318416124066433 20.28092551483969 0 0 0
1269 423 1 0.5897 5.617572131645806 18.98481973580469 12.306244356624518 0 0 0
1782 594 1 0.5897 4.518726487593184 10.047007583287268 17.303813932183655 0 0 0
49 17 2 -1.1794 11.288237868810356 5.725635102198305 1.7913330035665989 0 0 0
320 107 1 0.5897 7.512925888058475 9.002614820421245 2.8648740721278094 0 0 0
823 275 2 -1.1794 7.509241641016647 1.4465173039052894 9.189391799280049 0 0 0
59 20 1 0.5897 7.94572893265755 0.45332215594249337 5.130637007023397 0 0 0
28 10 2 -1.1794 6.0370450251973535 0.5736997158892276 5.237462240186781 0 0 0
824 275 1 0.5897 7.623429295449753 0.5038011555944268 9.069492161052736 0 0 0
1049 350 1 0.5897 11.344017690761644 7.563853228340493 9.76136300126173 0 0 0
40 14 2 -1.1794 10.689707430185912 1.691637705930197 3.307223425693155 0 0 0
1045 349 2 -1.1794 9.4714434318253 9.239512878664694 6.99812656217564 0 0 0
42 14 1 0.5897 9.890278212600109 1.5481200366996632 3.8137751462236453 0 0 0
46 16 2 -1.1794 8.156254442342071 3.489635513879504 4.02627987456153 0 0 0
47 16 1 0.5897 7.458378388988936 3.646249542809639 4.662450760476513 0 0 0
48 16 1 0.5897 8.057271450668773 4.192069418168047 3.3836519805321146 0 0 0
1044 348 1 0.5897 6.002572029964733 9.099373337239502 7.913834477701481 0 0 0
324 108 1 0.5897 11.425693585123359 8.928495748589407 1.1131744847412968 0 0 0
52 18 2 -1.1794 11.055853107450478 4.217813216380672 4.26407442515758 0 0 0
53 18 1 0.5897 10.14833014102115 4.440355375605744 4.471828579986768 0 0 0
806 269 1 0.5897 10.829133868359234 5.495473545609091 9.188250978891709 0 0 0
55 19 2 -1.1794 7.437855209552326 5.5426609533199915 2.199835280105468 0 0 0
41 14 1 0.5897 11.372571064788172 1.2403302587636118 3.8034716333586407 0 0 0
57 19 1 0.5897 7.350069031426488 6.4395523466808005 2.5223544679147523 0 0 0
9 3 1 0.5897 5.821776985890281 4.017149099511383 6.159445706259888 0 0 0
37 13 2 -1.1794 9.30857051589609 2.521746654496658 0.10650328829161333 0 0 0
51 17 1 0.5897 11.141235486698797 5.093975629066033 2.4953161811866873 0 0 0
61 21 2 -1.1794 9.405871750552135 5.193457771992414 6.770116655462845 0 0 0
62 21 1 0.5897 8.827861898085853 5.484253622151363 7.47552498516017 0 0 0
63 21 1 0.5897 9.429803801680436 4.2405591067831185 6.856938175445146 0 0 0
67 23 2 -1.1794 7.495864399240267 1.7580570250201353 1.983527706408013 0 0 0
68 23 1 0.5897 8.23165197093477 2.1396608405279722 1.5047269314180616 0 0 0
69 23 1 0.5897 7.520398384288979 2.1838837524962096 2.8404403962575695 0 0 0
1055 352 1 0.5897 7.86193730640751 9.614422765125676 10.26146141187636 0 0 0
289 97 2 -1.1794 9.236028598571298 8.931370807911382 0.24242157782555676 0 0 0
58 20 2 -1.1794 8.899739626072842 0.49744221032720687 5.195531145489738 0 0 0
292 98 2 -1.1794 10.86161292333287 7.83914724326536 3.6357850504598916 0 0 0
813 271 1 0.5897 7.636251235520226 5.155981631781198 9.48639510875479 0 0 0
294 98 1 0.5897 10.099983843788158 7.597627756435481 4.162909525535354 0 0 0
1075 359 2 -1.1794 7.419435042395233 8.628452564568429 8.742945957195104 0 0 0
310 104 2 -1.1794 8.87724003818303 7.303371702199911 5.186695095855762 0 0 0
311 104 1 0.5897 8.999893253681087 6.5611369429313005 5.778486305292246 0 0 0
312 104 1 0.5897 7.956218732039353 7.256190808961418 4.930210749634605 0 0 0
319 107 2 -1.1794 7.199918971950887 8.402038513371325 2.1884582571187554 0 0 0
1076 359 1 0.5897 7.5997906127711365 7.689010569466851 8.77538367437283 0 0 0
321 107 1 0.5897 7.844834116714237 8.47576815887158 1.484953034020618 0 0 0
811 271 2 -1.1794 7.59308957124542 5.715550126019432 8.71100350899345 0 0 0
554 185 1 0.5897 10.69857314172572 0.3145869933251114 2.1493411873623804 0 1 0
56 19 1 0.5897 6.592845387275969 5.349967920196745 1.7934998452353224 0 0 0
793 265 2 -1.1794 8.981441389231565 2.579991584787192 7.119335581775243 0 0 0
794 265 1 0.5897 9.885833749065592 2.372924172864985 7.354876116183067 0 0 0
795 265 1 0.5897 8.781059102327616 1.988861540308857 6.393651928327666 0 0 0
825 275 1 0.5897 8.033697436923342 1.8422075786719025 8.493243604792271 0 0 0
805 269 2 -1.1794 11.346726004665951 5.985998743687058 8.549725128400942 0 0 0
1077 359 1 0.5897 8.06252762668769 8.975032477149329 8.124424660033409 0 0 0
1047 349 1 0.5897 9.257960124673216 8.586474164171827 6.331672860351843 0 0 0
812 271 1 0.5897 6.672267624321741 5.693949777081815 8.450404254812677 0 0 0
293 98 1 0.5897 10.929557278301534 7.14512428795236 2.9801152472879475 0 0 0
1575 525 1 0.5897 8.515883530695172 5.260843418976635 0.5505896994731525 0 0 1
7 3 2 -1.1794 5.989234706556093 4.545604361720002 5.379117631187726 0 0 0
54 18 1 0.5897 11.03289685300109 3.2830732622039744 4.059466630230298 0 0 0
807 269 1 0.5897 10.851395733319576 5.914773124978637 7.733735724253925 0 0 0
797 266 1 0.5897 10.988404328245014 0.837722341386778 9.686923100296934 0 0 0
1046 349 1 0.5897 10.41914643389113 9.166160723538587 7.111139303721829 0 0 0
39 13 1 0.5897 10.189633731837372 2.212781002050728 0.3175604654186131 0 0 0
305 102 1 0.5897 10.929023697287413 9.729384517121826 3.9312538525333816 0 0 0
8 3 1 0.5897 5.807187593719309 5.444109591394595 5.654229489920925 0 0 0
792 264 1 0.5897 5.8776425454845835 1.7853857329457725 8.096248456897632 0 0 0
1574 525 1 0.5897 10.011947587899778 5.487981028795099 0.5979268536916916 0 0 1
1573 525 2 -1.1794 9.30933068054938 5.190882140014977 0.019716689393021625 0 0 1
291 97 1 0.5897 8.939463672446225 9.830664160292475 0.10291365626158466 0 0 0
1803 601 1 0.5897 8.705856883175592 8.598441102148321 14.935904320905516 0 0 0
1824 608 1 0.5897 9.103373955804962 6.344259482986975 19.329874519668284 0 0 0
1802 601 1 0.5897 10.169442344160927 8.509176217898087 14.559085040368451 0 0 0
1794 598 1 0.5897 5.816638846641585 6.1604729226350665 19.650041740039644 0 0 0
815 272 1 0.5897 9.163037753042042 0.9928057622019852 11.256142643929559 0 0 0
804 268 1 0.5897 7.5986621204975044 2.9609495348379915 10.439975807922353 0 0 0
803 268 1 0.5897 7.025609878442063 4.173482535467255 11.142215042674465 0 0 0
1822 608 2 -1.1794 8.811811435921923 7.125048869415125 18.85920512217584 0 0 0
814 272 2 -1.1794 8.439351669772718 0.5970064302492735 11.741812877638573 0 0 0