LAMMPS data file via write_data, version 30 Jul 2021, timestep = 7250000

972 atoms
2 atom types
648 bonds
1 bond types
324 angles
1 angle types

-0.1245292145471506 20.12453021455135 xlo xhi
-0.14946887786242335 20.14946987786611 ylo yhi
-0.322020686925212 21.022018686926636 zlo zhi

Masses

1 1.008
2 15.999

Pair Coeffs # lj/cut/tip4p/long/omp

1 0 0
2 0.21084 3.1668

Bond Coeffs # harmonic/omp

1 450 0.9572

Angle Coeffs # harmonic/omp

1 55 104.52

Atoms # full

10 4 2 -1.1794 0.9241835208643094 4.1026212178632955 3.7097558866627764 0 0 0
11 4 1 0.5897 0.6539822447646014 3.4302154698720733 3.0843811513725115 0 0 0
12 4 1 0.5897 1.8752199457642245 4.009825560634919 3.765958290636834 0 0 0
3 1 1 0.5897 3.3499309411581475 2.5569505157143544 -0.09552470460553111 0 0 0
18 6 1 0.5897 3.765479439528147 2.73554082814983 3.0791050131806266 0 0 0
110 37 1 0.5897 2.4183610910405173 9.210464074758677 0.4241888117457271 0 0 0
19 7 2 -1.1794 0.5075749856014975 6.158017492399986 1.826466333471334 0 0 0
15 5 1 0.5897 4.461402256172761 6.14678672040289 2.056139614434833 0 0 0
6 2 1 0.5897 4.478732592369624 0.7594937969083329 3.6259871725517003 0 0 0
16 6 2 -1.1794 3.609954539485172 3.666955877096555 3.2353953842780023 0 0 0
33 11 1 0.5897 1.4885023879167285 2.3479599000101854 1.2399769930183957 0 0 0
5 2 1 0.5897 3.8049453405976474 0.4303452669746374 2.3108186912735404 0 0 0
31 11 2 -1.1794 0.7043622339575079 2.222593438598746 1.7744354706083914 0 0 0
23 8 1 0.5897 2.434101327815949 0.6859354739158349 4.4196696167141525 0 0 0
20 7 1 0.5897 0.4380871311475326 5.528343931336578 2.5440504510567257 0 0 0
130 44 2 -1.1794 2.191858609748059 7.208333029230177 4.715669223115447 0 0 0
4 2 2 -1.1794 3.653395449731148 0.8613471762065907 3.1519577455839474 0 0 0
126 42 1 0.5897 4.452288265672252 9.630118390494511 3.5111693917140867 0 0 0
139 47 2 -1.1794 1.1541424888076524 8.731351241978368 1.7839323316151723 0 0 0
17 6 1 0.5897 3.900415439423064 4.097012207189492 2.4310728483566963 0 0 0
114 38 1 0.5897 3.576685819574868 7.5069155215163725 3.570836030389344 0 0 0
112 38 2 -1.1794 4.431532564376027 7.770025970293214 3.2298750757429233 0 0 0
675 225 1 0.5897 1.8161809376679372 5.739604608785334 0.5699030958375765 0 0 1
14 5 1 0.5897 3.7602535362738787 5.589596023522344 0.8355115766612478 0 0 0
13 5 2 -1.1794 4.524379628983074 5.4561485107100625 1.3963729446396305 0 0 0
141 47 1 0.5897 0.9607857786077338 7.815250663487119 1.9828174260203095 0 0 0
140 47 1 0.5897 1.0544831290206373 9.184826936855641 2.621014007270567 0 0 0
236 79 1 0.5897 0.5131900311537488 0.08767712450994386 1.74957663206643 0 1 0
132 44 1 0.5897 1.2554587403571191 7.406820171377086 4.716254564111081 0 0 0
111 37 1 0.5897 3.828032481007755 9.481613461801727 -0.05664065672684776 0 0 0
9 3 1 0.5897 4.863685596051919 4.232608769037331 4.472010325419302 0 0 0
32 11 1 0.5897 -0.023596163208068788 2.3794092594553935 1.1730011499071367 0 0 0
673 225 2 -1.1794 2.3204259180991826 5.50326598331519 -0.20865233795067867 0 0 1
325 109 2 -1.1794 2.5436462778392417 2.3726847978726564 7.272467719687981 0 0 0
326 109 1 0.5897 2.2364537455570934 1.9307721008905236 6.480880605388832 0 0 0
327 109 1 0.5897 3.4974635090731288 2.3038539926987873 7.230943806436833 0 0 0
356 119 1 0.5897 1.41063384705033 2.309020115767603 8.701737112079403 0 0 0
131 44 1 0.5897 2.2499503234132865 6.324035387526307 5.077377988877844 0 0 0
27 9 1 0.5897 2.827844377242486 4.073814932946207 6.561779333770275 0 0 0
355 119 2 -1.1794 0.6660482292371408 1.9681099709969976 9.19734103412838 0 0 0
345 115 1 0.5897 0.888462203854953 6.696045848437122 8.658247629554394 0 0 0
433 145 2 -1.1794 2.7785488719624905 8.909065128715378 7.333697244711356 0 0 0
435 145 1 0.5897 2.6006972361618144 8.409974123590391 6.536489103432969 0 0 0
343 115 2 -1.1794 0.8228481681409762 5.768379563205078 8.431751947002587 0 0 0
25 9 2 -1.1794 2.7634767349534117 5.01989144167697 6.431506656172014 0 0 0
344 115 1 0.5897 0.9233486758553091 5.3099858461449365 9.266048020118312 0 0 0
468 156 1 0.5897 4.578178738548752 8.789217576228955 7.330296780002822 0 0 0
339 113 1 0.5897 3.9408180544090072 5.560039944418905 7.518221562092773 0 0 0
437 146 1 0.5897 4.157367574065066 7.233055547356317 9.277952935770411 0 0 0
330 110 1 0.5897 3.9325729633461703 0.39210997347724597 9.604305678147078 0 0 0
26 9 1 0.5897 2.0569235095066336 5.295048266208264 7.0156947254471795 0 0 0
463 155 2 -1.1794 0.5740731001260696 8.417319931635284 8.870098245786314 0 0 0
342 114 1 0.5897 4.045539791134731 4.658862432176937 9.788475266897683 0 0 0
464 155 1 0.5897 1.3206922996161372 8.597894132979873 8.298955908084636 0 0 0
81 27 1 0.5897 -0.10608461326253757 4.285687021649335 5.1249273015737264 1 0 0
337 113 2 -1.1794 4.435858324263586 5.834417500032291 8.290187011698803 0 0 0
328 110 2 -1.1794 4.043133375727961 1.145973778425956 10.183691824533778 0 0 0
357 119 1 0.5897 -0.09478495327584113 2.1580705194633447 8.648432747725806 0 0 0
438 146 1 0.5897 4.087875405430674 8.697997010369482 9.653239290282142 0 0 0
561 187 1 0.5897 0.5683511853158327 0.03683152989451141 9.000414911845663 0 1 0
434 145 1 0.5897 2.8462669033534898 9.816984084233585 7.038280361168901 0 0 0
436 146 2 -1.1794 4.155467719591107 7.8218340029957885 10.032648017017662 0 0 0
341 114 1 0.5897 3.9346255506221572 3.153613757339708 9.905324919692427 0 0 0
443 148 1 0.5897 0.8427039817872292 9.719650130678058 9.966078303006496 0 0 0
22 8 2 -1.1794 1.8425075233892219 0.5777141571930772 5.164341080815769 0 0 0
649 217 2 -1.1794 2.7865006713726164 2.523860274207741 14.194723793301375 0 0 0
650 217 1 0.5897 2.5017635004079897 2.134179399935193 13.36809280576897 0 0 0
651 217 1 0.5897 2.0754221129476473 2.3344890970100325 14.80690063705532 0 0 0
348 116 1 0.5897 2.7587879108298012 0.900698118482657 11.265790096499067 0 0 0
346 116 2 -1.1794 2.282790831131072 0.6786062260262228 12.066015621966962 0 0 0
533 178 1 0.5897 0.24063881476696408 7.6336053633677885 12.201379830629625 1 0 0
668 223 1 0.5897 1.3034155523528475 5.8916983271405625 15.027575878094144 0 0 0
757 253 2 -1.1794 2.531738419683945 9.36118936794498 14.235728248448849 0 0 0
350 117 1 0.5897 2.598026705153674 4.155679472944954 13.838892200325313 0 0 0
792 264 1 0.5897 4.483305942421066 8.675617755018251 14.555211777712021 0 0 0
683 228 1 0.5897 4.783800440375736 1.6668457164533792 14.898012949215785 0 0 0
455 152 1 0.5897 2.65945734754637 7.437167890137724 11.272309845212773 0 0 0
347 116 1 0.5897 1.3645620211245668 0.6454423028508558 11.797684771723281 0 0 0
349 117 2 -1.1794 2.596422235940347 5.112456796838177 13.811715698750499 0 0 0
351 117 1 0.5897 3.3147436592993307 5.370148413630782 14.389518478970073 0 0 0
456 152 1 0.5897 2.168573174428762 6.5649800501804645 12.40819317536291 0 0 0
454 152 2 -1.1794 2.107415779343625 7.45217163493163 12.054161682879837 0 0 0
759 253 1 0.5897 2.4487074320357984 8.910061600840232 13.39560046812182 0 0 0
329 110 1 0.5897 4.711014386743031 0.870297491058377 10.811511126075475 0 0 0
336 112 1 0.5897 1.8826023950682695 4.241956962394509 10.729990720567343 0 0 0
332 111 1 0.5897 4.709232058082975 3.9852282923398787 11.975880027852073 0 0 0
334 112 2 -1.1794 0.9276318804196297 4.176884946835576 10.730448487610461 0 0 0
340 114 2 -1.1794 3.763074863504671 3.9646386906690534 10.383864966486206 0 0 0
789 263 1 0.5897 1.027077665872472 9.072109219752909 15.297722717614343 0 0 0
661 221 2 -1.1794 4.610890230838648 5.666356376108087 15.49046865767882 0 0 0
335 112 1 0.5897 0.7480487502698612 3.280756947683418 10.446081206727074 0 0 0
653 218 1 0.5897 3.3943906058395226 0.7837555338031105 17.481174537801472 0 0 0
664 222 2 -1.1794 4.240815263982656 3.6223482231803144 17.553417978144978 0 0 0
671 224 1 0.5897 2.0353729725251632 1.4941300638423074 19.309593220301707 0 0 0
666 222 1 0.5897 4.395485858772058 2.7123547238350225 17.300106957454013 0 0 0
670 224 2 -1.1794 1.8413909968345668 0.8573277785072666 18.621777656085705 0 0 0
658 220 2 -1.1794 1.3391048832853296 3.926146653844814 17.949946959177105 0 0 0
665 222 1 0.5897 3.3376442038613945 3.6330745240401505 17.870305641857165 0 0 0
669 223 1 0.5897 0.7672588694709872 7.0408965329637 15.854422216521302 0 0 0
672 224 1 0.5897 0.8931611861339177 0.7351774160769492 18.66832889290177 0 0 0
652 218 2 -1.1794 4.275150408142654 0.7786579983865166 17.106408899566425 0 0 0
1 1 2 -1.1794 2.4457634560943036 2.6166353798720157 20.94002579841696 0 0 -1
654 218 1 0.5897 4.2875185663079245 0.012443528685259608 16.532853990383522 0 0 0
788 263 1 0.5897 0.6540723682796472 9.575395197318493 16.675979287641134 0 0 0
674 225 1 0.5897 2.3589441107882565 6.30926947520289 20.620548361151336 0 0 0
660 220 1 0.5897 1.512946240961068 4.65365727987754 17.352698896844984 0 0 0
787 263 2 -1.1794 0.45084652902322053 8.889553622104144 16.03994130770687 0 0 0
662 221 1 0.5897 4.5067294549686405 4.813489938205681 15.912333011290139 0 0 0
681 227 1 0.5897 0.7211715827563775 2.5507374090256905 16.642795361872608 0 0 0
760 254 2 -1.1794 4.34153866409144 7.542472167580922 17.521727854673614 0 0 0
761 254 1 0.5897 4.378736130442094 8.491562913530135 17.403354738292926 0 0 0
780 260 1 0.5897 2.7548165509991303 7.420338409870918 18.469666426561176 0 0 0
779 260 1 0.5897 2.528149101995511 8.298842160927645 19.681608968054924 0 0 0
778 260 2 -1.1794 2.153295434899202 7.560866638506562 19.200901351859912 0 0 0
858 286 1 0.5897 0.13528847545933864 7.702533830225122 19.245979183906996 1 0 0
659 220 1 0.5897 0.7483612119548547 4.291953213450163 18.608307900254744 0 0 0
663 221 1 0.5897 4.460606595238727 6.300686288792779 16.191380979383894 0 0 0
679 227 2 -1.1794 0.5613385779683323 1.9702945381340768 15.898638378331198 0 0 0
667 223 2 -1.1794 0.6952026734916916 6.093499004221279 15.738622889576538 0 0 0
884 295 1 0.5897 0.2950349604441037 0.09203083350369318 15.998988203781328 0 1 0
2 1 1 0.5897 2.2795044604657364 3.556223540690616 20.8644564024423 0 0 -1
109 37 2 -1.1794 2.9145394112261296 9.498262058789871 21.001917979567725 0 0 -1
120 40 1 0.5897 1.3402839867077536 11.304063811792938 3.1306798255038095 0 0 0
129 43 1 0.5897 1.0296307482912785 13.388586802175256 1.815911787019303 0 0 0
122 41 1 0.5897 4.588381004267481 11.818354122843388 2.231704281938439 0 0 0
220 74 2 -1.1794 4.086801288183321 14.547376504894427 3.3741560761367797 0 0 0
240 80 1 0.5897 2.604837434813472 13.954463603518827 3.9939677235565245 0 0 0
221 74 1 0.5897 4.069027934357901 15.471707735706136 3.1263724837601985 0 0 0
119 40 1 0.5897 2.5187552494683745 10.50505049567869 3.6451517451435604 0 0 0
121 41 2 -1.1794 4.759994451103126 12.58484176013905 1.684676782424377 0 0 0
123 41 1 0.5897 4.158927817394768 12.491663768985045 0.9455832947608149 0 0 0
229 77 2 -1.1794 4.020435160732953 19.363454298163028 1.0440049595862857 0 0 0
783 261 1 0.5897 2.179826782851423 12.31055292429356 0.449350420971521 0 0 1
127 43 2 -1.1794 0.8824177133494235 12.46028327029869 1.6349328880254899 0 0 0
233 78 1 0.5897 3.869512554575741 18.190784478929217 2.6167658963738707 0 0 0
238 80 2 -1.1794 1.8388003449271322 13.675991937525062 4.4958466969479955 0 0 0
124 42 2 -1.1794 4.276198908314612 10.566502653752124 3.6025505498458044 0 0 0
222 74 1 0.5897 4.2338270770905675 14.08108472788332 2.5512275003524714 0 0 0
226 76 2 -1.1794 0.8613995627193459 17.761659970446694 3.6062822693959586 0 0 0
228 76 1 0.5897 0.11910346098269586 17.890711984474592 4.196665997454228 0 0 0
118 40 2 -1.1794 1.5646669901543608 10.564090935818319 3.6948754135699833 0 0 0
249 83 1 0.5897 1.0821885828802462 15.69784892969384 1.051804746611508 0 0 0
248 83 1 0.5897 0.5294595013509175 16.130051942388114 2.3933427521965096 0 0 0
227 76 1 0.5897 0.8154084292955537 18.49935765824423 2.9980814853507463 0 0 0
234 78 1 0.5897 2.723911317209256 17.711153190521912 3.48246419679285 0 0 0
232 78 2 -1.1794 3.673463502668283 17.647407098791028 3.3800069893463496 0 0 0
235 79 2 -1.1794 0.48865242421125177 19.55277053004091 1.2802349934433026 0 0 0
247 83 2 -1.1794 0.513727970331414 15.407889994896655 1.7652765499664573 0 0 0
128 43 1 0.5897 0.0393113276279424 12.434714128190219 1.1824518576173602 0 0 0
230 77 1 0.5897 3.5893207957030797 19.33674613933249 0.18979431128919433 0 0 0
125 42 1 0.5897 4.666648238196113 10.803135446522932 4.443885248067379 0 0 0
317 106 1 0.5897 0.11499026406649782 13.981771801877022 4.612310481695018 1 0 0
219 73 1 0.5897 3.332658005538331 15.993570577213434 -0.13627645779524938 0 0 0
217 73 2 -1.1794 2.3967487546664863 16.183855935881148 -0.20006524283023452 0 0 0
781 261 2 -1.1794 2.944437119082288 12.173739896808803 -0.11000036875701369 0 0 1
133 45 2 -1.1794 2.540291938204778 11.647788081915627 6.868788518194618 0 0 0
134 45 1 0.5897 1.8197248403413715 11.915763988874176 7.439080573052666 0 0 0
135 45 1 0.5897 3.3032813391938016 12.113423997274435 7.211226000944898 0 0 0
242 81 1 0.5897 2.5500001663261176 17.706677232461516 6.3393293441615794 0 0 0
558 186 1 0.5897 4.131521640248024 17.854103003678404 9.76466292788827 0 0 0
573 191 1 0.5897 0.7076055672168936 14.230218832826626 8.967906628489164 0 0 0
551 184 1 0.5897 0.9175888579664717 17.986534632066068 9.534099513598424 0 0 0
559 187 2 -1.1794 0.5665770470942681 19.51573888662069 8.506820995390974 0 0 0
453 151 1 0.5897 0.6066558418884798 11.497729189450334 9.316013396385076 0 0 0
451 151 2 -1.1794 0.4166345337872063 12.142470664095894 8.634518371000455 0 0 0
445 149 2 -1.1794 4.4631748881364635 12.700467555288274 8.79043179084902 0 0 0
450 150 1 0.5897 3.958069691544937 11.334623889211377 9.813748183831093 0 0 0
543 181 1 0.5897 2.0075363344459385 15.141078070303786 5.883251709791535 0 0 0
576 192 1 0.5897 4.380674711489324 15.377247256961748 6.96370422986803 0 0 0
239 80 1 0.5897 2.1584425754269163 12.959118376366254 5.043640937919522 0 0 0
571 191 2 -1.1794 0.5382127822233135 15.076828042126676 8.554738009493168 0 0 0
241 81 2 -1.1794 2.508421189037361 18.63709808104764 6.560123336378016 0 0 0
243 81 1 0.5897 1.8825365385624853 18.684516207583734 7.282811127636282 0 0 0
541 181 2 -1.1794 2.4253677399155187 15.663159309065286 6.568090536422034 0 0 0
555 185 1 0.5897 3.7287429999006267 19.008504527064495 7.751310163298493 0 0 0
542 181 1 0.5897 1.852227823823087 15.564661516967567 7.3283508919535025 0 0 0
446 149 1 0.5897 4.18088194734998 13.519943219929134 9.196580697210946 0 0 0
572 191 1 0.5897 0.6044900384118596 15.710139279362732 9.269394938007016 0 0 0
553 185 2 -1.1794 4.226743704628982 19.236535235781794 8.536338030905954 0 0 0
550 184 2 -1.1794 1.0519771700932048 17.255680701606906 10.137439208757376 0 0 0
188 63 1 0.5897 0.1759138790618326 11.066022006260992 5.091331791887993 1 0 0
24 8 1 0.5897 2.1624277040316704 20.094170141876397 5.613275358720913 0 -1 0
457 153 2 -1.1794 2.0303323268772706 12.003077831156602 13.791215463613117 0 0 0
458 153 1 0.5897 1.3259194929438576 12.19151551831099 14.411334211465515 0 0 0
459 153 1 0.5897 2.8343281388247274 12.158265551280397 14.286952267668298 0 0 0
563 188 1 0.5897 1.9617431671026986 13.424970683963368 12.535802595912074 0 0 0
562 188 2 -1.1794 2.039098891392138 14.291599599127919 12.136856260337277 0 0 0
885 295 1 0.5897 0.9242840955169895 19.217961306012263 15.277937022342494 0 0 0
556 186 2 -1.1794 3.893137233820764 17.411459205511527 10.57921836724018 0 0 0
448 150 2 -1.1794 3.6871133204373012 10.713714938501356 10.489984023809415 0 0 0
444 148 1 0.5897 1.85775723898183 10.442375151774971 10.825887404339102 0 0 0
769 257 2 -1.1794 4.268684376486803 12.571794269368862 15.61443946867154 0 0 0
565 189 2 -1.1794 2.105946096830404 18.554870275879615 14.145495505427604 0 0 0
866 289 1 0.5897 3.5528873967925163 15.630472973411118 14.441066562288533 0 0 0
567 189 1 0.5897 2.247724957340102 18.748614602481723 13.21891283104808 0 0 0
564 188 1 0.5897 2.1629548317569944 14.886156691606317 12.876705471923627 0 0 0
879 293 1 0.5897 3.673541699449561 19.066410652673383 14.79367342889228 0 0 0
867 289 1 0.5897 2.2144663076620232 15.63787266981403 15.148547827445777 0 0 0
566 189 1 0.5897 2.2938077760441904 17.619873560465386 14.226629073649084 0 0 0
548 183 1 0.5897 4.902179481753895 17.898718083120094 11.888075502850551 0 0 0
865 289 2 -1.1794 2.6257005132007274 15.82535616911632 14.304732586921547 0 0 0
449 150 1 0.5897 4.196064805367994 10.96204262647468 11.26169161527878 0 0 0
552 184 1 0.5897 1.9694214780609842 17.327491387429156 10.400846397328602 0 0 0
758 253 1 0.5897 2.417925061864581 10.287442818988772 14.022978045543342 0 0 0
545 182 1 0.5897 3.3152821716946796 14.502220145137263 10.89637585981863 0 0 0
642 214 1 0.5897 0.3683520193310031 14.480789628029168 11.924776978286486 1 0 0
442 148 2 -1.1794 0.9256934455210262 10.424155344642323 10.60872658184521 0 0 0
877 293 2 -1.1794 4.537346371646818 18.97803283574701 15.196512053670663 0 0 0
896 299 1 0.5897 -0.01003069743890797 15.312207599415869 15.684965399182845 0 0 0
544 182 2 -1.1794 4.047232448072355 14.801175810951339 10.356816296857385 0 0 0
557 186 1 0.5897 3.9825164451205115 16.47935861337016 10.380818783607745 0 0 0
546 182 1 0.5897 4.82772761798707 14.55067337001068 10.851093773057663 0 0 0
768 256 1 0.5897 0.843472912673315 11.679963685759402 17.341579022472395 0 0 0
888 296 1 0.5897 2.371713289673054 13.343074382584044 19.614017887329517 0 0 0
886 296 2 -1.1794 2.1442070614246593 14.161958705938567 19.173724593846522 0 0 0
868 290 2 -1.1794 4.025786607733166 14.747546368865597 17.37820077952123 0 0 0
766 256 2 -1.1794 0.9546953366331303 10.981848329376895 17.986939251585163 0 0 0
774 258 1 0.5897 4.064714927474034 11.038841796047835 16.956697690682034 0 0 0
775 259 2 -1.1794 0.39839151461319255 12.521201850988897 15.926942877826734 0 0 0
891 297 1 0.5897 2.0781945288252914 19.39114130494405 19.62315789752443 0 0 0
897 299 1 0.5897 0.5637492659126577 15.904568525905846 16.954554044363476 0 0 0
773 258 1 0.5897 3.136608331345764 10.379613437527965 17.954688452672087 0 0 0
767 256 1 0.5897 0.297417303014472 11.167900725685417 18.657491618384697 0 0 0
874 292 2 -1.1794 0.8990261418802312 17.576218880994084 17.68507424197945 0 0 0
869 290 1 0.5897 3.234868273708933 14.51004569391929 17.8622331401886 0 0 0
772 258 2 -1.1794 4.006086406076598 10.299957909321307 17.56236932206614 0 0 0
875 292 1 0.5897 0.3454883855284999 17.661723165457325 18.461328374218745 0 0 0
965 322 1 0.5897 0.34385015901592264 14.440054116218858 19.167985394919832 1 0 0
876 292 1 0.5897 0.6533882607730601 18.3180040408456 17.13223074669041 0 0 0
887 296 1 0.5897 2.1723967026842437 14.82238203030974 19.86594171531614 0 0 0
881 294 1 0.5897 2.876995553841785 17.377421464665936 17.415419083151995 0 0 0
880 294 2 -1.1794 3.8326772391858603 17.41061089611533 17.45783234267367 0 0 0
882 294 1 0.5897 4.110759886955619 16.505755102449186 17.31612339816308 0 0 0
883 295 2 -1.1794 0.2023167949859619 19.44809752228636 15.862794324808553 0 0 0
870 290 1 0.5897 4.7419367202782245 14.576249657171394 17.989789133091087 0 0 0
873 291 1 0.5897 4.9163703604363755 17.992993897173527 19.219238703618963 0 0 0
878 293 1 0.5897 4.411667901900669 18.336238973818766 15.895474376688538 0 0 0
771 257 1 0.5897 4.166662968419109 13.304493973419365 16.221815566459306 0 0 0
777 259 1 0.5897 0.6230721521321215 13.443259289950262 16.05144125328863 0 0 0
218 73 1 0.5897 2.35343138651258 17.026989098611935 20.69295454262958 0 0 -1
889 297 2 -1.1794 2.0117811038834588 18.725378597048767 20.307688402135106 0 0 0
895 299 2 -1.1794 0.7343978599914385 15.244366076260325 16.282805267887547 0 0 0
782 261 1 0.5897 2.902126266649202 11.248698538756964 20.991827973326473 0 0 0
890 297 1 0.5897 1.39516496864225 19.092867862312083 20.940932472226446 0 0 0
142 48 2 -1.1794 5.797098633736879 9.408292139623114 -0.025521566021419417 0 0 0
176 59 1 0.5897 7.845625172194888 7.9098765336028976 2.014171847841482 0 0 0
67 23 2 -1.1794 7.23308530219196 2.0629459545945976 1.8525496191075987 0 0 0
47 16 1 0.5897 7.6481485777709475 3.282090001174604 3.0199084396098685 0 0 0
68 23 1 0.5897 8.093135522306568 2.1924365707884035 1.4528812708021959 0 0 0
69 23 1 0.5897 6.610766133958647 2.2970802573831866 1.1639477208312183 0 0 0
46 16 2 -1.1794 7.869256713672254 3.9751644843550658 3.641991757903839 0 0 0
48 16 1 0.5897 7.062494648628099 4.120362303852955 4.136271655526742 0 0 0
143 48 1 0.5897 6.129964414364888 9.21748271185222 0.8514514457426128 0 0 0
56 19 1 0.5897 6.4723401919239745 5.629192123856651 1.2307756708193363 0 0 0
273 91 1 0.5897 7.136497351519608 0.15516756994270686 1.9834293909705205 0 1 0
34 12 2 -1.1794 5.071926743628472 2.629699790109664 0.04890524361415238 0 0 0
55 19 2 -1.1794 7.393118379634977 5.808749001531025 1.4209429948381118 0 0 0
57 19 1 0.5897 7.514274808483869 5.511777437915358 2.322833663702455 0 0 0
53 18 1 0.5897 9.58856658221853 4.084552864124081 3.71138522814854 0 0 0
177 59 1 0.5897 8.317797332968865 9.085796771408049 1.1858819439213164 0 0 0
175 59 2 -1.1794 7.662008992008407 8.832086715645195 1.8353555016325425 0 0 0
29 10 1 0.5897 6.952036959604359 0.7242894411911418 4.397498240945082 0 0 0
710 237 1 0.5897 8.644112676405786 5.500164309931369 0.14230391420452432 0 0 1
145 49 2 -1.1794 9.574766999422637 9.458600533266749 0.06053578482169264 0 0 0
28 10 2 -1.1794 6.027952636823681 0.7289184224045754 4.647081849142651 0 0 0
155 52 1 0.5897 7.772769051293694 9.733651488519408 3.3280091200295807 0 0 0
166 56 2 -1.1794 8.957510489102127 7.023203549853389 5.01238770262752 0 0 0
37 13 2 -1.1794 9.447466333881374 2.56545598903801 0.4114898555858232 0 0 0
58 20 2 -1.1794 8.726063825167648 0.6421110555519913 4.423327278589662 0 0 0
113 38 1 0.5897 5.019144128235779 7.709994880976755 3.98311319882904 0 0 0
59 20 1 0.5897 8.95399840989378 1.31186289535349 5.068063125155236 0 0 0
469 157 2 -1.1794 9.486410793395933 9.133849808583523 6.83561652504474 0 0 0
499 167 2 -1.1794 7.534670465246884 8.486015103411473 8.768769928474446 0 0 0
391 131 2 -1.1794 7.494645708397114 1.9987482677152593 8.512012100014374 0 0 0
466 156 2 -1.1794 5.481731186929611 9.009118038255485 7.103504879545924 0 0 0
359 120 1 0.5897 5.852944439856484 2.2064985405819804 7.755524766612734 0 0 0
167 56 1 0.5897 9.123839467755465 6.158473487454491 5.387587470908407 0 0 0
361 121 2 -1.1794 9.436386952626542 2.238723701252249 6.419211650878809 0 0 0
379 127 2 -1.1794 7.148561336906623 5.570157248026802 8.216803972699903 0 0 0
393 131 1 0.5897 8.102816664142416 2.0726809485047824 7.776532892416213 0 0 0
392 131 1 0.5897 7.408833382953286 1.0567984100504961 8.658713829019376 0 0 0
467 156 1 0.5897 5.704901504807987 8.405875557706587 6.394617983531367 0 0 0
500 167 1 0.5897 7.432796652507505 9.146349324810954 9.454199405324783 0 0 0
380 127 1 0.5897 7.406950342714974 6.425811111491102 8.559260480181727 0 0 0
8 3 1 0.5897 5.49636626647134 3.8948146829940056 5.8052932809865645 0 0 0
381 127 1 0.5897 7.274289292133514 4.9697139621356445 8.951580841736257 0 0 0
470 157 1 0.5897 9.067733221795796 8.856026467445474 7.6503550420853825 0 0 0
62 21 1 0.5897 8.443746742412316 5.177045283105312 7.204515388894734 0 0 0
61 21 2 -1.1794 9.219397247373832 4.905218714158543 6.7138937345178 0 0 0
362 121 1 0.5897 9.187113273079907 3.1626196784840244 6.440633791778126 0 0 0
501 167 1 0.5897 6.811591356776165 8.653842047993882 8.16441117772516 0 0 0
358 120 2 -1.1794 5.269745438496062 2.410937816940928 7.024555543832479 0 0 0
338 113 1 0.5897 5.334082329049047 5.556688961505903 8.110463318235837 0 0 0
168 56 1 0.5897 9.260014070287275 7.6372577798117645 5.681412109658286 0 0 0
360 120 1 0.5897 5.603726396182773 1.8862070630820997 6.296984912789732 0 0 0
137 46 1 0.5897 5.8829700643563 6.433846316750745 5.320378687818171 0 0 0
371 124 1 0.5897 7.289153521243859 3.0556093459365528 10.124083316142038 0 0 0
63 21 1 0.5897 9.956127505692455 5.159012987815163 7.269822639563327 0 0 0
30 10 1 0.5897 5.895410055365772 -0.10798712738553462 5.092304904743829 0 0 0
136 46 2 -1.1794 6.164121097218081 7.3453074400243885 5.240544474012529 0 0 0
138 46 1 0.5897 7.117282837824823 7.296927900835733 5.167338903094222 0 0 0
7 3 2 -1.1794 5.564936075335124 4.499446264757953 5.066395724020872 0 0 0
382 128 2 -1.1794 8.864479639120528 0.4277769781968941 11.973994376573655 0 0 0
462 154 1 0.5897 5.291142432195032 7.325034848083839 11.581380425129225 0 0 0
791 264 1 0.5897 5.847635524074391 8.640318655655554 15.210356723084242 0 0 0
387 129 1 0.5897 8.917719562978025 5.922625941860417 13.404332903790054 0 0 0
352 118 2 -1.1794 5.9550077709754135 0.4285017950092731 12.163427544293448 0 0 0
370 124 2 -1.1794 7.469012729665914 3.9049443048746895 10.527131485341368 0 0 0
461 154 1 0.5897 5.548682615445925 7.487547036128872 13.06438933409319 0 0 0
794 265 1 0.5897 9.483338077675436 8.858216424714957 13.9222522546365 0 0 0
372 124 1 0.5897 6.801815969585173 3.9937211652466065 11.207747112822036 0 0 0
793 265 2 -1.1794 9.704248108349281 9.453826756241684 14.638282966621098 0 0 0
383 128 1 0.5897 8.922353818745956 1.1067656786238333 12.646161255710384 0 0 0
686 229 1 0.5897 8.771126444556598 2.239869280669945 14.554393931905503 0 0 0
684 228 1 0.5897 5.335576162214528 2.911384465360773 14.235840727890947 0 0 0
353 118 1 0.5897 6.873172478458837 0.5348098920296785 11.914597113905138 0 0 0
685 229 2 -1.1794 9.011518056323306 2.5580009804547776 13.684169838499049 0 0 0
331 111 2 -1.1794 5.459485593849593 4.123458744354528 12.55403800878454 0 0 0
705 235 1 0.5897 7.958661772649508 5.736576617080079 15.386060161962204 0 0 0
492 164 1 0.5897 7.748530426741633 7.4390331737826525 12.260697032299376 0 0 0
384 128 1 0.5897 9.4651817129526 0.7177935647882507 11.287505755782332 0 0 0
333 111 1 0.5897 5.521578152508988 5.074419851454062 12.643410114805713 0 0 0
385 129 2 -1.1794 9.146759022755655 5.2307708930717505 14.024902993141623 0 0 0
354 118 1 0.5897 5.8737960640954165 0.9040259312555179 12.99019843665904 0 0 0
790 264 2 -1.1794 5.411476463893467 8.540573746508917 14.364156642280282 0 0 0
460 154 2 -1.1794 5.6673725334632685 6.875470483094408 12.338083411040468 0 0 0
490 164 2 -1.1794 8.578327209102936 7.636247987553066 12.695202203420925 0 0 0
491 164 1 0.5897 9.229617083115905 7.604584862804049 11.994418488712808 0 0 0
386 129 1 0.5897 8.937444390713502 4.417519381784363 13.565550219680974 0 0 0
682 228 2 -1.1794 5.605269288089288 2.100340685298658 14.66672787310617 0 0 0
377 126 1 0.5897 9.239095768423825 3.8638125159560373 10.764228075438144 0 0 0
704 235 1 0.5897 6.467270373489282 5.86349640338594 15.613116074456569 0 0 0
687 229 1 0.5897 9.967103685041225 2.6101597590176584 13.703230217620352 0 0 0
655 219 2 -1.1794 6.01614201917663 4.406262994351436 19.609034671856726 0 0 0
823 275 2 -1.1794 7.481448454449903 8.854651036904785 16.28940843696791 0 0 0
706 236 2 -1.1794 8.825875512334314 1.097499339588585 19.230320691438052 0 0 0
715 239 2 -1.1794 7.865639429653622 1.9094403420840043 16.17219011077929 0 0 0
707 236 1 0.5897 8.997284602630652 0.24122679782815187 19.622243646439074 0 0 0
703 235 2 -1.1794 7.313494755891706 6.054409038525505 16.017723771354518 0 0 0
144 48 1 0.5897 6.16521144083737 8.718253635326779 20.766682130505096 0 0 -1
825 275 1 0.5897 7.595832570398012 7.90455441450661 16.270475995154605 0 0 0
694 232 2 -1.1794 8.151250598259555 4.2245902341386765 18.018666525486097 0 0 0
695 232 1 0.5897 8.070703747447169 3.411137337581806 17.520659883237443 0 0 0
35 12 1 0.5897 5.434113554968965 1.8804204630783437 20.920066897723984 0 0 -1
709 237 2 -1.1794 9.299206220100771 5.417198164535326 20.793359503683945 0 0 0
696 232 1 0.5897 7.820314230580113 4.9012615423646455 17.42805167452334 0 0 0
784 262 2 -1.1794 6.292874414238449 7.149665912798662 19.645783631527948 0 0 0
657 219 1 0.5897 6.874996526637695 4.240825285677914 19.220123624217464 0 0 0
785 262 1 0.5897 6.1972693557349565 6.2009400508204715 19.729173649536065 0 0 0
38 13 1 0.5897 9.231829999784267 2.118883936065933 20.93678420490439 0 0 -1
677 226 1 0.5897 5.285344431362931 0.7288055249874519 18.689638378492916 0 0 0
708 236 1 0.5897 7.882330813398118 1.1032060611477945 19.06932921049099 0 0 0
814 272 2 -1.1794 8.966797432855481 7.703266647453223 19.201119352498836 0 0 0
786 262 1 0.5897 7.213503955449337 7.278991025299069 19.41789019126047 0 0 0
815 272 1 0.5897 9.058833705768366 6.91861198463444 19.741503899673056 0 0 0
816 272 1 0.5897 9.159629083354298 8.42811883024072 19.79579098447344 0 0 0
676 226 2 -1.1794 5.947178432347499 0.6771816552007273 19.379233980433646 0 0 0
716 239 1 0.5897 7.849526537748892 0.9635698025285737 16.317875103368372 0 0 0
656 219 1 0.5897 5.394046554302745 4.2155022500624595 18.907027780957677 0 0 0
36 12 1 0.5897 5.346020895858668 3.3912225826373334 20.881906637766647 0 0 -1
711 237 1 0.5897 9.147848880453067 4.547713298997159 20.4228524700089 0 0 0
717 239 1 0.5897 7.002807423562594 2.111233490676231 15.810181814063794 0 0 0
824 275 1 0.5897 8.217852567797673 9.195193813085218 15.781478133631852 0 0 0
702 234 1 0.5897 9.978081965253676 4.393151590458604 17.60538592129737 0 0 0
762 254 1 0.5897 4.984086147765518 7.360797300648858 18.20758479112793 0 0 0
154 52 2 -1.1794 7.856477835946577 10.422073122876643 3.9877824089644287 0 0 0
271 91 2 -1.1794 7.0734644282630725 19.628857935948467 1.5026057007478202 0 0 0
927 309 1 0.5897 8.280328835118631 19.52219311761148 0.13028830842685213 0 0 1
254 85 1 0.5897 8.503835744791587 16.235602367459208 0.28489183044043775 0 0 0
165 55 1 0.5897 7.749562292594536 11.91870280906894 2.7720216908311963 0 0 0
276 92 1 0.5897 9.483707010912894 13.801167393136051 3.9955581107547413 0 0 0
163 55 2 -1.1794 7.563945043910828 12.652347788146784 2.185912605147682 0 0 0
164 55 1 0.5897 6.6330426111061795 12.56586853047309 1.980535572457733 0 0 0
251 84 1 0.5897 5.781012221960139 15.559277134331706 0.7405068139192783 0 0 0
246 82 1 0.5897 5.61150193343825 14.23232787815432 4.575006782217112 0 0 0
285 95 1 0.5897 7.544917664312113 14.529808907724973 2.15376863837075 0 0 0
283 95 2 -1.1794 7.744919302904063 15.345889188401367 1.6953097315055285 0 0 0