#include		in.partitions
include		in.temp
variable        temperature equal 162.60
variable	tempDamp equal 100.0
include		in.pressure
variable        pressure equal 2075.7
variable        pressureDamp equal 1000.0 # This is 1 ps
include		in.seed
variable        seed equal 745823

units		real
atom_style	full
#include		in.box
read_restart	restart.lmp.${pid}
read_restart	restart.lmp.1
Reading restart file ...
  restart file = 30 Jul 2021, LAMMPS = 30 Jul 2021
  restoring atom style full from restart
  orthogonal box = (0.16954944 0.066873139 0.16589022) to (18.038023 23.562305 22.047306)
  2 by 4 by 4 MPI processor grid
  restoring pair style lj/cut/tip4p/long/omp from restart
  restoring bond style harmonic/omp from restart
  restoring angle style harmonic/omp from restart
  864 atoms
  576 bonds
  288 angles
Finding 1-2 1-3 1-4 neighbors ...
  special bond factors lj:    0        0        0       
  special bond factors coul:  0        0        0       
     2 = max # of 1-2 neighbors
     1 = max # of 1-3 neighbors
     1 = max # of 1-4 neighbors
     2 = max # of special neighbors
  special bonds CPU = 0.002 seconds
  read_restart CPU = 0.006 seconds
include 	in.setup
variable	out_freq equal 1000
variable	out_freq2 equal 10000
variable	out_freq3 equal 1000

timestep	2.0

neigh_modify    delay 7 every 1

include		in.tip4p
# This is TIP4P/Ice

# create groups ###
group ox type 2
288 atoms in group ox
group hy type 1
576 atoms in group hy

# set charges - beside manually ###
set group ox charge -1.1794
Setting atom values ...
  288 settings made for charge
set group hy charge 0.5897
Setting atom values ...
  576 settings made for charge

# ### TIP3P Potential Parameters ###
pair_style lj/cut/tip4p/long/omp 2 1 1 1 0.1577 8.5
pair_coeff 1 1*2 0.000 0.000
pair_coeff 2 2 0.21084 3.1668
bond_style  harmonic
bond_coeff  1 450 0.9572
angle_style harmonic
angle_coeff 1 55 104.52
kspace_style pppm/tip4p/omp 1.0e-5
pair_modify tail yes

thermo          ${out_freq}
thermo          1000
thermo_style    custom step temp pe etotal epair emol press lx ly lz vol pxx pyy pzz pxy pxz pyz enthalpy

restart 	${out_freq3} restart.lmp.${pid} restart2.lmp.${pid}
restart 	1000 restart.lmp.${pid} restart2.lmp.${pid}
restart 	1000 restart.lmp.1 restart2.lmp.${pid}
restart 	1000 restart.lmp.1 restart2.lmp.1


include         in.dump
dump            myDump all atom ${out_freq2} dump.water.${pid}
dump            myDump all atom 10000 dump.water.${pid}
dump            myDump all atom 10000 dump.water.1
dump            myDump2 all dcd ${out_freq2} dump.dcd
dump            myDump2 all dcd 10000 dump.dcd
dump_modify     myDump append yes
dump_modify     myDump2 append yes


variable natoms 	equal  "count(all)"                        # NUMBER ATOMS
variable H      	equal  "enthalpy/v_natoms"                 # ENTHALPY-per-atom
variable Vol      	equal  "vol/v_natoms"                 # volume-per-atom
fix AVG all 		ave/time ${out_freq} 1 ${out_freq} v_Vol v_H file vol_enthalpy.dat
fix AVG all 		ave/time 1000 1 ${out_freq} v_Vol v_H file vol_enthalpy.dat
fix AVG all 		ave/time 1000 1 1000 v_Vol v_H file vol_enthalpy.dat


timer           timeout 23:50:00 every 1000
New timer settings: style=normal  mode=nosync  timeout=23:50:00

fix 		1 all shake 1e-6 200 0 b 1 a 1
       0 = # of size 2 clusters
       0 = # of size 3 clusters
       0 = # of size 4 clusters
     288 = # of frozen angles
  find clusters CPU = 0.001 seconds
fix             2 all nph aniso ${pressure} ${pressure} ${pressureDamp}
fix             2 all nph aniso 2075.7 ${pressure} ${pressureDamp}
fix             2 all nph aniso 2075.7 2075.7 ${pressureDamp}
fix             2 all nph aniso 2075.7 2075.7 1000
fix             3 all temp/csvr ${temperature} ${temperature} ${tempDamp} ${seed}
fix             3 all temp/csvr 162.6 ${temperature} ${tempDamp} ${seed}
fix             3 all temp/csvr 162.6 162.6 ${tempDamp} ${seed}
fix             3 all temp/csvr 162.6 162.6 100 ${seed}
fix             3 all temp/csvr 162.6 162.6 100 745823


run             250000
PPPM initialization ...
  extracting TIP4P info from pair style
  using 12-bit tables for long-range coulomb (../kspace.cpp:340)
  G vector (1/distance) = 0.37192959
  grid = 24 27 25
  stencil order = 5
  estimated absolute RMS force accuracy = 0.0031352053
  estimated relative force accuracy = 9.4415777e-06
  using double precision FFTW3
  3d grid and FFT values/proc = 4410 672
Last active /omp style is kspace_style pppm/tip4p/omp
Neighbor list info ...
  update every 1 steps, delay 7 steps, check yes
  max neighbors/atom: 2000, page size: 100000
  master list distance cutoff = 10.8154
  ghost atom cutoff = 10.8154
  binsize = 5.4077, bins = 4 5 5
  1 neighbor lists, perpetual/occasional/extra = 1 0 0
  (1) pair lj/cut/tip4p/long/omp, perpetual
      attributes: half, newton on, omp
      pair build: half/bin/newton/omp
      stencil: half/bin/3d
      bin: standard
Per MPI rank memory allocation (min/avg/max) = 10.19 | 10.22 | 10.23 Mbytes
Step Temp PotEng TotEng E_pair E_mol Press Lx Ly Lz Volume Pxx Pyy Pzz Pxy Pxz Pyz Enthalpy 
15500000    167.61362   -4414.5761   -4127.2921   -4414.5761            0    2211.3581    17.868474    23.495432    21.881415    9186.4198    1750.8568    1067.3976      3815.82   -768.09546   -31.855006   -830.23105   -3831.0265 
15501000    170.34328    -4452.738   -4160.7755    -4452.738            0    793.75935    18.088138    23.128267    22.175156    9276.9164    1205.2153    1891.6008   -715.53811   -121.49259    51.800033    61.071087   -4053.3844 
15502000    169.40572   -4452.0644   -4161.7088   -4452.0644            0    2924.4668    17.814419    23.533732    21.900179    9181.4256    4841.6285    2379.4261    1552.3459    688.99113    47.045192    379.32503   -3770.1177 
15503000    157.03801   -4435.1523   -4165.9945   -4435.1523            0    2075.2007    18.082893    23.269321    21.950344    9236.1916    2050.6923    1701.5083    2473.4016   -451.94665   -311.06075   -417.44211   -3886.4642 
15504000    148.84982    -4442.634   -4187.5105    -4442.634            0    861.57964    17.826633    23.625891    22.066306    9293.6682    788.40648    201.36015    1594.9723    108.39421   -350.03391    32.709488   -4070.7332 
15505000    162.58413   -4432.4739   -4153.8102   -4432.4739            0    2178.1074    18.014603    23.287265    21.893652    9184.6241    858.18011    2825.1006    2851.0414    538.61435   -487.36187    293.71839   -3862.0564 
15506000    163.91777    -4430.722   -4149.7725    -4430.722            0      3363.58    17.918369    23.376169    21.921991    9182.3069    3090.7407    3671.8728    3328.1265    657.93028   -153.82035    582.28123   -3699.3403 
15507000    159.45722   -4436.1268   -4162.8226   -4436.1268            0    1092.4279    18.077692    23.255022    22.075372    9280.4229    1210.2067    683.05235    1384.0245   -159.00742    15.998138     75.97893   -4014.9674 
15508000    165.98876   -4436.7628   -4152.2637   -4436.7628            0    2599.6323    17.908392    23.413925    21.984602      9218.27    2696.5841    1358.9205    3743.3921    141.31747   -480.05269    31.184387   -3802.7717 
15509000    170.09217   -4433.1088   -4141.5767   -4433.1088            0    1855.8092    18.153037    23.301925    21.863491    9248.2721    1833.5313    1299.8442    2434.0521    334.32865    512.06632    289.94911   -3891.2715 
15510000    160.29522   -4428.8045    -4154.064   -4428.8045            0    3179.8168    17.975304    23.479278    21.761925    9184.5589    3511.9291    2939.1642    3088.3569    199.55549   -282.63841     -377.633   -3728.1359 
15511000    159.10759   -4433.0621   -4160.3571   -4433.0621            0    1439.5524    17.971462    23.347599    22.002582    9232.0739    1782.8536    777.63775    1758.1659   -121.79251   -596.27752    319.40223   -3966.5353 
15512000    175.74894   -4432.4932   -4131.2655   -4432.4932            0    904.97751     18.00324     23.34879    22.029887    9260.3483    461.28999    1717.6224     536.0201   -517.59205   -522.11621   -466.14113   -4009.0459 
15513000    169.26221   -4431.0893   -4140.9796   -4431.0893            0     1561.575    18.021481    23.359226    21.891968    9215.8147    814.84961    1616.6132    2253.2621    905.38746   -456.23692    241.74498    -3931.099 
15514000    152.72963   -4436.7264    -4174.953   -4436.7264            0    2690.7601    17.878393    23.388318    21.994541     9196.919    3510.0509    2578.9707    1983.2588   -803.05269   -588.95058     917.8412   -3814.0477 
15515000    163.09429    -4438.975   -4159.4369    -4438.975            0     3540.218     18.04699    23.249986    21.879685    9180.5467    2738.2247    3391.8003    4490.6289    901.58479     469.3537    123.70853   -3685.4412 
15516000    165.79464    -4445.547   -4161.3807    -4445.547            0    802.99105    18.047942     23.44434    21.945319    9285.5489    396.00456    -120.0715    2133.0401   -132.12871   -129.37122   -138.23883   -4052.6394 
15517000    170.01679   -4447.7341   -4156.3311   -4447.7341            0    2693.8779    17.904674    23.315153     22.06043    9209.1314    2974.3372    3583.8343    1523.4622    43.163737    495.22715   -491.07836   -3794.5278 
15518000    158.87409      -4452.6   -4180.2952      -4452.6            0    2130.2831    17.909785    23.344513    22.082264    9232.4891    2691.8146    1239.5943    2459.4403    328.12364   -535.24644    414.57103   -3893.4603 
15519000    159.26465   -4434.1672    -4161.193   -4434.1672            0    2107.5643    18.040534    23.415006     21.94113    9268.3547    1720.3447    1705.5384      2896.81    561.81653    191.62196    653.98898   -3876.3147 
15520000     161.4857   -4449.3119   -4172.5309   -4449.3119            0    2633.0206    17.986835    23.271926    21.975256    9198.5852    2661.1577    3186.8342    2051.0699   -908.32314    531.44664    304.05841   -3819.3061 
15521000    158.56643   -4438.5558   -4166.7783   -4438.5558            0    2949.3611    17.727132    23.423866    22.113417    9182.3302    3212.1143    2910.8133    2725.1555    18.170777   -240.94465    386.58687    -3771.815 
15522000     162.1512   -4428.6832   -4150.7616   -4428.6832            0    2172.5024    18.056484    23.412305    21.897145    9256.8848    1313.0699    2187.5816    3016.8556    570.18948   -298.64175    227.57049   -3857.4691 
15523000     159.2009   -4445.4455   -4172.5806   -4445.4455            0    2986.5533    17.820982    23.264493    22.101424    9163.1648    2886.5218    3014.9746    3058.1636   -135.78499     33.41446    -731.1149   -3773.4715 
15524000    178.86797   -4433.3716    -4126.798   -4433.3716            0    1352.1668     17.99176    23.308128    22.104564    9269.6429    1137.0451    2186.1519    733.30347    180.00187    444.92241   -501.91344    -3944.001 
15525000    164.53902   -4437.1567   -4155.1424   -4437.1567            0    775.77307     18.09859     23.41918    21.886347    9276.6188    342.16755    643.35969     1341.792   -125.63002    -500.0763    680.24592   -4050.1881 
15526000    164.28896   -4420.6305   -4139.0448   -4420.6305            0    3426.5844    17.859116     23.40312    21.951321    9174.7528    4878.4374    2832.1826    2569.1333   -1575.2757   -51.827869    343.71594   -3680.5529 
15527000     171.8101   -4443.5061   -4149.0295   -4443.5061            0    1466.5492    18.100148    23.305025    21.916665     9244.984    992.49213    1890.2072    1516.9483    573.47743   -751.64548    201.02828   -3951.2967 
15528000    158.95926   -4445.7711   -4173.3204   -4445.7711            0    1692.3009    17.890793    23.402857    21.999256    9210.9936    1161.5526    2378.6354    1536.7146    357.90542    460.54767    120.50325   -3945.9887 
15529000    165.43574    -4468.378   -4184.8268    -4468.378            0     1404.497    17.998428    23.376791    22.009185    9260.2656     1809.612     1447.523    956.35592    65.464258   -140.30451    355.55226   -3995.1474 
15530000    171.07006   -4439.7835   -4146.5753   -4439.7835            0    2048.2844    17.922494    23.556533    21.883527    9239.0461    2083.1536    1975.5876    2086.1121    281.02682   -531.16394    355.43154   -3870.5853 
15531000    163.69685   -4418.5621   -4137.9913   -4418.5621            0    2849.0359    17.963758    23.286815    21.961705    9186.9923    2764.2209    3457.6629    2325.2239    324.12459    426.05409    285.02293   -3756.2693 
15532000    165.92455   -4437.6804   -4153.2913   -4437.6804            0    2134.4026    17.858217    23.598685    21.888755    9224.5873    2898.9914    1627.8032    1876.4132    681.46048    341.37975    596.63991   -3866.1477 
15533000     165.2319   -4439.1362   -4155.9344   -4439.1362            0    1828.8336    18.049654     23.29534    21.978358    9241.3026    653.25729    2031.3217    2801.9219    1189.1385    46.069792   -489.14479   -3909.4535 
15534000     153.3502   -4445.5739   -4182.7369   -4445.5739            0    2342.4616    17.703459    23.474634    22.200184    9226.0022    3149.0456    2506.8971    1371.4421    41.895371    469.50501   -68.553761   -3867.5546 
15535000     156.7729    -4451.273   -4182.5697    -4451.273            0     3221.049    18.040472    23.212561    21.918791    9178.8346    3388.4894    3559.9943    2714.6632   -321.99968    118.26798   -497.91956   -3751.3875 
15536000    153.54071   -4440.4267   -4177.2632   -4440.4267            0    2020.7483    17.960276    23.518302    21.832533     9221.957    1203.9618    998.35454    3859.9287    7.2982841     27.56212    209.33553   -3905.4871 
15537000    169.00443   -4450.0665   -4160.3987   -4450.0665            0    1706.8709    18.012592    23.151711    22.209378    9261.8063    1793.4355    3217.2542     109.9229   -146.08878   -797.80226   -284.13322   -3929.8449 
15538000    161.25429   -4434.6227   -4158.2383   -4434.6227            0    1853.7161    17.887022    23.566185     21.90969     9235.567    2607.7257    1027.0207    1926.4019   -21.051491    587.91905    923.81119   -3908.5589 
15539000    162.19943   -4435.2824   -4157.2781   -4435.2824            0     2863.464    18.009295    23.359062    21.863925    9197.7214    2150.5694    2629.6748    3810.1479    316.82997    434.48979   -438.94748    -3773.175 
15540000    159.87865    -4442.564   -4168.5375    -4442.564            0    1744.7652    17.880667    23.390002    22.151618    9264.4456     3591.361    1486.5035    156.43108   -1049.2011    322.48735   -43.519199    -3932.798 
15541000    165.48446   -4445.3343   -4161.6996   -4445.3343            0    2200.0493    18.027074    23.323874    21.929644    9220.5646    1987.5396    3219.8846    1392.7237   -198.27597    384.98106   -146.63696   -3865.8535 
15542000    161.09208   -4440.5834   -4164.4771   -4440.5834            0    1830.8455    17.883324    23.335276    22.109029      9226.37    2646.5716    1245.9811    1599.9839    312.06309    254.79561    1290.3869   -3918.1238 
15543000    172.07128   -4446.7782    -4151.854   -4446.7782            0    2737.1381    17.975218    23.292575    21.953478     9191.682     3268.168    2805.4415    2137.8047    490.55152    531.04313   -97.981495   -3784.9372 
15544000    163.93918   -4435.0329   -4154.0468   -4435.0329            0    1993.5511    18.103086    23.511395    21.726872    9247.5829    1389.6208    1689.7833    2901.2493    1257.1273   -147.56831   -293.42199   -3885.1835 
15545000    157.78777   -4464.5022   -4194.0594   -4464.5022            0    1665.9966    17.943916    23.405215    21.976408    9229.6787    2613.5713    1483.1266    901.29197    280.87219   -433.27215    556.04928   -3969.8072 
15546000    166.86424   -4436.3372   -4150.3376   -4436.3372            0     1925.789    18.027605    23.168887    22.175815    9262.3845    2777.5827    1987.5359    1012.2485    770.56458    48.051541    28.664964   -3890.1974 
15547000    161.04461   -4450.3444   -4174.3194   -4450.3444            0    2215.4937    17.935519    23.478002    21.860775    9205.3567    2679.2532    1765.2371    2201.9908    125.31337   -245.17739    297.82288   -3876.8879 
15548000     162.5654   -4435.1007   -4156.4692   -4435.1007            0    1933.6114    17.995454    23.261402    22.076479    9241.2025    1379.5729    2859.7342    1561.5272   -215.32437    119.72715   -172.91538   -3895.8697 
15549000    163.57129   -4435.2513   -4154.8957   -4435.2513            0    1787.4987    17.861798    23.527272    21.926193    9214.2495     1708.742    1170.7077    2483.0463    285.61079     311.1888    146.88127   -3914.6909 
15550000    160.46043   -4445.3789   -4170.3552   -4445.3789            0    2143.8506    18.093282    23.358189    21.809023    9217.0667    2776.6006    1742.0991    1912.8521   -233.99885     881.9347    289.19208   -3882.1757 
15551000    169.75061   -4432.9144   -4141.9676   -4432.9144            0    2739.8817     17.84082     23.43244     21.87401    9144.5161    2659.3822    2470.1073    3090.1555    129.31446    40.184483    322.75907   -3776.5677 
15552000    158.94437   -4436.5498   -4164.1246   -4436.5498            0    2003.5521     18.01779    23.159998    22.047317    9200.1688    2145.0479    3139.7926     725.8157   -786.44945     216.4826    279.72507    -3895.298 
15553000    156.20078   -4441.7039   -4173.9811   -4441.7039            0     3069.404    17.933301    23.375432    21.885234    9174.2608    1939.4569    4146.2773    3122.4778   -16.489079    156.94143   -252.39808   -3763.3035 
15554000    165.98147   -4431.7496    -4147.263   -4431.7496            0    2044.3518    18.038408    23.150276    22.059773    9212.0315    2488.6483    1575.9865    2068.4207   -14.838918   -539.62752    172.26004   -3872.6084 
15555000    160.61851   -4435.4686    -4160.174   -4435.4686            0    1979.5429    17.763249     23.63375    21.911251    9198.6106    3798.2473    583.98701    1556.3945    510.91655   -491.41799      359.735   -3894.6138 
15556000    165.68206   -4420.4275   -4136.4541   -4420.4275            0    2512.4605    18.099038    23.184954    21.950592    9211.0249    2448.8697    2616.4955    2472.0162    461.16839   -527.86255    687.85231   -3798.9468 
15557000    166.22589   -4443.9627   -4159.0572   -4443.9627            0      2954.48    17.950577    23.331211    21.987384    9208.5077    3138.8663    2372.9562    3351.6175    39.567726   -139.53175    5.4752569   -3762.2804 
15558000    160.93923   -4432.6364   -4156.7921   -4432.6364            0    3005.7675    17.831049    23.315774    22.002612    9147.4695    3128.6681    2085.2108    3803.4237    753.81373   -191.08082   -479.71928   -3755.8033 
15559000    164.15698   -4439.5735    -4158.214   -4439.5735            0    2118.0711    18.035986    23.297501    22.010335    9248.5974    1753.3271    2265.2971     2335.589    24.135996   -479.25964    -1.783781   -3872.5258 
15560000    162.47108   -4463.8208    -4185.351   -4463.8208            0    2110.7489    18.138106    23.387525    21.728421    9217.3135    1613.3849    1539.6979    3179.1637     356.2677    196.56496     119.5891   -3901.6134 
15561000    158.65116   -4435.9347    -4164.012   -4435.9347            0    2502.2713    17.844449    23.349916    22.026098    9177.5346    2621.9799    2005.4488    2879.3851     94.12836    540.11671    307.35704   -3829.0957 
15562000    168.82561   -4437.8941   -4148.5328   -4437.8941            0    1914.4359    17.979705    23.447929    21.910012    9236.9728    2424.9003    2332.4029    986.00441    175.16991    165.82362    151.14405   -3890.6357 
15563000    171.02596   -4429.9034   -4136.7708   -4429.9034            0    2088.9188    17.959963    23.389643    21.957983    9224.0468    2168.6079    1468.6083      2629.54   -1078.0825    722.50059    170.28236   -3855.7626 
15564000     169.0979   -4447.9589   -4158.1309   -4447.9589            0    2354.7623    17.779645    23.308594    22.205194    9202.2437    2301.3572    2737.4833    2025.4465    395.72791    617.36196    10.389708   -3842.1093 
15565000    162.56713   -4456.9381   -4178.3036   -4456.9381            0    861.38841    18.046746    23.367926    21.919493    9243.7796    538.74135    707.07838    1338.3455    605.31518    293.72464    77.609158    -4062.179 
15566000    168.78917   -4436.3213   -4147.0224   -4436.3213            0    1812.6861    17.946788    23.414506     21.95639    9226.4082    2963.9335    2163.6379    310.48681   -633.44032    405.49783    571.05298   -3903.1115 
15567000    157.83239   -4456.6294   -4186.1101   -4456.6294            0    1684.5795    18.007481    23.238266    22.059327    9231.0043    3196.7074    2003.8965   -146.86558   -1581.1682   -203.01482   -348.61785    -3959.324 
15568000    152.35342   -4426.5466   -4165.4181   -4426.5466            0    1424.1809     17.76069    23.469462     22.11908    9219.9808      1181.05    2886.3084    205.18437   -641.08355    122.05528    779.20952   -3973.9171 
15569000    158.82876   -4464.4882   -4192.2611   -4464.4882            0    408.89136     18.09988    23.395021    21.950396    9294.8308    199.06473     884.0983    143.51105    -539.6482    31.556697    107.97073   -4136.8336 
15570000    152.53769   -4426.4441   -4164.9997   -4426.4441            0    2297.5857    17.968827    23.327374     21.96526    9207.0804    2320.0886     2515.715    2056.9536   -14.982961    342.98819   -463.19277   -3856.4895 
15571000    163.81426   -4445.8699   -4165.0979   -4445.8699            0     995.7229    17.899879    23.394597    22.142875    9272.5601    1631.3561    2408.9634   -1053.1508    278.60929   -422.41423   -437.93568   -4030.4455 
15572000    170.05026   -4417.8179   -4126.3576   -4417.8179            0     2357.389    18.004828    23.383885    21.840511    9195.3538    2898.5401     2199.509    1974.1179   -393.40275    77.248678   -181.17074   -3810.2204 
15573000    157.21655   -4453.2394   -4183.7757   -4453.2394            0    1724.3133    17.987511    23.265222    22.035335    9221.4227    1642.1684    2961.0791    569.69242    281.95199    -525.7035    300.71104   -3951.8814 
15574000    166.66477   -4453.4006   -4167.7429   -4453.4006            0    1670.1015    18.012238    23.373909    21.977886    9253.0509    1546.0698    1684.5948    1779.6398   -893.19579   -197.64895   -86.128423   -3942.3689 
15575000    158.00716   -4436.5028   -4165.6839   -4436.5028            0    1387.3306     18.03791     23.37473    21.908178    9237.1727    345.79571    2425.7333    1390.4628   -805.49272    481.74257     393.7983   -3978.7901 
15576000     163.4999   -4446.3924   -4166.1592   -4446.3924            0     2396.987    17.879136    23.420799     22.04394    9230.7602     3418.809    2251.1805    1520.9714   -358.45176    202.63092   -716.26664    -3843.474 
15577000    160.14575   -4450.0354   -4175.5511   -4450.0354            0    1999.9921    17.964075    23.334495    22.010352    9226.3564    1602.7262    2688.1643    1709.0858    499.98424    490.15535   -339.33878   -3906.4383 
15578000    168.69422   -4421.8335   -4132.6974   -4421.8335            0    1787.9535    18.030259    23.532144    21.775911    9239.3152    2462.5111     1158.717    1742.6324   -1322.1372   -929.45042   -290.44997   -3891.7779 
15579000    162.85769   -4445.9441   -4166.8116   -4445.9441            0    2059.9514    18.025828    23.283515    21.999701    9233.3763    1042.8917    3482.1612    1654.8014    14.816733    628.43845    357.01885   -3889.4199 
15580000    170.86894   -4430.8503   -4137.9868   -4430.8503            0    2889.0609     17.89126    23.381955    22.022915     9212.904    2325.7097    2841.4802    3499.9929   -311.81087   -251.22725    573.76181   -3749.8104 
15581000    165.93975   -4452.8398   -4168.4247   -4452.8398            0    1650.1831    18.051351    23.235594    22.071732    9257.6316     178.4315    2226.0407    2546.0771   -128.98632   -237.56655    912.52075   -3945.6284 
15582000    164.68559    -4459.079   -4176.8136    -4459.079            0    2483.4676    17.973629    23.539109    21.785136    9216.9256    2400.6986    2256.4483    2793.2558   -334.38626    194.22169   -30.795903   -3842.9873 
15583000     159.4335   -4450.9476    -4177.684   -4450.9476            0    2194.6819    17.953343    23.411681    21.876622    9195.1367    928.50337    3132.0108    2523.5316   -185.54702    90.612432   -403.18809   -3883.3736 
15584000    173.17104   -4434.7527   -4137.9434   -4434.7527            0    1754.1252    17.932682    23.407573    22.067764    9263.1769    323.93029    724.97849    4213.4668    107.24896   -202.15091    944.87455   -3900.9717 
15585000     161.1109   -4441.4597   -4165.3211   -4441.4597            0    1876.9479    18.039665    23.127236     22.10495    9222.3532    3157.2492    836.62286    1636.9717    631.23967    344.97625   -855.86544   -3912.8743 
15586000    167.08907   -4449.8089    -4163.424   -4449.8089            0    734.05228    17.982156    23.641221    21.878783    9301.1109    742.73487   -637.00786    2096.4298   -3.6066709   -445.99383    6.8188237   -4063.8519 
15587000    159.21501    -4448.437    -4175.548    -4448.437            0    696.86712    17.947307    23.387185    22.080732    9268.0998    454.46987    815.74096    820.39054   -307.86186    156.81086    44.399125   -4081.3554 
15588000     157.2373    -4415.845   -4146.3456    -4415.845            0    1681.8771    17.994258    23.424161    21.918207    9238.5333    2963.2458    1239.0965    843.28893   -66.113483    869.58541    21.212798   -3919.7387 
15589000    152.32091   -4446.2029   -4185.1301   -4446.2029            0    542.88234    18.192175    23.387583    21.905076    9319.9746    2.2037365      932.953     693.4903   -91.690295   -380.41729   -257.76629   -4111.3403 
15590000    160.83804   -4430.4429    -4154.772   -4430.4429            0    2675.2593    17.820276    23.369601    22.057909    9186.0766    3810.1137    1732.2586    2483.4057   -624.54899   -57.459449    604.98794   -3796.3688 
15591000    160.88869   -4456.8827    -4181.125   -4456.8827            0    1502.6588    18.059029    23.199663    22.091777    9255.6455    1654.6821    1098.4385    1754.8556   -299.58742   -361.49295    104.84879   -3978.2899 
15592000    163.74715    -4425.927     -4145.27    -4425.927            0    2754.2581    17.979326    23.275309    21.899287    9164.2905    1964.5013    2918.1416    3380.1312   -247.32477   -648.76893   -24.031497   -3777.1585 
15593000     161.9277   -4455.7292   -4178.1907   -4455.7292            0    2647.3287    17.887349    23.535231    21.856437    9201.1861    2338.6532    2561.3635    3041.9694   -582.14106   -213.51011   -158.25556    -3822.946 
15594000    166.69713   -4454.0474   -4168.3343   -4454.0474            0     2480.797    18.076679      23.2079    21.894885    9185.3808    3355.7893    3035.7219    1050.8797   -333.56862   -194.49418    40.580971   -3836.0083 
15595000    161.40963   -4450.8428   -4174.1923   -4450.8428            0     2830.676    17.945877    23.247515    22.000585    9178.5794    2647.7584    2935.8217    2908.4478   -189.41374   -258.36541   -131.05091   -3795.2775 
15596000    172.53182    -4444.851   -4149.1374    -4444.851            0    3652.3544    17.891598    23.187785    22.108126    9171.9216    3938.1747    3337.8534    3681.0351   -866.86035    375.74663    644.47203   -3660.5873 
15597000    163.54166    -4434.862   -4154.5572    -4434.862            0    2320.4951    18.012961    23.422005    21.858416    9222.0582      1611.05    2454.8113    2895.6241   -199.15915    44.682304    660.18526    -3842.464 
15598000    153.00905   -4442.8558   -4180.6036   -4442.8558            0     2420.232    17.941958      23.3468     21.93954    9190.1947    2735.9153    2168.5209    2356.2599    303.57445    229.64081   -926.69428   -3856.2209 
15599000    164.75153   -4438.1091   -4155.7306   -4438.1091            0    3155.3146    17.890183    23.196499    22.149883    9191.9715    3129.8872    3218.1842    3117.8723    936.84633   -175.84688   -525.40184   -3732.7434 
15600000    160.05643   -4452.2344   -4177.9031   -4452.2344            0    1834.6079    18.025697    23.517191    21.831455    9254.6543     1448.605    2482.0183    1573.2005    195.79851    368.16182    160.29828   -3930.2868 
15601000    164.49562   -4467.8344   -4185.8946   -4467.8344            0    2082.7205    18.058523    23.244964    21.965472    9220.4399    2498.2897    1399.8836    2349.9881   -819.47101  -0.66011779   -830.70469   -3905.8298 
15602000    170.95192   -4444.3562   -4151.3504   -4444.3562            0     2549.602    17.747454    23.567843    22.081532    9236.0252    4104.7105    2245.2117    1298.8837    306.77931    533.91462    63.480603   -3807.9243 
15603000    164.08252   -4438.1768   -4156.9449   -4438.1768            0     1591.372    18.129411    23.297385    21.979106    9283.2677    2101.8289    910.93639    1761.3507   -506.73086    68.593474   -188.47335    -3941.494 
15604000    159.86541   -4438.4978    -4164.494   -4438.4978            0     2447.108    17.829679    23.592511    21.938874    9228.5194    1945.6497     2894.813    2500.8614    337.63524    204.59358     393.0816   -3835.1414 
15605000    170.42184   -4440.3158   -4148.2186   -4440.3158            0    2224.5032    18.009685     23.30904     21.97139     9223.336    2682.5932    1483.6708    2507.2455   -516.11117    397.43697    143.48592   -3848.9943 
15606000    159.32908   -4452.4551   -4179.3705   -4452.4551            0    1519.1803    17.946216    23.391276    21.969075    9222.2858    1913.3742    1481.1166    1163.0499    174.93319    435.58586    254.51904   -3975.0444 
15607000    159.32575   -4450.5687   -4177.4898   -4450.5687            0    1979.1341    17.992485    23.230434    22.033236    9209.3028    1666.5714    3635.5777    635.25328    39.271264    148.92951    120.22551   -3911.6758 
15608000    162.16885   -4437.0726   -4159.1207   -4437.0726            0    3003.7266    17.945967    23.349808    21.843038    9152.9949    2539.2206    2782.4588    3689.5003   -80.183497    578.91422    723.52909   -3758.1621 
15609000    157.41017   -4439.3077   -4169.5121   -4439.3077            0    2013.6846    17.933284     23.41167    21.901791    9195.4257    2492.0911    1515.0726    2033.8901    434.17984    699.90805    449.70093   -3899.4652 
15610000     164.2619   -4448.6275   -4167.0882   -4448.6275            0    1578.0505    18.026333    23.397543    21.901375    9237.3848    2026.9093    1375.4609    1331.7813    396.38622   -56.110466      235.174   -3954.4968 
15611000    158.78126   -4433.0857   -4160.9401   -4433.0857            0    1314.3064    17.961847    23.338727     22.05598    9246.0139    1758.8902    875.70798    1308.3211    137.43991   -430.84744    450.52767   -3983.7142 
15612000    161.74524      -4437.5   -4160.2742      -4437.5            0    1510.0546    18.052045    23.293843    22.018237    9258.7021    2446.4532    2397.8628   -314.15215   -1.5763698    485.42293   -485.80973   -3956.3735 
15613000    154.13782   -4429.0453   -4164.8583   -4429.0453            0    2502.0039    17.956417    23.360655    21.926974    9197.7884    3302.1328     1992.433     2211.446    719.95203   -666.78865   -80.608775   -3829.2387 
15614000    167.07386   -4425.6405   -4139.2816   -4425.6405            0    2944.3159    18.243825    23.153294    21.822879    9218.0854    2436.3405    3522.2689    2874.3384    91.568472   -271.63652    118.97849   -3743.4586 
15615000    166.09391   -4432.8973   -4148.2181   -4432.8973            0    2248.4929    17.759607    23.518771    22.073485    9219.7439    2697.1524    1743.2361    2305.0901    626.78288   -328.64403    4.1259987   -3845.8846 
15616000     152.8011   -4436.9385   -4175.0427   -4436.9385            0     2002.507    18.145183    23.185218    22.014018    9261.2977    2401.5337    1957.2918    1648.6954   -930.38174    6.4874893   -122.10984    -3904.571 
15617000    154.61478   -4444.8662   -4179.8617   -4444.8662            0    4400.1572    17.855177    23.393284     21.83517    9120.3588    4550.4422    3751.7303     4898.299   -974.41614    367.32491    666.28535   -3594.5921 
15618000    159.90062   -4450.1924   -4176.1282   -4450.1924            0    1500.9378    18.133126    23.228523    21.947533    9244.4264    1487.5701    2281.8321    733.41118   -345.09263   -322.72365   -138.72814   -3973.7711 
15619000    166.67028     -4442.01   -4156.3429     -4442.01            0    895.40218    17.887941    23.567083    22.024794    9284.9173    1518.1117    2437.0779    -1268.983   -788.53633   -511.28096   -79.226086   -4035.0956 
15620000    161.77687    -4449.738    -4172.458    -4449.738            0    2532.5873    18.024348    23.226464    22.054649    9232.9995    3066.2638     3218.657     1312.841   -667.13166   -304.63884    222.28247   -3831.4354 
15621000    162.95162   -4446.9531   -4167.6596   -4446.9531            0    3035.6669    17.787692     23.49462    21.923681    9162.2361     4064.652    3086.7844    1955.5641    770.59306   -214.08651    146.82534   -3762.0283 
15622000    169.10626   -4435.5256   -4145.6832   -4435.5256            0    703.80259    18.124973    23.228441    22.047047    9282.1348    1167.5479     648.1793    295.68057   -931.83689   -761.76397   -263.89897   -4050.4092 
15623000    163.38088   -4466.1564   -4186.1271   -4466.1564            0    2303.1135    17.831577    23.524694    21.904618    9188.6015    3279.0197    2579.8571    1050.4639    324.76825    52.574217    169.58515   -3877.4954 
15624000    173.04709   -4441.8495   -4145.2527   -4441.8495            0    2965.7913    18.056977      23.1951    21.908705    9176.0973    2430.5226     4052.854    2413.9973   -184.26166   -39.033373    378.29562   -3748.3587 
15625000    170.39743    -4429.756   -4137.7006    -4429.756            0    3009.9071    17.756853    23.438627     22.07587    9187.8946    3682.7403    3347.9214    1999.0598   -505.39297    182.68403   -507.15046   -3734.3851 
15626000    163.13068   -4440.5674    -4160.967   -4440.5674            0    2271.5692    18.182134    23.235707    21.876211    9242.1468     959.0063    2597.9687    3257.7327   -111.21292   -277.71178    254.08057   -3854.7885 
15627000    162.63141   -4433.8206   -4155.0759   -4433.8206            0    2127.4141    17.939863    23.547361    21.841097    9226.4748    1538.1291    2674.4967    2169.6164   -180.73829   -61.709161   -147.76761   -3868.8139 
15628000    168.07257   -4447.8549   -4159.7843   -4447.8549            0    1949.8914    18.201828    22.976366    22.047534    9220.5403    1716.7523     3431.541    701.38082   -281.01743    214.50218   -547.59694   -3897.5783 
15629000    159.75674   -4415.5971   -4141.7796   -4415.5971            0    2059.1777    17.864172    23.522895    21.934207    9217.1276    2763.4276    1746.6084     1667.497   -641.23093     736.2307    665.62674   -3864.9801 
15630000    155.54157   -4445.9163   -4179.3233   -4445.9163            0    2276.2139    18.161042    23.163762     21.88533    9206.6781    1110.7326    2435.2997    3282.6094   -27.165596   -281.95443   -723.66122   -3873.6962 
15631000    160.08225   -4453.6173   -4179.2418   -4453.6173            0    2628.6318    17.764621    23.599996    21.875694     9171.275    3757.3796    1736.8576    2391.6583    90.103514    207.80206    379.52199   -3827.6527 
15632000    169.39576   -4433.3143   -4142.9758   -4433.3143            0    2014.6924    18.127796    23.095993    21.929112    9181.2687    1545.6482    2182.5471    2315.8819    738.12205     49.11214    517.84948   -3873.2097 
15633000    154.43974   -4437.6542   -4172.9497   -4437.6542            0     1462.595    17.897354    23.508031    21.919182    9222.0911    2090.9396     1607.306    689.53952    287.09153    200.95977    221.54835   -3976.2384 
15634000    157.54383   -4452.1012   -4182.0765   -4452.1012            0    2249.3906    18.083399     23.17811    22.011554    9225.9005    1870.8144    1737.0493    3140.3082   -137.95246   -320.19134    221.24536   -3879.4203 
15635000    152.89837   -4449.5887   -4187.5261   -4449.5887            0    2231.7129    17.832848    23.476899    21.943603    9186.9079    1272.7873    2879.8122    2542.5392   -35.818645    695.61837    359.01514   -3888.5176 
15636000    163.60609   -4442.8022    -4162.387   -4442.8022            0    2261.7477    18.107678    23.219841    21.852347    9187.9809    2428.9939    2691.2931    1664.9562    -189.9522    228.00566   -777.16243    -3859.319 
15637000    155.48336   -4443.1302   -4176.6371   -4443.1302            0    2604.3815    17.839386    23.478053    21.962256    9198.5405    2003.2848    1890.8792    3918.9804    383.39076   -841.03411    137.12071    -3827.256 
15638000    166.68219   -4445.8994   -4160.2118   -4445.8994            0    3134.9034    18.097519    23.068659    22.036607    9199.9637    2310.6328    4209.9249    2884.1523    718.70087    455.55156    137.70638   -3739.5955 
15639000    153.33962   -4458.8076   -4195.9887   -4458.8076            0    2343.9228    17.861629    23.433662    22.033018    9222.2146      2663.77    1763.3118    2604.6865   -36.816349   -534.22638    644.41948   -3880.7392 
15640000    162.72926   -4445.6746   -4166.7622   -4445.6746            0    2569.9435    18.028057    23.237733    22.031269    9229.5855    2720.1084    3559.1302     1430.592   -259.91244   -549.46283    277.87105   -3820.8375 
15641000    158.40647   -4451.5477   -4180.0444   -4451.5477            0    1070.4792    17.953143    23.640462    21.882711    9287.4735    959.20858     1482.375    769.85394   -42.952496   -720.75919    457.70317   -4035.0498 
15642000    162.33178   -4453.0356   -4174.8044   -4453.0356            0    2015.6507    18.003994    23.233204    22.086031    9238.3763    2549.1536    2014.8013    1482.9971   -93.696499   -21.800883    109.58464   -3903.2313 
15643000    157.64229   -4440.7873   -4170.5939   -4440.7873            0    1680.2426     17.88408    23.379852    22.135897    9255.6194    1079.4599    1843.2222    2118.0456   -373.06787   -407.41801    622.44427   -3943.7885 
15644000    156.64368   -4436.2888   -4167.8069   -4436.2888            0    993.50101    18.170356    23.422895    21.806906    9281.0705   -4.7954943    844.76879    2140.5297    877.02324   -124.89111    -131.1305   -4033.3317 
15645000    164.94109   -4436.3374   -4153.6341   -4436.3374            0    1594.6991    17.890004    23.472154    22.042573    9256.0497    2205.5157    319.26327    2259.3183   -19.010229   -105.34192   -332.24339   -3938.3656 
15646000    160.77973   -4450.9431   -4175.3722   -4450.9431            0    2776.4479     18.03302    23.283775    21.910345    9199.6449    2981.8165    3555.7273    1791.8001   -407.63106   -458.35879    585.65874   -3802.8634 
15647000    148.88491   -4438.1298   -4182.9461   -4438.1298            0    2189.5406    18.055636    23.412291     21.90349    9259.1267    1166.4094    2926.8576    2475.3547   -364.51593   -124.78623   -375.39984   -3887.2818 
15648000    151.05821   -4446.4273   -4187.5187   -4446.4273            0    861.47188    17.910216     23.47133    21.975602    9238.0285     510.1613    981.98639    1092.2679    24.239936    179.29867   -71.579011   -4071.4551 
15649000    169.79095   -4429.2522   -4138.2363   -4429.2522            0    3213.7757    17.967922    23.224054    22.022507    9189.7277    3848.6175    2848.3678    2944.3419   -455.51318   -519.00085    207.17888   -3707.5172 
15650000    160.70419   -4445.9904    -4170.549   -4445.9904            0     760.3701    17.999745    23.526157    21.875818    9263.6396    883.25921    1490.3599   -92.508769    603.43015   -235.19076    23.550816   -4067.8224 
15651000    162.62658    -4422.145   -4143.4086    -4422.145            0    2826.8336    18.070109    23.200936    21.856816    9163.3268    1934.6644    3353.3583    3192.4782    7.4525454    -291.9365     3.032414    -3765.637 
15652000    154.01675    -4447.256   -4183.2766    -4447.256            0    925.12522    17.821715    23.583367    22.047754    9266.5838    1392.9344    373.15136    1009.2899   -52.159327    23.769365    369.47241   -4058.2518 
15653000    167.57647   -4445.2459   -4158.0256   -4445.2459            0    2225.0496    18.088751    23.242888    21.911634    9212.4136    2061.9059    2414.1377    2199.1052   -587.21689     785.6605   -460.53851   -3859.0821 
15654000    159.88925   -4450.5282   -4176.4835   -4450.5282            0    2298.1624    17.826277    23.534218    21.916075     9194.396    1480.6472     1701.591    3712.2491   -483.00832   -676.48347    254.94293    -3868.321 
15655000    168.55998   -4460.6595   -4171.7534   -4460.6595            0    1401.0982    18.309882    23.110561    21.934246    9281.5126    523.45039    2968.8767    710.96749    532.54184    518.20719   -74.761892   -3982.0989 
15656000    150.79877   -4449.2428   -4190.7789   -4449.2428            0     3255.211    17.745577     23.40219    22.012952    9141.6565    3675.8328    3453.7791    2636.0209    334.79073    443.55602    -83.45851   -3756.7887 
15657000    160.61424   -4447.9337   -4172.6464   -4447.9337            0    2220.5276    17.958448    23.209848    22.044167     9188.292    1864.8905    3066.6987    1729.9937    379.08494    530.32098    231.86265   -3875.0917 
15658000    160.04655   -4449.4261   -4175.1118   -4449.4261            0    2824.5156    17.811441    23.499087    21.908934    9170.0412    3936.8568    2308.2909    2228.3992    528.87873    40.233132    -214.8553   -3797.3734 
15659000    164.91672   -4446.1858   -4163.5242   -4446.1858            0    3606.8938    18.030078    23.184835    21.871264    9142.7218    3620.0932    3693.0556    3507.5326    689.05356   -243.59689   -105.63265    -3682.591 
15660000    173.82531   -4447.0733   -4149.1426   -4447.0733            0    1370.7514    17.908549    23.418043    22.146223    9287.7533    2036.3319     2097.343   -21.420619    27.419498    -274.1142    225.54206   -3963.4711 
15661000    158.70723   -4456.9166   -4184.8979   -4456.9166            0    2571.5472    18.116248    23.367071    21.693031    9183.1731    1951.8199    1991.3609    3771.4607   -1035.1159    250.13062    -178.2052   -3840.4978 
15662000    158.16433   -4440.4503    -4169.362   -4440.4503            0    1428.8372    17.825695    23.448691    22.089524    9233.1829    3396.0426     678.6801    211.78881   -23.252699   -395.07958    1027.2387   -3976.9598 
15663000    167.50322   -4446.1346   -4159.0398   -4446.1346            0    1260.9012    17.988544    23.276922    21.996402    9210.2879    1683.3952    749.57896    1349.7295    140.78796    453.49141    15.926479   -3989.6723 
15664000    163.93354   -4450.6347   -4169.6582   -4450.6347            0      3193.23     17.78196    23.538999    21.874954    9156.1895    2697.1473    2274.5044    4608.0385    220.80138   -365.66413    75.242734   -3743.2546 
15665000     156.6571   -4433.6822   -4165.1773   -4433.6822            0    1834.8579    18.083734    23.142679    22.010665    9211.5969    2191.9758     1487.849    1824.7487    155.08678    132.23621    170.39008   -3918.6794 
15666000    168.35563   -4444.9608    -4156.405   -4444.9608            0    2365.3516    17.894537    23.634676    21.843666    9238.3764    2958.9779    942.84935    3194.2277    453.93431   -44.578836    404.22515   -3837.7159 
15667000    162.22066   -4459.0026    -4180.962   -4459.0026            0     2638.883    18.034621    23.242649    21.913072     9185.354    2167.3811     3086.685    2662.5828    561.65172   -280.96509    246.65363   -3827.4599 
15668000    168.36325   -4429.9928   -4141.4239   -4429.9928            0    1753.3969    17.762331    23.541484    22.075828    9231.0435    2386.2316    2335.8304     538.1288   -1054.9782   -518.23433   -107.27282   -3905.3724 
15669000    166.69891   -4426.3002    -4140.584   -4426.3002            0    2248.2835    18.139821    23.134396     21.92693    9201.7193    2353.6188    2441.3119    1949.9197    -355.1774   -102.51171   -9.0667372   -3838.8696 
15670000    159.99799   -4436.4519   -4162.2208   -4436.4519            0    1775.0268    17.914134    23.458825    21.974928    9234.8435    1265.3367    1778.2964    2281.4473   -80.289692   -156.14745   -1180.4363    -3923.159 
15671000    155.54971   -4434.7716   -4168.1648   -4434.7716            0    1758.6358     18.08301    23.202933    22.070641    9260.3748    2436.4201     1322.474    1517.0133    253.64404   -480.20537    52.518799   -3930.6556 
15672000    162.66966    -4448.702   -4169.8918    -4448.702            0    1945.5001    17.866092     23.66834    21.867483    9246.8995    1500.7955    670.78198    3664.9228   -600.47014    347.36585    283.08495   -3907.5283 
15673000    166.55398   -4456.4199    -4170.952   -4456.4199            0    2566.7298    18.111717    23.159827    21.912534    9191.5244    1467.1788    2713.7199    3519.2908   -158.22022   -383.24286    675.09876   -3826.8846 
15674000    160.81979   -4454.5589   -4178.9193   -4454.5589            0    1703.3089    17.857791    23.533657    22.007866    9249.0066    2379.9414    1342.2321    1387.7533   -9.9249293   -182.29142     310.1148   -3949.1646 
15675000    162.82804   -4434.5443   -4155.4626   -4434.5443            0    2303.7083    18.175777     23.23102    21.878136    9237.8642    2589.0691    1821.2354    2500.8203    249.37158    28.019686    165.27696    -3845.096 
15676000    158.10121   -4442.9927   -4172.0127   -4442.9927            0    1405.1175     17.90539    23.494973    22.050702    9276.4363    2092.1735    1350.8731    772.30599   -171.97104    219.26914   -290.40197   -3981.9181 
15677000    173.23441   -4445.7124   -4148.7946   -4445.7124            0     915.5734    17.972464    23.444011    21.994328    9267.2365    841.37701    1185.2115    720.13169    663.83619   -472.07554     -395.678   -4025.0519 
15678000    166.66652   -4434.0002   -4148.3395   -4434.0002            0    2367.1665    17.939591    23.517804    21.749899    9176.2779    3001.4634    1323.7592    2776.2768     -727.346    46.432829   -191.59553   -3831.5497 
15679000    157.91325   -4439.3993   -4168.7414   -4439.3993            0    2193.1184    18.051594    23.261952    22.029018    9250.3217    620.15056    2217.1435     3742.061   -280.29419    59.520597    589.40311   -3872.8756 
15680000    165.05198   -4453.7709   -4170.8775   -4453.7709            0    1490.9564    17.884633    23.442744     22.07379    9254.7646    1902.0428    2080.4779    490.34834    -569.6454   -16.057219    56.362042   -3969.6412 
15681000    158.69551   -4430.9374   -4158.9387   -4430.9374            0    2342.5221    18.071579      23.2427    21.957918    9223.0348    1979.0355    3047.2308    2001.2998    652.04688   -220.11565   -404.52615   -3843.8495 
15682000    165.90511    -4422.601   -4138.2453    -4422.601            0    2936.6528    17.799747    23.428781    22.055669    9197.7958    3194.0279     2991.228    2624.7025    120.48291    500.83001    164.62123   -3744.3215 
15683000    155.34458   -4439.5353     -4173.28   -4439.5353            0    714.79672    18.162488    23.262787    21.960629    9278.5875    669.31792    1040.7709    434.30131   -376.83924   -36.543814     849.6978   -4076.5546 
15684000    158.91651   -4450.4599   -4178.0825   -4450.4599            0     1638.738    17.874122    23.492898    21.967666    9224.5505    2692.1002    1454.8663    769.24763   -173.93508    373.96751    286.27479    -3957.622 
15685000    161.23312   -4425.7188   -4149.3707   -4425.7188            0    2888.3222    18.000692    23.345173    21.913754    9208.8005    2803.2388      1765.11    4096.6177    -982.1371   -512.01936   -607.77977   -3761.4664 
15686000     167.6207   -4441.4045   -4154.1083   -4441.4045            0    1460.6462    17.817319    23.451265    22.143893    9252.5744     2403.423    1375.6237    602.89187    459.83487   -279.77049    566.30204   -3957.0097 
15687000    159.00666   -4446.6319   -4174.0999   -4446.6319            0    1943.7041     18.01611    23.342657    21.966508    9237.8806    2895.3979    1747.9877    1187.7269   -620.85215   -393.33872    176.25688   -3912.2343 
15688000    171.91497   -4436.6609   -4142.0045   -4436.6609            0    1725.7112    18.080374    23.356631    21.969899    9277.8141    1638.9386    2393.1771     1145.018   -825.71251    153.43983    103.50986    -3908.503 
15689000    155.74194   -4453.4115   -4186.4752   -4453.4115            0    2189.9001    17.973163    23.427336    21.875386     9210.923    2245.4306    985.59134    3338.6782    220.41212    367.75806    706.44163   -3892.3018 
15690000    163.55879   -4418.4652    -4138.131   -4418.4652            0    1641.0392    18.022145    23.377445    21.930601     9239.619    115.62157    1539.9603    3267.5356   -236.11209   -109.54827   -402.58395   -3917.0004 
15691000    162.30915   -4439.0904   -4160.8981   -4439.0904            0    1218.5877    18.067564    23.455475    21.896516    9279.3781    211.52231    1829.8503    1614.3904    370.68755   -163.40922   -212.62053   -3995.9864 
15692000    165.99724   -4444.0501   -4159.5365   -4444.0501            0     1619.339    17.921983    23.376256    22.146463    9278.2357    1154.8923    1771.8204    1931.3044   -336.03929    491.20965   -707.29241    -3940.418 
15693000    154.47935   -4424.1198   -4159.3475   -4424.1198            0    1508.9685    17.989054    23.200564    22.118011    9231.0886     3035.678    1967.0301   -475.80245   -241.54971    2.8911382    -264.3603   -3956.2011 
15694000    168.15227   -4435.6069   -4147.3996   -4435.6069            0    1807.7073    17.921878    23.435211    21.971656     9228.161    2228.5616    1836.0257    1358.5347    1259.3872    -88.59716   -125.00717   -3904.1125 
15695000    163.30579   -4446.5983   -4166.6978   -4446.5983            0    2122.7218    18.094625    23.139351    21.998245    9210.6182    810.66273    4406.7915    1150.7111     207.1113    235.54502   -689.60993   -3881.5581 
15696000    169.80672   -4454.7979    -4163.755   -4454.7979            0    2341.7933    17.907286    23.503456    21.818546    9183.0573    2210.4626    2090.8753    2724.0422    339.25911   -211.23031    279.14816   -3850.1292 
15697000    161.09998   -4435.7469   -4159.6271   -4435.7469            0    1229.5479    18.038347    23.280354    22.072815     9269.238    1574.4459    974.10461    1140.0932   -616.59316    100.81879   -461.49015   -3993.4139 
15698000    167.55953   -4444.8339   -4157.6426   -4444.8339            0    1979.8729    17.956021     23.41567     21.92037    9216.4689    1541.3161    1890.0241    2508.2786   -77.127683   -422.92778   -435.08093   -3891.5224 
15699000    174.23775   -4448.7053   -4150.0678   -4448.7053            0    2636.1578    18.172845    23.125908    21.907291    9206.8355    3405.7979    3238.4844     1264.191   -790.75418    328.17833    587.72128    -3796.105 
15700000    161.33021   -4446.2932   -4169.7788   -4446.2932            0    1943.9291    17.891499    23.436132    22.092443    9263.5277    1677.0258    2197.7392    1957.0224   -646.54408    340.77158     6.356459   -3907.1558 
15701000    165.02638   -4440.7755   -4157.9259   -4440.7755            0    1745.1538    18.243311    23.254644    21.762898    9232.7288    1238.8639    1308.1139    2688.4836   -684.85574    -164.1572   -287.23561   -3922.9412 
15702000    157.02676   -4427.3814   -4158.2429   -4427.3814            0    2240.8754    17.909484    23.466283    22.044327    9264.5473    2574.7161    2242.7938    1905.1161    754.23506    70.650549    15.513771   -3855.4695 
15703000    159.34005   -4448.6652   -4175.5618   -4448.6652            0    2231.0289    17.885628    23.260571    22.151493    9215.6836    2119.3882    3340.0316    1233.6668    -628.1403   -335.69933    46.560589   -3875.7086 
15704000    156.74862   -4447.4341   -4178.7723   -4447.4341            0    1273.3081    18.006129    23.468133    21.909014    9258.0971    1469.7371    499.95138    1850.2357    135.36595   -87.366517   -161.99995   -4006.8505 
15705000    154.42783   -4447.4047   -4182.7206   -4447.4047            0    2972.3803    18.034138    23.391946    21.809793    9200.5395    2356.5253    3510.7342    3049.8815    479.78827   -323.25888   -170.69238   -3783.8854 
15706000     158.6169   -4449.0761   -4177.2122   -4449.0761            0    784.69335    17.874043    23.341107    22.207199    9264.8419    1377.1403    1021.5727   -44.632927   -559.88557    109.84245   -439.68477   -4071.1858 
15707000    160.98956   -4449.1636    -4173.233   -4449.1636            0    552.83192    18.034005    23.469327    21.973625    9300.2482     897.6477    538.74547    222.10259   -1096.1147    295.19176   -13.039682   -4098.2499 
15708000    165.24191   -4437.3892   -4154.1702   -4437.3892            0    2149.9438    18.136401    23.220243    21.961774    9248.7976    1940.6717    3090.6493    1418.5103    693.37371   -519.43889    493.03652   -3864.1767 
15709000    162.19232   -4444.7994   -4166.8073   -4444.7994            0    1601.3915    17.792583    23.512254    22.132093    9258.8219     1709.013    1646.8463    1448.3152    597.43322    496.09133    4.8658923   -3950.5707 
15710000    163.08418   -4429.8329   -4150.3122   -4429.8329            0    1562.4901     18.18412    23.324352    21.872805    9276.9744    1774.2964    683.58133    2229.5925   -200.46637    396.22214     410.0851   -3938.9148 
15711000    163.54041    -4450.249   -4169.9463    -4450.249            0    2188.0956     17.93849    23.392241    21.944425    9208.3522     2120.336    1801.5449    2642.4058   -575.19948    107.00326    261.00306   -3876.0974 
15712000    171.09031   -4456.4265   -4163.1836   -4456.4265            0    1094.0692    17.971874    23.281303    22.155975    9270.2511    1402.4821    316.35376    1563.3717   -107.64376    -151.9555    326.14385   -4015.2686 
15713000    170.99378   -4443.5383   -4150.4608   -4443.5383            0    1206.9534    17.993166    23.702611    21.683828    9247.8277    279.19229    455.41777    2886.2503   -507.27108   -148.24739   -985.92827   -3987.6789 
15714000    162.39254   -4444.4083    -4166.073   -4444.4083            0    1743.1767    18.023909    23.314445    21.960694    9228.2662     1234.648    1299.6957    2695.1864   -823.51791    28.246135    323.70034   -3931.4679 
15715000    154.45256   -4465.4264      -4200.7   -4465.4264            0    1570.8498    17.909669    23.449256    22.018127    9246.9177    2180.4867    2252.4597    279.60281   -1299.3142   -16.665248   -596.13652   -3988.8602 
15716000    168.02877   -4464.0348   -4176.0392   -4464.0348            0      1149.54    18.161054    23.318011    21.868285    9260.7739   -132.60011    2317.6293    1263.5909   -434.65117    333.69367    224.30595   -4020.7836 
15717000    160.42549    -4459.783   -4184.8192    -4459.783            0    2555.2483    17.888651    23.374819    21.965009     9184.536    2865.2008    2116.6419    2683.9023    621.54932    244.91773    278.35584   -3842.5512 
15718000    161.81781   -4434.4552    -4157.105   -4434.4552            0    1955.0964    18.057438    23.327024     21.93744    9240.6263    1186.4009    2114.7479    2564.1406   -491.69072    111.99532   -649.74837   -3893.6263 
15719000    165.48397    -4438.464   -4154.8301    -4438.464            0    1365.3604    17.992853     23.52195    21.869915     9255.938    338.57258    2867.2543    890.25431   -625.60532    196.43136    633.72683   -3970.5223 
15720000    160.53604   -4458.2687   -4183.1155   -4458.2687            0    2844.6529    17.912251    23.250228    22.109084    9207.6356    3348.3076    2347.3709    2838.2804   -296.35928    528.28655    113.66196   -3801.1243 
15721000    155.07267    -4433.161   -4167.3718    -4433.161            0    2011.9913    18.009716    23.391573    21.950845    9247.3551    1998.8371    2134.5812    1902.5557   -948.86236    51.192706   -162.74438   -3896.0282 
15722000    157.43977   -4444.6269   -4174.7805   -4444.6269            0    2902.5805     18.05564     23.25017    21.842655    9169.4744    2371.1319    3395.0448    2941.5647   -930.92794    292.29828   -346.99391    -3786.626 
15723000    156.30039   -4440.4673   -4172.5738   -4440.4673            0    2030.6949    17.732483    23.629135     22.04488    9236.8762    2181.8325    1665.1663    2245.0858   -1010.6481    538.16525   -394.75518   -3899.0182 
15724000    160.53394   -4435.0031   -4159.8535   -4435.0031            0    3163.2369    18.046464    23.124061    21.953131    9161.2071    4295.9286    3393.1026    1800.6794    -684.8429   -3.0766871    200.55871   -3737.2235 
15725000    160.42111    -4452.408   -4177.4517    -4452.408            0     1423.687    17.973294    23.431963    21.995368    9263.3398    1978.7144    1889.8125    402.53415   -851.06972     689.9351   -128.80803   -3985.1169 
15726000    163.47646   -4443.0312   -4162.8381   -4443.0312            0    1837.6496    17.979068    23.270249    22.060544    9229.6329    3095.5918    1406.2058    1011.1513      970.567    817.25943    15.745814   -3915.4818 
15727000    173.97288   -4428.7887   -4130.6051   -4428.7887            0    2803.4955    17.976053    23.545996    21.766047    9212.7859    2950.5536    2210.6335    3249.2993    49.649374    525.74515   -81.940043   -3753.9302 
15728000    164.04362   -4430.8331    -4149.668   -4430.8331            0    2684.9044     17.99767     23.31893    21.919005    9199.1085    3238.3645    2553.6268    2262.7219    1252.5817    263.47562    463.19676   -3789.4624 
15729000    166.91844   -4437.0706   -4150.9781   -4437.0706            0    3214.4426    17.809252    23.380803    22.031244    9173.6909    4109.7934    2418.7203    3114.8143     271.4747   -49.723885    22.441866   -3720.9215 
15730000    161.68667   -4421.2452   -4144.1198   -4421.2452            0      1547.88    18.008312    23.329177     21.97877    9233.7009    846.06559    2316.4669    1481.1076     132.4336   -130.41477    429.64328    -3935.676 
15731000    163.46961   -4432.8365   -4152.6552   -4432.8365            0    2658.4428    18.049426    23.432907    21.763345    9204.8181    2332.7613    2560.8846    3081.6824   -162.74753    44.492426    227.47608   -3795.7783 
15732000     156.4826   -4432.7014   -4164.4955   -4432.7014            0    2070.3821    18.062783    23.222927    22.000126    9228.4077    1057.8601    1842.2649    3311.0215   -101.31261   -832.92147   -79.277736   -3885.8493 
15733000    159.78087    -4447.177    -4173.318    -4447.177            0    2673.4428    17.825207    23.402397    22.055522    9200.5181    2430.2978    2193.4416    3396.5889    165.12226   -215.33677    440.96124   -3814.5952 
15734000    164.96565   -4433.4886   -4150.7431   -4433.4886            0    2518.2475    18.129993    23.181575    21.910395    9208.5398    1884.8414    3810.7347    1859.1665     427.3297   -188.71813   -36.584627   -3812.5498 
15735000    159.76573   -4451.1448   -4177.3118   -4451.1448            0    2758.5963    17.868526     23.50953    21.870609    9187.4195    2552.0345    2915.2107    2808.5437   -298.51968     19.85798   -242.79753     -3807.69 
15736000    158.69629   -4439.1002   -4167.1002   -4439.1002            0    2273.3642    18.024042    23.165831    21.951647    9165.7326    1610.0734    2291.0766    2918.9425   -20.813445   -112.48186    228.75456   -3863.2132 
15737000     166.1412   -4449.6216   -4164.8612   -4449.6216            0    2110.1976    17.774686    23.633479    21.978832     9232.817    2346.2272    1778.1863    2206.1792   -477.51748    221.57502   -159.01431   -3880.7207 
15738000    164.45445   -4436.8309   -4154.9616   -4436.8309            0    2033.2264    18.150116    23.248984     21.88253    9233.8097    1762.9402    1300.2503    3036.4887   -2.9052545    803.16427    -720.6276   -3881.1559 
15739000    160.42123   -4433.3041   -4158.3476   -4433.3041            0    2260.6269    17.912298    23.425027     21.97439    9220.3673    2568.9972    2119.6804    2093.2031    429.79708   -266.44753   -325.77276    -3854.362 
15740000    164.29699   -4440.2129   -4158.6135   -4440.2129            0    2577.4068    17.881921    23.411743    22.004944    9212.3027    315.49967     3631.794    3784.9267    156.26416   -150.48658    141.00696   -3812.3338 
15741000    163.17395   -4456.9987   -4177.3241   -4456.9987            0    3212.6652    18.019292    23.270054    21.910229    9187.1757    2771.6547    3173.3456    3692.9953   -557.91996   -127.81385    257.32763   -3746.8735 
15742000    166.71946    -4449.145   -4163.3935    -4449.145            0    2403.9103    17.948543    23.420426    21.945674    9225.1391    3215.4134    2796.5706     1199.747   -589.74573     463.6651    30.793813   -3839.9734 
15743000    169.17783   -4440.4918   -4150.5267   -4440.4918            0    1558.5241    18.022595    23.449061    21.950262    9276.4646    2239.7231    1006.3804    1429.4689   -894.06249    635.33083   -331.48534   -3939.6776 
15744000    160.47429   -4430.7583   -4155.7108   -4430.7583            0    1810.3395    18.078147    23.362357    21.823386    9217.0661    1558.8987    1827.1576     2044.962   -886.60799   -1040.0175    305.69473   -3912.3624 
15745000    167.99212   -4431.9382   -4144.0054   -4431.9382            0    2668.9262    17.911514    23.257872    22.156974    9230.2344    2874.5773    3400.0463     1732.155   -300.50225    -143.4932    362.85354   -3784.7319 
15746000    165.01048   -4450.5852   -4167.7629   -4450.5852            0    949.44831    17.967181    23.446097    21.990959    9263.9172    1793.1667    1199.9623   -144.78408   -872.43711   -206.96881   -491.29747   -4039.4879 
15747000    156.51617   -4438.4808   -4170.2175   -4438.4808            0    2151.6398    18.017055    23.327962    21.929808     9217.124    2146.6263    3689.3496     618.9435    1054.1084    343.34012   -309.28897   -3880.9891 
15748000    165.66577   -4430.7692   -4146.8238   -4430.7692            0     369.6511    17.992959    23.385854    22.149296    9319.9965    992.28757    709.99141   -593.32568   -111.58763   -20.149367   -761.44065   -4096.5798 
15749000    153.43991   -4442.5945   -4179.6037   -4442.5945            0    1788.3444    18.111251    23.275086    21.925102    9242.3282    247.60072    2053.4663    3063.9661    1300.8206   -422.64839   -48.542636    -3938.553 
15750000    160.36555   -4410.3371   -4135.4761   -4410.3371            0    1600.3188    17.905273    23.558877     21.97499    9269.6686    2773.9311    384.26286    1642.7623    287.25755   -25.513992   -112.62029   -3919.1312 
Loop time of 364.669 on 64 procs for 250000 steps with 864 atoms

Performance: 118.464 ns/day, 0.203 hours/ns, 685.553 timesteps/s
194.8% CPU use with 32 MPI tasks x 2 OpenMP threads

MPI task timing breakdown:
Section |  min time  |  avg time  |  max time  |%varavg| %total
---------------------------------------------------------------
Pair    | 17.404     | 25.129     | 36.366     | 104.6 |  6.89
Bond    | 0.82132    | 1.048      | 1.7714     |  19.3 |  0.29
Kspace  | 181.28     | 194.96     | 209.72     |  47.3 | 53.46
Neigh   | 0.89849    | 1.004      | 1.2148     |   9.1 |  0.28
Comm    | 49.366     | 57.674     | 62.758     |  42.2 | 15.82
Output  | 0.59184    | 0.59213    | 0.59391    |   0.0 |  0.16
Modify  | 63.854     | 66.218     | 71.201     |  24.4 | 18.16
Other   |            | 18.04      |            |       |  4.95

Nlocal:        27.0000 ave          38 max          16 min
Histogram: 2 5 2 5 2 4 2 4 0 6
Nghost:        2130.41 ave        2229 max        2029 min
Histogram: 8 8 0 0 0 0 0 0 5 11
Neighs:        6554.25 ave        9178 max        3842 min
Histogram: 1 4 5 4 3 3 2 4 1 5

Total # of neighbors = 209736
Ave neighs/atom = 242.75000
Ave special neighs/atom = 2.0000000
Neighbor list builds = 3480
Dangerous builds = 0

unfix		3
unfix		2
unfix		1

write_data	data.final.${pid} nocoeff
write_data	data.final.1 nocoeff
System init for write_data ...
PPPM initialization ...
  extracting TIP4P info from pair style
  using 12-bit tables for long-range coulomb (../kspace.cpp:340)
  G vector (1/distance) = 0.37165585
  grid = 24 27 25
  stencil order = 5
  estimated absolute RMS force accuracy = 0.0031675203
  estimated relative force accuracy = 9.5388933e-06
  using double precision FFTW3
  3d grid and FFT values/proc = 4410 672
Last active /omp style is kspace_style pppm/tip4p/omp

write_restart   restart.lmp.${pid}
write_restart   restart.lmp.1
System init for write_restart ...
PPPM initialization ...
  extracting TIP4P info from pair style
  using 12-bit tables for long-range coulomb (../kspace.cpp:340)
  G vector (1/distance) = 0.37165585
  grid = 24 27 25
  stencil order = 5
  estimated absolute RMS force accuracy = 0.0031675203
  estimated relative force accuracy = 9.5388933e-06
  using double precision FFTW3
  3d grid and FFT values/proc = 4410 672
Last active /omp style is kspace_style pppm/tip4p/omp
Total wall time: 0:06:04
