LAMMPS data file via write_data, version 30 Jul 2021, timestep = 30500000

972 atoms
2 atom types
648 bonds
1 bond types
324 angles
1 angle types

0.2364243836800881 19.763576616311802 xlo xhi
0.07923905578007862 19.92076194421351 ylo yhi
0.1754562631805321 20.524541736828574 zlo zhi

Masses

1 1.008
2 15.999

Pair Coeffs # lj/cut/tip4p/long/omp

1 0 0
2 0.21084 3.1668

Bond Coeffs # harmonic/omp

1 450 0.9572

Angle Coeffs # harmonic/omp

1 55 104.52

Atoms # full

4 2 2 -1.1794 4.1159745758057245 1.1405969485812102 3.37420158308895 0 0 0
17 6 1 0.5897 4.568088480711739 4.224118326847528 2.94836434357132 0 0 0
236 79 1 0.5897 0.7807698655532556 0.7118909659274784 2.3188197938723194 0 1 0
10 4 2 -1.1794 1.6001079576866826 4.465983416155954 3.862052488887518 0 0 0
11 4 1 0.5897 1.2505283738734276 3.7345795393799883 3.3530944564993947 0 0 0
12 4 1 0.5897 2.547498951445022 4.329384729366023 3.8589857336587654 0 0 0
16 6 2 -1.1794 4.3536776905196914 3.80116036154391 3.779836051333067 0 0 0
18 6 1 0.5897 4.422480016174032 2.8641035536385173 3.5971639737470587 0 0 0
23 8 1 0.5897 2.3965752873912454 1.2306401072922546 4.166920769394565 0 0 0
31 11 2 -1.1794 0.7711398747236057 2.5070305600668465 2.1826713104646163 0 0 0
33 11 1 0.5897 1.4305500829982496 2.590763722215622 1.4939401601862898 0 0 0
5 2 1 0.5897 4.134724564629932 0.33152210257630593 2.863093183227778 0 0 0
6 2 1 0.5897 4.61056118623318 0.93487662853952 4.167466910657074 0 0 0
3 1 1 0.5897 3.364600437514969 2.7610006865809087 0.27820931027305695 0 0 0
81 27 1 0.5897 0.3541646031117176 4.394885830325474 5.095622178757258 1 0 0
22 8 2 -1.1794 1.739619327029051 1.056988462603011 4.84106688853031 0 0 0
34 12 2 -1.1794 5.047911885458901 2.580873275691969 0.4163649173160572 0 0 0
356 119 1 0.5897 1.4507021687905368 2.411722445682433 8.214731747463851 0 0 0
330 110 1 0.5897 4.041203259561309 0.3583462011748731 9.648186071192656 0 0 0
325 109 2 -1.1794 2.4723683389489546 2.9848281347841974 6.733544957646263 0 0 0
326 109 1 0.5897 2.2250260798910015 2.5117453071449733 5.939049477899375 0 0 0
327 109 1 0.5897 3.321255963098043 2.6161968988434205 6.977912486620013 0 0 0
561 187 1 0.5897 1.1188287016203338 0.472854303461781 8.77608603237282 0 1 0
355 119 2 -1.1794 0.8626376547055876 2.170274615926453 8.930336673935107 0 0 0
27 9 1 0.5897 2.7150550577264863 4.837847961121368 6.284947233931599 0 0 0
342 114 1 0.5897 4.387394121245859 4.187167859081561 9.870363698191419 0 0 0
328 110 2 -1.1794 3.786809268356004 1.0191883137548166 10.292205216129183 0 0 0
341 114 1 0.5897 3.9562375307028885 2.80958998677697 10.326588513100948 0 0 0
335 112 1 0.5897 1.2621469169418262 3.555266381591893 9.831908128383441 0 0 0
358 120 2 -1.1794 4.996473718574952 2.311350584731396 7.382673442382173 0 0 0
24 8 1 0.5897 2.109235049482451 0.34085253377245195 5.357524635175201 0 0 0
350 117 1 0.5897 3.1579525103022985 4.485807650536444 13.694965555966307 0 0 0
329 110 1 0.5897 4.3360829798401195 0.8355506468585754 11.05429648515585 0 0 0
346 116 2 -1.1794 1.8512701129374334 1.1632137857224867 12.135072334962032 0 0 0
347 116 1 0.5897 0.9238183872471699 1.2447875211791495 11.912819626648876 0 0 0
348 116 1 0.5897 2.2914926953245547 1.0552182647786386 11.29201851658936 0 0 0
683 228 1 0.5897 4.542026207668283 2.3435681819386702 14.400168711487515 0 0 0
649 217 2 -1.1794 2.7995837751538124 2.7082456077505133 14.07626098557767 0 0 0
650 217 1 0.5897 2.4468857092706378 2.2495054588192978 13.31378405265589 0 0 0
651 217 1 0.5897 2.1909389282756946 2.4992205296381322 14.784832789116889 0 0 0
336 112 1 0.5897 2.2965916006908986 4.200121691860881 10.729647537878106 0 0 0
334 112 2 -1.1794 1.4135540502571944 4.324066076671204 10.381650476543452 0 0 0
340 114 2 -1.1794 4.115870434946455 3.6974306596115594 10.646648826686597 0 0 0
405 135 1 0.5897 0.293836407320712 4.397694742802448 11.824592218691059 1 0 0
652 218 2 -1.1794 4.216950271471129 1.0834069402626578 17.091741610357147 0 0 0
653 218 1 0.5897 3.3204508877799213 0.9505240603541927 17.39971079199553 0 0 0
654 218 1 0.5897 4.3390345121772596 0.418343156833807 16.414263831059866 0 0 0
658 220 2 -1.1794 1.5955951373733606 4.146945738872928 17.5270077478444 0 0 0
659 220 1 0.5897 0.9210043478806386 4.321553832652942 18.18325142147467 0 0 0
664 222 2 -1.1794 4.240405013093818 3.9062341496103055 16.871965324775005 0 0 0
665 222 1 0.5897 3.311058537299634 4.040782437649089 17.05745619845359 0 0 0
666 222 1 0.5897 4.350762801061816 2.955459100022669 16.876074872884352 0 0 0
670 224 2 -1.1794 1.8584175133821568 0.9270053251909757 18.642723281544168 0 0 0
671 224 1 0.5897 2.0484328800699343 1.7236111436498238 19.138195613913123 0 0 0
672 224 1 0.5897 0.9241903968040871 0.7736801879251382 18.78390438255509 0 0 0
681 227 1 0.5897 0.9225401552400352 2.660609621446278 16.548214570166692 0 0 0
2 1 1 0.5897 2.378323645785833 3.8558811969744644 20.28044401938946 0 0 -1
679 227 2 -1.1794 0.7548389120582174 2.0476918891773073 15.832385951706188 0 0 0
660 220 1 0.5897 1.482911611473351 4.840172807171128 16.876675247774326 0 0 0
884 295 1 0.5897 0.8324652784498292 0.25115753727177537 15.92087006259546 0 1 0
1 1 2 -1.1794 2.4334915706379388 2.9197351164106378 20.47218492470151 0 0 -1
110 37 1 0.5897 1.8679816753862415 9.410752016000627 0.6249879071531401 0 0 0
141 47 1 0.5897 1.0056827349963828 8.242280649506325 2.3666151264928286 0 0 0
139 47 2 -1.1794 0.692375750650127 9.134281525113028 2.2171625154632193 0 0 0
114 38 1 0.5897 3.2954955018777796 7.621356518715969 3.6558083165227155 0 0 0
21 7 1 0.5897 0.24215966942015366 6.314160489525734 1.6460423548496783 0 0 0
14 5 1 0.5897 4.296314899635069 5.535223528384807 0.9524778324389317 0 0 0
126 42 1 0.5897 4.4729613306778155 9.55875907131119 3.324477244897553 0 0 0
19 7 2 -1.1794 1.1294819450996478 6.507451596731581 1.9485459044645552 0 0 0
140 47 1 0.5897 1.0670742341183237 9.6437761858888 2.9356493896328013 0 0 0
112 38 2 -1.1794 4.16534767712564 7.670081837686768 3.2593297816068474 0 0 0
113 38 1 0.5897 4.76616611414955 7.449109342589566 3.970952780053101 0 0 0
15 5 1 0.5897 4.690055797756603 6.3982329724869516 2.1323096743399184 0 0 0
674 225 1 0.5897 2.1427414813465573 5.913232252964412 0.640848731046284 0 0 1
130 44 2 -1.1794 1.9012464150071786 7.659708111109424 4.71093576356407 0 0 0
20 7 1 0.5897 1.2768622191661716 5.8934877132332 2.6679324427835627 0 0 0
13 5 2 -1.1794 4.94020543354766 5.605842228818866 1.6572038787162795 0 0 0
132 44 1 0.5897 0.975076396544888 7.439500246575193 4.810613725132116 0 0 0
111 37 1 0.5897 3.328650602423594 9.118944860916978 0.3545106345985358 0 0 0
131 44 1 0.5897 2.364804730447867 6.964759560717344 5.178224347970499 0 0 0
25 9 2 -1.1794 2.9496027815801433 5.7620270035199175 6.368818099393508 0 0 0
464 155 1 0.5897 1.573094969552845 9.068418412637897 8.214192842640722 0 0 0
468 156 1 0.5897 4.48765777179188 9.03468649392575 7.153187921709528 0 0 0
437 146 1 0.5897 4.394566953095264 7.551801156597146 9.182640677182828 0 0 0
26 9 1 0.5897 2.2815157913154342 6.127499501278657 6.9487349879292255 0 0 0
435 145 1 0.5897 2.3589383743941124 8.939611968711947 6.063729894003976 0 0 0
433 145 2 -1.1794 2.729363142540552 9.390255035012117 6.822610580922472 0 0 0
463 155 2 -1.1794 0.9072631460187387 8.941277461169767 8.890001645834177 0 0 0
345 115 1 0.5897 0.898777285228271 7.147138747165171 8.546463068799682 0 0 0
344 115 1 0.5897 1.3254958012339977 5.77785569849595 9.030944237186311 0 0 0
343 115 2 -1.1794 1.121294612824593 6.269643666152887 8.235556191223782 0 0 0
337 113 2 -1.1794 4.728912244683693 5.385665403494908 8.584825204787158 0 0 0
339 113 1 0.5897 4.294423718656865 5.372885934566538 7.732035416666424 0 0 0
438 146 1 0.5897 4.505481576015393 8.885779239817943 9.88973480127941 0 0 0
436 146 2 -1.1794 4.374599027881023 7.95160544068254 10.052106762224303 0 0 0
757 253 2 -1.1794 2.870005075399879 9.487607456637132 13.837285923408198 0 0 0
351 117 1 0.5897 4.115036195471559 5.562513287215462 14.160255065083765 0 0 0
349 117 2 -1.1794 3.2923313388880984 5.4334739634258 13.688326662549315 0 0 0
759 253 1 0.5897 2.6824879525383714 8.906599439238628 13.100085850804383 0 0 0
668 223 1 0.5897 1.7499340183690577 5.8649526372677325 14.767690590166433 0 0 0
454 152 2 -1.1794 2.4043980561326523 7.394296500328584 12.04366602165139 0 0 0
455 152 1 0.5897 2.946253925898738 7.495951108914609 11.261183498018916 0 0 0
456 152 1 0.5897 2.8142814781059045 6.677606651220679 12.527961412356866 0 0 0
792 264 1 0.5897 4.6105872550207865 8.946149327663703 14.302664392823331 0 0 0
789 263 1 0.5897 1.7679408535390415 9.055749667743884 15.167375258008573 0 0 0
533 178 1 0.5897 0.6610892618079725 7.413687964373941 11.993032636359642 1 0 0
663 221 1 0.5897 5.007449735040349 6.507437375388767 15.71987305163786 0 0 0
788 263 1 0.5897 1.26132353471504 9.606322423100965 16.483448249716968 0 0 0
762 254 1 0.5897 5.078665001662321 7.535193840704311 17.533856477183242 0 0 0
779 260 1 0.5897 2.369552059355538 8.379695257769821 19.121960252722566 0 0 0
780 260 1 0.5897 2.85720384978256 7.722955714697687 17.848102124778375 0 0 0
675 225 1 0.5897 2.644971052791645 6.333528114449399 19.62503337116403 0 0 0
760 254 2 -1.1794 4.427566844753091 7.691852372986319 16.849940637005087 0 0 0
761 254 1 0.5897 4.419339264341934 8.642615728005705 16.73968973270824 0 0 0
778 260 2 -1.1794 2.28108745459308 7.582578250273588 18.599497174877584 0 0 0
787 263 2 -1.1794 1.125561345548813 8.894253071270407 15.858379009145075 0 0 0
858 286 1 0.5897 0.5329359328697436 7.484964295136978 18.472188083895972 1 0 0
667 223 2 -1.1794 1.104077842213935 6.066379987626677 15.444828455286524 0 0 0
669 223 1 0.5897 1.2647644802886746 6.9840839785373845 15.664332686982215 0 0 0
109 37 2 -1.1794 2.582977060045803 9.619825196957704 20.372999667464644 0 0 -1
673 225 2 -1.1794 2.7840244249806725 5.686434084097342 20.316493234045204 0 0 0
783 261 1 0.5897 2.186080565425436 12.552240977663118 0.8024539621003839 0 0 1
118 40 2 -1.1794 1.8274121705654616 10.835100184367185 3.8742483307788635 0 0 0
119 40 1 0.5897 2.7607830338959785 10.65710947656368 3.758686068538413 0 0 0
120 40 1 0.5897 1.6408853319233274 11.545800686035914 3.260810392959534 0 0 0
220 74 2 -1.1794 3.645495617559405 14.060354232234786 3.222202591422122 0 0 0
222 74 1 0.5897 4.1328803233984885 13.596419052770734 2.5414695029253176 0 0 0
124 42 2 -1.1794 4.493864232204623 10.47467260578202 3.601683274574622 0 0 0
240 80 1 0.5897 2.503750084827087 14.03752512079844 4.52369454217095 0 0 0
127 43 2 -1.1794 1.0734654943562298 12.649445904117984 2.1411589972755607 0 0 0
129 43 1 0.5897 1.0742551792503718 13.56573774854463 2.417900395775969 0 0 0
122 41 1 0.5897 4.877727614973893 11.601539525917982 2.20408849044483 0 0 0
123 41 1 0.5897 4.3729154229775125 12.189158705017496 0.9034313546656478 0 0 0
238 80 2 -1.1794 1.902791765259181 14.200557297948672 5.250660769674211 0 0 0
125 42 1 0.5897 5.0373268757400345 10.474592571462257 4.389632887799805 0 0 0
188 63 1 0.5897 0.5204506028678544 11.013843902038058 5.227524657010978 1 0 0
121 41 2 -1.1794 5.000395231351361 12.341900553850452 1.6099420811462108 0 0 0
246 82 1 0.5897 5.087815859518701 13.721890616086434 4.48052082453293 0 0 0
133 45 2 -1.1794 2.5971517415919125 12.097737402118879 6.839568644428891 0 0 0
134 45 1 0.5897 1.9076902978388568 12.247684806170097 7.486389832652729 0 0 0
135 45 1 0.5897 3.402707156669531 12.367692100774649 7.280501624554154 0 0 0
453 151 1 0.5897 1.369806363462087 12.500269534727746 9.560253742425315 0 0 0
448 150 2 -1.1794 4.347485422689284 10.678180596357134 10.159527588114836 0 0 0
446 149 1 0.5897 4.815683759384609 13.408493073383731 8.840799202276077 0 0 0
450 150 1 0.5897 4.648269386932578 11.331441578685341 9.527880511235384 0 0 0
451 151 2 -1.1794 1.0812901858841726 13.149418708598324 8.918724101985262 0 0 0
445 149 2 -1.1794 4.939595064926201 12.657948508715535 8.259851901183394 0 0 0
239 80 1 0.5897 1.9778163336326178 13.422543719358265 5.803161820804193 0 0 0
544 182 2 -1.1794 4.562190712035466 14.49151633950714 10.199021495091273 0 0 0
443 148 1 0.5897 1.3683838692282893 10.224638072456992 10.116437865256243 0 0 0
434 145 1 0.5897 2.574764823135258 10.318833076997128 6.649338080842878 0 0 0
449 150 1 0.5897 4.808482151225738 10.897241492977676 10.96928608871336 0 0 0
769 257 2 -1.1794 4.711920587646098 12.479591015069731 15.17507489008526 0 0 0
457 153 2 -1.1794 2.9311209097771824 12.180549519257932 13.176492599429686 0 0 0
458 153 1 0.5897 2.2494393999340287 12.173929623162502 13.848410700375142 0 0 0
459 153 1 0.5897 3.7455156142824015 12.311415578390877 13.66213023439109 0 0 0
775 259 2 -1.1794 1.2078074994039751 12.862706101448627 15.231444157471264 0 0 0
564 188 1 0.5897 2.2362538713331883 14.95820274890194 11.8834291476565 0 0 0
562 188 2 -1.1794 2.155647061283764 14.167795407009612 11.349624049445028 0 0 0
563 188 1 0.5897 2.4598860595804903 13.46138627956191 11.919380395266838 0 0 0
758 253 1 0.5897 2.9840671558113323 10.350746674343034 13.43958847871442 0 0 0
776 259 1 0.5897 0.26741001632275657 12.794881175877793 15.066338667279398 0 0 0
545 182 1 0.5897 3.683003886535311 14.23362169103565 10.476016312708936 0 0 0
642 214 1 0.5897 0.40205977107947644 14.016128454645296 11.721487641033638 1 0 0
512 171 1 0.5897 0.3383014353405066 11.238162855745907 11.97182650438898 1 0 0
777 259 1 0.5897 1.3531835284395162 13.791128027064486 15.413322583887712 0 0 0
444 148 1 0.5897 2.618765579273934 10.936088948085752 10.5878317394801 0 0 0
442 148 2 -1.1794 1.6682918815523842 11.03363922238338 10.530865769497206 0 0 0
766 256 2 -1.1794 1.5691080486496303 11.120427631677344 17.470331769840918 0 0 0
767 256 1 0.5897 0.9029096889111633 11.191056614327637 18.15399357995568 0 0 0
768 256 1 0.5897 1.3678451049246183 11.833636977114587 16.864520082521082 0 0 0
772 258 2 -1.1794 4.241384950545947 10.463215615665884 16.934002379774746 0 0 0
773 258 1 0.5897 3.3474580741139937 10.75020236844555 17.120324670320766 0 0 0
774 258 1 0.5897 4.59434168700088 11.13838447022649 16.35456831430683 0 0 0
781 261 2 -1.1794 2.7962036133664454 12.406390563077462 20.428561126084368 0 0 0
869 290 1 0.5897 3.282658459349875 14.309603161833603 17.447089072814098 0 0 0
965 322 1 0.5897 0.30676556540573535 14.163820960348982 19.02672856340307 1 0 0
886 296 2 -1.1794 2.0288693097204886 14.376617426777486 18.6985804807984 0 0 0
888 296 1 0.5897 2.253413043421662 13.583711796378614 19.185481095274543 0 0 0
868 290 2 -1.1794 4.052635033856673 14.451540786162086 16.896446999467134 0 0 0
771 257 1 0.5897 4.4195625754447825 13.187198860341073 15.74953678732406 0 0 0
870 290 1 0.5897 4.795927997928352 14.275329169069702 17.47322572486823 0 0 0
782 261 1 0.5897 2.85537503702342 11.454052676163593 20.352894974939613 0 0 0
249 83 1 0.5897 1.5116400722140086 15.880187523822025 1.776279545535972 0 0 0
248 83 1 0.5897 0.9444629851932288 16.174560564505605 3.148692138904279 0 0 0
233 78 1 0.5897 4.404291787008193 17.374769764200114 2.9537371643971992 0 0 0
235 79 2 -1.1794 0.8013104250542081 19.61316041412729 2.1408234642171036 0 0 0
226 76 2 -1.1794 1.5662629545135307 17.557011670014212 4.136358533844356 0 0 0
227 76 1 0.5897 1.399215538522638 18.263199063442304 3.512195749316518 0 0 0
230 77 1 0.5897 4.162699751483521 18.895815917729788 1.0793520093581068 0 0 0
890 297 1 0.5897 1.9588074490444995 19.355059987707502 0.886583626142424 0 0 1
247 83 2 -1.1794 0.9739869744648674 15.499526063304472 2.470712335994042 0 0 0
232 78 2 -1.1794 4.247914681672434 16.79077104675762 3.6958181114367474 0 0 0
228 76 1 0.5897 0.8240599696042666 17.589625134459514 4.739913502235411 0 0 0
234 78 1 0.5897 3.3693453262759854 17.018797367591304 3.9996751386217624 0 0 0
221 74 1 0.5897 3.8642239434975973 14.982444956099307 3.0877881040640895 0 0 0
229 77 2 -1.1794 4.611478733807672 18.775639381276875 1.916228818935462 0 0 0
219 73 1 0.5897 3.5119222529048 16.071576309856493 0.37717047384172975 0 0 0
217 73 2 -1.1794 2.6243860960988292 16.383474992971706 0.20050189122555404 0 0 0
889 297 2 -1.1794 2.5700925087238295 19.109472360401856 0.19215783640654038 0 0 1
218 73 1 0.5897 2.681301641643452 17.334435749192824 0.29327778200748256 0 0 0
551 184 1 0.5897 1.5586972628713454 18.741614688284937 10.27338823294069 0 0 0
559 187 2 -1.1794 1.2923152393103732 19.391392601162586 8.591215113058144 0 0 0
555 185 1 0.5897 4.542720751344416 18.998770514939334 7.837236327451269 0 0 0
241 81 2 -1.1794 3.102228242656546 19.032221549713615 6.5296998399985196 0 0 0
242 81 1 0.5897 3.0979695335779467 18.08088398705222 6.424272353789787 0 0 0
243 81 1 0.5897 2.4698428776782415 19.199053155973154 7.228608916506875 0 0 0
541 181 2 -1.1794 2.582261712692707 16.272852269097577 7.013812478290519 0 0 0
542 181 1 0.5897 1.9244728588165152 16.278192763481332 7.709155243999029 0 0 0
572 191 1 0.5897 1.2060889155208274 16.66367622991654 9.870565024072828 0 0 0
576 192 1 0.5897 4.350778194892112 15.789106432895862 7.289296887399329 0 0 0
558 186 1 0.5897 4.443536677507303 17.69890401672985 9.932903021807258 0 0 0
571 191 2 -1.1794 0.9521807569061403 16.03567503548311 9.19430464950589 0 0 0
553 185 2 -1.1794 4.814001089277562 18.830650373856777 8.73964283836826 0 0 0
543 181 1 0.5897 2.352291916987486 15.518257804288975 6.471693661183731 0 0 0
560 187 1 0.5897 0.4246316855883957 18.992716782968404 8.52490707043455 0 0 0
573 191 1 0.5897 1.3269713773236487 15.204550551775126 9.485747842808738 0 0 0
885 295 1 0.5897 1.3929317796765963 19.010211259894735 15.023135263941807 0 0 0
866 289 1 0.5897 3.548916751926863 16.09271913359409 13.458341420820744 0 0 0
879 293 1 0.5897 3.9859764775753814 19.02378400185484 14.719275230157232 0 0 0
867 289 1 0.5897 2.1778382576866027 16.041048695746937 14.098125253714162 0 0 0
550 184 2 -1.1794 1.5897228165589328 18.03791773253441 10.92149786112502 0 0 0
552 184 1 0.5897 2.485657446819391 17.70475536944381 10.871290992676242 0 0 0
565 189 2 -1.1794 2.6134630524287785 18.967530792618454 13.751610160234005 0 0 0
566 189 1 0.5897 2.473955652949265 18.08888238651426 13.398586733095323 0 0 0
567 189 1 0.5897 2.2489287472597264 19.55337572295003 13.088206431044663 0 0 0
865 289 2 -1.1794 2.6181144963712892 16.201638584684556 13.263513166474056 0 0 0
896 299 1 0.5897 0.40349451699088806 15.60702350071367 15.159461153538746 0 0 0
621 207 1 0.5897 0.3693327726957138 18.036704292377983 12.20841189178096 1 0 0
556 186 2 -1.1794 4.17417472210157 17.147361167594706 10.667375691093273 0 0 0
557 186 1 0.5897 4.371325118267217 16.255118746573295 10.382390927223016 0 0 0
877 293 2 -1.1794 4.728671677394755 19.034945748062658 15.323013472375811 0 0 0
881 294 1 0.5897 3.189327293366292 17.359708652560307 17.611194166473705 0 0 0
897 299 1 0.5897 1.1767890445650462 15.966241071247268 16.410384227190697 0 0 0
878 293 1 0.5897 4.550992651264145 18.32096447848599 15.93526858636282 0 0 0
882 294 1 0.5897 4.188566348266943 16.389923303790066 17.017175431010525 0 0 0
880 294 2 -1.1794 4.116813736415489 17.26710223786986 17.393465729821564 0 0 0
874 292 2 -1.1794 1.3829226739203455 17.339565533534625 17.702360724673017 0 0 0
891 297 1 0.5897 2.4032680150591057 19.739945781399523 19.840621402876717 0 0 0
876 292 1 0.5897 1.15361063108411 18.09905426055473 17.166844415897856 0 0 0
895 299 2 -1.1794 1.272581048060663 15.545749593520885 15.555871154444658 0 0 0
875 292 1 0.5897 0.8790231777614742 17.453168696148694 18.508210345289264 0 0 0
883 295 2 -1.1794 0.7965796159482722 19.15004937708359 15.758682085816924 0 0 0
887 296 1 0.5897 2.252555044467071 15.09383900603987 19.29166871306326 0 0 0
69 23 1 0.5897 6.41423428265231 2.0314969710842696 1.847915902065284 0 0 0
273 91 1 0.5897 7.436388049555481 0.2038263844805306 1.957663672218587 0 1 0
68 23 1 0.5897 7.822060890782166 2.180823967826528 1.3116492721934634 0 0 0
67 23 2 -1.1794 7.332689475939613 2.0119430419627866 2.1167504594987974 0 0 0
46 16 2 -1.1794 8.134856775420321 3.9231024628597035 3.7961333752115634 0 0 0
47 16 1 0.5897 7.816146411343246 3.203876124625467 3.250851056775381 0 0 0
48 16 1 0.5897 7.430769656763558 4.076891766000941 4.426078004672847 0 0 0
41 14 1 0.5897 9.698516626492811 1.0172402430970542 3.8682764022252467 0 0 0
29 10 1 0.5897 6.5160396048461395 0.7226423449807184 5.253990660386963 0 0 0
9 3 1 0.5897 5.41511725260761 4.2229285308778275 5.135439789327071 0 0 0
58 20 2 -1.1794 8.2775310693025 0.8887377964601291 4.76535023597503 0 0 0
59 20 1 0.5897 8.514810973321405 1.6944903384449095 5.224297670623191 0 0 0
8 3 1 0.5897 5.943169141697452 3.8443831091378575 6.502794247822597 0 0 0
391 131 2 -1.1794 7.192767155305774 2.1940081511263876 8.88950498521247 0 0 0
393 131 1 0.5897 7.386644639961201 1.3267132823668115 9.2450097846396 0 0 0
371 124 1 0.5897 7.953320474618669 3.560020848455063 9.966162502118317 0 0 0
361 121 2 -1.1794 8.911697318465615 2.8023149670577236 6.767880634475191 0 0 0
392 131 1 0.5897 7.724402788405645 2.2523055046685316 8.09566900757763 0 0 0
362 121 1 0.5897 8.907572061138463 3.7045273114190578 6.448224884190657 0 0 0
7 3 2 -1.1794 6.150343877355042 4.37031363812543 5.730357154200743 0 0 0
359 120 1 0.5897 5.719930404640422 2.2333971376950386 8.004564553961174 0 0 0
360 120 1 0.5897 5.218633691413499 1.7022619012389923 6.678507779723722 0 0 0
363 121 1 0.5897 9.779666803438955 2.688891115960153 7.155153804250842 0 0 0
60 20 1 0.5897 8.669380462050862 0.1899583726755713 5.2891314247878025 0 0 0
28 10 2 -1.1794 5.600381435525124 0.5986235729208533 5.503798100077747 0 0 0
352 118 2 -1.1794 5.598893080493168 0.6507746844894121 12.240087144457204 0 0 0
353 118 1 0.5897 6.458734961747626 0.8127799718659744 11.851959238987112 0 0 0
332 111 1 0.5897 5.604921317885328 4.242608150838643 11.839064169197743 0 0 0
370 124 2 -1.1794 8.184610017992668 4.23341550245259 10.605878129945529 0 0 0
372 124 1 0.5897 7.515440185370205 4.158143129161522 11.286137563664816 0 0 0
685 229 2 -1.1794 8.809728054651211 2.7975489060898573 13.60689831083228 0 0 0
382 128 2 -1.1794 8.385211271051286 0.8364101909770315 11.644890522938937 0 0 0
383 128 1 0.5897 8.52257145795667 1.4827233120084005 12.337429180920225 0 0 0
384 128 1 0.5897 9.139959936390289 0.9412962907396223 11.06560721950839 0 0 0
684 228 1 0.5897 5.6133471951256455 3.234518318989721 13.80830833164538 0 0 0
686 229 1 0.5897 8.285214123447968 2.512485655878775 14.355117949733913 0 0 0
354 118 1 0.5897 5.5730089526293884 1.2173905024994491 13.011112396903355 0 0 0
331 111 2 -1.1794 6.263578116499652 4.4847945731942165 12.490013905762035 0 0 0
386 129 1 0.5897 9.309246029667971 4.603567201710572 13.504933747633636 0 0 0
682 228 2 -1.1794 5.491543858716572 2.4508063999713925 14.344158400993415 0 0 0
687 229 1 0.5897 9.715513923081508 2.7286464398609223 13.908603182703029 0 0 0
657 219 1 0.5897 6.664387938043909 4.179766786308813 18.68567944227722 0 0 0
710 237 1 0.5897 9.28977232140734 4.333355824649917 20.43786661831387 0 0 0
38 13 1 0.5897 8.977677106395628 2.0047589632876646 19.763955831028802 0 0 -1
716 239 1 0.5897 7.606501837913233 0.8506091710441341 16.018775482222974 0 0 0
696 232 1 0.5897 8.015599167415807 4.595938622133151 17.305801465576682 0 0 0
715 239 2 -1.1794 7.532321802479178 1.8030356041674753 15.959170181047613 0 0 0
694 232 2 -1.1794 8.198043017740218 3.7997643914173325 17.804796409592882 0 0 0
695 232 1 0.5897 8.068287315321696 3.0884506985303437 17.17759823493174 0 0 0
676 226 2 -1.1794 5.943377415757556 0.6436769874170427 19.10919351273201 0 0 0
706 236 2 -1.1794 8.666871814727786 0.5772553580946105 18.551729591664373 0 0 0
708 236 1 0.5897 7.738686654956574 0.636392749219761 18.77798679310062 0 0 0
702 234 1 0.5897 9.885978996546351 3.967187449200942 17.804476956254987 0 0 0
655 219 2 -1.1794 5.840435311454828 4.550907095163233 19.001226980702658 0 0 0
677 226 1 0.5897 5.425657168698188 0.7545115872978901 18.311768941992046 0 0 0
656 219 1 0.5897 5.209979822454262 4.360867364741424 18.306511084647315 0 0 0
37 13 2 -1.1794 9.190777706432021 2.5801919221978746 20.498555067670413 0 0 -1
717 239 1 0.5897 6.661968850418489 1.9533386249178126 15.590243273894885 0 0 0
689 230 1 0.5897 9.981444879603538 0.9014475123621548 17.311651358154425 0 0 0
662 221 1 0.5897 5.135100744070741 5.005166381429125 15.856317583869547 0 0 0
36 12 1 0.5897 5.337136145581943 3.423094164970509 20.41447173174597 0 0 -1
35 12 1 0.5897 5.4493364340450565 1.9302742426965083 20.18945026531485 0 0 -1
143 48 1 0.5897 5.926437891118174 8.714241490933253 1.1156127590676683 0 0 0
176 59 1 0.5897 7.511557885556451 7.780675257463307 2.4273188071241876 0 0 0
57 19 1 0.5897 7.8026679351009385 5.369037868934475 2.738946993140092 0 0 0
711 237 1 0.5897 8.882596439939189 5.56997644703531 0.8612904975011406 0 0 1
175 59 2 -1.1794 7.424988802739771 8.719413653052998 2.26167384406117 0 0 0
55 19 2 -1.1794 7.570911969659033 6.014044473555126 2.0707858874133414 0 0 0
56 19 1 0.5897 6.6653969676262905 5.806204077168437 1.840438548913193 0 0 0
177 59 1 0.5897 8.092226927951117 8.909265204221944 1.602158560136358 0 0 0
166 56 2 -1.1794 8.72705451688786 7.600123280199429 5.015187857522737 0 0 0
142 48 2 -1.1794 5.273582008039357 8.860152256371666 0.43099568860221105 0 0 0
149 50 1 0.5897 9.969603372342032 7.690579504737671 3.6233086644542047 0 0 0
138 46 1 0.5897 6.9339272824412985 7.404953011557775 5.102411850411578 0 0 0
145 49 2 -1.1794 9.318246919073719 9.251364096510118 0.3603164551921255 0 0 0
136 46 2 -1.1794 6.020310163839401 7.150374187075483 5.231682547367567 0 0 0
467 156 1 0.5897 5.512134100667155 8.101874628627355 6.543160281378128 0 0 0
501 167 1 0.5897 6.803704248536313 8.88449271512293 8.369485981103347 0 0 0
380 127 1 0.5897 7.7160758229309065 6.808511838128033 8.882519092156153 0 0 0
338 113 1 0.5897 5.660351674691772 5.463492017248001 8.378482928493156 0 0 0
499 167 2 -1.1794 7.53824480655242 8.636819867939217 8.931022596396962 0 0 0
469 157 2 -1.1794 9.056547109597577 9.536466278352044 6.873838551729127 0 0 0
61 21 2 -1.1794 9.634698976080104 5.52162559747895 6.539411848668405 0 0 0
381 127 1 0.5897 7.684149055945401 5.365326774886694 9.338484814603966 0 0 0
500 167 1 0.5897 7.523495535900733 9.27752037784615 9.641977454132839 0 0 0
470 157 1 0.5897 8.533234270612152 9.155610623248622 7.57903802207987 0 0 0
379 127 2 -1.1794 7.54310278589663 5.920028676702799 8.57129787618765 0 0 0
62 21 1 0.5897 8.979231305335409 5.7263818404710305 7.206235499453418 0 0 0
466 156 2 -1.1794 5.41814756248953 8.81160757748714 7.178489564137724 0 0 0
137 46 1 0.5897 6.063838221377562 6.239396453176647 5.5222067759974705 0 0 0
168 56 1 0.5897 8.911141016369395 8.345005874729653 5.587425813271897 0 0 0
167 56 1 0.5897 9.103771938499726 6.847919602535783 5.4717616295783476 0 0 0
471 157 1 0.5897 9.962897963482872 9.35610305282809 7.123262113457534 0 0 0
385 129 2 -1.1794 9.609810619080339 5.456211334125359 13.819306843994237 0 0 0
794 265 1 0.5897 9.251380562122582 8.841727312811994 13.581756277229875 0 0 0
333 111 1 0.5897 6.365449421889893 5.431008002129463 12.387765651311527 0 0 0
461 154 1 0.5897 5.861581391031427 7.516926130706899 12.760570745970707 0 0 0
791 264 1 0.5897 5.926159817599539 8.715636706774513 15.01538780984849 0 0 0
793 265 2 -1.1794 9.49421102475229 9.503881132600618 14.22889302219376 0 0 0
491 164 1 0.5897 9.415705060468508 7.801076428135061 11.552897406862348 0 0 0
387 129 1 0.5897 9.256290180280732 6.0829210960377775 13.188094500287724 0 0 0
460 154 2 -1.1794 6.159825282131574 7.11916055309953 11.942620895240307 0 0 0
490 164 2 -1.1794 8.889523210331017 7.6818180036482815 12.343546282253227 0 0 0
492 164 1 0.5897 7.995466447559086 7.5665311568817915 12.021694946035375 0 0 0
705 235 1 0.5897 8.642429264721212 5.722201607989219 15.267918878278056 0 0 0
790 264 2 -1.1794 5.535231056958807 8.757340066059273 14.142667520673928 0 0 0
824 275 1 0.5897 8.189834794516866 8.900338044471024 15.408543872175539 0 0 0
462 154 1 0.5897 5.588191037757752 7.492532803835787 11.271771728769323 0 0 0
661 221 2 -1.1794 5.462830164205717 5.7499972773685535 15.352325409016398 0 0 0
814 272 2 -1.1794 8.92818350176446 7.281400055489458 18.777844281055554 0 0 0
786 262 1 0.5897 7.204486316647146 7.327426642291187 18.74229639747385 0 0 0
815 272 1 0.5897 9.21791599816328 6.524211095836388 19.28666663488859 0 0 0
825 275 1 0.5897 7.726417245684873 7.703580755890684 16.211547195071862 0 0 0
785 262 1 0.5897 6.0194726334796975 6.412431421469915 18.96665954209453 0 0 0
703 235 2 -1.1794 8.132876752385036 5.954826299888299 16.04410060107626 0 0 0
816 272 1 0.5897 8.970786186343346 8.014009296079825 19.39238447342537 0 0 0
784 262 2 -1.1794 6.248181601517525 7.305073893074763 18.707700640549614 0 0 0
823 275 2 -1.1794 7.532921670305471 8.626741435063828 16.048720898160802 0 0 0
144 48 1 0.5897 5.54331573265015 8.28435506574754 20.06460673622608 0 0 -1
709 237 2 -1.1794 9.444668507548865 5.276273856977486 20.493425839894705 0 0 0
704 235 1 0.5897 7.221591054805476 5.913798131947088 15.754107122691613 0 0 0
154 52 2 -1.1794 8.073194993162137 10.71181404636066 4.0313628395653 0 0 0
276 92 1 0.5897 8.998030796501212 14.105162642263672 4.42051789104662 0 0 0
156 52 1 0.5897 9.024609852050146 10.81579496690789 4.0170430250467355 0 0 0
163 55 2 -1.1794 7.7483942873141265 12.694928508054362 2.1581284780006897 0 0 0
164 55 1 0.5897 6.826123052353078 12.66857592678216 1.9032930196524436 0 0 0
165 55 1 0.5897 7.837370106168266 11.999214960064831 2.80948383580408 0 0 0
819 273 1 0.5897 8.755942609133589 12.278987902568758 0.7708078087250705 0 0 1
285 95 1 0.5897 7.496422771147782 14.543542419036772 2.431825430728783 0 0 0
155 52 1 0.5897 7.898495703596557 10.01413064241051 3.3997644660712854 0 0 0
275 92 1 0.5897 7.614424961167202 13.985072691721351 5.023074850558191 0 0 0
274 92 2 -1.1794 8.5282456185194 14.15306984396467 5.253120759280663 0 0 0
244 82 2 -1.1794 5.810249954048942 13.655479226101546 5.104920619807031 0 0 0
115 39 2 -1.1794 6.170943591886399 11.090556630333193 5.955705051882405 0 0 0