LAMMPS data file via write_data, version 30 Jul 2021, timestep = 8000000

864 atoms
2 atom types
576 bonds
1 bond types
288 angles
1 angle types

0.5736799072953502 17.633892492701122 xlo xhi
1.7672504239062814 21.861927376097412 ylo yhi
0.6998881469402978 21.513307653049072 zlo zhi

Masses

1 1.00794
2 15.9994

Pair Coeffs # lj/cut/tip4p/long/omp

1 0 0
2 0.21084 3.1668

Bond Coeffs # harmonic/omp

1 450 0.9572

Angle Coeffs # harmonic/omp

1 55 104.52

Atoms # full

337 1 2 -1.1794 3.4653203325241067 6.202981533982507 2.0318737897021286 0 1 2
758 1 1 0.5897 4.777317560008994 2.4048880855483032 1.0216972632941814 -2 5 4
90 1 1 0.5897 3.4699060136269506 3.3301422084053254 4.568762273392197 9 -3 5
647 1 1 0.5897 3.6856937027051377 2.398291389404774 2.6947291048928426 -6 1 0
89 1 1 0.5897 4.558933271026254 2.6055115335696515 5.330928720791503 9 -3 5
338 1 1 0.5897 3.7514404909168437 5.300391229819681 2.17229274119381 0 1 2
581 1 1 0.5897 1.3643653760666012 5.099792842046252 4.639150845880946 3 -4 -3
648 1 1 0.5897 2.8017702408502383 3.17715192407075 1.7439465099738558 -6 1 0
361 1 2 -1.1794 0.7521004050910169 3.468739745706107 3.744965905558078 3 -2 -1
646 1 2 -1.1794 3.52979005771738 3.280201501678574 2.356827127591859 -6 1 0
580 1 2 -1.1794 1.3553318857567163 5.747192572255891 5.34417337718098 3 -4 -3
271 1 2 -1.1794 0.7749326672858552 3.9851491888523802 0.7468567240459199 0 5 2
363 1 1 0.5897 0.6891087190614906 3.156826205138522 2.8421955650071586 3 -2 -1
88 1 2 -1.1794 4.009519237453263 3.3889046212801963 5.357211484182517 9 -3 5
339 1 1 0.5897 3.6103334002387917 6.634476325148341 2.87392715261476 0 1 2
582 1 1 0.5897 0.7024262977636699 6.391314462898267 5.070157385719975 3 -4 -3
836 1 1 0.5897 1.66766174235842 6.34709348298582 2.357832262855339 -1 2 0
835 1 2 -1.1794 0.7168301942341204 6.237480706041644 2.3451380910541006 -1 2 0
669 1 1 0.5897 2.5167971925111257 4.919075437669243 10.95002924539959 -9 -2 -1
221 1 1 0.5897 4.132286235519063 5.430454808274243 8.400994997948814 4 -1 6
234 1 1 0.5897 2.6626180068423393 3.930960417296559 8.284970235438934 -4 3 3
233 1 1 0.5897 3.7334118226332578 3.5364773053099334 7.290083478587827 -4 3 3
232 1 2 -1.1794 3.598752827476459 3.7438141834040297 8.214840556632918 -4 3 3
668 1 1 0.5897 1.6309564870622835 5.42713054029618 9.832371263832522 -9 -2 -2
220 1 2 -1.1794 4.565080905766565 6.2726382838467325 8.541233753972605 4 -1 6
667 1 2 -1.1794 1.7351578560510048 5.445996519289958 10.783716309104596 -9 -2 -1
349 1 2 -1.1794 0.8766618495267385 5.081045410691557 8.072593645958719 -11 1 -2
350 1 1 0.5897 0.9795819788190431 5.365085668067994 7.164297497102343 -11 1 -2
605 1 1 0.5897 4.818199246388624 2.1380904899286763 10.137396069862984 -7 -1 -1
806 1 1 0.5897 2.6231557998088717 1.9489399683582869 10.571964869064773 3 0 -2
715 1 2 -1.1794 1.6383868283476508 6.73753350743878 13.142730243382147 5 -9 -3
588 1 1 0.5897 2.0781597461971817 4.078926854132864 14.176995467996196 3 1 6
587 1 1 0.5897 1.0891702049096188 5.2134218151926195 14.013361376537908 3 1 6
586 1 2 -1.1794 1.1778603557025922 4.333413831184579 14.379394968152878 3 1 6
717 1 1 0.5897 1.492602870713433 6.387387277710559 12.263872939838222 5 -9 -3
128 1 1 0.5897 4.370388807775528 3.9586169881002315 14.194417758215865 -2 2 -6
356 1 1 0.5897 4.557751363553761 5.087183732529159 12.168331538367207 3 2 2
355 1 2 -1.1794 4.3953205512633655 4.52678169988935 11.409478642458746 3 2 2
357 1 1 0.5897 3.984898390321416 3.7424989699286613 11.773767709436816 3 2 2
127 1 2 -1.1794 3.7216221567513044 3.254877852936736 14.18434181360768 -2 2 -6
129 1 1 0.5897 4.14634755173858 2.543765581793266 13.704546563675871 -2 2 -6
805 1 2 -1.1794 2.853967086610812 2.285656997120379 11.437759976370064 3 0 -2
807 1 1 0.5897 2.0331602812764853 2.265219588808798 11.929834537640124 3 0 -2
635 1 1 0.5897 4.307040264436108 2.7633299197736862 15.941132970686969 -7 0 4
43 1 2 -1.1794 3.362327028892876 6.4554563915186804 16.585291291556082 2 6 -1
273 1 1 0.5897 1.3968760833791938 4.288680853237109 20.898967995862265 0 5 1
340 1 2 -1.1794 1.4144284777080722 4.130225503576897 17.352956672159095 1 4 0
266 1 1 0.5897 2.5892888620405476 3.8662896904351447 18.759989369637402 -4 -1 -1
341 1 1 0.5897 0.7460553584868969 4.7037807032964505 17.72786782939471 1 4 0
265 1 2 -1.1794 2.885544209029358 3.86134412530333 19.670191824216566 -4 -1 -1
634 1 2 -1.1794 4.640145573603292 2.692420534509452 16.835710836144777 -7 0 4
45 1 1 0.5897 3.3370378998800194 5.503014048923873 16.677386725228644 2 6 -1
267 1 1 0.5897 3.737996871461657 4.296151414342229 19.647473578151583 -4 -1 -1
501 1 1 0.5897 2.6355407388472747 2.1939713110413224 20.60836667400107 2 -1 -2
44 1 1 0.5897 2.9191744156901 6.784048712927653 17.367528454169964 2 6 -1
600 1 1 0.5897 1.1473590049676963 6.6921229513572165 18.66089218518796 0 -4 -5
342 1 1 0.5897 1.2780825175047088 4.188941393185544 16.407330478486216 1 4 0
306 1 1 0.5897 1.1100447841012047 9.219484966887972 2.1555788356137286 4 -2 -7
377 1 1 0.5897 3.250835523550247 8.675442632705677 3.7034073175197086 0 4 1
376 1 2 -1.1794 3.9576939111046947 8.055467066457854 3.8829512407753333 0 4 1
304 1 2 -1.1794 1.6292795264715059 9.51331993865951 2.9041121357029818 4 -2 -7
378 1 1 0.5897 3.737457985027844 7.680830317862923 4.735822732206319 0 4 1
305 1 1 0.5897 1.2246000928771452 10.339904213799077 3.167244878261521 4 -2 -7
113 1 1 0.5897 2.375136584257832 11.011447008963538 1.5758576500453931 -2 -2 2
453 1 1 0.5897 1.9706930003453995 10.85304376698572 5.8258409948354934 -2 0 4
112 1 2 -1.1794 2.4069515098783167 11.795054799399765 1.0270463232185874 -2 -2 2
623 1 1 0.5897 0.7760904055334252 8.87443622675749 5.314579790140648 6 -1 6
624 1 1 0.5897 0.6166139704685776 8.339271431599002 3.907401085068617 6 -1 6
154 1 2 -1.1794 2.7472904347917373 8.268938356972082 9.831928285141618 2 3 -4
131 1 1 0.5897 1.3411011701727649 9.250789431455294 9.095676938524646 -6 -1 -1
153 1 1 0.5897 3.772386839472395 11.346090409779448 7.962675440380227 0 -1 3
451 1 2 -1.1794 1.859514001343082 10.003575839346308 6.252828205078271 -2 0 4
858 1 1 0.5897 3.8596539149694498 9.115404712487958 8.537035895536564 2 -1 -6
856 1 2 -1.1794 4.544466161428151 9.737295091115048 8.29098258693718 2 -1 -6
583 1 2 -1.1794 3.1109944332112285 7.618014438400652 6.456237426865554 3 -5 4
584 1 1 0.5897 2.8222452112313148 8.530504447538341 6.440677351533195 3 -5 4
156 1 1 0.5897 2.6697148137758084 8.618721667242275 10.719554132239422 2 3 -4
155 1 1 0.5897 2.897829092282274 7.3317596515511125 9.955595634150967 2 3 -4
452 1 1 0.5897 1.416715697715269 10.20543800208579 7.0771039713222885 -2 0 4
130 1 2 -1.1794 0.6861293546362184 9.838804728502101 8.719511006383408 -6 -1 -1
585 1 1 0.5897 2.3327551052290945 7.115872201117706 6.2144716070765975 3 -5 4
222 1 1 0.5897 4.2741790364599925 6.816760518263234 7.809415109242065 4 -1 6
398 1 1 0.5897 1.5109731997255442 8.597962331636499 12.778368224399273 5 3 -3
523 1 2 -1.1794 2.092905548960623 8.598442722703808 15.346943012119539 2 -1 1
525 1 1 0.5897 2.4776653024299504 7.760290284355418 15.603339680994234 2 -1 1
399 1 1 0.5897 2.2149338862555052 9.935275543370764 12.688652177452733 5 3 -3
388 1 2 -1.1794 4.487810516810177 9.835435956287299 12.609984995544629 4 5 3
390 1 1 0.5897 4.027758426678939 10.597907065278495 12.258934991752069 4 5 3
397 1 2 -1.1794 1.5603292577991423 9.393354090848842 12.248086063816055 5 3 -3
524 1 1 0.5897 1.1711415486652874 8.3991898457097 15.18284734002412 2 -1 1
11 1 1 0.5897 4.191461798089577 10.03510270122475 15.001440903757917 -5 -2 2
716 1 1 0.5897 2.588412595764236 6.834898014093159 13.207733936135533 5 -9 -3
389 1 1 0.5897 4.535963632963859 9.224605616117977 11.874565737387195 4 5 2
289 1 2 -1.1794 4.333267495324776 6.900573469147821 13.180339229130007 -8 -5 -8
283 1 2 -1.1794 1.86721546317975 10.947600039033924 17.094944067294904 2 -1 -2
368 1 1 0.5897 4.679429241611569 10.95515086670372 19.37917678082632 3 2 -5
861 1 1 0.5897 4.245667082793872 8.587584105685607 20.91868083495641 0 -3 1
12 1 1 0.5897 4.439430863108141 9.960294430476047 16.493034259711713 -5 -2 2
145 1 2 -1.1794 0.9723069336678738 8.949291458221214 20.93688324205163 -1 -1 -4
246 1 1 0.5897 4.6072910686427075 8.635514280192957 18.8210357623701 -6 5 -2
245 1 1 0.5897 3.2117932171346615 8.934545542765353 18.315959567910255 -6 5 -2
599 1 1 0.5897 1.6452593849709132 7.776007831219146 19.593237584896997 0 -4 -5
147 1 1 0.5897 0.7532989013745364 9.5910066753383 20.261246154737748 -1 -1 -4
859 1 2 -1.1794 4.267045740678205 7.672587768215745 20.63835543563622 0 -3 1
285 1 1 0.5897 1.7501866450387347 10.068919076960286 16.733690236091775 2 -1 -2
598 1 2 -1.1794 1.680019944692728 7.487178928364155 18.681301412306887 0 -4 -5
244 1 2 -1.1794 4.093524747674188 9.303566547322003 18.36716291604659 -6 5 -2
860 1 1 0.5897 3.9149561208710923 7.185098716328185 21.383150831533882 0 -3 1
321 1 1 0.5897 0.7408289999144155 10.924887794371134 18.473026676153168 3 -3 0
114 1 1 0.5897 3.0236888941109274 11.57432852560356 21.14248883928996 -2 -2 1
284 1 1 0.5897 2.195050466140979 11.46716074169696 16.360895346561698 2 -1 -2
328 1 2 -1.1794 4.050875511901712 13.795789740394001 3.9819245827295613 5 7 -3
259 1 2 -1.1794 1.8596211220632923 12.133651259806213 4.33431433063775 3 -2 4
73 1 2 -1.1794 2.495498497605307 14.412696719902714 1.628356435334225 3 -1 3
75 1 1 0.5897 2.571317922944962 13.488977504753988 1.3890878917107472 3 -1 3
74 1 1 0.5897 3.211660553362615 14.841521612479376 1.1598687609679896 3 -1 3
726 1 1 0.5897 1.5419811459923989 15.319561431904862 2.996457009231863 4 0 4
329 1 1 0.5897 3.670492090269221 14.315882041415435 3.274051737060524 5 7 -3
261 1 1 0.5897 2.590624766288519 12.678048615336 4.041859109953711 3 -2 4
724 1 2 -1.1794 1.071743541231649 15.830740531074369 3.6551285502750814 4 0 4
330 1 1 0.5897 4.553109452692122 13.11397220257652 3.535605051914623 5 7 -3
620 1 1 0.5897 4.080871160548696 16.432151654300547 3.7285821809538384 5 0 2
139 1 2 -1.1794 3.062436074665503 16.488676587892066 5.265724987901538 0 -1 2
619 1 2 -1.1794 4.39082572562989 16.687842979014157 2.859745120870789 5 0 2
140 1 1 0.5897 2.377811798471316 16.30089759320603 4.623615707096535 0 -1 2
260 1 1 0.5897 1.1092898957923505 12.727807272626144 4.350292754395005 3 -2 4
744 1 1 0.5897 0.8879903586423583 14.83300078453059 0.7353719774196108 -4 -1 1
519 1 1 0.5897 2.554896479381585 15.561153899908748 6.634669464721361 -1 -1 -4
324 1 1 0.5897 1.3177050095231502 13.682897413482118 7.327503538117963 6 1 -2
151 1 2 -1.1794 3.4638774673914887 12.252118317143651 7.976153217812144 0 -1 3
152 1 1 0.5897 2.515960887851982 12.184605079492703 7.861319342134063 0 -1 2
550 1 2 -1.1794 4.757626776755277 13.210150242263435 10.162972016693608 -6 7 -7
793 1 2 -1.1794 0.6829425402757126 12.010913953007233 10.345031231822508 -7 2 7
36 1 1 0.5897 4.3963283099121035 13.749464743023525 6.9104983356236716 -4 0 0
552 1 1 0.5897 4.328721103715107 12.976940654662958 9.33962472031182 -6 7 -7
333 1 1 0.5897 2.5934084347704616 16.321252884853138 10.186088365300815 3 -3 -5
518 1 1 0.5897 2.8397452747523877 15.572242037741686 8.12150674654519 -1 -1 -4
517 1 2 -1.1794 2.204470477703508 15.265004672496854 7.474755320952997 -1 -1 -4
322 1 2 -1.1794 0.8170684427679051 12.869231914815598 7.3872299413107925 6 1 -2
551 1 1 0.5897 4.1286428308628995 12.961107308109227 10.840176158368456 -6 7 -7
331 1 2 -1.1794 1.7233019911455676 16.104036619081064 10.520730800952206 3 -3 -5
28 1 2 -1.1794 4.035301233932719 16.788923465019252 9.255683119580032 -9 -2 6
30 1 1 0.5897 4.519963608845787 16.7399858664135 8.431691562824353 -9 -2 6
794 1 1 0.5897 0.7529559239380603 12.732215630164013 9.71967210659825 -7 2 7
704 1 1 0.5897 4.584203182324106 16.754021415470465 6.497095852073404 7 0 1
332 1 1 0.5897 1.886790820494449 15.47702791625276 11.225274085907788 3 -3 -5
410 1 1 0.5897 3.0601084867316732 13.980905929160556 12.637333006766115 5 3 -6
409 1 2 -1.1794 3.115529990712599 14.919800229848933 12.815265255901846 5 3 -6
411 1 1 0.5897 4.054093095595065 15.096916160033778 12.87923416681683 5 3 -6
407 1 1 0.5897 2.6200497329352017 12.175099552801717 12.948032126974862 -3 -3 -1
169 1 2 -1.1794 4.189965996187913 14.5714849250277 15.55335895066008 -3 4 -1
505 1 2 -1.1794 2.639970968409261 12.32831815651219 14.727843920879208 3 -1 -5
219 1 1 0.5897 2.6339685908883848 16.07276296628386 14.768472771634949 5 -2 2
408 1 1 0.5897 1.9972048284288313 11.978876132945112 11.582200679782886 -3 -3 -1
96 1 1 0.5897 0.723575467892961 16.62905513531325 15.874537792293461 -3 -1 -2
507 1 1 0.5897 1.8733593506861095 12.901525746677235 14.730801155637126 3 -1 -5
406 1 2 -1.1794 2.842511225718357 12.05513602323182 12.024793553754256 -3 -3 -1
506 1 1 0.5897 3.3852416729244825 12.923876419145877 14.80612536334988 3 -1 -5
674 1 1 0.5897 0.5846878546938833 16.412960947341865 12.10771105179496 -4 -1 -3
764 1 1 0.5897 2.6613463974309877 12.792581737456928 18.698203534757077 -1 3 0
765 1 1 0.5897 1.4009764880726996 13.119476433186785 17.925822603995925 -1 3 0
565 1 2 -1.1794 2.682836027634718 15.868964009755631 19.30932135967104 -2 2 -9
607 1 2 -1.1794 4.827723677252102 15.0950273904945 20.779280167051667 5 7 2
763 1 2 -1.1794 1.863250076184462 13.319437649062039 18.73980602124199 -1 3 0
367 1 2 -1.1794 4.512376990158808 11.838662481642205 19.707448912395485 3 2 -5
566 1 1 0.5897 2.1744544516174047 15.256583871957819 18.777541475422794 -2 2 -9
609 1 1 0.5897 4.0608249725370795 15.054009367291153 20.20788847268635 5 7 2
171 1 1 0.5897 4.3760473959467525 14.347133044551539 16.465109231714706 -3 4 -1
567 1 1 0.5897 2.7820895866711703 16.64302480752179 18.755032858142428 -2 2 -9
772 1 2 -1.1794 2.7058030869333964 18.66213880936772 1.5705886148517405 4 -7 5
660 1 1 0.5897 3.232191519155969 20.064002654939216 2.555497829263693 -2 -1 2
141 1 1 0.5897 3.055354916808837 17.441950262982285 5.352249009969635 0 -1 2
20 1 1 0.5897 2.036022761371469 19.55526024219219 4.913865443759916 -5 -2 0
19 1 2 -1.1794 2.9517437723469993 19.346921282561865 5.099097542061411 -5 -2 1
658 1 2 -1.1794 3.8729430831940084 20.620255852221185 2.998556307906449 -2 -1 2
21 1 1 0.5897 3.449077602061757 19.874985954687 4.474531978034143 -5 -2 1
621 1 1 0.5897 3.6856331307609995 17.227732143550313 2.5026938886818053 5 0 2
773 1 1 0.5897 1.8675802854000518 18.2493851087168 1.3625869922956153 4 -7 5
659 1 1 0.5897 4.714758129017449 20.19606194945544 2.8322107224843247 -2 -1 2
774 1 1 0.5897 3.1439503947412955 18.75520850593218 0.7246388056900344 4 -7 5
238 1 2 -1.1794 3.147986826504431 19.669327991527133 7.687456400552726 -5 -7 0
53 1 1 0.5897 2.1182121579416915 20.909834973937947 8.435479591516895 -3 -3 1
240 1 1 0.5897 4.071936801308392 19.606255866247956 7.929576712445645 -5 -7 0
476 1 1 0.5897 1.0580052723642952 17.076067017547945 7.55707514585758 6 -5 -2
395 1 1 0.5897 1.245703133678345 20.060860409324626 9.874929667625278 4 -1 5
239 1 1 0.5897 3.142308058331829 19.572652299041714 6.735148383379228 -5 -7 0
477 1 1 0.5897 1.7280199124473377 18.378317345602916 7.940693457156501 6 -5 -2
475 1 2 -1.1794 0.9028238068957904 17.899656633522547 8.019540245105457 6 -5 -2
29 1 1 0.5897 4.272854397656069 17.6400807543938 9.623627540138548 -9 -2 6
52 1 2 -1.1794 1.622677864655313 21.528820824722416 8.971751317803594 -3 -3 1
394 1 2 -1.1794 1.0387084417588157 19.327727833638292 10.45452129136246 4 -1 5
54 1 1 0.5897 0.9188941846590202 21.833023079544283 8.398680343847861 -3 -3 1
396 1 1 0.5897 0.9135282897281665 18.583858435311576 9.86524746709685 4 -1 4
433 1 2 -1.1794 4.6007849616192225 19.054626848410287 11.020323425681434 2 0 -1
144 1 1 0.5897 2.0426123219689583 20.625932123503404 15.778818199719028 -3 4 3
782 1 1 0.5897 3.67404207805761 18.497815659678388 15.252206603378667 -6 -1 2
783 1 1 0.5897 4.7893689803106945 18.470357357072736 14.228851299904406 -6 -1 2
435 1 1 0.5897 3.7920227861029563 18.832962098223994 11.481896259577923 2 0 -1
66 1 1 0.5897 1.658592928748358 19.140866010371518 12.068666959525663 3 1 -1
64 1 2 -1.1794 2.1884369827774117 18.966239673633467 12.846499603544208 3 1 -1
65 1 1 0.5897 1.7774229310560787 19.484745268982863 13.538214828635917 3 1 -1
143 1 1 0.5897 1.2930285298052935 21.39842742646183 14.714240762335635 -3 4 3
142 1 2 -1.1794 1.576883420299819 20.51517300116003 14.949913166698831 -3 4 3
781 1 2 -1.1794 4.552854601651466 18.836438359053233 15.081085904405239 -6 -1 2
230 1 1 0.5897 4.826202022549749 20.87032028505599 12.550864177320607 4 4 2
218 1 1 0.5897 2.4901454710164246 17.46724349650581 14.196920731781065 5 -2 2
217 1 2 -1.1794 2.5751618489583965 16.993306329848707 15.024216559458255 5 -2 2
466 1 2 -1.1794 3.869432954402743 19.12977123426188 19.848309850471473 4 -3 7
467 1 1 0.5897 3.525790131134032 18.81832211278828 19.010959656544678 4 -3 7
534 1 1 0.5897 2.2074361400963367 18.838948897746903 17.43507140794128 -6 -4 -1
532 1 2 -1.1794 2.7698021084512114 18.079292614459533 17.586442664433562 -6 -4 -1
256 1 2 -1.1794 2.364903620502719 21.10921391198054 17.457085990297948 1 -2 1
533 1 1 0.5897 2.505228608951156 17.44774929216238 16.917562822926733 -6 -4 -1
468 1 1 0.5897 3.3667932969661463 19.92298100611255 20.03390563780912 4 -3 7
499 1 2 -1.1794 2.6968647693801224 21.39282500158101 20.940076317483623 2 -2 -2
257 1 1 0.5897 1.7237127801056142 21.46642527885851 18.071520452233884 1 -2 1
258 1 1 0.5897 3.1508747685458967 21.637563690974716 17.596241060667758 1 -2 1
500 1 1 0.5897 1.9233176588049512 21.288633718500186 21.494173856232656 2 -2 -2
183 1 1 0.5897 8.24054807741128 3.4909326130780958 1.340070849129889 -3 1 -3
496 1 2 -1.1794 7.46601938567122 3.8009225874147425 3.1373456548241188 -5 1 1
497 1 1 0.5897 8.283333810981622 4.289944653911238 3.0418453056867065 -5 1 1
498 1 1 0.5897 6.897571623601265 4.3803174760678045 3.644712028702514 -5 1 0
430 1 2 -1.1794 5.6224936597764525 5.45010455716778 4.266279618609728 -8 -3 -2
431 1 1 0.5897 6.2090653086170144 5.606076010027335 5.006469025250555 -8 -3 -2
425 1 1 0.5897 7.588133529624365 2.140393224464602 3.424638552891038 9 -6 5
182 1 1 0.5897 8.8025730744284 2.200576703953543 0.782336489553362 -2 1 -3
432 1 1 0.5897 4.98290678543496 4.818747524628515 4.595812023389339 -8 -3 -2
759 1 1 0.5897 6.1981322149645965 2.8626379966396516 0.7692872130082407 -2 5 4
818 1 1 0.5897 7.423442842945642 6.260056031662481 7.278053868608485 4 2 3
300 1 1 0.5897 8.842726056772563 3.397845403545773 6.656287377129601 -2 0 2
299 1 1 0.5897 7.5982108322024144 4.208732756695721 6.948849090840158 -2 0 2
797 1 1 0.5897 7.25142028968003 1.7992371778194516 9.536573359645583 -1 -5 -2
819 1 1 0.5897 5.953648404045702 5.898178661774106 7.251888356641198 4 1 3
798 1 1 0.5897 7.88886361432496 2.3992211489896196 8.301413574706299 -1 -5 -2
817 1 2 -1.1794 6.764341681128562 5.808447363079199 6.750907577629487 4 2 3
547 1 2 -1.1794 6.848753599256047 4.460892076277148 10.334444465811925 5 2 2
589 1 2 -1.1794 8.60284860527089 6.581450212551939 10.070617081266105 6 6 4
590 1 1 0.5897 7.808069955121356 6.086891138428041 9.870642656125607 6 6 4
298 1 2 -1.1794 7.888440701571549 3.332979457561584 6.69372414222297 -2 0 2
549 1 1 0.5897 5.911261130936057 4.630325144313591 10.42743406952831 5 2 2
626 1 1 0.5897 6.789053617800229 1.8909824262135944 6.088727926737692 -9 -2 1
548 1 1 0.5897 7.049091263475693 3.832729886331137 11.02836532899396 5 2 2
458 1 1 0.5897 6.775532569499359 3.92974109191643 13.732444545131955 2 -3 -2
538 1 2 -1.1794 7.593504656927358 2.852857143623328 12.492896422546306 -7 -6 -1
457 1 2 -1.1794 6.236368615915986 4.549356527221855 14.22400948630754 2 -3 -2
539 1 1 0.5897 6.871078521885877 2.2256481339526006 12.46191940677299 -7 -6 -1
508 1 2 -1.1794 8.454127478437798 6.5519807791649685 14.642833690483428 2 0 5
540 1 1 0.5897 8.381102692590495 2.3164326840736624 12.40236755484769 -7 -6 -1
510 1 1 0.5897 7.592893875450486 6.190046803619272 14.434175371372461 2 0 5
459 1 1 0.5897 6.514132942064591 4.4402578450538 15.133509216045972 2 -3 -2
833 1 1 0.5897 7.793824118574894 2.063239072899498 15.516360964583368 2 -2 -2
509 1 1 0.5897 9.01477818076388 6.2691193144709025 13.92034664876302 2 0 5
730 1 2 -1.1794 5.225719120241582 5.249983360676676 19.78180626761923 -2 -1 -5
812 1 1 0.5897 8.248856605543818 2.818369307873341 19.450228542975132 -5 6 -4
85 1 2 -1.1794 7.404405004148146 6.079482950805888 21.40161211088307 2 5 2
149 1 1 0.5897 7.053860069033693 3.978859628578404 17.667900289856888 -4 0 -1
811 1 2 -1.1794 7.934318335195712 2.6095124416229587 18.570630559151148 -5 6 -4
148 1 2 -1.1794 6.572633863668018 4.57815999027853 17.09736643548728 -4 0 -1
150 1 1 0.5897 5.690974619662826 4.208452694465028 17.05002627426689 -4 0 -1
87 1 1 0.5897 6.781708108604064 5.576955032063237 20.876271176746755 2 5 2
813 1 1 0.5897 7.165072124569439 2.058543062998618 18.715373149151702 -5 6 -4
731 1 1 0.5897 5.514403667229555 5.250926051197572 18.869167118268173 -2 -1 -5
757 1 2 -1.1794 5.58679341014056 2.1513039724855467 21.391607195165186 -2 5 3
181 1 2 -1.1794 8.558548950440585 3.091246942888758 21.34393473649478 -3 1 -4
86 1 1 0.5897 8.168312479555459 6.18321221321702 20.834201444768134 2 5 2
636 1 1 0.5897 5.454304520393316 2.1963846799824167 16.75002249747331 -7 0 4
732 1 1 0.5897 4.994382515374611 6.161313429673161 19.961284668435532 -2 -1 -5
199 1 2 -1.1794 5.253870273262905 11.76451840534851 2.922137443354936 0 1 0
577 1 2 -1.1794 8.932220094801421 7.361883897143275 4.263640752932378 2 4 0
727 1 2 -1.1794 8.582624863761387 10.801208595511197 3.428981792482849 -4 2 -1
454 1 2 -1.1794 5.401771578339346 9.66737492003916 1.2096314561619832 4 -5 1
387 1 1 0.5897 6.969875843384113 7.314336425251169 1.9668744735996828 -5 3 3
455 1 1 0.5897 5.763856377180172 8.995964028979817 1.7878602439193532 4 -5 1
200 1 1 0.5897 5.933044315895019 11.621646232715662 3.58134779154089 0 1 0
579 1 1 0.5897 8.13027300691277 7.26919271652783 3.7493032701562745 2 4 0
385 1 2 -1.1794 6.645130834176486 7.7019481636014175 2.7796306297868423 -5 3 3
728 1 1 0.5897 8.607809195177166 10.138714382626551 2.738537778809567 -4 2 -1
644 1 1 0.5897 5.361889264495813 8.788967107194374 5.225023760442597 1 -2 -2
682 1 2 -1.1794 6.5778470566783955 11.677960785198028 5.8058759925773185 4 -1 -4
201 1 1 0.5897 5.250182844156053 10.960231219632407 2.4031440102021864 0 1 0
645 1 1 0.5897 6.090332970494426 10.009148879495735 5.746998316924727 1 -2 -2
386 1 1 0.5897 6.100345259094194 7.018736531936311 3.1704574998631903 -5 3 3
633 1 1 0.5897 6.777456042925348 8.783330802946754 7.374381138324187 2 5 5
632 1 1 0.5897 8.05749288391911 8.22410677382453 7.958084355478012 2 5 5
683 1 1 0.5897 7.371220820142225 11.647875591032676 6.340572214486692 4 -1 -4
631 1 2 -1.1794 7.297129444355789 8.76239128406343 8.177969316870751 2 5 5
448 1 2 -1.1794 6.390938296150556 11.184999404602394 9.670898865219154 6 1 -6
109 1 2 -1.1794 8.455887401467985 11.152379702541193 7.537802349996004 3 1 -9
111 1 1 0.5897 8.02912962197942 10.3530590530022 7.846376033991036 3 1 -9
3 1 1 0.5897 5.217398402076283 7.147920704885252 9.967721355365525 1 -6 4
804 1 1 0.5897 7.688723785837475 10.027317497224576 10.576998265834257 2 0 -3
2 1 1 0.5897 6.2812235686922255 8.098152758297015 10.474938349539055 1 -6 4
591 1 1 0.5897 8.294507334039416 7.470487093899559 10.246130042619027 6 6 4
450 1 1 0.5897 5.972777071660559 10.390783935033097 9.338295632887311 6 1 -6
1 1 2 -1.1794 5.487973711159196 7.635797713570771 10.745565887753468 1 -6 4
802 1 2 -1.1794 7.961268502248665 9.155899955707055 10.864405496535417 2 0 -3
857 1 1 0.5897 4.984394971768872 9.327513284148347 7.54611185029156 2 -1 -6
449 1 1 0.5897 5.662430383419114 11.749309871197363 9.929931828249531 6 1 -6
643 1 2 -1.1794 5.937893574694127 9.082251761109015 5.931035029830149 1 -2 -2
79 1 2 -1.1794 8.015456041183658 9.167290936607444 13.50600934146624 0 -1 -5
597 1 1 0.5897 5.472833643208705 8.53332871299805 15.486282150504595 -2 -3 2
290 1 1 0.5897 4.946359609167534 6.934002195556735 13.914677087958719 -8 -5 -8
81 1 1 0.5897 8.96369443496969 9.251067226982553 13.405642081254674 0 -1 -5
80 1 1 0.5897 7.899516902443025 8.386645894528321 14.04771682031953 0 -1 -5
335 1 1 0.5897 6.357080893069029 11.364466093344928 16.113880459126094 6 0 2
803 1 1 0.5897 7.712118769829421 9.118934583429958 11.787884444070928 2 0 -3
291 1 1 0.5897 4.840446641466984 7.210346635923429 12.429964204515349 -8 -5 -8
595 1 2 -1.1794 5.735363279737844 7.613312621860931 15.455360616031482 -2 -3 2
596 1 1 0.5897 5.029873714222957 7.147246225710237 15.904043279081401 -1 -3 2
126 1 1 0.5897 5.765961328262377 11.149787504250027 13.117109362583061 1 4 2
10 1 2 -1.1794 4.893188731512649 10.019094961415783 15.652265359277765 -5 -2 2
718 1 2 -1.1794 7.236980261494369 9.492977562970804 20.110718861298714 6 3 -2
830 1 1 0.5897 6.961071609160387 6.981458933932584 18.18715734604531 5 3 4
720 1 1 0.5897 7.386348152923615 10.342494188679934 19.695673845177296 6 3 -2
829 1 2 -1.1794 6.358488239217351 7.724893100438554 18.164604009378394 5 3 4
831 1 1 0.5897 6.307085890967014 7.964130415292859 17.239199700978865 5 3 4
719 1 1 0.5897 7.111246819956525 8.887646693184543 19.379955101921965 6 3 -2
161 1 1 0.5897 8.499841362977428 9.119119390531075 21.23971906697978 3 6 2
456 1 1 0.5897 5.945556374538484 9.625319037336224 21.2364105946423 4 -5 0
768 1 1 0.5897 6.08282065072422 12.572988722216191 1.6031656576528683 -2 1 -2
592 1 2 -1.1794 6.941277575532751 15.594841113231682 2.2205000184962023 4 -1 -3
594 1 1 0.5897 6.098620010490692 16.018445832534823 2.38407284156444 4 -1 -3
686 1 1 0.5897 8.984193438269756 12.304636453962845 2.429450555596926 8 -3 -3
687 1 1 0.5897 8.257499787034792 13.3935946987334 1.6691563542537264 8 -3 -3
593 1 1 0.5897 7.178896590142501 15.201034469206604 3.059971632321548 4 -1 -3
486 1 1 0.5897 7.2582742749555225 13.172013216906441 4.8478791076319325 -1 0 -1
484 1 2 -1.1794 7.69972997293408 13.908650497491347 4.4250864755170465 -1 0 -1
485 1 1 0.5897 8.425982319689833 13.510039989936983 3.945578375120544 -1 0 -1
853 1 2 -1.1794 9.01685388171399 16.670419515862545 5.527014197937355 -5 1 0
35 1 1 0.5897 4.905198135477363 14.123800824454154 5.5346688307981795 -4 0 0
766 1 2 -1.1794 6.420509367956922 12.923088703371537 0.7787538050981127 -2 1 -2
279 1 1 0.5897 7.949774935523968 15.36479841113152 0.7144865969430896 -1 -4 0
268 1 2 -1.1794 7.878870797152699 13.62440291445401 9.146997648010172 1 6 5
269 1 1 0.5897 8.248179179163728 13.908456690078388 8.310798049989423 1 6 5
116 1 1 0.5897 5.802959835990163 15.706490266182032 10.004622661421454 -5 -1 5
270 1 1 0.5897 7.48560138557841 12.772292457582337 8.958589539486349 1 6 5
115 1 2 -1.1794 6.673399719690756 15.799395906267618 10.391900967406547 -5 -1 5
117 1 1 0.5897 7.126058101242816 14.98777140272576 10.162449726967365 -5 -1 5
353 1 1 0.5897 9.077365892538708 14.164053007220112 5.910475170671452 6 0 -2
705 1 1 0.5897 5.715568487689686 15.798834007205734 6.812646043343142 7 0 1
63 1 1 0.5897 7.611218339081793 12.637385050249073 10.92918547717277 -4 -1 4
34 1 2 -1.1794 5.184975483836176 14.02818801709341 6.4450764766034645 -4 0 0
703 1 2 -1.1794 5.424999220356901 16.70025777137867 6.951446199826981 7 0 1
684 1 1 0.5897 6.1029838575839035 12.445761644862303 6.1240500736420795 4 -1 -4
334 1 2 -1.1794 6.739491935732273 12.240151763046853 16.056531478150724 6 0 2
62 1 1 0.5897 7.4646222523090255 12.241645063636994 12.383090072286638 -4 -1 4
57 1 1 0.5897 6.277534243640253 13.948998349602105 13.01867347414844 -9 0 2
56 1 1 0.5897 6.312867906882714 15.097683891770851 12.033156810288586 -9 0 2
61 1 2 -1.1794 8.109448539930305 12.537144284670928 11.740340025620231 -4 -1 4
418 1 2 -1.1794 8.596846143891982 15.369318024667276 14.977508703273832 -6 -5 5
124 1 2 -1.1794 5.975614961595775 12.057306723550324 13.337802302860915 1 4 2
125 1 1 0.5897 5.893633494253067 12.097656934647901 14.290639483536227 1 4 2
170 1 1 0.5897 4.840814185867017 15.237751773482792 15.332509956063536 -3 4 -1
420 1 1 0.5897 7.663007478248913 15.577359730584664 14.94646259909714 -6 -5 5
191 1 1 0.5897 8.502766429086623 12.06818305709362 15.199341775173563 3 4 -10
55 1 2 -1.1794 5.967218556978984 14.8452330521716 12.88935264534638 -9 0 2
295 1 2 -1.1794 6.110305389528525 16.53698497185442 15.850861111388804 -5 3 3
419 1 1 0.5897 9.011634695376369 16.173678223432063 15.289311891346902 -6 -5 5
227 1 1 0.5897 8.964092565587357 14.029295413127018 12.276548277487105 1 -2 2
671 1 1 0.5897 7.476171531255191 12.49328903982218 19.925710652210086 5 0 3
302 1 1 0.5897 7.097118112177557 15.954228887710531 19.333118460278214 -2 1 6
336 1 1 0.5897 6.206690334616725 12.773760992062678 16.646134301226546 6 0 2
672 1 1 0.5897 7.984756581833517 12.773710676594037 18.52762036003267 5 0 3
296 1 1 0.5897 6.213948528378857 16.38358761571488 16.790005157788833 -5 3 3
277 1 2 -1.1794 8.480896571270073 15.271438000616593 20.737058598775008 -1 -4 -1
303 1 1 0.5897 7.337030338228871 15.237014278554412 18.02163374736748 -2 1 6
778 1 2 -1.1794 8.533178741881644 14.158202272672018 17.585456645868426 -1 0 -3
301 1 2 -1.1794 6.790292655267325 15.909774370922216 18.42749375942848 -2 1 6
93 1 1 0.5897 5.657778178871719 14.456895672470166 18.41702809430008 2 -6 0
780 1 1 0.5897 8.449715100058558 14.428011533577429 16.670842715965442 -1 0 -3
369 1 1 0.5897 5.211987712531784 11.995289475900554 20.341692549659747 3 2 -6
767 1 1 0.5897 5.964937076856814 13.757622410450736 21.481308505200232 -2 1 -3
608 1 1 0.5897 5.006452746847527 16.030683570781505 20.874107368638676 5 7 2
91 1 2 -1.1794 5.157562673346246 13.782918744538364 17.95680633522562 2 -6 0
670 1 2 -1.1794 7.772055188344376 12.057756448799406 19.126300139436452 5 0 3
92 1 1 0.5897 4.993162585818593 13.111749202031355 18.61921234460285 2 -6 0
694 1 2 -1.1794 7.098761626219289 18.550255071134742 5.326537812761959 -1 -2 -1
851 1 1 0.5897 7.948170628407354 18.230172485135895 3.538553175286385 -5 0 0
850 1 2 -1.1794 8.396559789114223 17.90098016192522 2.759553992498622 -5 0 0