LAMMPS data file via write_data, version 30 Jul 2021, timestep = 16500000

972 atoms
2 atom types
648 bonds
1 bond types
324 angles
1 angle types

-0.11762436951643451 20.117625369510165 xlo xhi
-0.12850018811066022 20.128501188103485 ylo yhi
-0.28608375237581285 20.98608175237876 zlo zhi

Masses

1 1.008
2 15.999

Pair Coeffs # lj/cut/tip4p/long/omp

1 0 0
2 0.21084 3.1668

Bond Coeffs # harmonic/omp

1 450 0.9572

Angle Coeffs # harmonic/omp

1 55 104.52

Atoms # full

31 11 2 -1.1794 0.906167598653292 1.6124498480147818 1.703981897232289 0 0 0
32 11 1 0.5897 0.010423752456933888 1.6905078662338282 1.375580879438002 0 0 0
33 11 1 0.5897 1.457045440692996 1.7454394730920744 0.9325110573431217 0 0 0
16 6 2 -1.1794 3.546966758731545 4.108118356566716 3.697835385271506 0 0 0
4 2 2 -1.1794 4.2425118297750215 1.5467244950535532 3.161519376120095 0 0 0
5 2 1 0.5897 4.13368737577024 0.9710101459417213 2.404527634716271 0 0 0
10 4 2 -1.1794 0.7977278535922876 3.9865104752471643 3.2599798016694725 0 0 0
11 4 1 0.5897 0.957582303719581 3.216131389149108 2.71475920975564 0 0 0
23 8 1 0.5897 2.7957715971185517 0.9784707886962754 4.159203713725591 0 0 0
18 6 1 0.5897 3.820967445373381 3.244308684253375 3.389479848720172 0 0 0
12 4 1 0.5897 1.6542631661060985 4.2008079621185725 3.6296644815622736 0 0 0
102 34 1 0.5897 0.38210165379066136 0.6206578735668998 4.911697821523176 1 0 0
17 6 1 0.5897 3.7537051559305934 4.698357229548617 2.973116237450862 0 0 0
6 2 1 0.5897 4.882932770740064 1.098375607269289 3.713925124969859 0 0 0
22 8 2 -1.1794 2.276611049136985 0.7516188443741006 4.930773701593127 0 0 0
9 3 1 0.5897 4.898667493151702 4.561971752735518 4.922794259659896 0 0 0
236 79 1 0.5897 0.694279558573973 -0.0868706127374459 1.7550299057402117 0 1 0
27 9 1 0.5897 2.22726091636918 4.510034574436241 6.564113688250662 0 0 0
356 119 1 0.5897 1.0604596291699264 2.295193242261033 8.271659534475836 0 0 0
355 119 2 -1.1794 0.3065286493805127 2.0907226511637176 8.82491029557763 0 0 0
325 109 2 -1.1794 2.6216748924718978 2.6490488726432395 6.9765978880082615 0 0 0
326 109 1 0.5897 2.537980987897685 2.0107728549820574 6.2681460306492385 0 0 0
327 109 1 0.5897 3.457405459266346 2.4375590107152436 7.392685436507298 0 0 0
330 110 1 0.5897 3.794219667029283 0.7387592619677572 9.69219166658616 0 0 0
335 112 1 0.5897 0.5251360478098718 3.3523256175486407 10.343181388643027 0 0 0
342 114 1 0.5897 3.853259240029827 4.754809976059284 9.963844427407805 0 0 0
561 187 1 0.5897 0.48867610970547315 -0.0498610898211406 8.272430769033546 0 1 0
341 114 1 0.5897 3.9804463976599918 3.2880495243878363 10.316641137635576 0 0 0
328 110 2 -1.1794 4.063156296412309 1.5058493385211313 10.197739595429997 0 0 0
346 116 2 -1.1794 1.814181794075567 1.1003167008030998 11.907518979417144 0 0 0
651 217 1 0.5897 1.8998844666568782 2.3434565292571854 14.529151239104063 0 0 0
650 217 1 0.5897 2.530110853251133 2.110229068376725 13.172473773828358 0 0 0
348 116 1 0.5897 2.4192075039710152 1.2961800536455779 11.192081295482842 0 0 0
350 117 1 0.5897 2.683279330436073 4.556431963972617 13.950093847074092 0 0 0
649 217 2 -1.1794 2.6287932027874628 2.6226123374638197 13.975010714614607 0 0 0
334 112 2 -1.1794 0.9962940415274921 4.111861306270986 10.685777345216112 0 0 0
347 116 1 0.5897 0.9472318288369364 1.1265702968302613 11.502613829777225 0 0 0
329 110 1 0.5897 4.834489739382098 1.214452553551743 10.683992313341589 0 0 0
683 228 1 0.5897 4.586627002828201 2.736019501340491 14.546683425131887 0 0 0
340 114 2 -1.1794 3.8263010865722262 4.149393927603813 10.704781823963634 0 0 0
336 112 1 0.5897 1.8017247222636519 3.748603202339834 11.05404788390305 0 0 0
672 224 1 0.5897 1.0376897084408565 0.741340921366559 18.616441929392213 0 0 0
653 218 1 0.5897 3.210535506568884 0.6759288341813595 17.678465455994605 0 0 0
652 218 2 -1.1794 4.055617282011137 0.8631180502672784 17.269728941666145 0 0 0
665 222 1 0.5897 3.004477908840924 3.671573519207363 17.31330646504495 0 0 0
658 220 2 -1.1794 1.2528321495436907 3.8314191586028046 17.51491377308407 0 0 0
666 222 1 0.5897 4.0692572846350155 2.650766545193092 16.97230320804543 0 0 0
664 222 2 -1.1794 3.882293522292572 3.5890457715441118 16.94059185132632 0 0 0
681 227 1 0.5897 0.6690515203088202 2.4436701235024123 16.397266477934902 0 0 0
659 220 1 0.5897 0.5972411099620417 3.7793719600242035 18.21045663606969 0 0 0
670 224 2 -1.1794 1.9781723645756855 0.7125126024699622 18.79237826075405 0 0 0
671 224 1 0.5897 2.150375038659702 1.5011678741980736 19.306867086120263 0 0 0
654 218 1 0.5897 4.079164061091502 0.2979285519656858 16.497491314740966 0 0 0
884 295 1 0.5897 0.5707720597734978 0.10874328425064547 15.864182302332875 0 1 0
656 219 1 0.5897 4.830739342695746 4.325333680655662 18.678299070037987 0 0 0
3 1 1 0.5897 3.3689644550169295 2.398892669962711 20.889680240272646 0 0 -1
660 220 1 0.5897 1.1287090576808654 4.700147280656785 17.13256588881331 0 0 0
2 1 1 0.5897 2.3657385868442358 3.532737317228683 20.893906478885974 0 0 -1
1 1 2 -1.1794 2.4342691152641778 2.582969693042266 20.796125015335125 0 0 -1
679 227 2 -1.1794 0.3803660815892603 1.8699319079685535 15.687461075322085 0 0 0
141 47 1 0.5897 0.7944798755009118 8.111573581449072 1.7801179442330142 0 0 0
13 5 2 -1.1794 4.203335866648479 5.67448001892101 1.6869811297604174 0 0 0
139 47 2 -1.1794 0.6924915367487915 9.038592474250553 1.5643844106134845 0 0 0
20 7 1 0.5897 0.4201027497785561 5.43617538127669 2.2994488915252913 0 0 0
674 225 1 0.5897 1.632588452003642 5.56743014920244 0.33362328924614026 0 0 1
114 38 1 0.5897 3.492432357232422 7.749568829393183 3.661938827929836 0 0 0
19 7 2 -1.1794 0.4207881694407496 6.201944129321614 1.7250556106533854 0 0 0
15 5 1 0.5897 4.100103731581354 6.58763249312711 1.9549784996378876 0 0 0
14 5 1 0.5897 3.6302456699149515 5.581460536692635 0.9259027047505692 0 0 0
140 47 1 0.5897 1.0060113994122324 9.501697829190217 2.3412686011019304 0 0 0
112 38 2 -1.1794 4.2476674844405835 7.901431678642481 3.0937359840174636 0 0 0
110 37 1 0.5897 1.8450497302130506 9.326946831029305 0.4271005678380392 0 0 0
132 44 1 0.5897 0.8150856884556199 7.463696280844425 4.7981333673629605 0 0 0
126 42 1 0.5897 4.208041683834179 9.79572063518085 2.8561768501852582 0 0 0
111 37 1 0.5897 3.3101748064510725 9.357334509776205 0.046990696107225394 0 0 0
130 44 2 -1.1794 1.7676434635492884 7.503324873696036 4.883844125922154 0 0 0
109 37 2 -1.1794 2.4381039131453024 9.57526341060556 -0.2820785296215327 0 0 0
437 146 1 0.5897 4.093868996931872 7.29264643688249 9.668079111559804 0 0 0
25 9 2 -1.1794 2.057258947749719 5.44996547380739 6.626937513540187 0 0 0
26 9 1 0.5897 1.379686526888357 5.526918680651742 7.298704292913604 0 0 0
344 115 1 0.5897 0.6318297660775459 5.343170449316351 9.399051616125638 0 0 0
345 115 1 0.5897 0.6538550521479963 6.617114212271212 8.581302099615693 0 0 0
463 155 2 -1.1794 0.9432649415729866 8.540313531551513 8.652831365378288 0 0 0
435 145 1 0.5897 2.5482383631644048 8.518300424157136 6.049874881087746 0 0 0
433 145 2 -1.1794 2.829309822982005 8.942859188846448 6.860472253404797 0 0 0
464 155 1 0.5897 1.5745228313136528 8.830206374340268 7.9941996125554 0 0 0
343 115 2 -1.1794 0.37098797522948485 5.703113428332014 8.551272607943012 0 0 0
468 156 1 0.5897 4.736603797379237 8.673829544343413 7.213846641874323 0 0 0
131 44 1 0.5897 1.9802642813230347 6.818363707334542 5.517837987985882 0 0 0
339 113 1 0.5897 3.6834096087223998 5.725262116492135 7.72375703909308 0 0 0
337 113 2 -1.1794 4.084582051058677 5.873669895006707 8.580129310014945 0 0 0
438 146 1 0.5897 4.1324781718071595 8.771758909923854 9.988531439808195 0 0 0
465 155 1 0.5897 0.0899568543077792 8.65648801647177 8.23489504778843 0 0 0
434 145 1 0.5897 2.7198657756761184 9.878732172087807 6.691673514351385 0 0 0
668 223 1 0.5897 1.4759541821408326 5.999461847020202 15.322384751833306 0 0 0
533 178 1 0.5897 -0.05178123598274087 7.632950256163724 11.957784395535139 1 0 0
454 152 2 -1.1794 2.2223086289525016 7.477123143926052 12.253733100235443 0 0 0
455 152 1 0.5897 2.9115020642004854 7.521615310456335 11.590916738634787 0 0 0
456 152 1 0.5897 2.4142456798383853 6.679150695409179 12.746403409668307 0 0 0
759 253 1 0.5897 2.756184624554822 8.715813144301794 13.608118660939958 0 0 0
351 117 1 0.5897 3.6247444538209086 5.538509370127126 14.614373909559614 0 0 0
757 253 2 -1.1794 2.8943506371593206 9.25286250004169 14.388391450582425 0 0 0
349 117 2 -1.1794 2.876687077663727 5.491400657895438 14.019000745830812 0 0 0
792 264 1 0.5897 4.569358342043206 8.939859964932309 14.32547439064846 0 0 0
789 263 1 0.5897 1.36611110630206 8.743635600697534 15.498235193149991 0 0 0
436 146 2 -1.1794 4.149974779459436 7.907451526222239 10.399596229331953 0 0 0
443 148 1 0.5897 1.0063579477469782 9.540153077039822 10.602032702120265 0 0 0
669 223 1 0.5897 0.6071347863179015 6.934509273239585 16.136607128030644 0 0 0
780 260 1 0.5897 3.0226726628130707 7.4528828959892905 18.409156659555524 0 0 0
778 260 2 -1.1794 2.35731297640238 7.366180580970963 19.091864049698838 0 0 0
761 254 1 0.5897 4.132402772592761 8.921420333096059 17.05874735139465 0 0 0
779 260 1 0.5897 2.270579108281584 8.247295244339048 19.455739384931903 0 0 0
858 286 1 0.5897 0.614644952870714 7.205767896168811 19.01957058562589 1 0 0
675 225 1 0.5897 2.292164421962762 5.91535009139807 20.288220842441255 0 0 0
788 263 1 0.5897 0.9229007121521267 9.715298905255844 16.5712911554058 0 0 0
760 254 2 -1.1794 4.226166577599144 7.9787322486251036 17.196144951503058 0 0 0
663 221 1 0.5897 4.7497031350388985 6.597403286228179 16.350796704687607 0 0 0
673 225 2 -1.1794 2.2745779717771395 5.246250411214248 20.972567348957966 0 0 0
667 223 2 -1.1794 0.6183122495452535 6.062049971074241 15.742891363049843 0 0 0
762 254 1 0.5897 4.936252798547098 7.89848333342521 17.833051500743487 0 0 0
787 263 2 -1.1794 0.7522940535642669 8.838751503156026 16.226548451941294 0 0 0
662 221 1 0.5897 4.579316374711233 5.096489393246223 16.249258971209148 0 0 0
122 41 1 0.5897 4.14724218847186 12.65030683169759 0.502135450766037 0 0 0
222 74 1 0.5897 4.208343810757351 13.976862216761536 2.2385436067486415 0 0 0
120 40 1 0.5897 1.0791298574310073 11.648150935026049 2.8480247824557954 0 0 0
118 40 2 -1.1794 1.3566752331858896 10.920618459132616 3.404758552385938 0 0 0
119 40 1 0.5897 2.312773326809254 10.93608355993865 3.3609484180302895 0 0 0
123 41 1 0.5897 4.6690769174115 11.80895830090132 1.64755303447004 0 0 0
127 43 2 -1.1794 0.6546276414995872 12.830322659305253 1.608492512605295 0 0 0
220 74 2 -1.1794 4.003166672518928 14.529506559427306 2.9927448568197748 0 0 0
124 42 2 -1.1794 4.02833784277799 10.723517347364314 3.0083944895588033 0 0 0
783 261 1 0.5897 1.9682510128853044 12.371435824368897 0.301639582256661 0 0 1
129 43 1 0.5897 0.7747026667599411 13.779924809810417 1.621363097184669 0 0 0
125 42 1 0.5897 4.351774843722631 10.888512385089438 3.8940875179685293 0 0 0
240 80 1 0.5897 2.640797929141023 14.204520414784044 4.284228723159111 0 0 0
121 41 2 -1.1794 4.804446002920235 12.64322081045762 1.1980921271694365 0 0 0
238 80 2 -1.1794 2.0454030417784415 13.963474715760288 4.993966623674689 0 0 0
188 63 1 0.5897 0.15127633487559988 11.200973167488216 4.7119289682287775 1 0 0
133 45 2 -1.1794 2.7119196736246116 11.841945092115445 6.745603743352493 0 0 0
134 45 1 0.5897 1.9622618897888753 11.966614250382989 7.327646857759648 0 0 0
135 45 1 0.5897 3.4718276010939713 12.071599846840254 7.280493488963932 0 0 0
445 149 2 -1.1794 4.881228126196039 12.865258453331226 8.418816897173071 0 0 0
453 151 1 0.5897 0.49881148068779135 11.507889240109824 9.340974687953082 0 0 0
446 149 1 0.5897 4.731399838068694 13.490364067606578 9.128133768210805 0 0 0
572 191 1 0.5897 0.6690249411981445 14.037092079739207 9.154604119121187 0 0 0
450 150 1 0.5897 4.296141499347132 11.324299106950777 9.407988596222635 0 0 0
451 151 2 -1.1794 0.5210743793056601 12.263219705844415 8.753368388423779 0 0 0
571 191 2 -1.1794 0.7683943235869523 14.982584202684592 9.26636957718616 0 0 0
317 106 1 0.5897 0.1682199470873602 14.209408902175598 5.15715316555392 1 0 0
448 150 2 -1.1794 3.892757693529891 10.81922074523698 10.114029469812856 0 0 0
239 80 1 0.5897 2.3783957812001906 13.124253434914216 5.3120071540990415 0 0 0
563 188 1 0.5897 2.1853150745635697 13.356777617815204 12.461647845111552 0 0 0
562 188 2 -1.1794 2.0263021379603328 14.184250421689523 12.007406916795786 0 0 0
444 148 1 0.5897 2.1086520021088755 10.56546680578389 10.762391914616536 0 0 0
545 182 1 0.5897 3.5917779207578953 14.43371162755313 10.844431427952134 0 0 0
457 153 2 -1.1794 2.308566727975841 11.897696142560287 13.633689650521207 0 0 0
458 153 1 0.5897 1.4722793233308813 12.09864746255064 14.053863700738415 0 0 0
459 153 1 0.5897 2.9684422197335283 12.241209192115951 14.236078477929372 0 0 0
758 253 1 0.5897 2.785470596983565 10.153307569212224 14.082332071757207 0 0 0
449 150 1 0.5897 4.528183212702647 10.856273318222097 10.82898028544984 0 0 0
442 148 2 -1.1794 1.1615737267110167 10.453134273753975 10.844266350400215 0 0 0
564 188 1 0.5897 2.3591166112265762 14.853891042235677 12.605000266402996 0 0 0
642 214 1 0.5897 0.22063885517272147 14.294990926472343 12.22816100198208 1 0 0
769 257 2 -1.1794 4.472775680178135 12.603862397932373 15.277998809245211 0 0 0
775 259 2 -1.1794 0.22479163777560174 12.711651564885981 15.316813682518701 0 0 0
777 259 1 0.5897 0.40903199890400876 13.640566580230226 15.456341348145347 0 0 0
544 182 2 -1.1794 4.357273780609949 14.82582058625918 10.424282137657274 0 0 0
766 256 2 -1.1794 0.990163765971094 11.364973330374676 17.58658996968603 0 0 0
869 290 1 0.5897 3.3699244435366675 14.626833757855957 17.669045271846134 0 0 0
768 256 1 0.5897 0.7725285516871998 12.096493679969617 17.008805098061703 0 0 0
886 296 2 -1.1794 2.0747185906460412 14.499840052361694 19.035478870059688 0 0 0
774 258 1 0.5897 4.130871214286909 11.29809302473454 16.517903454185635 0 0 0
767 256 1 0.5897 0.2578132208085715 11.318495456556183 18.201252983927144 0 0 0
781 261 2 -1.1794 2.5943128029951144 12.47227193536047 20.85674611998527 0 0 0
888 296 1 0.5897 2.3661323913824948 13.715074533001092 19.49975543184019 0 0 0
965 322 1 0.5897 0.3043815466109362 14.187073245773895 18.800300436092307 1 0 0
773 258 1 0.5897 2.9328071081563127 10.889777605506469 17.348563900347322 0 0 0
772 258 2 -1.1794 3.880958029827457 10.777070286598372 17.281051496388173 0 0 0
765 255 1 0.5897 4.6857580560441825 11.221782121755849 19.119749277424443 0 0 0
868 290 2 -1.1794 4.118773785238366 14.753655591373363 17.086442211412162 0 0 0
782 261 1 0.5897 2.6611430779742444 11.598378458042385 20.471815689626915 0 0 0
870 290 1 0.5897 4.88061649538399 14.538687975461821 17.624641308674814 0 0 0
771 257 1 0.5897 4.280854391317597 13.454135991249547 15.673625140973508 0 0 0
227 76 1 0.5897 1.0672876312020096 18.031657644391064 3.0609659040153745 0 0 0
234 78 1 0.5897 2.934639792018606 17.486162947809085 3.62213888670898 0 0 0
247 83 2 -1.1794 0.8065981090856154 15.539059655532345 1.6358785823545505 0 0 0
230 77 1 0.5897 4.0887780108342655 19.530348259940073 0.9233378276579711 0 0 0
226 76 2 -1.1794 1.1735462986338834 17.250868482049057 3.604458725312598 0 0 0
248 83 1 0.5897 0.9039177223879857 16.094078648143483 2.4097113114568685 0 0 0
232 78 2 -1.1794 3.8480890099295726 17.745444805725356 3.743289993804914 0 0 0
233 78 1 0.5897 4.067069538910692 18.2315066266577 2.948225560885494 0 0 0
235 79 2 -1.1794 0.5183676996629833 19.231866269498497 1.8259397385752498 0 0 0
890 297 1 0.5897 1.7131043320104207 19.332279131206594 0.36862786361763433 0 0 1
249 83 1 0.5897 1.52854990571129 15.797432722600705 1.062864268280042 0 0 0
229 77 2 -1.1794 4.591215227134151 19.430432244110346 1.731930891057285 0 0 0
228 76 1 0.5897 0.5169543507064737 17.347429605500917 4.294300736086697 0 0 0
221 74 1 0.5897 4.188210413432876 15.420251018442267 2.694994794812239 0 0 0
218 73 1 0.5897 2.964630803510434 17.46855876704698 -0.2688605973301574 0 0 0
889 297 2 -1.1794 2.484080165667585 19.591473304667456 -0.13607609751400065 0 0 1
219 73 1 0.5897 3.77197083744274 16.242568591192384 0.10160094267425274 0 0 0
217 73 2 -1.1794 2.896692272560513 16.518841260285477 -0.17015088941757384 0 0 0
241 81 2 -1.1794 2.5069637865529897 18.588763221327547 6.387821365713053 0 0 0
542 181 1 0.5897 2.0845965394244144 15.730349242605854 7.637039613258548 0 0 0
243 81 1 0.5897 1.8148548260556845 18.840438788361425 6.999342244480966 0 0 0
576 192 1 0.5897 4.679870932747391 15.880436970982359 6.9744603457821475 0 0 0
554 185 1 0.5897 4.829682869455132 19.187146620932065 8.658586276594196 0 0 0
553 185 2 -1.1794 3.879118899105502 19.254881257748885 8.748758628344284 0 0 0
541 181 2 -1.1794 2.6035851441428286 15.937285998114099 6.859778612911294 0 0 0
559 187 2 -1.1794 0.5503710093688207 19.259928624918313 8.149040199866018 0 0 0
242 81 1 0.5897 2.508689745458691 17.63173150377297 6.40796792110394 0 0 0
555 185 1 0.5897 3.5457602458499062 19.155459997773043 7.856947674711675 0 0 0
558 186 1 0.5897 3.55652770131246 18.02591016929788 10.071947325462393 0 0 0
551 184 1 0.5897 0.8625745809573773 18.631786303532646 9.966514192743263 0 0 0
24 8 1 0.5897 2.438529544891704 20.07445182339555 5.062835640680296 0 -1 0
543 181 1 0.5897 2.394674269970275 15.239320228606381 6.238861494516142 0 0 0
573 191 1 0.5897 1.0759830412159472 15.08679729123726 10.166849169549623 0 0 0
865 289 2 -1.1794 2.932382244782076 15.926696878094734 13.771910736976954 0 0 0
885 295 1 0.5897 1.434127167770449 19.38142205384654 15.104058072645252 0 0 0
552 184 1 0.5897 1.7832386359659822 18.28327350907165 11.11674869358595 0 0 0
565 189 2 -1.1794 2.4521770425139855 18.98321441805587 13.533818241532195 0 0 0
566 189 1 0.5897 2.1648693619868995 18.111896059478347 13.26071139134655 0 0 0
866 289 1 0.5897 3.855934743495017 16.01982122119906 14.005644936484808 0 0 0
879 293 1 0.5897 3.8115900431452725 18.740538730654258 14.807695986196375 0 0 0
567 189 1 0.5897 2.015378192742722 19.581074063596073 12.92713626651708 0 0 0
877 293 2 -1.1794 4.385686595625257 18.8898695309541 15.558977610571434 0 0 0
867 289 1 0.5897 2.4792981648617567 15.846297897339435 14.611285108919741 0 0 0
550 184 2 -1.1794 0.87199362000441 18.494865295214098 10.913883657071281 0 0 0
556 186 2 -1.1794 3.429846203484719 17.410404094978382 10.794058063166636 0 0 0
896 299 1 0.5897 0.3747855812593387 15.693346320356735 15.08967523306254 0 0 0
557 186 1 0.5897 3.7403628631818373 16.571995102618068 10.452049381315893 0 0 0
548 183 1 0.5897 4.89506648251889 17.973111375681118 11.910380581819954 0 0 0
895 299 2 -1.1794 1.051698228777001 15.332360363700651 15.662206788122425 0 0 0
878 293 1 0.5897 4.152768225033324 18.19963513490559 16.179992017310582 0 0 0
876 292 1 0.5897 0.9320811129692219 18.18597421013324 17.094373080450058 0 0 0
874 292 2 -1.1794 1.1117580214151466 17.39186706389338 17.59778357586792 0 0 0
882 294 1 0.5897 3.99998365656929 16.465540728426795 17.604484438325173 0 0 0
880 294 2 -1.1794 3.8867618821863 17.396949219801034 17.79418380301582 0 0 0
881 294 1 0.5897 2.9384523195980705 17.519044025288085 17.839752062993124 0 0 0
897 299 1 0.5897 1.052535342859586 15.909153324501204 16.426176805658447 0 0 0
891 297 1 0.5897 2.1289059251550557 19.953637264180504 20.324283086201675 0 0 0
875 292 1 0.5897 0.4899982284219291 17.42284875696357 18.324936813200146 0 0 0
887 296 1 0.5897 2.1212477305524104 15.1969771031258 19.689825894790893 0 0 0
883 295 2 -1.1794 0.7750925873823716 19.433017889028434 15.79634811852209 0 0 0
68 23 1 0.5897 7.663326980020296 2.3763168169440747 1.3408163429273012 0 0 0
69 23 1 0.5897 6.222928703271434 2.161573750681194 1.7545547151770902 0 0 0
67 23 2 -1.1794 7.117763001919946 2.150730411117991 2.0943370667804495 0 0 0
48 16 1 0.5897 7.162873484234715 4.324998747748183 4.352800880419685 0 0 0
47 16 1 0.5897 7.432770867623423 3.6304180035337485 3.0349184274994503 0 0 0
53 18 1 0.5897 9.537664438683102 3.8926236365803772 3.7496745257607342 0 0 0
59 20 1 0.5897 9.342874714757308 0.21583553704616404 4.238552844409316 0 0 0
46 16 2 -1.1794 7.7121447963560765 4.373128930995874 3.5703116539631616 0 0 0
34 12 2 -1.1794 5.085716008762136 2.398605935336305 0.0102247952544951 0 0 0
273 91 1 0.5897 7.375382628369478 0.277173222801476 1.924368061789378 0 1 0
29 10 1 0.5897 6.751044354164871 0.665792628668007 4.88015660596749 0 0 0
58 20 2 -1.1794 8.604374871933006 0.20904517416394314 4.847545128744111 0 0 0
37 13 2 -1.1794 8.918031000658004 2.3911592221725186 -0.13404182323832886 0 0 0
39 13 1 0.5897 9.842763837294946 2.396498095104608 0.11320447776252102 0 0 0
391 131 2 -1.1794 7.697984238991653 1.7728285145109521 8.94326407659341 0 0 0
358 120 2 -1.1794 5.3555734430172866 2.2784248128089875 7.278582580797849 0 0 0
360 120 1 0.5897 6.0745676964411786 2.076096193113114 7.877248786330043 0 0 0
392 131 1 0.5897 8.14643894762623 1.823347321441298 8.099065986164783 0 0 0
28 10 2 -1.1794 5.873182940326711 0.5033499408828922 5.22550462492784 0 0 0
361 121 2 -1.1794 9.042606248128907 2.2927359657212874 6.6692545409624975 0 0 0
393 131 1 0.5897 7.483484330428659 0.8455905711096763 9.045967107867298 0 0 0
359 120 1 0.5897 5.26156607885563 1.4914683255086314 6.7417560306755915 0 0 0
362 121 1 0.5897 8.925761387963489 3.2376702301338494 6.570727866137717 0 0 0
8 3 1 0.5897 5.596142362482959 3.723051654196447 5.972495483209847 0 0 0
60 20 1 0.5897 8.752216187900547 0.9674970386492359 5.412547039088159 0 0 0
371 124 1 0.5897 8.079891359135814 3.417487508153695 10.141146922841683 0 0 0
7 3 2 -1.1794 5.677582510148053 4.539079746648464 5.478734409219026 0 0 0
363 121 1 0.5897 9.9891492802401 2.175066031559476 6.749732904223296 0 0 0
61 21 2 -1.1794 8.90870965976969 4.917668297007668 6.728452462251448 0 0 0
382 128 2 -1.1794 8.738097037419763 0.4377355758713022 12.507939876793218 0 0 0
686 229 1 0.5897 8.929867775336119 2.6829902862123207 14.542631031556638 0 0 0
353 118 1 0.5897 6.7905940117018355 0.7395129846612886 12.230995254968763 0 0 0
372 124 1 0.5897 7.687033413154385 4.413994725483387 11.211094078962358 0 0 0
384 128 1 0.5897 9.11541617870044 0.3719129340347327 11.630651571628801 0 0 0
684 228 1 0.5897 5.770804859562909 3.400153128776062 13.876875489210319 0 0 0
354 118 1 0.5897 5.512310401754027 1.0478874210990783 12.981277054344964 0 0 0
370 124 2 -1.1794 8.34439040933972 4.248836575230192 10.535138163682735 0 0 0
352 118 2 -1.1794 5.840216263085276 0.778101767702876 12.123382043360703 0 0 0
383 128 1 0.5897 9.013942281204718 1.2981990335823923 12.823911766942805 0 0 0
386 129 1 0.5897 9.29463885853403 4.649806508644565 13.578599402219027 0 0 0
685 229 2 -1.1794 9.467221542096986 2.7416239001241975 13.752602669441169 0 0 0
331 111 2 -1.1794 6.168631164485729 4.786014017391986 12.372561842009278 0 0 0
682 228 2 -1.1794 5.484116956028764 2.5702254091564156 14.258088210181377 0 0 0
332 111 1 0.5897 5.288202121604319 4.577674931740121 12.059943743441144 0 0 0
717 239 1 0.5897 6.758854813162334 2.2748908030453117 15.361816875222475 0 0 0
657 219 1 0.5897 6.303116138728541 4.123603597881143 18.967177763909742 0 0 0
655 219 2 -1.1794 5.47525479564349 4.360717762833459 19.385165572451147 0 0 0
707 236 1 0.5897 9.00442761166029 0.20947300119853618 19.402591088154082 0 0 0
35 12 1 0.5897 5.4442513980331375 1.6964828918146957 20.739444447577167 0 0 -1
716 239 1 0.5897 7.673874197444595 1.350883083987744 16.137063622667288 0 0 0
676 226 2 -1.1794 6.016685364981548 0.586620925753576 19.248272430009283 0 0 0
708 236 1 0.5897 7.797411843420949 0.9290311344433213 18.83918576995045 0 0 0
706 236 2 -1.1794 8.751678972965914 0.8878076270397413 18.776242235086055 0 0 0
702 234 1 0.5897 9.531882933972241 4.18903375840787 18.140028586271416 0 0 0
695 232 1 0.5897 7.661894533521009 3.390894841250278 17.23626055559268 0 0 0
694 232 2 -1.1794 7.715924595187218 4.00273920553293 17.970428327051412 0 0 0
677 226 1 0.5897 5.417279888596427 0.7108935642749482 18.51234296276935 0 0 0
715 239 2 -1.1794 7.529417987145471 2.274152085778263 15.929722135478475 0 0 0
38 13 1 0.5897 8.893046736072122 1.906859565429655 20.31279326074692 0 0 -1
710 237 1 0.5897 8.823340219330989 4.170480106289612 20.934750636913993 0 0 0
696 232 1 0.5897 7.5077618058058375 4.855264961676144 17.588186043729646 0 0 0
36 12 1 0.5897 5.3179691383929075 3.2031120961538084 20.81853781565942 0 0 -1
55 19 2 -1.1794 6.985491157297819 5.938431646798237 1.4728885546223773 0 0 0
143 48 1 0.5897 6.212515306139041 8.978976096314236 0.49229410605735613 0 0 0
177 59 1 0.5897 8.228960639666868 8.773976114135479 1.0132572548362504 0 0 0
175 59 2 -1.1794 7.49533718639586 8.594807391383808 1.6014828076116343 0 0 0
142 48 2 -1.1794 5.529035658904998 9.082988302760562 -0.1697854622858812 0 0 0
176 59 1 0.5897 7.349287167686826 7.6520573206614655 1.522724911594939 0 0 0
56 19 1 0.5897 6.038029061948987 5.803864546192503 1.495088684707656 0 0 0
711 237 1 0.5897 8.094183612492317 5.441166800402095 0.04437386613104699 0 0 1
136 46 2 -1.1794 6.01416688940212 7.086316813994992 4.877480391818709 0 0 0
57 19 1 0.5897 7.289448261287832 5.647312602568283 2.3326534762673528 0 0 0
155 52 1 0.5897 8.056039661430697 9.848572328214203 3.445367221514078 0 0 0
138 46 1 0.5897 6.964416023622455 7.182473288605359 4.813847431708709 0 0 0
113 38 1 0.5897 5.004805831216242 7.8173005063348056 3.673363462614884 0 0 0
501 167 1 0.5897 7.02944873188353 8.601109429320571 8.159512700426475 0 0 0
471 157 1 0.5897 9.027603877960862 9.265571830479349 7.510383346716424 0 0 0
380 127 1 0.5897 7.228725238902804 6.604672001391412 8.585904321125446 0 0 0
466 156 2 -1.1794 5.687128818337141 8.75569285237567 7.135837317298203 0 0 0
499 167 2 -1.1794 7.901368198302942 8.41956739496548 8.510362344642495 0 0 0
467 156 1 0.5897 5.9181246628635265 8.183000638556818 6.404413071893204 0 0 0
379 127 2 -1.1794 6.9856718655574745 5.6822931303298825 8.666340226342061 0 0 0
166 56 2 -1.1794 8.913246839200406 7.499861469736579 5.0986022313410295 0 0 0
338 113 1 0.5897 5.022561506022564 5.75674240227518 8.429256516705028 0 0 0
500 167 1 0.5897 7.929717420803774 8.8949952341694 9.340716227307107 0 0 0
469 157 2 -1.1794 9.649394155841156 9.491854983773399 6.818647760938439 0 0 0
168 56 1 0.5897 9.262406656071253 8.15187652990472 5.706285853343515 0 0 0
167 56 1 0.5897 9.08963651484652 6.659254730799223 5.521168873072587 0 0 0
137 46 1 0.5897 5.877883565869573 6.1533760116863885 5.042941995756975 0 0 0
62 21 1 0.5897 8.188094786249055 5.075066951097937 7.338576152063099 0 0 0
63 21 1 0.5897 9.698392537289676 5.102015454432553 7.237097932159897 0 0 0
381 127 1 0.5897 7.586771658068019 5.332158316950164 9.323901215739193 0 0 0
387 129 1 0.5897 9.242964230306454 6.115415091774783 13.202677799287867 0 0 0
460 154 2 -1.1794 6.521507992974338 7.548482839008505 11.971750273112969 0 0 0
462 154 1 0.5897 6.243400559340646 7.943154984476465 12.79832605095411 0 0 0
461 154 1 0.5897 5.761185139625775 7.635002376724154 11.396656010465987 0 0 0
794 265 1 0.5897 9.1274528040873 8.594357028906158 13.545204961380344 0 0 0
333 111 1 0.5897 6.148224679438771 5.728866325119157 12.53650146164443 0 0 0
490 164 2 -1.1794 9.28573547479794 7.484475500888161 12.065734437448777 0 0 0
790 264 2 -1.1794 5.5057287724144075 8.9014135213939 14.130516713117185 0 0 0
492 164 1 0.5897 8.366931464114773 7.48239869955622 11.79725856888432 0 0 0
791 264 1 0.5897 5.93265938777705 9.025065400290941 14.978297045754637 0 0 0
385 129 2 -1.1794 9.010905900532522 5.504778763686982 13.9023582646129 0 0 0
793 265 2 -1.1794 9.21602437728094 9.1301949807483 14.33347559116476 0 0 0
491 164 1 0.5897 9.770578055535724 7.666479217210447 11.26067178710296 0 0 0
705 235 1 0.5897 8.166388850454531 5.820681838340343 15.418894394309742 0 0 0
825 275 1 0.5897 8.142520681637167 9.058957283339872 15.662247045599138 0 0 0
815 272 1 0.5897 8.707557382203836 6.344722864044169 19.56688402468441 0 0 0
785 262 1 0.5897 5.612054336174699 6.159739839172613 19.242466865052027 0 0 0
816 272 1 0.5897 8.803282782192055 7.848621384961111 19.42112386586681 0 0 0
784 262 2 -1.1794 5.930152069822389 7.0604825829791915 19.18108624343058 0 0 0
823 275 2 -1.1794 7.340146398217511 8.788283224995885 16.108596571003783 0 0 0
786 262 1 0.5897 6.856080774471196 6.973095960022662 18.954558820839928 0 0 0
814 272 2 -1.1794 8.707611435320723 7.043354194589994 18.912478962115134 0 0 0
144 48 1 0.5897 5.677922964928719 8.363613502167837 20.488651212178166 0 0 -1
824 275 1 0.5897 7.417938758202968 7.837389568579354 16.186524049368156 0 0 0
703 235 2 -1.1794 7.647804830045629 6.012613743813171 16.200272073740788 0 0 0
704 235 1 0.5897 6.749242741913686 5.796412530247671 15.950999313973725 0 0 0
145 49 2 -1.1794 9.390045370211979 9.320373665476243 20.7156165013253 0 0 -1
804 268 1 0.5897 7.507273966921345 9.865633377109642 17.548404281085862 0 0 0
709 237 2 -1.1794 8.882726839841478 5.1240873969252485 20.876150790754114 0 0 0
661 221 2 -1.1794 4.950181514694168 5.849120217953489 15.788480563936304 0 0 0
164 55 1 0.5897 6.727774498833164 12.711237028785337 1.4588929678681932 0 0 0
154 52 2 -1.1794 8.053749679753416 10.724820383950306 3.8307150607239535 0 0 0
819 273 1 0.5897 8.92669857593979 12.32193838360424 0.3929550269595321 0 0 1
165 55 1 0.5897 7.634998725295533 11.848431316409878 2.310104135324121 0 0 0
156 52 1 0.5897 8.977163407711775 10.918315124932937 3.992388134831942 0 0 0
163 55 2 -1.1794 7.647429760670453 12.574669535718472 1.6866214858190605 0 0 0
246 82 1 0.5897 5.237696155575321 14.253764509919 4.076229041631961 0 0 0
285 95 1 0.5897 7.899285134826194 14.814695545037411 1.9598728775635852 0 0 0
116 39 1 0.5897 6.614703818299284 10.96342567953399 4.867090670267077 0 0 0
244 82 2 -1.1794 5.7877236610119525 13.940245317923324 4.79421353925966 0 0 0
275 92 1 0.5897 7.9446941343763005 14.37088603947747 4.710750164528483 0 0 0
245 82 1 0.5897 5.534754241519592 13.024055634833466 4.907928515921314 0 0 0
447 149 1 0.5897 5.829224468079069 12.732865538727134 8.411865152779843 0 0 0