#include		in.partitions
include		in.temp
variable        temperature equal 20.19
variable	tempDamp equal 100.0
include		in.pressure
variable        pressure equal -1081.2
variable        pressureDamp equal 1000.0 # This is 1 ps
include		in.seed
variable        seed equal 745823

units		real
atom_style	full
box tilt large
read_restart	restart.lmp.${pid}
read_restart	restart.lmp.0
Reading restart file ...
  restart file = 30 Jul 2021, LAMMPS = 30 Jul 2021
  restoring atom style full from restart
  triclinic box = (-10.630294 -9.1554060 0.047501631) to (12.610294 12.145404 21.812497) with tilt (-9.1629191 1.9547995 2.8538870)
  4 by 4 by 4 MPI processor grid
  restoring pair style lj/cut/tip4p/long/omp from restart
  restoring bond style harmonic/omp from restart
  restoring angle style harmonic/omp from restart
  1296 atoms
  864 bonds
  432 angles
Finding 1-2 1-3 1-4 neighbors ...
  special bond factors lj:    0        0        0       
  special bond factors coul:  0        0        0       
     2 = max # of 1-2 neighbors
     1 = max # of 1-3 neighbors
     1 = max # of 1-4 neighbors
     2 = max # of special neighbors
  special bonds CPU = 0.007 seconds
  read_restart CPU = 0.015 seconds
include 	in.setup
variable	out_freq equal 1000
variable	out_freq2 equal 10000
variable	out_freq3 equal 1000

timestep	2.0

neigh_modify    delay 7 every 1

include		in.tip4p
# This is TIP4P/Ice

# create groups ###
group ox type 2
432 atoms in group ox
group hy type 1
864 atoms in group hy

# set charges - beside manually ###
set group ox charge -1.1794
Setting atom values ...
  432 settings made for charge
set group hy charge 0.5897
Setting atom values ...
  864 settings made for charge

# ### TIP3P Potential Parameters ###
pair_style lj/cut/tip4p/long/omp 2 1 1 1 0.1577 8.5
pair_coeff 1 1*2 0.000 0.000
pair_coeff 2 2 0.21084 3.1668
bond_style  harmonic
bond_coeff  1 450 0.9572
angle_style harmonic
angle_coeff 1 55 104.52
kspace_style pppm/tip4p/omp 1.0e-5
pair_modify tail yes

thermo          ${out_freq}
thermo          1000
thermo_style    custom step temp pe etotal epair emol press lx ly lz vol pxx pyy pzz pxy pxz pyz enthalpy

restart 	${out_freq3} restart.lmp.${pid} restart2.lmp.${pid}
restart 	1000 restart.lmp.${pid} restart2.lmp.${pid}
restart 	1000 restart.lmp.0 restart2.lmp.${pid}
restart 	1000 restart.lmp.0 restart2.lmp.0


include         in.dump
dump            myDump all atom ${out_freq2} dump.water.${pid}
dump            myDump all atom 10000 dump.water.${pid}
dump            myDump all atom 10000 dump.water.0
dump            myDump2 all dcd ${out_freq2} dump.dcd
dump            myDump2 all dcd 10000 dump.dcd
dump_modify     myDump append yes
dump_modify     myDump2 append yes


variable natoms 	equal  "count(all)"                        # NUMBER ATOMS
variable H      	equal  "enthalpy/v_natoms"                 # ENTHALPY-per-atom
variable Vol      	equal  "vol/v_natoms"                 # volume-per-atom
fix AVG all 		ave/time ${out_freq} 1 ${out_freq} v_Vol v_H file vol_enthalpy.dat
fix AVG all 		ave/time 1000 1 ${out_freq} v_Vol v_H file vol_enthalpy.dat
fix AVG all 		ave/time 1000 1 1000 v_Vol v_H file vol_enthalpy.dat


timer           timeout 10:00:00 every 1000
New timer settings: style=normal  mode=nosync  timeout=10:00:00

fix 		1 all shake 1e-6 200 0 b 1 a 1
       0 = # of size 2 clusters
       0 = # of size 3 clusters
       0 = # of size 4 clusters
     432 = # of frozen angles
  find clusters CPU = 0.001 seconds
fix             2 all nph tri ${pressure} ${pressure} ${pressureDamp}
fix             2 all nph tri -1081.2 ${pressure} ${pressureDamp}
fix             2 all nph tri -1081.2 -1081.2 ${pressureDamp}
fix             2 all nph tri -1081.2 -1081.2 1000
fix             3 all temp/csvr ${temperature} ${temperature} ${tempDamp} ${seed}
fix             3 all temp/csvr 20.19 ${temperature} ${tempDamp} ${seed}
fix             3 all temp/csvr 20.19 20.19 ${tempDamp} ${seed}
fix             3 all temp/csvr 20.19 20.19 100 ${seed}
fix             3 all temp/csvr 20.19 20.19 100 745823


run             250000
PPPM initialization ...
  extracting TIP4P info from pair style
  using 12-bit tables for long-range coulomb (../kspace.cpp:340)
  G vector (1/distance) = 0.36691968
  grid = 30 40 32
  stencil order = 5
  estimated absolute RMS force accuracy = 0.0046351829
  estimated relative force accuracy = 1.3958716e-05
  using double precision FFTW3
  3d grid and FFT values/proc = 5168 640
Last active /omp style is kspace_style pppm/tip4p/omp
Neighbor list info ...
  update every 1 steps, delay 7 steps, check yes
  max neighbors/atom: 2000, page size: 100000
  master list distance cutoff = 10.8154
  ghost atom cutoff = 10.8154
  binsize = 5.4077, bins = 7 5 5
  1 neighbor lists, perpetual/occasional/extra = 1 0 0
  (1) pair lj/cut/tip4p/long/omp, perpetual
      attributes: half, newton on, omp
      pair build: half/bin/newton/tri/omp
      stencil: half/bin/3d/tri
      bin: standard
Per MPI rank memory allocation (min/avg/max) = 9.437 | 9.442 | 9.446 Mbytes
Step Temp PotEng TotEng E_pair E_mol Press Lx Ly Lz Volume Pxx Pyy Pzz Pxy Pxz Pyz Enthalpy 
12750000    21.356771   -6965.9952   -6911.0562   -6965.9952            0   -1041.6157    23.240588     21.30081    21.764996    10774.616    -935.5947   -742.76962   -1446.4827    279.43302   -238.21631    174.03359   -7074.7323 
12751000    20.534178   -6974.6614   -6921.8385   -6974.6614            0   -922.93235    23.263118    21.349287    21.662609    10758.756   -1189.3349   -836.47817   -742.98397    -176.9779    13.539748    28.941214   -7066.6516 
12752000    21.007243   -6975.4876   -6921.4478   -6975.4876            0   -1113.3511    23.236523    21.346583    21.707382    10767.303   -1307.5386    -931.1218   -1101.3929    189.88063   -269.42057    360.78055   -7096.2774 
12753000    20.390157   -6973.9793   -6921.5269   -6973.9793            0   -1037.1332    23.253774    21.307159    21.717977    10760.646    -1173.769   -692.41851    -1245.212    89.603603    -106.2015     126.1552   -7084.2873 
12754000    20.056969    -6976.345   -6924.7497    -6976.345            0   -1142.8034    23.250546    21.385515    21.645684    10762.773   -1384.6085   -1153.1667     -890.635   -72.516444    97.954255   -233.41753   -7104.1287 
12755000    20.694608   -6974.5012   -6921.2656   -6974.5012            0   -1224.3705    23.226358    21.345885    21.740067    10778.446   -1122.3841   -1080.5829   -1470.1445   -69.564176     -75.3233   -103.51248   -7113.7276 
12756000    20.564804   -6971.7443   -6918.8426   -6971.7443            0   -1175.9699    23.220417     21.37305    21.701591    10770.307   -1101.2366   -1107.6962   -1318.9768   -101.61702    92.692999   -59.742482   -7103.5568 
12757000    20.172654   -6973.9486   -6922.0557   -6973.9486            0   -1165.9259    23.198812    21.374199    21.715729    10767.875   -930.52123   -1299.4035   -1267.8531   -414.93111    191.94866   -116.42157   -7105.1509 
12758000     19.93017   -6971.4864   -6920.2173   -6971.4864            0   -1039.7199     23.19973    21.364874     21.72662    10769.001   -880.53304   -1320.0321   -918.59468   -62.536161    173.95976     10.81022   -7083.5103 
12759000    20.944115    -6972.106   -6918.2285    -6972.106            0   -1177.0899    23.206207    21.407132    21.679048    10769.682   -1284.1683   -1301.4449   -945.65639   -153.59624    24.715565   -132.62421   -7103.1079 
12760000    20.201687   -6971.7735   -6919.8059   -6971.7735            0   -1144.1886    23.191763    21.359357    21.752902    10775.542   -953.44593   -999.47182   -1479.6482    101.56548    527.83036   -29.620554   -7099.6154 
12761000    19.990941   -6972.3583   -6920.9329   -6972.3583            0   -923.50245    23.184186    21.356859      21.7374    10763.087   -616.30447   -1011.6347   -1142.5681   -122.89044    382.81457   -57.469938   -7065.8937 
12762000      20.5631   -6970.3214   -6917.4241   -6970.3214            0   -1182.7904    23.198778    21.387121    21.703522    10768.313   -898.38493   -1547.4322    -1102.554   -268.29599   -136.13592   -53.925039   -7103.1752 
12763000    20.635724   -6972.3678   -6919.2837   -6972.3678            0   -984.11563    23.229656    21.338091    21.725649    10768.894   -976.18162   -898.71072   -1077.4545   -371.49678    452.26928   -203.36062   -7073.8423 
12764000    19.927003   -6973.9753   -6922.7143   -6973.9753            0   -1202.6151    23.208997    21.425383     21.66662    10773.979   -1226.1759   -1454.5021   -927.16734    57.025424    72.803933    10.562505   -7111.6781 
12765000    20.028391   -6972.1205   -6920.5987   -6972.1205            0   -1033.7305    23.240965    21.311332    21.736056     10765.78   -1302.9044   -747.49188   -1050.7951    281.46835   -168.99388   -45.611289   -7082.9025 
12766000    19.791148   -6972.1154   -6921.2039   -6972.1154            0   -1070.0854    23.232729    21.325673    21.725423    10763.939   -1113.8393   -925.40961   -1171.0074   -229.68945    324.12428    313.75621    -7089.187 
12767000    21.111655   -6975.1996   -6920.8912   -6975.1996            0   -1024.2269    23.206622    21.417562    21.644277    10757.839     -852.852   -1497.8055   -722.02308   -127.85011   -258.12561   -187.75556   -7081.5842 
12768000    19.581156   -6973.4474   -6923.0761   -6973.4474            0   -1120.0743    23.268908    21.300996    21.734597    10772.773   -1363.7917    -843.8485   -1152.5827    341.99296   -139.54318    30.631089   -7099.0508 
12769000    20.157994   -6973.0785   -6921.2233   -6973.0785            0   -1060.2157    23.247169    21.365176    21.665082     10760.61   -1068.2233   -1172.2684   -940.15555    64.926494   -5.1259996    206.90769   -7087.6055 
12770000    19.687722   -6972.7593   -6922.1138   -6972.7593            0   -1029.3093    23.229317    21.352223    21.698146    10762.228   -1308.2494    -964.6993   -814.97929   -166.17757    99.736393    406.34903   -7083.6701 
12771000    20.217284   -6976.0022   -6923.9945   -6976.0022            0   -1082.5338    23.270221    21.295943    21.724965    10766.052   -1263.8304   -623.40061   -1360.3705   -37.694415   -97.878381    172.80818   -7093.9651 
12772000    20.540583   -6972.5707   -6919.7313   -6972.5707            0   -1074.4267    23.244749    21.399139    21.646291    10767.246   -1105.0691   -1191.3047   -926.90641    -61.46637   -426.44696   -192.10246   -7088.4477 
12773000    19.581023   -6972.6452   -6922.2742   -6972.6452            0   -1103.5765    23.233593    21.339136     21.72128     10769.08   -1185.5846   -957.25923   -1167.8857   -206.87236    326.56156   -18.548543   -7095.5975 
12774000    21.409701   -6970.8433   -6915.7681   -6970.8433            0   -1269.7408    23.248008    21.311158    21.744338    10773.058   -1276.8648   -942.82508   -1589.5326   -113.89855    177.04949    107.31008   -7115.2622 
12775000    20.586758   -6970.1769   -6917.2187   -6970.1769            0   -1073.5087    23.221078    21.359278    21.710244    10767.965   -1001.6212   -1231.0997   -987.80506   -164.77724   -125.53024    132.59643   -7085.8023 
12776000    21.006769   -6971.9638   -6917.9252   -6971.9638            0   -1041.2889    23.228425    21.352023    21.708936    10767.065   -1274.7328    -837.5058   -1011.6282    10.204945    252.75434   -88.807156   -7081.4353 
12777000    20.550343   -6971.9587   -6919.0942   -6971.9587            0   -922.30039    23.226304    21.365627    21.689349    10763.221   -984.67357   -827.10091   -955.12671    250.62062   -240.12054   -116.47306   -7063.8681 
12778000    19.566354    -6974.287   -6923.9537    -6974.287            0   -1039.5095    23.190799    21.372424    21.719669    10765.215   -1041.7646   -1092.2984   -984.46555    247.25349    274.08204   -146.95198   -7087.1563 
12779000    20.337441   -6975.4844   -6923.1676   -6975.4844            0   -1189.9525    23.168859    21.377109    21.743184    10769.034   -1004.6583   -1270.8118   -1294.3875    253.28716     381.5702    170.57324    -7110.056 
12780000    21.363438   -6973.0694   -6918.1133   -6973.0694            0   -990.68654    23.216172    21.357754    21.706812    10763.221   -1136.9518   -1177.3024   -657.80549    322.07859   -144.63742    98.706261   -7073.6219 
12781000    20.875989   -6972.0631   -6918.3608   -6972.0631            0   -1305.6097    23.176906     21.42104    21.716134    10781.484   -1058.0442   -1358.5266   -1500.2584    185.63985    176.03563   -317.18313   -7123.6508 
12782000    21.127191   -6973.3625   -6919.0141   -6973.3625            0   -1115.1571    23.189189    21.404176    21.696647    10769.032   -926.16106   -1114.0573    -1305.253    69.707892    173.04242   -393.93112   -7094.1554 
12783000    20.476588   -6974.0207    -6921.346   -6974.0207            0   -947.83596    23.212455    21.345599    21.730997    10767.356   -1109.0246    -734.6884   -999.79484    43.962594    285.43855   -237.16442   -7070.1854 
12784000    19.989891   -6973.7825   -6922.3597   -6973.7825            0   -1116.2798    23.176155    21.393735    21.718941    10768.783   -847.86092   -1326.8835    -1174.095    30.950436    247.59679    51.482016   -7097.6733 
12785000    20.126622   -6974.6975    -6922.923   -6974.6975            0   -1345.8037    23.203931    21.394359    21.697912    10771.564    -1368.258   -1425.5809   -1243.5723    447.06647    175.32247   -7.7158898   -7134.3383 
12786000      19.5296   -6972.8768   -6922.6381   -6972.8768            0   -1104.3781    23.207501    21.371653    21.720667    10773.074   -1141.9575   -991.56246   -1179.6144   -27.888359    160.84725    -173.5078   -7096.1516 
12787000    20.922218   -6973.8901   -6920.0689   -6973.8901            0   -1298.9996    23.231307    21.394396    21.683331    10777.045   -1587.0466   -1245.8674   -1064.0847    271.30834    157.52532   -33.316862   -7124.2355 
12788000    19.923026   -6972.3057   -6921.0549   -6972.3057            0   -871.54673    23.192256    21.368741    21.711357    10759.916   -851.13425   -764.98621   -998.51973   -79.038328    100.10684   -192.07186   -7057.8201 
12789000    20.492905   -6973.4523   -6920.7355   -6973.4523            0   -1155.3121    23.195114    21.353761    21.751667    10773.664    -826.0139   -1103.1257   -1536.7966    7.3413041    -54.32735   -112.76404   -7102.2615 
12790000    20.176436   -6974.4232   -6922.5205   -6974.4232            0   -1064.7288    23.247609    21.344913    21.690398     10763.17   -1187.6392   -1065.4081   -941.13921    36.322075    195.71495   -106.36592   -7089.6508 
12791000    18.879381   -6971.7799   -6923.2138   -6971.7799            0   -956.51562    23.178351     21.38413    21.713121    10762.084   -894.48429   -822.31763   -1152.7449    153.31416    26.521919   -12.058432   -7073.3427 
12792000    19.781116    -6972.445   -6921.5593    -6972.445            0   -1258.8109    23.243208    21.367441    21.690075     10772.33   -1282.7502   -1316.7187   -1176.9639    16.474294   -59.822189    217.19773   -7119.3228 
12793000    20.794731   -6973.5815   -6920.0883   -6973.5815            0   -1047.6413    23.233938    21.330155    21.721614    10764.873   -1312.1783   -883.85486   -946.89085    251.59206   -130.46714    123.49915   -7084.5624 
12794000    20.235393   -6971.7335   -6919.6792   -6971.7335            0   -1136.1446    23.224731    21.352008    21.712787    10767.255   -1183.4778    -971.2248    -1253.731    203.95583   -233.26337    168.18152   -7098.0873 
12795000     18.97047   -6974.9015   -6926.1011   -6974.9015            0   -1007.6891    23.234225    21.350782    21.686657    10758.075   -1094.2812   -873.96475   -1054.8214    163.55896   -378.40294   -45.498387    -7084.203 
12796000    20.807917   -6973.0641    -6919.537   -6973.0641            0   -1053.5387    23.298231    21.260692    21.740816     10769.02     -1075.23   -693.56075   -1391.8254    -17.19182   -569.05344     224.0723   -7085.0006 
12797000    20.593062   -6975.9351   -6922.9607   -6975.9351            0   -940.12636    23.262321    21.352276    21.659803      10758.5   -1124.6418    -974.3408    -721.3965   -276.00419   -109.62042    12.828495   -7070.4681 
12798000    20.380742    -6971.361   -6918.9327    -6971.361            0   -976.90971    23.226472    21.346627    21.704482    10761.231   -938.47188   -1005.8147   -986.44258    8.7216651   -290.90849    338.95111   -7072.2504 
12799000    20.064716   -6971.0869   -6919.4716   -6971.0869            0    -1211.877    23.282815    21.318765    21.698754    10770.412   -1591.2712   -1004.9557   -1039.4042   -268.84669   -89.713483    291.46478   -7109.8277 
12800000    20.592885   -6973.6071   -6920.6331   -6973.6071            0   -1056.2726    23.270883    21.341061    21.669329    10761.538   -979.27418   -1212.5142    -977.0295   -230.67479   -335.90524    335.88034   -7086.4109 
12801000     21.20986   -6973.4258   -6918.8648   -6973.4258            0   -1159.3595     23.25507    21.339466    21.705404    10771.324   -1140.1538   -1490.7226   -847.20202    164.17864   -324.25507    532.28347    -7100.987 
12802000    19.874584   -6974.4745   -6923.3483   -6974.4745            0   -1290.2599    23.277227    21.331722    21.693323    10771.675   -1565.7418   -964.48023   -1340.5576   -399.94315   -138.75277    132.29805   -7126.0402 
12803000    19.435017   -6972.0186   -6922.0232   -6972.0186            0    -924.4937    23.263697    21.279415     21.73796    10761.114   -1076.0563   -590.50981    -1106.915    -213.1116   -15.491369    150.07169   -7067.1131 
12804000    21.286277   -6974.6301   -6919.8724   -6974.6301            0   -1127.5768    23.243926    21.343375    21.703625    10767.252   -1318.4969   -930.30752   -1133.9259   -335.57577    168.64527    151.94905    -7096.935 
12805000    21.163885   -6974.2131   -6919.7703   -6974.2131            0   -1124.6397    23.241776    21.370157    21.684617    10770.324   -1248.2381   -1216.2831   -909.39792   -121.81056   -68.387497    87.281496   -7096.4221 
12806000     20.60116   -6970.6624   -6917.6672   -6970.6624            0   -937.66972    23.251015    21.323076    21.716485    10766.668   -1067.3051   -807.77924   -937.92478   -370.32407    -104.9089   -99.787924   -7064.9008 
12807000    20.330312   -6973.0265    -6920.728   -6973.0265            0    -1108.679     23.20461    21.369337    21.704935    10762.764   -1088.3192   -1240.6666   -997.05126   -56.040742    153.28325   -92.396445   -7094.7506 
12808000    19.463739   -6972.0126   -6921.9433   -6972.0126            0   -945.62397    23.211024    21.319229    21.748866    10762.233   -1127.0267   -751.71608   -958.12919    161.24274    442.61992   -107.60634   -7070.3648 
12809000    20.445295   -6973.5488   -6920.9545   -6973.5488            0   -944.59905    23.175317    21.396172    21.704796    10762.607   -562.00202   -1084.6789   -1187.1163   -383.10521    234.81133   -346.55004   -7069.2203 
12810000     19.83114   -6974.7965   -6923.7821   -6974.7965            0   -871.35888    23.222551    21.379502    21.671276    10759.498   -953.40395   -1092.4006   -568.27209    71.089569    85.685016   -363.90313   -7060.5124 
12811000    20.449275   -6973.7824   -6921.1779   -6973.7824            0   -997.41622    23.161154    21.362986    21.756238      10764.8    -777.9263   -743.74181   -1470.5805    127.09467   -41.667245   -141.41405   -7077.7658 
12812000    20.650818   -6972.4864   -6919.3634   -6972.4864            0   -789.97279    23.138801    21.429369    21.673221    10746.665   -477.46417   -1026.4347   -866.01954   -85.522289    408.26099    35.538722   -7043.1751 
12813000    21.486075   -6972.3531   -6917.0815   -6972.3531            0   -1220.4365     23.21256    21.373981    21.723351    10777.928   -1067.8454   -1326.0843   -1267.3799   -121.38435    47.924738   -292.77816   -7108.9159 
12814000    19.886943   -6972.6041   -6921.4461   -6972.6041            0   -1233.3083    23.195474    21.380089    21.741702    10782.173   -1130.0318   -1228.6273   -1341.2658   -57.446821    36.762405   -175.79958   -7115.3801 
12815000    19.305957   -6974.4053   -6924.7419   -6974.4053            0   -931.85062    23.210939    21.389997    21.672384    10759.947   -1133.5224   -976.88513   -685.14432   -125.70608    375.55512   -28.772252   -7070.9705 
12816000    20.995048   -6972.0943   -6918.0858   -6972.0943            0   -1203.9918    23.184108    21.355306    21.765314    10776.088   -820.94878   -1404.5213   -1386.5052   -178.55391   -20.499943   -124.43933    -7107.303 
12817000    19.389054   -6974.7434   -6924.8663   -6974.7434            0   -1001.9497    23.230975    21.384665    21.659129    10759.966   -1028.7778    -1521.664   -455.40727    216.08298    57.469947    102.52222   -7082.0953 
12818000    20.084004   -6975.0085   -6923.3436   -6975.0085            0   -1271.2247    23.237901    21.372736    21.695819    10775.392   -1459.2915   -1016.9052   -1337.4772    162.42842    168.32013    14.863731    -7123.114 
12819000    18.892488   -6973.5679   -6924.9681   -6973.5679            0   -1141.5527    23.239869    21.325591    21.739463    10774.164   -1329.4722   -678.66659   -1416.5195   -103.12707    59.560665   -83.995229   -7104.3404 
12820000    19.387688   -6972.4471   -6922.5734   -6972.4471            0   -941.58638    23.235282    21.342956    21.687024    10754.803   -881.61852   -943.41346   -999.72715    48.672766   -210.77384   -64.870675   -7070.2592 
12821000     20.19606   -6972.6004   -6920.6473   -6972.6004            0   -1121.5984    23.246197    21.313826    21.741667    10772.243   -1125.1427   -1166.3287   -1073.3238    216.86983    -400.9256    225.82536   -7096.8528 
12822000    20.753762   -6970.5088   -6917.1211   -6970.5088            0   -1094.8416    23.293634    21.333851    21.658123    10762.851   -1166.1935   -856.09541   -1262.2359   -345.37995   -380.69462   -195.22918    -7088.973 
12823000    19.585079   -6973.5155   -6923.1341   -6973.5155            0   -965.34966    23.245104    21.351143    21.676379    10758.194    -1100.756   -1073.4058   -721.88717   -83.890938    20.050266    480.55468   -7074.5947 
12824000    20.184554   -6973.0612   -6921.1377   -6973.0612            0   -1140.0292    23.272582    21.302536    21.727143    10771.557   -1466.5702   -1035.6163   -917.90117    180.65453   -572.65183    220.08659   -7100.2273 
12825000    20.411859   -6973.5966   -6921.0883   -6973.5966            0   -1256.3447     23.24146    21.354158    21.701924    10770.704   -1122.4166   -1319.6018   -1327.0157    13.693641    307.96812    314.53598   -7118.4345 
12826000    19.824043   -6972.7814   -6921.7853   -6972.7814            0    -1259.272    23.217214     21.36014    21.723945    10773.403   -1037.7169   -958.67003   -1781.4291    88.580651   -450.22802   -329.94522   -7119.6409 
12827000    19.896891   -6973.7932   -6922.6096   -6973.7932            0   -1279.4482    23.278619    21.327446    21.708075    10777.484   -1497.4656   -953.20508    -1387.674    126.16105    59.564743    -474.0838   -7123.7114 
12828000     20.97479   -6971.7343   -6917.7779   -6971.7343            0   -1249.3343    23.173655    21.391097    21.731115    10772.329   -780.87517   -1484.8745   -1482.2531    127.55547   -55.848808    223.94379   -7114.0525 
12829000    19.775355   -6973.5028   -6922.6319   -6973.5028            0   -1305.9855    23.231888    21.339064    21.731972    10773.555   -1175.7861   -1292.6084   -1449.5619   -373.19658    49.087153    -59.99531     -7127.83 
12830000    20.566454   -6971.3801   -6918.4741   -6971.3801            0   -1317.8731    23.219946    21.357033    21.737536    10779.843   -969.35203   -1492.1889   -1492.0784   -237.44892   -107.72765    170.71382   -7125.6609 
12831000    20.314599   -6974.5518   -6922.2937   -6974.5518            0   -1121.3163    23.222292    21.395889    21.666989    10765.495   -1284.7785   -1306.1896   -772.98087    469.05917    75.412277    89.742218   -7098.3445 
12832000    20.136909   -6974.0501   -6922.2491   -6974.0501            0   -1050.9884    23.242295    21.341552    21.712592    10770.025   -1084.2883    -743.6477   -1325.0292   -26.707923   -21.301951   -292.51644   -7087.3276 
12833000    20.481044   -6974.5924   -6921.9061   -6974.5924            0   -954.30682    23.195818    21.371972    21.700252     10757.69   -751.05604   -1363.9588   -747.90559   -31.534043   -311.07399    11.014649   -7071.6272 
12834000    21.169396   -6971.4449   -6916.9879   -6971.4449            0   -1033.1403     23.23242    21.347218    21.701678    10762.894   -1253.4637    -885.3435   -960.61374    49.040869    300.12534    235.42354   -7079.1556 
12835000    19.360066   -6971.7657   -6921.9631   -6971.7657            0   -1134.9825    23.250388    21.336921    21.707374    10768.848   -1153.6265   -964.93994   -1286.3812    50.163489   -339.11935   -8.8987186   -7100.2151 
12836000    20.239221   -6974.4311   -6922.3669   -6974.4311            0    -995.3797    23.248872    21.348211    21.679616    10760.066   -1327.9946   -814.28798   -843.85653   -79.266814    176.29656     72.27531   -7078.5664 
12837000    19.720993    -6974.062    -6923.331    -6974.062            0   -1033.6445    23.241092    21.338512    21.703366    10763.358   -1099.9489    -869.3582   -1131.6263   -288.81695   -168.43112    8.3483131   -7085.5848 
12838000     19.84138   -6971.7155   -6920.6748   -6971.7155            0   -978.18127    23.319229    21.304831    21.662248     10762.07   -1132.3286   -1144.5266   -657.68868   -312.15181   -201.73272      263.679    -7074.204 
12839000    19.447406   -6974.3957   -6924.3684   -6974.3957            0   -1115.6321    23.253197    21.306635    21.734828    10768.464   -1137.7483   -821.50724   -1387.6407    -260.7656   -151.13101    261.37777   -7099.5751 
12840000    19.865173   -6973.0088   -6921.9069   -6973.0088            0   -1035.9672    23.229646    21.363711    21.682364    10760.338   -1084.3028   -964.87631   -1058.7223   -297.43778   -145.74481    77.847591   -7084.4797 
12841000    20.018336   -6974.8493   -6923.3534   -6974.8493            0   -1002.2841    23.279171    21.333342    21.667753    10760.695   -1406.7063   -840.32232   -759.82358   -110.36591    -13.68007   -75.957923   -7080.6455 
12842000     20.31065     -6973.43   -6921.1821     -6973.43            0    -1118.517    23.221523    21.345005    21.729512    10770.526   -1073.0492   -1159.4746   -1123.0273     321.2833    -313.1227    136.83607   -7096.8755 
12843000    19.590941   -6971.4024   -6921.0059   -6971.4024            0   -1311.8916    23.250318    21.386241    21.662086    10771.189   -1652.2693    -1160.912   -1122.4934    146.65056    61.201585    97.465368   -7127.0866 
12844000    20.414016    -6972.221   -6919.7072    -6972.221            0   -1086.7275    23.198279    21.337602    21.761127    10771.663   -559.88113   -1345.3965   -1354.9048   -307.79496   -56.520286    148.15738   -7090.4252 
12845000    19.640226   -6975.1933     -6924.67   -6975.1933            0   -912.12592    23.247308    21.341212    21.678388    10755.206     -1153.31   -852.53904   -730.52876    -140.1821    284.66321    -19.91666   -7067.7403 
12846000    20.809097    -6972.366   -6918.8358    -6972.366            0   -1186.2811    23.168975    21.416457    21.706112    10770.515   -882.36479   -1413.9566   -1262.5221    243.51787    -79.42825    -175.5273   -7105.1732 
12847000    19.904813    -6972.348   -6921.1441    -6972.348            0   -879.38257    23.225163    21.334196    21.728813    10766.414   -1253.2832   -569.97479   -814.88971   -17.579749    564.69075   -154.59919   -7059.2222 
12848000    20.150231   -6976.3897   -6924.5544   -6976.3897            0   -870.61688    23.188686    21.387122    21.690474    10757.158   -820.46757   -1107.0368   -684.34625   -154.33331     315.4228   -141.21357   -7061.1386 
12849000    20.540821   -6973.5411   -6920.7011   -6973.5411            0   -1165.4932     23.15884    21.416545    21.714337    10769.928   -880.73588   -1478.9313   -1136.8126   -63.524419    348.08084   -10.142955   -7103.7632 
12850000    20.226422   -6975.6825   -6923.6512   -6975.6825            0    -1054.372      23.2159    21.374417    21.689852    10763.076   -989.89489   -1230.4598   -942.76116   -249.59499    137.84918    -69.64911   -7089.1543 
12851000    19.834414   -6974.8102   -6923.7874   -6974.8102            0   -1135.9688    23.181296    21.372875    21.735386    10768.818   -1004.5806   -1091.1961   -1312.1297    64.474887    140.32922    -334.3665   -7102.1938 
12852000    20.681347   -6974.6588   -6921.4573   -6974.6588            0   -1080.7873    23.174597    21.375776    21.737144    10768.037   -1153.0773   -866.97319   -1222.3113   -173.92972    492.71466   -334.53854    -7091.185 
12853000    20.772312   -6971.5452   -6918.1096   -6971.5452            0   -1192.9399    23.211567    21.379964    21.708463    10773.096   -975.16625   -1221.7831   -1381.8703   -515.24134    329.90844   -131.56875   -7105.5379 
12854000    20.862215   -6974.1354   -6920.4686   -6974.1354            0   -1100.7084    23.221701     21.36126    21.713445    10770.841   -931.95805   -1374.4027   -995.76436   -155.69457    169.45543   -199.03312   -7093.3697 
12855000    19.926438    -6971.686   -6920.4265    -6971.686            0   -966.86687    23.163401    21.403681    21.714273    10765.547    -718.0762   -1063.3797   -1119.1447   -308.20556    40.691865   -355.11227   -7072.2289 
12856000    19.683896   -6974.0918   -6923.4562   -6974.0918            0   -1056.7779    23.217004    21.355245    21.709464    10763.657   -934.02396   -1011.3831   -1224.9265    82.159479    106.52956   -149.44319   -7089.3459 
12857000    20.096333   -6974.4645   -6922.7679   -6974.4645            0   -948.74753    23.238315    21.319265    21.726358    10763.755   -840.06305   -932.33653    -1073.843   -177.21713   -14.211641    90.183769   -7071.7007 
12858000     21.32919   -6977.3088   -6922.4407   -6977.3088            0   -938.43385    23.230238    21.382964    21.658359    10758.385   -1155.3044   -1034.5692   -625.42789   -205.66436   -1.5162841    131.32526    -7069.681 
12859000     19.41741   -6973.3935   -6923.4434   -6973.3935            0   -1103.3988    23.249811    21.338904    21.702612    10767.219    -1219.453   -1049.7673   -1040.9762     10.62181   -162.30302    405.45082   -7096.7088 
12860000     19.90316   -6974.1636   -6922.9639   -6974.1636            0   -1180.1466    23.264265    21.342344    21.684591    10766.702   -1295.3322   -1278.5779   -966.52971   -138.17329   -22.588563    108.22833   -7108.2721 
12861000    20.433565   -6973.3563   -6920.7922   -6973.3563            0   -1195.2455    23.234546    21.326109    21.737103    10770.788   -1083.6737   -1101.9301   -1400.1328   -215.05143   -354.03453    287.95623   -7108.5424 
12862000     19.75149   -6972.4439   -6921.6344   -6972.4439            0   -1092.1568    23.301938    21.280122    21.720379    10770.443   -1434.1965   -818.63196   -1023.6418   -85.708634   -167.27913    179.72978   -7093.1859 
12863000    19.847888   -6972.0709   -6921.0134   -6972.0709            0   -1091.4077    23.236859    21.349499     21.68527     10757.96   -1090.5071   -932.55809   -1251.1578   -174.56235   -170.07768    296.02547   -7092.2485 
12864000    20.305863   -6973.0211   -6920.7855   -6973.0211            0   -1015.9514    23.239123    21.338439    21.700507    10760.991    -1077.839   -1046.8808   -923.13433    -181.3879   -223.70314    216.10254   -7080.2269 
12865000    19.615773   -6971.1257   -6920.6654   -6971.1257            0   -1273.0771    23.283994    21.356821    21.668011    10774.898   -1223.7076   -1452.1851   -1143.3386   -264.93758   -294.78914    -23.94155   -7120.7178 
12866000    19.240405   -6974.2485   -6924.7537   -6974.2485            0   -1170.3093     23.24423    21.357633     21.69144    10768.536   -1290.7389   -1263.2138   -956.97503    189.73514   -37.717782    231.16665   -7108.5485 
12867000    18.855584   -6975.3579    -6926.853   -6975.3579            0   -1042.0197    23.213083     21.36154    21.696515     10758.59   -875.02702   -1272.6687   -978.36333     5.978693   -140.24288    97.847255    -7090.349 
12868000    19.743099   -6973.8408   -6923.0529   -6973.8408            0   -1170.4788    23.203178    21.353968      21.7303    10766.927   -1046.0613   -1189.1047   -1276.2705    -38.70895   -180.24389   -25.373217   -7106.8469 
12869000    19.946545   -6973.6169   -6922.3056   -6973.6169            0   -1113.2763    23.217653    21.364524    21.704155    10766.001   -1166.1651    -1114.975   -1058.6888    50.511969    48.477329    -248.9938   -7097.1023 
12870000    19.902604   -6973.1831   -6921.9849   -6973.1831            0   -1133.1253    23.200739    21.394478    21.709116    10775.704   -1028.8385   -1471.3256   -899.21182    137.90411    126.67894   -46.548633   -7100.0585 
12871000    20.106691    -6973.147   -6921.4238    -6973.147            0   -1146.1656    23.209923    21.391964    21.693076    10770.739   -1173.1035   -1383.7049    -881.6885    46.201771    253.03274   -209.84524   -7101.4637 
12872000     20.57217    -6970.554   -6917.6333    -6970.554            0   -1268.7979    23.178226    21.362898    21.756617    10772.878   -1083.1338     -1046.08   -1677.1798    24.665738    155.18935   -40.418128   -7116.9759 
12873000    19.868226   -6973.2285   -6922.1187   -6973.2285            0   -1119.0586     23.17285    21.403619    21.695617    10760.654   -801.33048   -1473.4142   -1082.4312    141.03551    361.37068   -147.11148    -7097.736 
12874000     20.07285   -6971.9838   -6920.3476   -6971.9838            0   -1083.4072    23.198561    21.381634    21.714068     10770.68   -1013.4865   -943.76057   -1292.9747    203.26423   -3.0392593   -405.18363   -7090.5285 
12875000    21.041442   -6973.9741   -6919.8462   -6973.9741            0   -1056.3331    23.172747    21.419433    21.690427     10765.98   -809.11786    -1490.709   -869.17259   -56.622418    447.31989   -122.88108   -7085.7019 
12876000    20.568202   -6974.8076   -6921.8972   -6974.8076            0   -1104.0262    23.193541    21.384412    21.707115      10766.3   -1188.9898   -1197.6826   -925.40623   -66.148174     217.0193    81.132569   -7095.2463 
12877000    20.280257   -6973.8143   -6921.6446   -6973.8143            0   -887.91742    23.179809    21.353976    21.735046    10758.437   -648.32991    -1001.884   -1013.5383   -134.61278    39.631557   -73.409781   -7060.9595 
12878000     20.22847   -6973.9876   -6921.9511   -6973.9876            0   -966.60252    23.245167    21.327566    21.699248    10757.681   -1234.1082   -756.72442   -908.97496    229.48669    77.309336    -249.2573   -7073.6011 
12879000     20.90484   -6972.2359   -6918.4595   -6972.2359            0   -1152.2277    23.171937    21.396421    21.729467    10773.394   -871.95075   -1113.1679   -1471.5645   -346.88025    137.46622   -165.50964   -7099.4962 
12880000    19.957575    -6976.624   -6925.2843    -6976.624            0   -1127.0891    23.263624    21.341014    21.684663     10765.77   -1257.9536    -1233.359   -889.95478    162.05237    47.922492    221.01605    -7102.246 
12881000    19.407045   -6973.9503   -6924.0269   -6973.9503            0   -1139.1872    23.243829    21.332377    21.711521    10765.574   -1190.5007   -1245.5955   -981.46547   -58.867117   -33.957971    218.43224   -7102.8848 
12882000    20.545187   -6972.4023    -6919.551   -6972.4023            0   -1111.2417    23.187947     21.38962    21.706443    10765.992   -687.00891   -1322.2058   -1324.5105   -98.883034   -483.79138    75.420297   -7094.0281 
12883000    20.492394   -6972.7145    -6919.999   -6972.7145            0   -1127.9189    23.284024    21.315873    21.695546    10767.918   -1489.3899   -851.81719   -1042.5497   -77.133883    146.33093   -22.501444   -7097.1263 
12884000    19.898192   -6974.6888   -6923.5019   -6974.6888            0   -1006.0303    23.264072    21.305312    21.716659    10763.825    -1243.097   -774.56758   -1000.4264    23.911878   -109.40082    73.603586   -7081.4279 
12885000    19.770823   -6975.0261   -6924.1669   -6975.0261            0   -1218.0833     23.24988    21.337824    21.699704    10765.263   -1431.4457    -1264.447   -958.35722   -154.21464   -88.766984    195.97317   -7115.4064 
12886000    20.275178   -6971.6773   -6919.5206   -6971.6773            0   -1088.2906    23.258675    21.314355    21.707106     10761.16   -1072.7389   -841.24922   -1350.8837   -266.46182   -274.24119    43.783836   -7090.3175 
12887000    19.764867   -6972.9802   -6922.1363   -6972.9802            0   -1063.8912     23.28676    21.331676    21.668682    10763.823    -1346.917   -956.51013    -888.2466   -594.69804    -121.6326    175.40814   -7089.1452 
12888000    19.996754   -6974.9205     -6923.48   -6974.9205            0   -948.79098     23.25152    21.342003    21.689175    10762.906   -1186.4372   -882.13974   -777.79597    26.634979   -274.34622    246.41362   -7072.4079 
12889000    19.846224   -6973.2666   -6922.2134   -6973.2666            0   -1002.5972    23.273334    21.316118    21.678518     10754.65   -938.34884   -1061.7819   -1007.6608   -137.36885   -339.01271    202.08059   -7079.4663 
12890000    20.720081   -6975.9103   -6922.6091   -6975.9103            0   -1161.2332     23.24002     21.32619    21.723383    10766.566   -1291.6099   -858.24085   -1333.8488    85.249176   -284.50561     164.7583   -7104.9452 
12891000    20.236591   -6975.2828   -6923.2254   -6975.2828            0   -1155.1135    23.224072     21.34311    21.733297    10772.628   -1000.7127   -1035.3687   -1429.2591    107.91036   -89.564299    144.29467   -7104.7027 
12892000    20.548389   -6974.0313   -6921.1718   -6974.0313            0   -1163.4527    23.244428     21.38343    21.658489    10765.257   -1268.0709   -1365.7772   -856.50996   -50.139408    14.673141   -175.25926   -7103.8342 
12893000    19.862558   -6972.5086   -6921.4134   -6972.5086            0   -1071.5137    23.218927    21.344378    21.722496    10765.529   -986.96376   -1115.3238   -1112.2535   -161.40977   -10.389553   -125.23419   -7089.6455 
12894000    19.882331    -6973.326   -6922.1799    -6973.326            0    -1221.921    23.215475    21.363646    21.709268    10767.085   -1626.7014   -1083.0106   -956.05103    78.302351    557.35159    132.13599   -7114.0544 
12895000    20.438767   -6970.9217   -6918.3442   -6970.9217            0   -990.06973    23.185673    21.381751    21.708549    10762.019   -918.49174   -1065.0539   -986.66349   -206.50124    284.97967   -283.46048   -7073.7386 
12896000    19.939853   -6973.5575   -6922.2634   -6973.5575            0   -1197.7989    23.184004    21.388916    21.729695    10775.337   -930.65489   -1428.3023   -1234.4396    -26.49449    301.19671   -343.11799   -7110.4942 
12897000    19.889164   -6974.4837     -6923.32   -6974.4837            0   -1044.7455    23.193487    21.391437    21.701044      10766.8   -977.46524   -1217.5858   -939.18552   -85.408412    304.56821   -189.58081   -7087.3688 
12898000    19.593979    -6974.131   -6923.7267    -6974.131            0   -1013.4456    23.165104    21.394158    21.714888    10761.852   -819.35596   -1116.6443   -1104.3364     243.4315     310.3248   -245.30316   -7082.7876 
12899000    21.441989   -6974.1607   -6919.0025   -6974.1607            0   -1118.2208    23.167531    21.380883    21.731894    10764.726   -631.06228   -1198.4494   -1525.1508    320.01485   -104.27666   -268.30205   -7094.5548 
12900000    20.421483   -6974.9687   -6922.4357   -6974.9687            0   -1086.1001    23.178319    21.375417     21.72943    10765.764   -667.22774   -1216.4306   -1374.6419    29.491141    48.744903   -351.73578   -7092.9617 
12901000    20.303557   -6971.2979   -6919.0683   -6971.2979            0   -1187.1877    23.196706    21.405919    21.696376    10773.266   -1113.5662   -1403.9337   -1044.0633    47.757931    129.65341   -41.860334   -7105.5957 
12902000    19.570956   -6974.3696   -6924.0246   -6974.3696            0   -1046.7086    23.195314    21.368606    21.720936    10766.015   -1264.6646   -811.98469   -1063.4764    279.78064    25.732057    -191.0856   -7088.3696 
12903000    19.940242   -6970.0105   -6918.7154   -6970.0105            0   -1039.0648    23.194014     21.35975    21.725534    10763.228   -1025.1276   -1015.9445   -1076.1225   -93.032575    44.056042    142.01557   -7081.8181 
12904000    20.039518   -6972.2597   -6920.7092   -6972.2597            0    -957.4408    23.178038    21.364713    21.724049    10757.579   -622.47167   -1150.5704   -1099.2803   -178.01549    46.532278   -106.56509   -7070.9204 
12905000    19.243521   -6973.5551   -6924.0524   -6973.5551            0   -945.25068    23.228619    21.349017    21.698599    10760.513   -1054.9081   -754.16618   -1026.6778   -250.82265    221.79552   -202.94605   -7072.3915 
12906000    19.243807   -6975.4534   -6925.9498   -6975.4534            0   -1008.8446    23.253546     21.33832     21.69775    10766.242   -873.97132   -1050.5147   -1102.0477   -95.686542   -320.27189    64.479532   -7084.3532 
12907000    19.730787   -6973.8315   -6923.0752   -6973.8315            0   -961.21453    23.267719    21.322893    21.698303     10765.29   -1223.2208   -901.13975   -759.28306   -320.88135   -113.39514    210.94666   -7073.9866 
12908000    20.203954    -6975.512   -6923.5386    -6975.512            0   -1030.3843    23.212753     21.34887    21.697473    10752.531   -747.57824   -1119.5566   -1224.0182   -276.67726    -248.1139    607.68689   -7085.1179 
12909000    20.326797   -6973.2873   -6920.9979   -6973.2873            0   -1046.8988    23.292884    21.285724    21.702246    10760.102   -1770.5518   -579.83093   -790.31372   -17.569276   -179.39783     65.81748   -7085.2825 
12910000    20.077578   -6974.1248   -6922.4764   -6974.1248            0   -1109.8189    23.228777    21.379588    21.683694    10768.592   -1075.0611    -1101.295   -1153.1006   -349.55986   -106.14702    12.045954   -7096.7722 
12911000    19.477993   -6974.7072   -6924.6013   -6974.7072            0   -1020.5235     23.25317    21.343607    21.688727    10764.256   -955.57971   -1071.1026   -1034.8882   -376.83746   -110.81613   -163.34369   -7084.8088 
12912000    20.047624   -6973.4716   -6921.9003   -6973.4716            0   -899.07776    23.249841    21.316314    21.706315    10757.669   -1097.3743   -757.83778   -842.02119   -67.825503    -102.9633      258.765   -7062.9562 
12913000    19.677349   -6972.0589   -6921.4401   -6972.0589            0   -1047.9484    23.215719    21.352447    21.710731    10762.279   -1126.3736   -744.03705   -1273.4344   -237.23056   -57.967385    127.84982   -7085.9227 
12914000    20.424346   -6975.9056   -6923.3652   -6975.9056            0   -1090.3629    23.229674    21.328389    21.730687    10766.502   -1085.9989   -823.82355   -1361.2662   -157.76997   -161.22095   -193.57042   -7094.5722 
12915000    20.183548   -6973.2264   -6921.3055   -6973.2264            0   -943.80898    23.203982    21.400778    21.675308    10763.595   -841.89004   -1089.5004    -900.0365   -191.30085    230.80106    198.89251   -7069.4608 
12916000    20.102493   -6970.6787   -6918.9663   -6970.6787            0   -872.30899    23.229006    21.352074    21.703115    10764.472   -914.57708   -854.52562   -847.82427   -82.446511   -89.586104   -392.64543    -7055.909 
12917000    21.190849   -6976.5382    -6922.026   -6976.5382            0   -1087.0989    23.173038    21.362957     21.74468    10764.587   -1037.9299    -1066.522   -1156.8448   -13.354962     112.8263   -152.61472   -7092.6901 
12918000    20.546643   -6971.9172   -6919.0622   -6971.9172            0   -1023.9637      23.2005    21.374826    21.689329    10755.882   -814.64437   -1261.9111   -995.33568   -290.65799    397.64518   -138.54786   -7079.6848 
12919000    20.339196   -6969.7598   -6917.4385   -6969.7598            0   -1056.5349    23.184409    21.375688    21.731708    10769.859   -794.89962   -1135.7289   -1238.9762    -54.40919     386.5627   -299.32773   -7083.3856 
12920000    20.460042   -6974.9869   -6922.3547   -6974.9869            0   -1233.2475    23.218483    21.384388     21.70001    10774.338   -1089.0813   -1301.4834   -1309.1779    188.75467     274.6136   -210.60679   -7116.1381 
12921000    20.042906   -6972.6292     -6921.07   -6972.6292            0   -1347.7375    23.222452    21.390874    21.708767    10783.799   -1506.8606   -1310.4246   -1225.9272   -18.203634    307.74709   -386.80492   -7133.0295 
12922000    20.331818   -6973.2448   -6920.9425   -6973.2448            0   -1267.3063    23.174097    21.393668    21.727678    10772.125   -1042.9782   -1422.5912   -1336.3495   -43.282903    20.955636   -100.70987   -7120.0368 
12923000     20.28368   -6975.0374   -6922.8589   -6975.0374            0   -1094.4576      23.2122    21.353488    21.712789    10762.192   -766.19232   -1311.9284   -1205.2521   -33.274746   -196.45706    26.229151   -7094.6401 
12924000    19.681939   -6974.5412   -6923.9106   -6974.5412            0   -993.75448    23.220637    21.361112    21.698497    10762.859    -984.5399   -1143.5086   -853.21492    94.762941   -182.95607    148.56368   -7079.8955 
12925000    20.302891   -6973.4338   -6921.2059   -6973.4338            0   -1199.2644    23.267474    21.337661    21.701762    10774.349   -1404.6654    -899.4516   -1293.6761    467.39906   -374.27547   -163.59261   -7109.6497 
12926000    19.895322   -6974.5703   -6923.3908   -6974.5703            0   -1199.2882    23.235948    21.356139    21.704455    10770.404   -1432.1122   -1001.7801   -1163.9723    286.98295   -97.807232    266.12518   -7111.7693 
12927000    20.069304   -6969.6399   -6918.0128   -6969.6399            0   -990.57968    23.239616    21.284012    21.751297    10758.894   -811.44476     -865.125   -1295.1693   -164.58179   -523.97321    187.15609   -7073.4421 
12928000    20.545575   -6973.3221   -6920.4699   -6973.3221            0   -1148.3982    23.255411    21.321639    21.710924     10765.22   -1318.8758   -1000.7922   -1125.5265    10.418566   -41.562875    98.436997    -7100.768 
12929000    19.504274   -6971.5462   -6921.3726   -6971.5462            0   -1126.9788    23.272636    21.330131     21.70512    10774.603   -1504.4575   -744.11098   -1132.3681    134.90594    0.3187032    34.265319   -7098.4622 
12930000    20.563091     -6973.03   -6920.1327     -6973.03            0     -1085.44    23.282056    21.335451    21.685181    10771.748   -1271.8338     -777.907   -1206.5791   -302.95148   -247.00659   -4.3271926   -7090.6498 
12931000    19.919857   -6973.4172   -6922.1746   -6973.4172            0   -1088.8025    23.247339    21.326573    21.711901    10764.458   -1099.9327   -1009.2375   -1157.2372   -160.09746   -59.341051    153.68671   -7093.1042 
12932000    20.604072   -6973.0635   -6920.0608   -6973.0635            0   -1074.6744      23.2169    21.359604    21.696293    10759.274   -857.97478   -1346.8733    -1019.175    11.969611   -167.29971    452.62313   -7088.6911 
12933000    20.190476   -6976.2574   -6924.3186   -6976.2574            0   -1122.2793    23.252307    21.334451    21.702589    10766.116   -1280.4809    -1111.556   -974.80107    4.0302864    -270.6749   -56.941637   -7100.5308 
12934000    19.258566    -6972.801   -6923.2595    -6972.801            0   -948.90535    23.246992    21.344072      21.6957    10765.091   -1254.6388   -1008.9982   -583.07908    175.75226    290.61295    443.90614   -7072.2356 
12935000    20.905435   -6973.6974   -6919.9194   -6973.6974            0   -1158.3126     23.22221    21.374678    21.689794    10766.104   -765.13247   -1457.7182    -1252.087   -27.312666   -82.479507   -91.039782   -7101.7891 
12936000    21.431948   -6975.3078   -6920.1755   -6975.3078            0   -1140.3981    23.185673     21.32091    21.782799    10768.101   -770.18185   -946.25187   -1704.7606   -255.65779   -286.04574   -162.47264   -7099.2655 
12937000    19.733122   -6975.7034   -6924.9411   -6975.7034            0   -1091.2163    23.222692    21.363548    21.691659    10761.646   -1324.6547   -967.78306   -981.21107   -231.08485    255.84484   -98.606464   -7096.2049 
12938000     20.59156   -6971.7453   -6918.7747   -6971.7453            0   -1281.5864    23.207945    21.400069    21.713022    10783.808   -1375.3824    -1263.776   -1205.6008   -328.58815     319.7751   -56.084809   -7120.3308 
12939000    19.852107   -6975.8755   -6924.8072   -6975.8755            0   -1005.9828    23.182698    21.397738    21.705334    10767.089   -679.00243   -1134.3438   -1204.6022    -7.992928    104.39212   -231.11604   -7082.7736 
12940000    21.224699    -6971.276   -6916.6767    -6971.276            0   -902.76919    23.192064    21.377369      21.6942    10755.666   -1005.6286   -852.58157   -850.09746     125.0843     167.2063   -214.09213   -7058.2854 
12941000    20.323441   -6971.8775   -6919.5967   -6971.8775            0   -880.35997     23.16064    21.360473    21.749492    10759.957   -761.52373   -784.15156   -1095.4046   -167.32124    384.07388   -282.42089   -7057.7453 
12942000    20.757195   -6974.6136    -6921.217   -6974.6136            0    -1191.392    23.183873    21.384295    21.725561    10770.898   -1063.0791   -1260.8664   -1250.2304   -38.743951    244.21755   -189.53482   -7108.3638 
12943000    19.773434   -6973.2377   -6922.3718   -6973.2377            0   -1121.9138    23.214805    21.394749     21.69421     10774.97    -1116.769   -1317.5223   -931.45017   -391.62306    476.29333   -221.32914   -7098.6714 
12944000    20.470622   -6973.4156   -6920.7562   -6973.4156            0   -1030.8656    23.168324    21.379657    21.737553     10767.28   -751.74701   -1104.9431   -1235.9066    37.414315   -212.66538   -186.99512   -7082.6327 
12945000    20.718979   -6973.3665   -6920.0682   -6973.3665            0   -980.88619     23.21946    21.359317    21.684545    10754.489   -981.23062   -1098.8291   -862.59888    29.928475    247.73711    22.318278   -7073.9135 
12946000    19.805132   -6973.8655    -6922.918   -6973.8655            0   -1103.3867    23.186223    21.374959    21.724655    10766.838   -744.73805   -1176.7886   -1388.6334   -462.87946    118.72933   -136.33768   -7096.1754 
12947000    19.940105   -6972.3492   -6921.0545   -6972.3492            0   -1138.9045    23.210424    21.394098    21.698796    10774.886   -1095.4033   -1268.7553   -1052.5548   -266.20295   -50.028014   -115.08503   -7100.0226 
12948000    20.592236   -6972.3179   -6919.3457   -6972.3179            0   -1059.2351    23.292146    21.355852    21.644579    10766.525   -1506.5375   -1024.6881   -646.47958   -105.63118    35.489115    78.509722   -7085.6654 
12949000    20.487612    -6972.392   -6919.6889    -6972.392            0   -910.63481    23.217269    21.307932    21.750247    10760.108    -684.5071   -911.44095   -1135.9564   -268.68682   -289.79305    152.74708   -7062.5904 
12950000    19.939547    -6974.039   -6922.7458    -6974.039            0   -933.56198    23.220419    21.329848    21.707929    10751.677   -939.64274   -681.08455   -1179.9587    339.78255   -87.931003   -3.3747882   -7069.1303 
12951000    21.366323   -6975.7577   -6920.7942   -6975.7577            0   -998.11895    23.252736    21.327268    21.703201    10762.993    -1061.729   -1086.2084   -846.41942    165.55364     -390.889    169.90193   -7077.4661 
12952000     20.64335   -6974.5927   -6921.4889   -6974.5927            0   -1102.7414    23.292273    21.315283    21.700127    10773.709   -1408.3933   -821.96298   -1077.8679   -178.31418   -232.48723    23.701721   -7094.7555 
12953000    19.613119   -6975.7213   -6925.2678   -6975.7213            0   -1038.1527    23.263174    21.332263      21.6824    10760.024   -1119.6673   -868.44904   -1126.3416    19.258736   -118.14033    72.751845   -7088.1788 
12954000    19.961491   -6973.3405   -6921.9908   -6973.3405            0   -1134.8209    23.224827    21.344931    21.709154     10761.93   -1018.2915   -1207.0252   -1179.1461    154.44894   -497.35808    258.11286   -7100.1029 
12955000    19.861839   -6974.4005   -6923.3071   -6974.4005            0   -1020.8119    23.284897    21.270911    21.728551    10761.955   -1283.4802   -712.98873   -1065.9668    267.87438   -301.23286    352.38015   -7083.5257 
12956000    19.185556   -6974.1433   -6924.7896   -6974.1433            0   -1061.3248    23.274304    21.341694    21.674051    10765.785   -1362.2052   -980.47826   -841.29095   -67.057583   -301.58802   0.25382829    -7091.426 
12957000    19.235453    -6973.376    -6923.894    -6973.376            0   -1230.1687     23.24658     21.34499    21.717002    10775.934   -1262.5263   -1079.2448   -1348.7349   -33.965508   -73.328194    69.449992   -7117.2223 
12958000    20.395063   -6974.3834   -6921.9183   -6974.3834            0   -1204.7781    23.245312    21.363897     21.67834     10765.69    -1480.865   -1374.8174   -758.65177    248.54395    51.154748    195.22572   -7111.0764 
12959000    20.491088   -6972.3971    -6919.685   -6972.3971            0   -1095.8548    23.222048    21.346846    21.715138    10764.574   -1304.5184   -883.71848   -1099.3274    71.922374    85.941802   -139.05165   -7091.7235 
12960000    19.851832   -6972.9497   -6921.8821   -6972.9497            0   -1006.9142    23.211272    21.352144    21.721507    10765.405   -911.30592   -1042.9661   -1066.4707     222.2585    55.748171    59.148398     -7079.97 
12961000    20.586152   -6973.0553   -6920.0987   -6973.0553            0   -960.69157    23.206878    21.400363    21.675258    10764.705   -1090.0795   -913.51556   -878.47962      151.462    134.90928    -286.6392   -7070.9197 
12962000    19.976957   -6973.7008   -6922.3113   -6973.7008            0   -1148.0194    23.173213    21.382064    21.743204    10773.565   -771.62758   -1270.2779   -1402.1528    222.67379    -30.01551   -248.39715   -7102.6897 
12963000     20.19553   -6973.8603   -6921.9085   -6973.8603            0   -1141.9981    23.213379    21.361274    21.710352    10765.455   -1258.7668   -1051.0826    -1116.145    -85.10899    316.42732   -236.36795   -7101.2058 
12964000    19.899837   -6972.4477   -6921.2566   -6972.4477            0   -1058.3281    23.136079    21.426666    21.714892    10764.702    -495.6539   -1626.1029   -1053.2275   -332.57204     332.6036   -270.63718   -7087.4058 
12965000    19.145538   -6973.7113   -6924.4605   -6973.7113            0   -1046.2576    23.183207    21.393596    21.710683    10767.895   -669.06938   -1257.9964   -1211.7071   -155.94762    165.81445   -380.71552   -7088.7635 
12966000    20.056034   -6973.7486   -6922.1556   -6973.7486            0   -997.26327     23.19673    21.382953    21.711166    10769.055   -1001.9262   -924.10024   -1065.7634     128.7648     153.8237   -395.84378   -7078.7814 
12967000    20.145528   -6973.3063   -6921.4832   -6973.3063            0   -1160.1592     23.17878    21.396634    21.711963    10768.001   -1288.7263   -885.79645   -1305.9548   -211.01768    448.82319   -264.84181   -7103.6749 
12968000    20.803331   -6973.3038   -6919.7885   -6973.3038            0   -964.68542     23.18759    21.364058     21.71792    10758.646   -662.89555   -1318.7477   -912.41306   -198.59885    229.04476   -3.4655614   -7071.1513 
12969000    20.367248   -6974.8705    -6922.477   -6974.8705            0   -978.79971    23.185102    21.361017     21.73072    10762.299   -781.27462   -853.43842   -1301.6861    151.48144   -194.13834   -272.43584   -7076.1066 
12970000    19.503202   -6975.3687   -6925.1979   -6975.3687            0   -957.83981    23.224798    21.352456    21.699068    10760.708   -1203.7606    -554.8596   -1114.8992    171.69849    226.84371   -133.37114   -7075.5154 
12971000     19.15777   -6971.1013   -6921.8191   -6971.1013            0   -1155.6114    23.232683      21.3711    21.696015    10772.245   -1126.3508   -1253.9271   -1086.5563   -493.17674    138.46419   -5.7273754   -7103.3681 
12972000    20.005398   -6974.7737   -6923.3111   -6974.7737            0   -1017.0444    23.213401    21.358961    21.705523    10761.905   -1006.4028   -1004.1929   -1040.5377   -321.69712    85.484877    212.11025   -7082.9375 
12973000    19.726655   -6974.6408   -6923.8952   -6974.6408            0   -1128.1475    23.256646    21.330663    21.696352    10763.119   -1256.3644   -857.63916    -1270.439   -296.06847   -146.44211   -46.795297   -7100.9794 
12974000    20.777881   -6972.1512   -6918.7014   -6972.1512            0   -1296.3544    23.253867    21.340692    21.717229    10777.254    -1425.313   -1117.1628   -1346.5874    52.590901   -97.637533    147.96543   -7122.4562 
12975000    19.772416   -6972.9309   -6922.0676   -6972.9309            0   -918.61843    23.243964    21.347259    21.686353    10760.658   -1106.7823    -1076.707   -572.36597   -321.63544   -112.55396    256.37197   -7066.2293 
12976000    20.080122   -6973.3454   -6921.6905   -6973.3454            0   -1134.0125    23.253663    21.350189      21.6925    10769.678   -1329.0185   -1120.6114   -952.40748   -385.98526    53.942845    159.73037   -7099.8039 
12977000    20.656592   -6970.5461   -6917.4083   -6970.5461            0   -1106.0146    23.266914    21.287744     21.73001    10762.876   -1267.7632   -874.79854   -1175.4819   -214.09738   -14.087493     410.6024   -7091.0144 
12978000    20.640057   -6971.0686   -6917.9733   -6971.0686            0   -1001.1636    23.242177    21.346214    21.695803    10763.993   -989.08058   -1171.1706   -843.23955   -308.74749   -313.22669    142.28732   -7075.1377 
12979000    20.134847   -6972.8725   -6921.0769   -6972.8725            0   -1122.3384    23.300513    21.316181    21.679769    10767.863   -1381.8873   -948.18513   -1036.9428   -131.34482    -131.4776   -20.702554   -7097.3269 
12980000     20.38457   -6971.9551   -6919.5171   -6971.9551            0   -1306.4506    23.243551    21.353271    21.713478     10776.96    -1431.032   -1085.0018   -1403.3178   -122.97161   -229.14409    88.279007   -7124.8531 
12981000    20.962494   -6972.8748     -6918.95   -6972.8748            0   -1345.9566    23.256154    21.347156    21.706025    10776.016     -1541.31   -1158.9493   -1337.6106   -201.75043   -54.268515    43.753494   -7130.4767 
12982000    20.619969   -6973.5715   -6920.5279   -6973.5715            0   -1218.2486    23.217956    21.339584    21.741445     10772.05   -1289.4947   -1224.9138   -1140.3374    317.14805   -130.01847    320.20518   -7111.9139 
12983000    19.733246   -6973.6429   -6922.8803   -6973.6429            0   -1170.1145    23.238931     21.38787    21.666275    10768.816   -1356.5538   -1398.7535   -755.03609    85.310653   -235.18488   -72.508994   -7106.6493 
12984000     20.34206   -6973.8533   -6921.5246   -6973.8533            0   -1176.9173    23.194253    21.382572    21.723856    10774.007   -1026.1914   -1262.5933   -1241.9673   -185.02998    322.32272    60.257196   -7106.4511 
12985000    19.953537   -6973.2683   -6921.9391   -6973.2683            0   -1093.6159     23.21453    21.359735    21.712122    10766.091   -1134.5784   -1194.5517   -951.71768    412.68651    107.80379   -171.90758   -7093.6503 
12986000    20.012311   -6973.3016   -6921.8212   -6973.3016            0   -1005.6528    23.178026    21.404051    21.690584    10760.778   -710.50861   -1291.6007    -1014.849   -107.18261   -163.51437   -265.93773   -7079.6432 
12987000    19.662369   -6973.5905   -6923.0103   -6973.5905            0    -1069.538    23.159802    21.369381    21.763379    10770.928   -891.21395   -1161.3471   -1156.0529    241.79939    270.78828    69.125165   -7091.0165 
12988000    20.449718   -6971.7321   -6919.1265   -6971.7321            0   -921.21454    23.201232    21.404695    21.664518    10758.931   -1013.3737   -1163.9761   -586.29381    293.23525    86.861565   -171.53106   -7063.6724 
12989000    19.958803   -6973.6326   -6922.2898   -6973.6326            0   -1104.5125    23.176718    21.391218    21.725572    10771.066   -874.25955   -1415.1056   -1024.1725    47.528036   -21.189155   -93.732127   -7095.7921 
12990000    20.138321   -6972.3179   -6920.5133   -6972.3179            0   -1033.9134    23.217641    21.350534    21.714303    10763.976   -916.72043   -890.16022   -1294.8596   -32.234177    25.595342   -69.177015   -7082.8187 
12991000    20.100439   -6974.2724   -6922.5653   -6974.2724            0   -986.59679    23.212572    21.358232    21.705881    10761.331   -932.24272   -816.91605   -1210.6316    118.22234   -220.43035   -326.32279   -7077.4047 
12992000    20.157852    -6974.844   -6922.9891    -6974.844            0   -1118.9567     23.17475    21.359837    21.761599    10772.185   -749.08359    -1164.338   -1443.4487    133.97592   -117.83336     80.94133   -7098.7786 
12993000    18.737182   -6968.1865   -6919.9862   -6968.1865            0   -987.88126    23.302892    21.341854    21.634851    10759.594    -1333.172    -1015.322   -615.14984   -185.05844    2.5446751    -60.17294   -7075.0022 
12994000     20.09561    -6973.401   -6921.7063    -6973.401            0   -1188.9502    23.203804    21.359165    21.737965    10773.637   -1191.5068   -1087.3153   -1288.0286   -63.697365   -304.26726    273.86769    -7108.517 
12995000    21.049921   -6972.4269   -6918.2773   -6972.4269            0   -1264.1194    23.269565    21.322246    21.703723    10768.506   -1622.2498   -941.06328   -1229.0452    33.822486    307.63908    163.79788   -7116.8042 
12996000    19.760668   -6973.7297   -6922.8966   -6973.7297            0   -1061.0939    23.256855    21.355884    21.668239    10761.979   -1034.2788   -1206.8495   -942.15344    1.2014943    -282.0537    283.01237   -7089.4379 
12997000    19.663902   -6971.2823   -6920.6981   -6971.2823            0   -1077.7867    23.247405    21.305192    21.749906     10772.52   -1129.1089   -852.40436   -1251.8467   -10.737428   -194.42539     348.0766    -7090.025 
12998000    21.011226   -6974.2638   -6920.2137   -6974.2638            0    -1095.188    23.255367    21.367494     21.65942    10762.759   -1253.6136    -1220.996   -810.95449   -74.235518    3.0074639    108.15747   -7092.1186 
12999000    20.155601   -6973.9415   -6922.0925   -6973.9415            0   -1112.8367     23.23152    21.328242    21.741419    10772.601   -1048.2119   -1015.4266   -1274.8717   -291.51064   -224.62256   -58.607137   -7096.9273 
13000000     21.01251   -6971.4371   -6917.3837   -6971.4371            0   -1138.8768    23.302924    21.262103    21.733719    10768.388   -1656.5245   -536.27244   -1223.8336    34.308352   -201.79816     165.4602   -7096.2396 
Loop time of 531.629 on 64 procs for 250000 steps with 1296 atoms

Performance: 81.260 ns/day, 0.295 hours/ns, 470.252 timesteps/s
99.1% CPU use with 64 MPI tasks x 1 OpenMP threads

MPI task timing breakdown:
Section |  min time  |  avg time  |  max time  |%varavg| %total
---------------------------------------------------------------
Pair    | 27.425     | 39.237     | 52.225     | 126.6 |  7.38
Bond    | 0.27826    | 0.28815    | 0.29742    |   0.7 |  0.05
Kspace  | 271.88     | 284.86     | 296.89     |  47.1 | 53.58
Neigh   | 0.13731    | 0.14127    | 0.14494    |   0.4 |  0.03
Comm    | 89.263     | 90.499     | 92.686     |  10.3 | 17.02
Output  | 0.58854    | 0.59002    | 0.59162    |   0.1 |  0.11
Modify  | 103.76     | 105.21     | 106.19     |   6.4 | 19.79
Other   |            | 10.8       |            |       |  2.03

Nlocal:        20.2500 ave          27 max          13 min
Histogram: 1 7 15 4 2 10 1 11 9 4
Nghost:        2608.27 ave        2629 max        2588 min
Histogram: 5 3 8 7 9 7 12 6 3 4
Neighs:        6487.94 ave        8680 max        4150 min
Histogram: 1 7 14 5 3 9 4 8 9 4

Total # of neighbors = 415228
Ave neighs/atom = 320.39198
Ave special neighs/atom = 2.0000000
Neighbor list builds = 250
Dangerous builds = 0

unfix		3
unfix		2
unfix		1

write_data	data.final.${pid}
write_data	data.final.0
System init for write_data ...
PPPM initialization ...
  extracting TIP4P info from pair style
  using 12-bit tables for long-range coulomb (../kspace.cpp:340)
  G vector (1/distance) = 0.36737019
  grid = 27 40 32
  stencil order = 5
  estimated absolute RMS force accuracy = 0.0045258723
  estimated relative force accuracy = 1.362953e-05
  using double precision FFTW3
  3d grid and FFT values/proc = 4845 560
Last active /omp style is kspace_style pppm/tip4p/omp
WARNING: Not all mixed pair coeffs generated from mixing. Use write_data with 'pair ij' option to store all pair coeffs. (../write_data.cpp:312)

write_restart   restart.lmp.${pid}
write_restart   restart.lmp.0
System init for write_restart ...
PPPM initialization ...
  extracting TIP4P info from pair style
  using 12-bit tables for long-range coulomb (../kspace.cpp:340)
  G vector (1/distance) = 0.36737019
  grid = 27 40 32
  stencil order = 5
  estimated absolute RMS force accuracy = 0.0045258723
  estimated relative force accuracy = 1.362953e-05
  using double precision FFTW3
  3d grid and FFT values/proc = 4845 560
Last active /omp style is kspace_style pppm/tip4p/omp
Total wall time: 0:08:51
