LAMMPS data file via write_data, version 30 Jul 2021, timestep = 4000000

972 atoms
2 atom types
648 bonds
1 bond types
324 angles
1 angle types

-0.015732642013135845 20.015733642014354 xlo xhi
0.10257714686983554 19.89742385313299 ylo yhi
0.0551846014088877 20.644813398598878 zlo zhi

Masses

1 1.008
2 15.999

Pair Coeffs # lj/cut/tip4p/long/omp

1 0 0
2 0.21084 3.1668

Bond Coeffs # harmonic/omp

1 450 0.9572

Angle Coeffs # harmonic/omp

1 55 104.52

Atoms # full

4 2 2 -1.1794 4.275519107661538 1.4525678124120276 3.4770925830521415 0 0 0
5 2 1 0.5897 4.267858201188278 0.7858479609124219 2.790273303020087 0 0 0
236 79 1 0.5897 0.80446920742006 0.2927214246255482 2.100411892698719 0 1 0
10 4 2 -1.1794 1.2384767845682083 4.215237498259939 3.7085281917323503 0 0 0
11 4 1 0.5897 1.0197451273666691 3.4709047831179953 3.1478630484370376 0 0 0
12 4 1 0.5897 2.1944166113524606 4.207256260742835 3.755854653542931 0 0 0
16 6 2 -1.1794 3.931306877955952 4.212904572898914 3.7597153380261217 0 0 0
18 6 1 0.5897 4.094228883403147 3.299439146697641 3.524847141243082 0 0 0
23 8 1 0.5897 2.6001907185465476 1.2778253493070573 4.240615407252271 0 0 0
31 11 2 -1.1794 0.9766900249787133 2.147502260489566 1.9552229871001692 0 0 0
33 11 1 0.5897 1.667269309998769 2.273028951499664 1.3043662688728548 0 0 0
17 6 1 0.5897 4.228125432526934 4.712749224967999 2.999189683630486 0 0 0
32 11 1 0.5897 0.16220051456138407 2.2188251929417753 1.4574819383357365 0 0 0
6 2 1 0.5897 4.900628742554931 1.1243151749501992 4.123453677606374 0 0 0
22 8 2 -1.1794 1.9200898603988084 1.1250989832712077 4.896694956055071 0 0 0
3 1 1 0.5897 3.70542244411416 2.5395991242044853 0.25437879024204724 0 0 0
102 34 1 0.5897 0.1607511253151901 0.9582632851634035 5.025441206988687 1 0 0
342 114 1 0.5897 3.9454493455789867 4.9748784206862835 9.896686307725146 0 0 0
27 9 1 0.5897 2.7473057075886036 4.545797449082678 6.407465865768736 0 0 0
325 109 2 -1.1794 2.3563488357646936 2.7528515822671458 7.012654523252104 0 0 0
326 109 1 0.5897 2.1152038931361496 2.291647204715394 6.209219551928801 0 0 0
327 109 1 0.5897 3.2643871449369186 2.4963654524476797 7.173315237426635 0 0 0
330 110 1 0.5897 3.985157964871661 0.9799378458716925 9.665669420440288 0 0 0
355 119 2 -1.1794 0.7763086129221969 2.1692197665307424 9.120502768686423 0 0 0
356 119 1 0.5897 1.4562730328500073 2.383284261984078 8.481672901945375 0 0 0
561 187 1 0.5897 0.6810957141150856 0.3769475533022454 8.73720325678056 0 1 0
335 112 1 0.5897 0.8781820669353515 3.6350162110935633 10.08153092166848 0 0 0
24 8 1 0.5897 2.251613723454233 0.39607370021069244 5.420943299787831 0 0 0
341 114 1 0.5897 3.845338560054762 3.530021822680695 10.337146599998647 0 0 0
336 112 1 0.5897 1.8998012041206112 4.457916106431538 10.837154133999015 0 0 0
683 228 1 0.5897 4.472212585850586 2.890590748899871 14.65726265370625 0 0 0
346 116 2 -1.1794 1.9235238215587807 1.0216191526860499 12.11210013736443 0 0 0
347 116 1 0.5897 0.9934294205457725 1.0595997496532377 11.889349991096974 0 0 0
348 116 1 0.5897 2.3730216756095275 1.2968815924076853 11.313004364296571 0 0 0
350 117 1 0.5897 2.564643140907304 4.6499106761981395 13.669633981918906 0 0 0
649 217 2 -1.1794 2.5667387533076855 2.826565413402294 14.161660135912078 0 0 0
650 217 1 0.5897 2.4502300140994593 2.323704607532983 13.355475050110922 0 0 0
651 217 1 0.5897 1.8441793065944418 2.548631613553717 14.72458823503483 0 0 0
329 110 1 0.5897 4.641896368187284 1.3467008461068357 10.979626386801586 0 0 0
334 112 2 -1.1794 0.9586512647043232 4.374213689415131 10.684331873343496 0 0 0
340 114 2 -1.1794 3.6937087340727697 4.4255406313459895 10.639108720370217 0 0 0
332 111 1 0.5897 4.884718341039887 4.501872298836068 11.920893514974626 0 0 0
328 110 2 -1.1794 3.9822840337169914 1.645531647491696 10.353611929237202 0 0 0
652 218 2 -1.1794 4.29257259390901 1.6306789289427128 17.125107489269432 0 0 0
653 218 1 0.5897 3.4015565281648965 1.3898769154697863 17.378572644419762 0 0 0
654 218 1 0.5897 4.505238337241546 1.0385614845026123 16.403654482621768 0 0 0
658 220 2 -1.1794 1.2439540164542946 4.128638371071425 17.37405725579837 0 0 0
659 220 1 0.5897 0.6112547262866773 4.301701858784918 18.071240114905578 0 0 0
664 222 2 -1.1794 4.072416626016304 4.253128210106344 17.552684838522474 0 0 0
665 222 1 0.5897 3.117268631086585 4.267086415682806 17.612955403129746 0 0 0
666 222 1 0.5897 4.291304764583729 3.330252882196998 17.42422679091669 0 0 0
670 224 2 -1.1794 1.97498152359394 0.8925946079972383 18.676009623759086 0 0 0
671 224 1 0.5897 2.1950286112130857 1.5633721342437719 19.322468998327793 0 0 0
672 224 1 0.5897 1.0180591262383718 0.8795706532663149 18.65994284966471 0 0 0
681 227 1 0.5897 0.6503796313582454 2.4794990484691803 16.536823765330205 0 0 0
660 220 1 0.5897 1.015988279416421 4.750605582770699 16.683054118315034 0 0 0
679 227 2 -1.1794 0.6427070750006667 1.8422183410639996 15.822589843959008 0 0 0
884 295 1 0.5897 0.7809714307498763 0.12158734896552528 15.751296255350221 0 1 0
2 1 1 0.5897 2.622161653332638 3.5282082562826025 20.468688785848126 0 0 -1
1 1 2 -1.1794 2.773966396493253 2.5972967365177 20.631397564167695 0 0 -1
674 225 1 0.5897 1.9304371657613988 5.677757378443843 0.5836113335403549 0 0 1
141 47 1 0.5897 0.8198687455049848 7.9665269563408465 2.1496901105219557 0 0 0
139 47 2 -1.1794 0.7038127354446485 8.894960282454674 1.9480683094250175 0 0 0
114 38 1 0.5897 3.0841940876085747 8.032902281579375 3.58890344081201 0 0 0
15 5 1 0.5897 4.301764792414267 6.7839849825415435 1.9783638474029326 0 0 0
14 5 1 0.5897 3.9716111175809257 5.703736339594627 0.9703682474934836 0 0 0
109 37 2 -1.1794 2.8444063102413866 9.250743951158656 0.1617271730839845 0 0 0
19 7 2 -1.1794 0.8734148124623787 6.113240821160546 1.8262500557573844 0 0 0
140 47 1 0.5897 0.9129814537566772 9.346059423509956 2.76607892905002 0 0 0
112 38 2 -1.1794 3.8709919510359456 8.15860135642439 3.05845995499927 0 0 0
20 7 1 0.5897 0.9984340213347709 5.572281339171329 2.6060410940554184 0 0 0
110 37 1 0.5897 2.188020645621567 9.101764888640217 0.8423695031119144 0 0 0
111 37 1 0.5897 3.679090575539952 9.254685447602547 0.6302434675166285 0 0 0
132 44 1 0.5897 0.7700836348197877 7.526292037786025 5.032364195363971 0 0 0
130 44 2 -1.1794 1.713506075890772 7.672002289636722 4.962688482482324 0 0 0
13 5 2 -1.1794 4.571721583334393 5.91345595375734 1.6860575004412421 0 0 0
113 38 1 0.5897 4.593823258446281 7.935616324518433 3.6450141803381713 0 0 0
25 9 2 -1.1794 2.66889018488674 5.4974822140558945 6.472661606457219 0 0 0
464 155 1 0.5897 1.4687357760763926 8.834301208759504 8.446431599982306 0 0 0
337 113 2 -1.1794 4.482233012365924 6.095548220497219 8.446149320943924 0 0 0
437 146 1 0.5897 4.4416482214646855 7.407282090183115 9.626689976066855 0 0 0
468 156 1 0.5897 4.453428391618513 9.185804275687982 7.242238505851896 0 0 0
435 145 1 0.5897 2.326626027013157 8.901469904098281 6.354714947789277 0 0 0
433 145 2 -1.1794 2.661462242570388 9.308827279280917 7.1536529746877155 0 0 0
463 155 2 -1.1794 0.7309044696437275 8.634123215391412 9.02244508374851 0 0 0
345 115 1 0.5897 0.6849097571302957 6.798722467263096 8.75427457531861 0 0 0
339 113 1 0.5897 3.8966922315801793 5.889591932414378 7.717417066567812 0 0 0
343 115 2 -1.1794 0.6821719049262941 5.890949183257885 8.450823727596225 0 0 0
26 9 1 0.5897 1.887087501749169 5.637835734000163 7.006823080342312 0 0 0
131 44 1 0.5897 2.1061155624129286 6.862199441350755 5.288617965462066 0 0 0
344 115 1 0.5897 0.6818907947159014 5.369656413538508 9.253709908708233 0 0 0
438 146 1 0.5897 4.1588118310499045 8.792086684204492 10.168917806642376 0 0 0
443 148 1 0.5897 0.9980128924682015 9.867502101817287 10.135042399788778 0 0 0
757 253 2 -1.1794 2.536906269815031 9.20110067668407 14.19893808783474 0 0 0
668 223 1 0.5897 1.0218197092412393 5.850408886437572 14.681144556634685 0 0 0
349 117 2 -1.1794 2.5729599634600375 5.607007486635623 13.670061730416057 0 0 0
792 264 1 0.5897 4.569391099497505 8.953500459227019 14.529075338410863 0 0 0
351 117 1 0.5897 3.326719435853569 5.840196072784351 14.212016419975505 0 0 0
454 152 2 -1.1794 2.005024453473881 7.591087590430933 11.925596502300598 0 0 0
455 152 1 0.5897 2.727799620875433 7.685331758218453 11.305121842286193 0 0 0
456 152 1 0.5897 2.185198272586132 6.768647326925555 12.380919976075523 0 0 0
759 253 1 0.5897 2.3066746957508073 8.631222194907293 13.465077453455956 0 0 0
533 178 1 0.5897 0.2481178322386372 7.743987605352877 11.907976428446746 1 0 0
667 223 2 -1.1794 0.4482057641960408 5.929083598391427 15.443458233470155 0 0 0
661 221 2 -1.1794 4.555783175201108 5.886607686221743 15.434121145377585 0 0 0
436 146 2 -1.1794 4.289858229377227 7.884321877398 10.442638802753365 0 0 0
662 221 1 0.5897 4.3246631996011375 5.155346344165235 16.00689006366897 0 0 0
788 263 1 0.5897 0.9603954721073247 9.176336246676945 16.87599088939858 0 0 0
858 286 1 0.5897 0.3362568660320489 7.327044242915369 18.71106573449309 1 0 0
779 260 1 0.5897 2.457172840943162 8.116835109017046 19.350788963446412 0 0 0
780 260 1 0.5897 2.7277843748357324 7.492706942740735 17.998171153547467 0 0 0
675 225 1 0.5897 2.39085584940821 6.012520887711409 19.770264984247724 0 0 0
760 254 2 -1.1794 4.392046229315642 8.088684933153196 17.063688834950845 0 0 0
761 254 1 0.5897 4.204316351395763 9.027195837719217 17.067730382394778 0 0 0
787 263 2 -1.1794 0.8372156744121535 8.513822965712436 16.19614389287741 0 0 0
778 260 2 -1.1794 2.146287306957944 7.4340488468374115 18.75630570080132 0 0 0
669 223 1 0.5897 0.5656910644130665 6.831471786939366 15.740160162301587 0 0 0
663 221 1 0.5897 4.453533694214512 6.663466473814043 15.983900958360088 0 0 0
673 225 2 -1.1794 2.4841782231716873 5.356847713534582 20.46139923565421 0 0 0
789 263 1 0.5897 1.4665672962490957 8.749389445285509 15.514426174540043 0 0 0
783 261 1 0.5897 1.9888448002505892 12.174890667608288 0.5440043809283728 0 0 1
118 40 2 -1.1794 1.2027750437286993 10.984979207148772 3.795155397781921 0 0 0
119 40 1 0.5897 2.1215251836344686 11.144052483180463 4.011366405659844 0 0 0
120 40 1 0.5897 0.9912497257548945 11.651219730373265 3.1411954469118877 0 0 0
222 74 1 0.5897 4.215534849751176 14.116777215857871 2.4142873413443544 0 0 0
123 41 1 0.5897 4.2042160693147235 12.305789500483455 0.8581551680739203 0 0 0
124 42 2 -1.1794 4.00629146349186 11.014358603073749 3.674817828189194 0 0 0
240 80 1 0.5897 2.6165269227772656 14.20929086210386 4.388617209761195 0 0 0
127 43 2 -1.1794 0.8273474165682748 12.738303893878577 1.7609592435586763 0 0 0
129 43 1 0.5897 0.9975894021064504 13.675464058337376 1.8550301749529539 0 0 0
220 74 2 -1.1794 3.969857281201492 14.541741604680068 3.2361374380408785 0 0 0
122 41 1 0.5897 4.578168738909541 12.035009664216087 2.3001288567928984 0 0 0
238 80 2 -1.1794 2.0054558973551484 14.153816285205162 5.123365760467349 0 0 0
125 42 1 0.5897 4.621225463813888 10.989553568705611 4.408001385950658 0 0 0
121 41 2 -1.1794 4.8334133437448505 12.552236582542331 1.536151536023652 0 0 0
317 106 1 0.5897 0.051428111898033535 13.983326618903655 4.971339084436021 1 0 0
126 42 1 0.5897 4.057764461888436 10.140066415173433 3.2886493955942955 0 0 0
133 45 2 -1.1794 2.471497380625885 12.137617049464376 6.890848006458047 0 0 0
134 45 1 0.5897 1.7351567045746121 12.293970460718926 7.482139567244377 0 0 0
135 45 1 0.5897 3.24794428278806 12.261682824901891 7.436705585115892 0 0 0
445 149 2 -1.1794 4.492038535314369 12.59314870308215 8.470143457886985 0 0 0
573 191 1 0.5897 0.999879225237478 14.626553812953517 9.217288238945034 0 0 0
446 149 1 0.5897 4.373807496707184 13.320918772512112 9.080576332360357 0 0 0
450 150 1 0.5897 4.240026570052155 11.313824599118233 9.751983288037573 0 0 0
451 151 2 -1.1794 0.7924534892318149 12.712560957829405 8.988574254993603 0 0 0
453 151 1 0.5897 0.982129073321351 11.948928557951858 9.533660081812661 0 0 0
239 80 1 0.5897 2.186601172874006 13.30293088252377 5.522538042269946 0 0 0
544 182 2 -1.1794 4.290868344743037 14.638874561681261 10.345579364221413 0 0 0
434 145 1 0.5897 2.686777303676809 10.244440345220665 6.953392630787405 0 0 0
449 150 1 0.5897 4.504482939028084 10.89898721104185 11.18390838420645 0 0 0
769 257 2 -1.1794 4.669320668187146 12.50074984202691 15.215663564912665 0 0 0
457 153 2 -1.1794 2.5818977023154623 11.879041411718314 13.49033823092286 0 0 0
458 153 1 0.5897 1.9311497252512082 12.102496197569222 14.155845899361568 0 0 0
459 153 1 0.5897 3.4241432683385393 11.993836849230215 13.930389469910388 0 0 0
442 148 2 -1.1794 1.1897031331697867 10.632421469618864 10.677609713137487 0 0 0
512 171 1 0.5897 0.1437845147525607 10.98108779462415 12.108623406152173 1 0 0
562 188 2 -1.1794 2.148096092448859 13.90319087693706 11.800881986036773 0 0 0
563 188 1 0.5897 2.2447662783379183 13.098059448216597 12.309433290988386 0 0 0
545 182 1 0.5897 3.468751328338997 14.353793325496637 10.74438037483512 0 0 0
444 148 1 0.5897 2.1440359705984187 10.641972561325126 10.750344513400215 0 0 0
758 253 1 0.5897 2.5708564812131947 10.079099082177512 13.819296394757634 0 0 0
564 188 1 0.5897 2.3208404960869045 14.605271098003026 12.428188335949217 0 0 0
642 214 1 0.5897 0.31078893371080774 14.217379128440529 11.795035388577185 1 0 0
546 182 1 0.5897 4.963872959559935 14.389358378696503 10.978888865596364 0 0 0
448 150 2 -1.1794 3.9892714572289227 10.666718094727582 10.411271064254965 0 0 0
766 256 2 -1.1794 1.5131333662236806 10.759283874326577 17.698670440413622 0 0 0
767 256 1 0.5897 0.8599262459363711 10.891517401300101 18.3857946017104 0 0 0
768 256 1 0.5897 1.191743093553795 11.275357111098783 16.95927493035967 0 0 0
772 258 2 -1.1794 4.165209377504919 10.758198853243872 17.308938782048706 0 0 0
773 258 1 0.5897 3.2413371102267057 10.874897803332031 17.530289482150494 0 0 0
774 258 1 0.5897 4.259931955022215 11.169214206276791 16.44957555768137 0 0 0
870 290 1 0.5897 4.7716929174871945 14.392057728977514 17.45074234914774 0 0 0
868 290 2 -1.1794 4.002643380376575 14.649915584098194 16.94250434272856 0 0 0
869 290 1 0.5897 3.2608858343508036 14.29794666688135 17.434577681351307 0 0 0
886 296 2 -1.1794 1.9782914887396847 13.899887813669622 18.644369300662532 0 0 0
888 296 1 0.5897 2.251471082977824 13.189013373492232 19.224262834871624 0 0 0
965 322 1 0.5897 0.16887577419116825 14.12041665128963 18.67630434552671 1 0 0
887 296 1 0.5897 2.131919494163353 14.696371802437591 19.152521583825603 0 0 0
771 257 1 0.5897 4.450732501714531 13.261988802590778 15.753215433540099 0 0 0
777 259 1 0.5897 0.9348572553262015 13.319878150484753 15.845889450738907 0 0 0
782 261 1 0.5897 2.596838823025224 10.982521864576375 20.426254775182358 0 0 0
781 261 2 -1.1794 2.662211840919891 11.934790426558402 20.497071101446934 0 0 0
775 259 2 -1.1794 0.8637807724360725 12.402592080679446 15.581951859807013 0 0 0
249 83 1 0.5897 1.4959791838242948 15.573435061903147 1.317811559244614 0 0 0
248 83 1 0.5897 1.0613854362340898 15.966909786925436 2.7137616259907387 0 0 0
229 77 2 -1.1794 4.50720492068862 19.337674562268234 1.6218027260554566 0 0 0
247 83 2 -1.1794 0.8323983365710748 15.3920196326985 1.9834293856899265 0 0 0
226 76 2 -1.1794 1.3258281417029023 17.506232474473364 3.9568237609347094 0 0 0
227 76 1 0.5897 1.097055741757938 18.193628721663934 3.331195383826883 0 0 0
228 76 1 0.5897 0.5793152424555178 17.467578182749705 4.554718857707492 0 0 0
890 297 1 0.5897 1.8487375091059948 18.812564408182368 0.4126995616600896 0 0 1
230 77 1 0.5897 3.994365000114147 19.073457595517418 0.8579042994202783 0 0 0
232 78 2 -1.1794 4.017005761182968 17.363444390136074 3.505311359298733 0 0 0
233 78 1 0.5897 4.156713922801489 18.11324712291747 2.9269321490884095 0 0 0
234 78 1 0.5897 3.1022029630593577 17.43712914569226 3.7771013993482208 0 0 0
235 79 2 -1.1794 0.7880874737519761 19.176846383412595 1.806383696955846 0 0 0
221 74 1 0.5897 4.051061577610775 15.478174109920172 3.0555944753519273 0 0 0
543 181 1 0.5897 2.5190237210332267 15.608846053445399 6.1853528008491665 0 0 0
576 192 1 0.5897 4.438806816911767 15.627987831730973 7.2938020063074545 0 0 0
559 187 2 -1.1794 0.6579135207431627 19.228724851696292 8.575368006087137 0 0 0
241 81 2 -1.1794 2.701579574757137 18.881526950688432 6.7304395484348305 0 0 0
242 81 1 0.5897 2.675233695512184 17.929473498031463 6.63557804225826 0 0 0
243 81 1 0.5897 1.9951963774418822 19.081136653384497 7.3448116429880805 0 0 0
541 181 2 -1.1794 2.741844011372986 16.21764109809085 6.8896494357173275 0 0 0
542 181 1 0.5897 2.1469380114215215 15.987333287690118 7.603352715193896 0 0 0
553 185 2 -1.1794 4.288245988806271 19.21097571909614 8.913419851312048 0 0 0
572 191 1 0.5897 0.9534914323048875 16.055265632679564 9.715568891783997 0 0 0
555 185 1 0.5897 3.87803073460382 18.974409411671452 8.081457547659346 0 0 0
558 186 1 0.5897 4.120942372619745 18.06177032722327 10.227619011144423 0 0 0
571 191 2 -1.1794 0.9701878550833812 15.533593133087804 8.913105045801569 0 0 0
551 184 1 0.5897 0.9866309392490791 18.085974400444073 9.959160765147018 0 0 0
885 295 1 0.5897 1.4414188596635769 18.8867066353311 14.8594509142608 0 0 0
866 289 1 0.5897 3.6161245126538386 15.817708388221353 13.94194779215735 0 0 0
879 293 1 0.5897 4.123827863714549 19.104667416558357 14.707877232785464 0 0 0
867 289 1 0.5897 2.1976304797782777 15.560083737593692 14.403712702783405 0 0 0
550 184 2 -1.1794 1.1050980510369637 17.53320561341426 10.731658140632378 0 0 0
552 184 1 0.5897 2.0538439781625955 17.483719045441973 10.848145151370645 0 0 0
565 189 2 -1.1794 2.7375855050380746 18.651872037637403 13.711907125110901 0 0 0
566 189 1 0.5897 2.6329845277310255 17.74938853667814 13.410714515099016 0 0 0
567 189 1 0.5897 2.406042562823901 19.18569439192062 12.989798175902946 0 0 0
865 289 2 -1.1794 2.704419489681997 15.879647583305344 13.657128495546404 0 0 0
556 186 2 -1.1794 3.9220954140198834 17.462369249892568 10.94698815335291 0 0 0
557 186 1 0.5897 4.148543732163757 16.596622565506202 10.607359493302738 0 0 0
896 299 1 0.5897 0.12817695711072863 15.334560480002587 15.325069695268192 0 0 0
877 293 2 -1.1794 4.745494131555862 19.19989612291618 15.429533251811966 0 0 0
881 294 1 0.5897 2.9361502506243737 17.478718124337036 17.55576707640028 0 0 0
897 299 1 0.5897 1.1311978464879524 15.784988867795292 16.365804032194568 0 0 0
891 297 1 0.5897 2.2342105017963374 19.19678811847473 19.589457548419603 0 0 0
882 294 1 0.5897 4.043179659137801 16.56408717265117 17.076563002516266 0 0 0
880 294 2 -1.1794 3.881369409075393 17.44716360157475 17.4084315338054 0 0 0
874 292 2 -1.1794 1.181593636303099 17.25117437947985 17.528982718524873 0 0 0
875 292 1 0.5897 0.5552517726669288 17.422563804891368 18.232295261416766 0 0 0
876 292 1 0.5897 0.9571324120456054 17.88508592788842 16.84775805247523 0 0 0
878 293 1 0.5897 4.42125395691989 18.605142629732327 16.10587271458475 0 0 0
889 297 2 -1.1794 2.4869061948479287 18.624579775038903 20.314058932350157 0 0 0
895 299 2 -1.1794 0.9831558931564172 15.116995429795404 15.696355776205717 0 0 0
218 73 1 0.5897 2.453080522614179 16.83829272293793 20.33325075743864 0 0 -1
219 73 1 0.5897 3.3860323233666123 15.684430756229851 20.632985779550523 0 0 -1
217 73 2 -1.1794 2.464692560807648 15.892191696010133 20.47770429710689 0 0 -1
883 295 2 -1.1794 0.7460108629961837 18.991149327599516 15.508909250425269 0 0 0
69 23 1 0.5897 6.901987120636371 2.3935150245016037 1.7701725086594235 0 0 0
34 12 2 -1.1794 5.603873270598369 2.7178847662067716 0.5550213837295486 0 0 0
68 23 1 0.5897 8.410915879889801 2.405680898673027 1.6492281644806577 0 0 0
67 23 2 -1.1794 7.702594274393054 2.229000832978584 2.2683642703131994 0 0 0
46 16 2 -1.1794 8.121865179348987 4.37822518516622 3.9040489055254772 0 0 0
47 16 1 0.5897 7.949290653140415 3.6079870537186514 3.362596856519924 0 0 0
48 16 1 0.5897 7.377896956114512 4.420952271242483 4.5048332295313065 0 0 0
273 91 1 0.5897 7.542912142165935 0.4530990068773729 2.0661797032107625 0 1 0
58 20 2 -1.1794 8.682948182341494 0.727617640810147 5.107805936545496 0 0 0
29 10 1 0.5897 6.924257007900523 0.6199104693254585 5.124899870227539 0 0 0
53 18 1 0.5897 9.9113974094059 4.128630821861755 3.799803116857118 0 0 0
9 3 1 0.5897 5.332656735833908 4.339464941439992 4.9220631606632255 0 0 0
8 3 1 0.5897 5.575243452236034 3.810305065289142 6.319754545227677 0 0 0
391 131 2 -1.1794 7.354920734335143 2.131833384393298 9.023850052884844 0 0 0
393 131 1 0.5897 7.318420781112959 1.1870095688160087 9.17242725111558 0 0 0
59 20 1 0.5897 8.83532187904218 1.4855340236173422 5.672232366974714 0 0 0
361 121 2 -1.1794 9.28509075984203 2.656455079947696 7.165297497134102 0 0 0
392 131 1 0.5897 8.05257439974599 2.246540659886566 8.378546099182943 0 0 0
362 121 1 0.5897 9.211262626538426 3.5228195317427806 6.765148243168912 0 0 0
358 120 2 -1.1794 5.193646605135252 2.399193386249504 7.289978384954238 0 0 0
359 120 1 0.5897 5.8722647960698575 2.3299045637685825 7.96153054521502 0 0 0
360 120 1 0.5897 5.489603114853934 1.818716345339353 6.588715396622685 0 0 0
7 3 2 -1.1794 5.923124212141275 4.422142345840548 5.6709710542183265 0 0 0
371 124 1 0.5897 7.674525691155082 3.569809632003389 10.183749745352042 0 0 0
28 10 2 -1.1794 5.997801997958603 0.6099167944635886 5.365181613242692 0 0 0
352 118 2 -1.1794 5.600477096380307 0.9538269179208775 12.508853276888258 0 0 0
353 118 1 0.5897 6.501915364839032 1.02738911951649 12.195545992166466 0 0 0
354 118 1 0.5897 5.530558131593812 1.6160335886218722 13.196519193971076 0 0 0
684 228 1 0.5897 5.582400862824494 3.57552576896678 13.889008191583278 0 0 0
372 124 1 0.5897 7.16031875387395 4.436961566975876 11.31324306077147 0 0 0
685 229 2 -1.1794 9.02135766112163 2.942036557254294 13.726665031406554 0 0 0
382 128 2 -1.1794 8.254315546234201 0.9284265924610955 12.0261655801733 0 0 0
383 128 1 0.5897 8.570892906253208 1.6451004510641567 12.576044645025624 0 0 0
384 128 1 0.5897 8.922736424702638 0.8331067467095806 11.347606507349296 0 0 0
386 129 1 0.5897 9.077240086496893 4.734412828455353 13.717726674669779 0 0 0
686 229 1 0.5897 8.517466635627404 2.81794767930357 14.531064801757823 0 0 0
682 228 2 -1.1794 5.421675694828635 2.8887943159404723 14.536190449686163 0 0 0
331 111 2 -1.1794 5.738495864904387 4.605042421018098 12.341152979628625 0 0 0
687 229 1 0.5897 9.913115916585186 2.684304560734149 13.960077838104713 0 0 0
370 124 2 -1.1794 7.7915710619185665 4.426789666631818 10.593701889366782 0 0 0
377 126 1 0.5897 9.742270905622673 4.201280053809253 10.63991770536086 0 0 0
696 232 1 0.5897 7.896002444397104 4.928945055118981 17.4667073565807 0 0 0
38 13 1 0.5897 9.077501344186064 2.067663166192979 19.904072792053853 0 0 -1
715 239 2 -1.1794 7.623903223173658 2.439368699285376 15.933088024267288 0 0 0
657 219 1 0.5897 6.751615228900133 4.6063058415360665 19.2478986701001 0 0 0
676 226 2 -1.1794 6.026585204735587 0.8767148214046209 19.15314517750552 0 0 0
702 234 1 0.5897 9.810946765875547 4.202884043375585 17.64697881314747 0 0 0
694 232 2 -1.1794 8.100238392785108 4.155833910231212 17.992826998000815 0 0 0
695 232 1 0.5897 7.960302022565902 3.4180213907790713 17.399275622234335 0 0 0
677 226 1 0.5897 5.420966586111772 1.0340950441671684 18.42875187547883 0 0 0
706 236 2 -1.1794 8.675898699169245 0.9813449504565466 18.700753003235953 0 0 0
708 236 1 0.5897 7.720413388138219 1.0202889782093156 18.741510557178707 0 0 0
716 239 1 0.5897 7.682402338778064 1.486189721845437 15.868935911533633 0 0 0
655 219 2 -1.1794 5.896830196050666 4.863818402390722 19.593164032741406 0 0 0
717 239 1 0.5897 6.751805456219806 2.6492807627701187 15.599102119323993 0 0 0
35 12 1 0.5897 5.840512598905155 1.988018841242079 20.57234275387821 0 0 -1
656 219 1 0.5897 5.275307416361235 4.604413974346061 18.91291988826471 0 0 0
710 237 1 0.5897 9.293601072843513 4.458010475342997 20.449820950801943 0 0 0
707 236 1 0.5897 8.906626364268963 0.20710524038224776 19.214108130138627 0 0 0
37 13 2 -1.1794 9.33854152585483 2.6178438857967223 20.6426416025886 0 0 -1
36 12 1 0.5897 5.796582686719567 3.5001593360216363 20.62780697455091 0 0 -1
143 48 1 0.5897 6.306749556281197 9.242954591067376 1.1402290171548526 0 0 0
176 59 1 0.5897 7.703475098926058 7.705766269761628 2.0795792945716314 0 0 0
57 19 1 0.5897 7.596642969019035 5.439579733527946 2.4948838680897802 0 0 0
711 237 1 0.5897 8.674291272554592 5.605210398858259 0.6297525701362262 0 0 1
175 59 2 -1.1794 7.79533506730111 8.657938507536693 2.0485029361825613 0 0 0
55 19 2 -1.1794 7.330944812499084 5.952131781324147 1.7313132360846106 0 0 0
56 19 1 0.5897 6.374815480032011 5.908088255093059 1.7336376409782435 0 0 0
177 59 1 0.5897 8.46644383378475 8.812714477659593 1.3837009334139185 0 0 0
166 56 2 -1.1794 8.546239007017315 7.593462199063033 4.8833951412763525 0 0 0
142 48 2 -1.1794 5.59045076286269 9.478076681114278 0.5503979144026065 0 0 0
155 52 1 0.5897 8.075738756846562 9.865801520732505 3.3231059902579796 0 0 0
167 56 1 0.5897 8.782963639003748 6.72263902207126 5.202405747316342 0 0 0
138 46 1 0.5897 6.734439245795431 7.393277438410054 5.030268529185861 0 0 0
136 46 2 -1.1794 5.792439651911657 7.223826260085585 5.022706843556436 0 0 0
61 21 2 -1.1794 9.281817798366975 5.422370131190598 6.581392244695903 0 0 0
501 167 1 0.5897 6.846926633698576 8.867333714489371 8.450377158687662 0 0 0
380 127 1 0.5897 7.4600794315798264 6.8744700532242895 8.648867722382198 0 0 0
467 156 1 0.5897 5.395674199656862 8.381597687576432 6.372000157660454 0 0 0
499 167 2 -1.1794 7.558647227182909 8.560143176845061 9.011927311291316 0 0 0
338 113 1 0.5897 5.361984580905471 5.999394283225556 8.081499509580219 0 0 0
168 56 1 0.5897 8.873818027900551 8.19206773019435 5.554691170846802 0 0 0
469 157 2 -1.1794 9.43656102369393 9.180012240183162 6.94943028461116 0 0 0
500 167 1 0.5897 7.586683923283026 9.191352218741185 9.731013664543084 0 0 0
470 157 1 0.5897 9.018257257712083 8.858325491457004 7.748128016903301 0 0 0
137 46 1 0.5897 5.707912309520171 6.324190664402038 5.338382300858189 0 0 0
62 21 1 0.5897 8.545668221676234 5.518825646059543 7.185588605142216 0 0 0
379 127 2 -1.1794 7.308428289210572 5.955785667250656 8.42718143809716 0 0 0
466 156 2 -1.1794 5.377785045660324 9.093485219184243 7.011665461956965 0 0 0
381 127 1 0.5897 7.447348288077964 5.4846484281195185 9.248830624248418 0 0 0
791 264 1 0.5897 6.021489759422281 8.953869833610174 14.956973026059444 0 0 0
794 265 1 0.5897 9.358955656176796 8.68155821942097 13.348022939035872 0 0 0
491 164 1 0.5897 9.334026898162316 7.757584133608346 11.121879218286148 0 0 0
462 154 1 0.5897 5.558945304993739 7.4440382565385645 11.463374684116069 0 0 0
333 111 1 0.5897 5.89663866243678 5.548998227228458 12.334689036246766 0 0 0
793 265 2 -1.1794 9.403948361858117 9.18252825523189 14.162491500921593 0 0 0
385 129 2 -1.1794 8.958091529431645 5.659448176034218 13.932737656071572 0 0 0
387 129 1 0.5897 8.990055670838325 6.108188151445999 13.087744189818537 0 0 0
460 154 2 -1.1794 6.209381640963228 7.3412090768521825 12.158120781171911 0 0 0
461 154 1 0.5897 5.940819672573168 7.964947027434831 12.832747880658344 0 0 0
492 164 1 0.5897 8.02827337208078 7.470843428834976 11.832255821697842 0 0 0
490 164 2 -1.1794 8.967045210274263 7.575228515267175 11.987034549775668 0 0 0
790 264 2 -1.1794 5.45172119716915 9.146774300809614 14.21235966353863 0 0 0
705 235 1 0.5897 7.715333209205514 5.84122886647372 15.198725732160016 0 0 0
824 275 1 0.5897 8.101928393919907 8.692136141894482 15.433379140528773 0 0 0
814 272 2 -1.1794 8.826833209729038 7.319482351460422 18.66976930816196 0 0 0
786 262 1 0.5897 6.912478173747236 7.532853083850879 18.73572188682796 0 0 0
815 272 1 0.5897 9.019381015148337 6.582561651751981 19.249525178034553 0 0 0
825 275 1 0.5897 7.337169884051782 7.672070437706683 16.24975829995042 0 0 0
785 262 1 0.5897 5.871652428666798 6.652286794478253 19.393803386837092 0 0 0
144 48 1 0.5897 5.658435656559516 8.852732662219731 20.418475093156133 0 0 -1
816 272 1 0.5897 9.001337496363666 8.09549783843917 19.20226109521517 0 0 0
823 275 2 -1.1794 7.370027176863138 8.606321748974558 16.04430420910063 0 0 0
784 262 2 -1.1794 6.0241291484559 7.547658401850221 19.09180958591466 0 0 0
703 235 2 -1.1794 7.20001908915314 5.848686904448832 16.005432643490373 0 0 0
704 235 1 0.5897 6.295327779484197 5.7378989710841335 15.713163707358225 0 0 0
709 237 2 -1.1794 9.345653623954954 5.406567164431898 20.566608330559845 0 0 0
762 254 1 0.5897 5.051499036124019 7.972932321323398 17.747810358902058 0 0 0
145 49 2 -1.1794 9.394089165397618 9.382254691891978 20.559787706652372 0 0 -1
154 52 2 -1.1794 8.13524060603002 10.675678615211549 3.82981525611332 0 0 0
819 273 1 0.5897 8.591293683082876 12.254303411492861 0.4948998869533245 0 0 1
156 52 1 0.5897 9.067472083349537 10.892635072393531 3.8268742990639466 0 0 0
163 55 2 -1.1794 7.506503634129661 12.63724615253613 1.8859247146827618 0 0 0
164 55 1 0.5897 6.596934288323436 12.51976143943306 1.6119831554570798 0 0 0
165 55 1 0.5897 7.689035607145362 11.880597604342398 2.4430583434900055 0 0 0
276 92 1 0.5897 9.387615950113059 14.194184277610914 4.324876631751132 0 0 0
285 95 1 0.5897 7.602712412987749 14.54969095455262 1.9534811509632974 0 0 0
246 82 1 0.5897 5.365465277520614 14.239642449261824 4.198553367744862 0 0 0
275 92 1 0.5897 7.91091593241022 14.190059877510272 4.658091064822916 0 0 0
244 82 2 -1.1794 6.066715190899642 14.12074817979307 4.839176614021027 0 0 0
274 92 2 -1.1794 8.77777036676867 14.23319814899301 5.0616940298754525 0 0 0
245 82 1 0.5897 6.0590374453440266 13.183308766895124 5.032208035229151 0 0 0
116 39 1 0.5897 6.819937892975261 11.024322727587895 4.964554635970111 0 0 0
169 57 2 -1.1794 9.29447907199946 12.051861696597447 6.906036102319528 0 0 0
170 57 1 0.5897 9.143129358398191 12.56712629387867 6.113593511782851 0 0 0
171 57 1 0.5897 9.15078395543559 11.14553725051585 6.6338966405265465 0 0 0
117 39 1 0.5897 5.952788174982961 10.64154853309093 6.145107091872191 0 0 0
488 163 1 0.5897 7.950993669117667 12.006409232679653 8.230773573278176 0 0 0