#include		in.partitions
include		in.temp
variable        temperature equal 150.22
variable	tempDamp equal 100.0
include		in.pressure
variable        pressure equal 1873.4
variable        pressureDamp equal 1000.0 # This is 1 ps
include		in.seed
variable        seed equal 745823

units		real
atom_style	full
#include		in.box
read_restart	restart.lmp.${pid}
read_restart	restart.lmp.0
Reading restart file ...
  restart file = 30 Jul 2021, LAMMPS = 30 Jul 2021
  restoring atom style full from restart
  orthogonal box = (0.11892324 0.097141360 0.15111572) to (18.088649 23.532036 22.062080)
  2 by 4 by 4 MPI processor grid
  restoring pair style lj/cut/tip4p/long/omp from restart
  restoring bond style harmonic/omp from restart
  restoring angle style harmonic/omp from restart
  864 atoms
  576 bonds
  288 angles
Finding 1-2 1-3 1-4 neighbors ...
  special bond factors lj:    0        0        0       
  special bond factors coul:  0        0        0       
     2 = max # of 1-2 neighbors
     1 = max # of 1-3 neighbors
     1 = max # of 1-4 neighbors
     2 = max # of special neighbors
  special bonds CPU = 0.003 seconds
  read_restart CPU = 0.010 seconds
include 	in.setup
variable	out_freq equal 1000
variable	out_freq2 equal 10000
variable	out_freq3 equal 1000

timestep	2.0

neigh_modify    delay 7 every 1

include		in.tip4p
# This is TIP4P/Ice

# create groups ###
group ox type 2
288 atoms in group ox
group hy type 1
576 atoms in group hy

# set charges - beside manually ###
set group ox charge -1.1794
Setting atom values ...
  288 settings made for charge
set group hy charge 0.5897
Setting atom values ...
  576 settings made for charge

# ### TIP3P Potential Parameters ###
pair_style lj/cut/tip4p/long/omp 2 1 1 1 0.1577 8.5
pair_coeff 1 1*2 0.000 0.000
pair_coeff 2 2 0.21084 3.1668
bond_style  harmonic
bond_coeff  1 450 0.9572
angle_style harmonic
angle_coeff 1 55 104.52
kspace_style pppm/tip4p/omp 1.0e-5
pair_modify tail yes

thermo          ${out_freq}
thermo          1000
thermo_style    custom step temp pe etotal epair emol press lx ly lz vol pxx pyy pzz pxy pxz pyz enthalpy

restart 	${out_freq3} restart.lmp.${pid} restart2.lmp.${pid}
restart 	1000 restart.lmp.${pid} restart2.lmp.${pid}
restart 	1000 restart.lmp.0 restart2.lmp.${pid}
restart 	1000 restart.lmp.0 restart2.lmp.0


include         in.dump
dump            myDump all atom ${out_freq2} dump.water.${pid}
dump            myDump all atom 10000 dump.water.${pid}
dump            myDump all atom 10000 dump.water.0
dump            myDump2 all dcd ${out_freq2} dump.dcd
dump            myDump2 all dcd 10000 dump.dcd
dump_modify     myDump append yes
dump_modify     myDump2 append yes


variable natoms 	equal  "count(all)"                        # NUMBER ATOMS
variable H      	equal  "enthalpy/v_natoms"                 # ENTHALPY-per-atom
variable Vol      	equal  "vol/v_natoms"                 # volume-per-atom
fix AVG all 		ave/time ${out_freq} 1 ${out_freq} v_Vol v_H file vol_enthalpy.dat
fix AVG all 		ave/time 1000 1 ${out_freq} v_Vol v_H file vol_enthalpy.dat
fix AVG all 		ave/time 1000 1 1000 v_Vol v_H file vol_enthalpy.dat


timer           timeout 23:50:00 every 1000
New timer settings: style=normal  mode=nosync  timeout=23:50:00

fix 		1 all shake 1e-6 200 0 b 1 a 1
       0 = # of size 2 clusters
       0 = # of size 3 clusters
       0 = # of size 4 clusters
     288 = # of frozen angles
  find clusters CPU = 0.001 seconds
fix             2 all nph aniso ${pressure} ${pressure} ${pressureDamp}
fix             2 all nph aniso 1873.4 ${pressure} ${pressureDamp}
fix             2 all nph aniso 1873.4 1873.4 ${pressureDamp}
fix             2 all nph aniso 1873.4 1873.4 1000
fix             3 all temp/csvr ${temperature} ${temperature} ${tempDamp} ${seed}
fix             3 all temp/csvr 150.22 ${temperature} ${tempDamp} ${seed}
fix             3 all temp/csvr 150.22 150.22 ${tempDamp} ${seed}
fix             3 all temp/csvr 150.22 150.22 100 ${seed}
fix             3 all temp/csvr 150.22 150.22 100 745823


run             250000
PPPM initialization ...
  extracting TIP4P info from pair style
  using 12-bit tables for long-range coulomb (../kspace.cpp:340)
  G vector (1/distance) = 0.37186888
  grid = 24 27 25
  stencil order = 5
  estimated absolute RMS force accuracy = 0.0031385241
  estimated relative force accuracy = 9.4515722e-06
  using double precision FFTW3
  3d grid and FFT values/proc = 4410 672
Last active /omp style is kspace_style pppm/tip4p/omp
Neighbor list info ...
  update every 1 steps, delay 7 steps, check yes
  max neighbors/atom: 2000, page size: 100000
  master list distance cutoff = 10.8154
  ghost atom cutoff = 10.8154
  binsize = 5.4077, bins = 4 5 5
  1 neighbor lists, perpetual/occasional/extra = 1 0 0
  (1) pair lj/cut/tip4p/long/omp, perpetual
      attributes: half, newton on, omp
      pair build: half/bin/newton/omp
      stencil: half/bin/3d
      bin: standard
Per MPI rank memory allocation (min/avg/max) = 10.21 | 10.22 | 10.23 Mbytes
Step Temp PotEng TotEng E_pair E_mol Press Lx Ly Lz Volume Pxx Pyy Pzz Pxy Pxz Pyz Enthalpy 
20750000    158.82449   -4458.2614   -4186.0416   -4458.2614            0    2289.7978    17.969726    23.434895    21.910964    9227.1155    3306.4492    1969.7929    1593.1514    606.09046   -418.76526    72.976387   -3877.9081 
20751000    149.43292   -4460.1186   -4203.9957   -4460.1186            0    3382.6595    17.897579    23.171409     22.11071    9169.5796    3866.7278    3141.6213    3139.6292    347.63037   -938.04594    829.78026   -3751.6363 
20752000    151.29363   -4463.7526   -4204.4405   -4463.7526            0     1235.175    17.970991    23.318468     22.07544     9250.845    1241.7348    1630.7891      833.001   -1.7958724    732.54501    168.53235    -4037.798 
20753000    147.62278   -4463.2928   -4210.2725   -4463.2928            0    1800.9838    18.133765    23.255118     21.91645    9242.2298    1602.6643    1394.6035    2405.6836    -609.4192   -259.67214      323.531   -3967.5207 
20754000    146.82141   -4485.2745   -4233.6277   -4485.2745            0     1200.538    17.946782    23.405218    22.075801    9272.9038    1878.5857     1350.696    372.33222   -1447.3209    142.17651   -413.59953    -4071.272 
20755000    152.31296   -4464.7523   -4203.6932   -4464.7523            0     672.2621    18.006291    23.452156     22.00912    9294.1509    940.24534     406.2898    670.25115   -128.42847   -482.26433    28.542623   -4112.5709 
20756000    148.98497   -4448.3986   -4193.0435   -4448.3986            0    2265.9031    18.028936    23.325159    21.886603     9203.925    2520.4143    3013.6225    1263.6726    119.04014   -181.66688    578.82425   -3888.8917 
20757000    146.88957   -4457.3732   -4205.6095   -4457.3732            0    2381.1237    18.002888    23.432332    21.824893     9206.823    1795.4392    3030.5675    2317.3644   -126.55029   -356.71296     199.4163   -3885.8911 
20758000    150.52787   -4452.5495   -4194.5499   -4452.5495            0    2240.4344    17.994399    23.224128     22.04761    9213.7894    2245.4621    2874.8848    1600.9564    311.87246   -245.11459    141.06658   -3893.4945 
20759000    152.40749   -4449.8231   -4188.6019   -4449.8231            0      1416.27    17.831327    23.534459    22.014614    9238.4465    1140.6491    1100.5404    2007.6205    66.505958    -103.9498    289.75305   -3997.7832 
20760000    152.34797   -4465.4807   -4204.3615   -4465.4807            0    1962.8437    18.108311    23.236919    21.948833      9235.66    2285.6693    2380.4202    1222.4416    46.509276   -40.539552    171.38833    -3939.981 
20761000    156.91097   -4477.9439   -4209.0038   -4477.9439            0    103.99011     17.90972    23.798113     21.90596    9336.7043    62.473406   -443.74017    693.23711   -267.52201    72.409496   -111.92771   -4194.8439 
20762000    158.08522   -4453.9849   -4183.0322   -4453.9849            0    2464.0453    17.949195    23.240094    22.077176    9209.2951    2806.3391     2830.734    1755.0629   -792.69157   -521.86719    166.35175   -3852.0909 
20763000    153.60863   -4452.8866   -4189.6066   -4452.8866            0    1663.4285    17.955167    23.408797    21.954609    9227.7168    2172.0799    1451.3308    1366.8747    910.73071    524.31429    285.94815   -3965.7478 
20764000    143.89684   -4468.9217   -4222.2875   -4468.9217            0    2054.6682    18.130774    23.397555    21.673594    9194.2808    1414.2274    2717.3835    2032.3938   -477.24775   -346.13808    -395.2219   -3946.7787 
20765000    151.25143   -4466.4325   -4207.1927   -4466.4325            0    1632.6596    17.968273    23.375715    21.945707    9217.6628    1164.6609    2433.5374    1299.7807   -902.52615   -304.00461   -229.82576    -3987.714 
20766000     154.1571   -4467.3118   -4203.0918   -4467.3118            0      953.516    17.934319    23.313052    22.179213    9273.2113    2313.8147    464.74179    81.991513    62.951922    45.684192    182.69287    -4074.138 
20767000    148.56239    -4460.495   -4205.8641    -4460.495            0    1485.7734    18.064576    23.345035    21.944981    9254.5969    1752.5678    1704.3623    1000.3901    1891.3737    793.86012    38.313161   -4005.3311 
20768000    136.92394   -4455.9099   -4221.2269   -4455.9099            0    1440.8812    18.000675    23.587334    21.758893    9238.5632     831.5364   -316.72766    3807.8348    509.33742   -111.63618   -164.80173   -4027.0898 
20769000    153.99929   -4471.9337   -4207.9842   -4471.9337            0    1009.7103    17.977161    23.289425    22.101923    9253.5831    1444.4503    1553.1478    31.532809   -27.710502   -518.95007   -199.13868   -4071.7197 
20770000    142.17601     -4456.53   -4212.8451     -4456.53            0    2526.0844    17.719931    23.375298    22.158831    9178.3797    3623.6206      3418.54    536.09256    391.26867   -262.32741    124.92049   -3874.7104 
20771000     157.2578   -4488.0817   -4218.5472   -4488.0817            0    1743.0142    18.021329    23.275706    21.957487    9210.2691    2408.5019    1124.3969    1696.1437   -1077.9621    337.64382    188.26015   -3984.4215 
20772000    146.28661   -4444.5833    -4193.853   -4444.5833            0     1790.307    17.955527    23.399573    21.907703    9204.5582    2837.1393    1289.0766    1244.7052   -85.863685   -137.81565   -577.98518   -3953.5239 
20773000    147.27687   -4472.9803   -4220.5527   -4472.9803            0    2598.4844    17.966986    23.283029    21.977592    9193.7948    2851.9216    1657.5259    3286.0058   -272.09431   -87.391585    463.57816   -3872.1426 
20774000    158.45225   -4446.2739   -4174.6922   -4446.2739            0    2285.2143    18.018031    23.366091    21.866881    9206.1966    2629.3321    2706.2098    1520.1011   -185.88278   -724.63329    191.58222   -3867.8726 
20775000    141.97933   -4446.1902   -4202.8425   -4446.1902            0    1791.5419    17.931177    23.412167    21.952592    9215.8674    3062.6717     1510.063    801.89101   -121.93937    199.63235    330.05687   -3962.0522 
20776000    152.27433   -4445.9372   -4184.9442   -4445.9372            0    2399.8582     17.99383    23.171304    22.084572     9207.953    2272.5883    2968.7731    1958.2133    382.56406    250.78005    222.31063   -3862.6707 
20777000    156.01725   -4460.2832    -4192.875   -4460.2832            0    2685.4494    17.890947    23.345919    21.995249     9186.989    2901.3211    2865.3461     2289.681    16.931427    100.63926    568.14877   -3833.0709 
20778000    151.75204   -4471.8884   -4211.7906   -4471.8884            0    2657.0644     18.13499    23.259646    21.752272    9175.4008    1738.6583    3035.5705    3196.9645    609.62173   -501.54201    17.634736   -3856.2387 
20779000    144.77741   -4475.2515   -4227.1079   -4475.2515            0    1711.8429     17.89398    23.544202    21.898168    9225.6868     1737.031    1918.3139    1480.1837    169.88613    353.56595   -50.716364   -3996.7843 
20780000    156.60867    -4462.591   -4194.1691    -4462.591            0    1514.3795     18.07619    23.266339    21.973791     9241.446    2368.0763    1674.1452    500.91707    360.66152   -4.0430353    570.43455   -3990.0655 
20781000    146.55484   -4436.9805   -4185.7905   -4436.9805            0     1294.415    17.900267    23.659794    21.818762    9240.6085     2435.348    762.15849    685.73859    409.28696    487.65008    748.59609   -4011.3489 
20782000     155.2289    -4466.229    -4200.172    -4466.229            0    1221.0692    18.128815    23.160164    22.088157    9274.0734    18.814528     2426.757     1217.636     164.3801   -359.60902    164.47394   -4035.0189 
20783000    159.80257   -4475.3297   -4201.4336   -4475.3297            0    950.97724    17.965134    23.451824    21.986814    9263.3782    1096.3463    1256.3707    500.21478     409.8011   -47.807353   -51.771826   -4072.9595 
20784000    143.13581   -4465.2333   -4219.9034   -4465.2333            0    1826.0205    18.165135     23.01422    22.034581    9211.6976    551.67659    1878.8442    3047.5406    678.63669   -562.00329   -699.37835     -3974.59 
20785000    148.93635   -4483.1445   -4227.8726   -4483.1445            0    2808.0974    17.809501    23.468892    21.948489    9173.7937    1952.4126    2746.8208    3725.0589    616.90768    87.597943   -1057.4061   -3852.1762 
20786000    143.75684   -4466.4922   -4220.0979   -4466.4922            0    2813.2519    18.129358    23.077214    21.947851    9182.4337    1192.0928    4115.9593    3131.7036    80.258326     142.3429    507.37286   -3843.3574 
20787000    157.69977   -4469.9992   -4199.7072   -4469.9992            0    2281.3843    17.922314    23.413081    21.928889    9201.7257    1552.0728    1829.1942     3462.886    150.46123   -1022.3068   -96.691204   -3893.5506 
20788000    146.05096   -4454.2434    -4203.917   -4454.2434            0    2251.6832    17.948189    23.342026    21.954303    9197.6912    1436.3789    1912.8498    3405.8207    543.07977   -245.64638     82.24844   -3901.8787 
20789000    150.86556   -4459.2949   -4200.7165   -4459.2949            0    3057.5856    17.984226     23.35376    21.814628    9162.1285    3169.7188    3800.4556    2202.5826    605.59435    653.43227    356.78665   -3792.1612 
20790000    150.69875   -4470.5869   -4212.2944   -4470.5869            0    1123.0066    17.978298    23.399437    22.006005    9257.5312    826.40909    1979.3231    563.28765   -325.72986    488.94632    109.15494   -4060.6755 
20791000     137.5449   -4444.7908   -4209.0435   -4444.7908            0    1976.5707    17.958531    23.242753    22.115387    9231.0888    1784.9157    2166.1773     1978.619   -71.180361    90.435388    774.21975   -3942.9458 
20792000    143.43477   -4459.5713    -4213.729   -4459.5713            0    1644.6263    17.907805    23.368599    22.164091     9275.236    2004.6143    1554.7147    1374.5499     50.30212   -584.59182   -217.38386   -3991.2607 
20793000    150.39317   -4457.2655   -4199.4967   -4457.2655            0    1951.3435    18.039225    23.240932    22.033689     9237.589    2764.3245    2622.0666    467.63956     677.6115    228.97645    308.22977   -3936.6102 
20794000    150.98319   -4463.1695   -4204.3895   -4463.1695            0    1380.6004    18.036854    23.440159    21.864001    9243.8095    978.96444    2208.8197      954.017   -911.87419   -280.98894    2.7913586   -4018.2687 
20795000    150.48062   -4491.1183   -4233.1997   -4491.1183            0    2895.7291    17.899769    23.306915    21.964972    9163.5316    4004.6698    1734.9346    2947.5828    146.47923    106.92399   -481.87446   -3846.2124 
20796000    155.38568   -4462.1912   -4195.8654   -4462.1912            0    2656.7645    17.942751    23.270324      22.0984    9226.8252    2969.8328    2614.5039    2385.9568    11.542189   -39.561708   -721.84926   -3838.3611 
20797000    150.23299   -4472.5547   -4215.0605   -4472.5547            0    2636.9079    17.868297    23.404689    21.933183    9172.4995    2259.6604    4770.6085    880.45478    288.77745    221.41873    30.812696   -3862.3173 
20798000    143.95064   -4444.6594   -4197.9329   -4444.6594            0    2919.7606    18.063862    23.241716    21.796606    9150.9814    3520.3195    2469.6832    2769.2792   -465.98271   -261.95533   -175.73024   -3808.2684 
20799000    157.64426   -4469.5887   -4199.3918   -4469.5887            0    1387.9776    17.921118    23.500353     21.95263     9245.407     871.6005    1581.4973    1710.8351   -364.87819   -339.38447    83.184909   -4012.2442 
20800000    152.14767   -4477.6123   -4216.8364   -4477.6123            0    2475.4674    18.024797    23.288686    21.986623     9229.409    2177.3458    3373.4392    1875.6174    159.65624    4.7427978    -372.6273   -3883.6348 
20801000    158.25536   -4463.8923   -4192.6481   -4463.8923            0    1597.9641    17.967944    23.487645    21.809008    9203.9397    1218.3151    1387.6211    2187.9562    621.24279    329.62273   -324.07643   -3978.1533 
20802000     151.8687   -4471.0677     -4210.77   -4471.0677            0    2507.5304    17.935308    23.358919    21.987263    9211.5508    3756.2178    1413.9316    2352.4417   -599.47054    140.96253    278.84756   -3873.9058 
20803000    144.38882   -4462.1764   -4214.6989   -4462.1764            0    2601.1599    18.064559    23.161367    21.985652     9198.794    2558.1131    3153.1664    2092.2001   -93.750938    -74.02871    442.74123   -3865.7403 
20804000    155.55804   -4462.4648   -4195.8436   -4462.4648            0    919.79421    17.988828    23.620213    21.847189    9282.8696    784.47947    2.1087933    1972.7944    93.999955    160.35586    -40.31441   -4071.3209 
20805000    134.30104   -4434.8276   -4204.6402   -4434.8276            0    1811.1768    18.025543     23.36514     21.90848    9227.1799    1901.9714    708.27111     2823.288   -39.416319    561.96035    -1201.545   -3960.9121 
20806000    156.69871   -4457.2934   -4188.7172   -4457.2934            0    1655.4169    17.890246    23.411021    22.080668    9248.0225    972.60188    1560.0732    2433.5755    275.50994   -175.20628   -267.35852   -3965.4462 
20807000    156.63024   -4477.2068   -4208.7479   -4477.2068            0    1257.9508    18.002913    23.350623    22.035909    9263.4385    1453.5304     1660.002    660.31994    65.734576   -106.28957    745.74344   -4038.8016 
20808000    147.17622   -4458.8322   -4206.5772   -4458.8322            0    2572.3259    17.987486    23.481486    21.790544    9203.7351    1615.7534    958.78489    5142.4393   -603.05166   -138.15448   -87.098467   -3861.3015 
20809000    154.75569   -4467.0043   -4201.7583   -4467.0043            0    2344.9646    17.979664    23.297392    22.022445    9224.7457    2641.0065    2490.2783    1903.6092   -477.02888   -210.55852   -344.86209   -3886.2821 
20810000      146.267   -4481.3151   -4230.6185   -4481.3151            0    1843.4013    17.915294    23.234205    22.167672    9227.2405    3110.1758    1830.9705    589.05746   -74.079632    165.94559   -315.63655   -3982.5523 
20811000    146.34701   -4459.7225   -4208.8888   -4459.7225            0    2360.7423     17.92352    23.359708    21.989815    9206.8758    2303.1167     1874.339    2904.7711      284.892   -375.86526   -694.70179   -3891.9052 
20812000    154.28839   -4460.1417   -4195.6967   -4460.1417            0    2485.2656    18.112965    23.345501     21.71885    9183.9508    3242.8704    2137.8886    2075.0378    266.89856    6.9191275   -172.86228   -3862.8239 
20813000    155.50435   -4452.0644   -4185.5352   -4452.0644            0    695.78284    18.046535    23.398124    22.000166    9289.6816   -374.44917    493.44663     1968.351    286.06545    565.44352   -596.78939   -4091.2703 
20814000    151.79769   -4465.8214   -4205.6453   -4465.8214            0    2850.7661     17.98136    23.252469    22.010817    9202.9651    2757.4156    3669.1784    2125.7041    633.28279    14.130357    60.683586   -3823.0275 
20815000    148.82687   -4479.5653   -4224.4811   -4479.5653            0    2123.3567    17.861714    23.477399    21.909785    9187.7932    3793.6102    2095.5653    480.89464   -859.59029     1036.654    106.20408   -3939.9629 
20816000     156.1526   -4455.5616   -4187.9213   -4455.5616            0    2281.5064    18.176207    23.078502    21.942924    9204.6092    3756.7858    2258.0143    829.71907   -91.422408    747.93577    361.75402   -3881.6524 
20817000    142.27625   -4474.6961   -4230.8395   -4474.6961            0    1681.7143    17.880228    23.454723    21.998211    9225.5169    1730.2231     2035.457    1279.4627    315.23018    898.84432    30.249042   -4004.5738 
20818000    147.94209    -4461.892   -4208.3243    -4461.892            0    2984.5836     17.94171    23.317492    21.928743    9174.0141    3409.6378    3107.9318    2436.1813    52.321355    630.77917    492.86922   -3809.0062 
20819000    145.93166   -4480.6491   -4230.5272   -4480.6491            0    2645.8552    17.910964    23.344122    22.032344    9212.0695    3040.1139     2223.458    2673.9936    619.62279    492.82746   -91.335362   -3875.0603 
20820000     149.7631   -4462.8365   -4206.1477   -4462.8365            0    1680.4212    17.974658    23.411032    21.956441    9239.3867    1210.9896    796.50612    3033.7679    158.59847   -123.59106    147.04708    -3979.716 
20821000    147.69023   -4462.0988   -4208.9628   -4462.0988            0    900.75221    18.157446    23.465773    21.736073    9261.2733    624.26108     336.1816    1741.8139   -102.24679   -312.69659    66.629422   -4087.3016 
20822000    156.19964   -4438.6594   -4170.9385   -4438.6594            0    3543.0523    17.823737    23.430921    21.973723    9176.8108    4947.7066    2569.0185    3112.4318   -550.61305    162.40018    149.86411   -3696.7563 
20823000    145.46403   -4478.8774   -4229.5571   -4478.8774            0     1566.499    18.139149    23.092114    22.047832    9235.2039    2113.0191    2431.4422    155.03576   -61.105999   -569.19221    -273.1241   -4018.5716 
20824000    152.67011   -4473.1711   -4211.4997   -4473.1711            0    1836.9199    17.943862     23.58433    21.886947    9262.4237    834.17936    2029.4213     2647.159    381.01633    484.68578   -130.29721   -3963.3632 
20825000     145.5156   -4460.0304   -4210.6216   -4460.0304            0    1639.1773     18.06247     23.33839     21.90698    9234.8648    1380.1773    1406.1369    2131.2177   -206.72447   -557.71199   -112.27283   -3989.8555 
20826000    149.50724    -4470.947   -4214.6967    -4470.947            0    2303.3088    17.909745    23.323631    22.012815    9195.1989    1714.6234    3041.8468    2153.4561   -382.29703    764.18878   -381.68299   -3905.8171 
20827000    152.76859   -4480.1948   -4218.3546   -4480.1948            0     1276.931    17.864679    23.314685    22.184406     9240.013    1711.1698    1313.6323    805.99072    37.896102   -76.696708     273.5559   -4046.2804 
20828000    163.67266   -4462.7158   -4182.1864   -4462.7158            0    1553.6741    18.039973    23.254791    22.041032    9246.5613    2264.9757    2319.2331    76.813457   -655.59641    216.19807   -209.97319    -3972.671 
20829000    148.45365   -4468.3825    -4213.938   -4468.3825            0    852.33735    18.135618    23.474777    21.806044     9283.478    815.07149    436.82592    1305.1146    -1180.625   -419.29978    623.35082   -4098.5401 
20830000    152.97774   -4448.1341   -4185.9355   -4448.1341            0     1359.003      18.0341    23.470419    21.888499    9264.6986     668.2569    1877.4537    1531.2983   -1063.6981     59.47336    367.96423   -4002.3123 
20831000    141.29248   -4449.0962   -4206.9257   -4449.0962            0    2529.4393     17.92289    23.334937     22.03035    9213.7422    3430.1052    2352.0649     1806.148    -140.2041   -76.607321    45.738727   -3867.0374 
20832000    152.40628   -4480.5481    -4219.329   -4480.5481            0    2077.4251    17.918972    23.176926    22.160955     9203.593    2453.0402    3140.2403    638.99483   -5.7410204   -457.22337    660.75142   -3940.4866 
20833000    145.32683   -4467.6205   -4218.5353   -4467.6205            0    1298.7365     17.90248    23.642038    21.871131    9256.9806    1515.7211    1104.5373    1275.9511    394.38543   -6.0669347    173.12015   -4043.2013 
20834000    156.65607   -4450.4727   -4181.9696   -4450.4727            0     2980.293    17.969679    23.355742    21.877998    9182.0906    3095.3318    2337.8257    3507.7214   -878.38489    163.26296    73.527371   -3782.8745 
20835000    153.78196   -4472.7055   -4209.1284   -4472.7055            0    1575.3371    17.994406    23.391154    21.987762    9254.8671    1980.7464    2563.4754    181.78954   -29.825614    59.805056    264.17672   -3996.5009 
20836000    150.90465   -4467.9184    -4209.273   -4467.9184            0    2819.2058    17.916927    23.430786    21.889091    9189.2083    3100.0258    2822.8715      2534.72   -935.71496    121.26657    880.90208   -3831.4567 
20837000    146.32867   -4468.2924   -4217.4901   -4468.2924            0    1018.5474    18.083033    23.327066    22.036639    9295.5856    4.8578812    370.95091    2679.8335   -900.38528    733.66534    397.98884   -4079.4091 
20838000    148.41856   -4442.8046   -4188.4202   -4442.8046            0     2884.044    17.701378    23.465163    22.122357    9188.8689    2876.4944    2531.0341    3244.6037    1066.4535   -463.21424    240.32046   -3801.9288 
20839000    139.68185   -4469.0901   -4229.6802   -4469.0901            0    2069.3802    18.046603    23.212093    21.982856    9208.6057    1593.4856    2618.5636    1996.0915    251.59504   -357.80974    550.12169   -3951.7664 
20840000    148.37558   -4456.8788   -4202.5681   -4456.8788            0    912.51316    17.840382    23.631452    21.987271    9269.7039    1984.4147    714.03538    39.089419    219.00774    575.66091    -261.4574   -4079.2063 
20841000    146.52915   -4474.6324   -4223.4864   -4474.6324            0    1369.0661     18.11084    23.199809    22.018766    9251.5817    543.51803    1088.5755    2475.1046   -9.4707498    -322.6067   -178.06613   -4038.7654 
20842000    152.78713   -4459.5611   -4197.6892   -4459.5611            0    1548.9879     17.89032    23.631982    21.853294    9239.2169    2742.0321    730.82839    1174.1031    112.79924   -93.462091   -4.4771743   -3988.9716 
20843000     152.7182   -4483.6089   -4221.8551   -4483.6089            0    2110.2569    18.001679    23.331023    21.914701    9204.1214    1638.2955    2459.3633     2233.112   -791.56209    266.44986    86.776398   -3938.5897 
20844000    149.84213   -4469.9201   -4213.0959   -4469.9201            0    1695.4854    17.924717    23.396079    22.044276    9244.6659    2257.3785     1589.485    1239.5928   -531.08968   -282.17372    612.30785   -3984.5038 
20845000      150.973   -4474.6374   -4215.8749   -4474.6374            0     3118.213     17.94161    23.290514    21.915923    9157.9914    3465.6048    3130.5309    2758.5032   -221.75503   -234.78969    203.51659   -3799.4066 
20846000    154.22814   -4460.1116   -4195.7698   -4460.1116            0    2031.6959    18.098879     23.23353     21.96884    9237.9159    2100.1717    2545.9329    1448.9833   -349.31399    491.84249    -456.8218   -3922.0485 
20847000    154.35952   -4468.5059   -4203.9389   -4468.5059            0    1950.7441    17.926884    23.486298    21.854215    9201.4143    2121.6168    2454.7122    1275.9034   -1071.9488    364.04834   -183.36926   -3942.1623 
20848000    146.53557   -4476.5507   -4225.3937   -4476.5507            0    2322.2452    18.041827    23.038622      22.1262    9196.9503    1135.1862    3989.2529    1842.2967     7.256948   -516.76184   -244.10322   -3913.9154 
20849000    149.74801   -4460.4182   -4203.7553   -4460.4182            0    1292.3432    17.903916    23.417752    22.084035    9259.1617    2248.0227    874.10274    754.90404   -356.54197   -291.06802    818.77212   -4029.2432 
20850000    145.61422    -4472.461   -4222.8832    -4472.461            0    2664.1309    18.047944    23.280224    21.890696    9197.5988    2807.7651     1749.347    3435.2806   -1062.0737   -156.06926   -15.605085   -3865.5232 
20851000    144.74724   -4477.8766   -4229.7848   -4477.8766            0    1842.7299    17.933745    23.573082    21.857182    9240.2028    2189.9614    625.06384    2713.1643   -235.78189    456.03814    -400.3673   -3981.4606 
20852000    155.35543   -4463.5101   -4197.2362   -4463.5101            0    2601.6815    18.095154    23.229005    21.862595    9189.5582    1927.4508    2766.3673    3111.2265   -304.55728    262.90808   -147.67272   -3848.5581 
20853000    148.53349   -4454.4874   -4199.9061   -4454.4874            0    1426.5444    17.814004    23.584319     22.00853    9246.4692    2512.1133     684.6082    1082.9117    52.360609   -116.21498   -153.37437   -4007.5362 
20854000    148.77599   -4464.1896   -4209.1926   -4464.1896            0    1684.4128    17.988717    23.360482    22.004626    9246.8963    497.92883    2239.3312    2315.9784   -149.61625     526.6623    173.77517   -3982.0386 
20855000    156.59526   -4460.6583   -4192.2594   -4460.6583            0     2155.498    17.925841    23.262035    22.145057    9234.3014    789.90117     2983.144    2693.4489     500.9358    186.84471    123.70359   -3901.9724 
20856000    140.50501   -4463.3772   -4222.5565   -4463.3772            0    3706.2496    17.871514     23.43335    21.937901    9187.3613    3928.7589    2451.9114    4738.0786   -513.74818   -45.361577   -30.117788   -3725.9626 
20857000    147.34122   -4470.8315   -4218.2937   -4470.8315            0    1942.4005    18.128789    23.266665    21.910616    9241.8204    1795.6834     1522.686    2508.8321    292.57961    400.50075   -131.19266   -3956.4922 
20858000    146.37751   -4463.5019   -4212.6159   -4463.5019            0    1867.2698    17.878733    23.476013    22.020762    9242.5841    1252.6761     2470.149    1878.9842   -46.955618  -0.85462929   -191.72751   -3960.9198 
20859000    151.29321   -4472.8598   -4213.5484   -4472.8598            0    1875.7279    18.018829      23.1912    22.077093    9225.5375    1523.7424    2149.4421    1953.9992    565.04651   -14.201001    745.79994   -3961.1786 
20860000    146.83576   -4464.8513   -4213.1798   -4464.8513            0    1672.0753    17.772399    23.538951     22.09778    9244.4656     1747.414    1864.1846    1404.6274    332.28625   -324.60612    325.41739   -3987.7489 
20861000    157.91164   -4471.4564   -4200.8012   -4471.4564            0    1965.0576    18.189897    23.235839    21.861628    9239.9815    840.21095    3295.1494    1759.8125    246.38297    495.64508     713.9783   -3935.9986 
20862000    150.93701   -4466.3054   -4207.6045   -4466.3054            0    2526.7206    17.830822    23.559387    21.841408    9175.2096    3127.9591    1296.0545    3156.1482    477.38512    174.96206   -309.47497   -3869.5014 
20863000    143.74905   -4457.7792   -4211.3983   -4457.7792            0    1517.5697    18.072744    23.175743    22.108671    9260.2007    1623.9497    2571.3066    357.45282   -396.94235    288.67577   -89.774094   -4006.4497 
20864000    160.70274   -4462.6061   -4187.1671   -4462.6061            0    1887.4622    18.006876    23.360415    21.972672    9242.7625    2575.7693    1627.6439    1458.9734   -69.191221   -383.68253    734.29401   -3932.7444 
20865000    154.69326   -4462.4214   -4197.2825   -4462.4214            0    2004.9045    18.036359    23.400425    21.896862    9241.7559    2073.1985    1278.3554    2663.1595   -864.50635    624.54365   -223.83624   -3927.0584 
20866000    149.89674   -4477.5711   -4220.6532   -4477.5711            0    2147.7845     17.91174    23.322471    22.142572    9249.9717     2468.592    2001.0678    1973.6937    -484.5669   -206.82432    208.27639   -3930.9142 
20867000    144.92324   -4478.6479   -4230.2545   -4478.6479            0    2331.3452     17.96036    23.414643    21.928696    9221.7934    1992.2052    2862.0823    2139.7481   -132.87397    -406.6864   -217.90346   -3916.7109 
20868000    148.20661   -4474.1878   -4220.1667   -4474.1878            0    2685.9987     18.13338    23.225551    21.814158    9187.2017    1472.1821    4386.7945    2199.0194    9.0871328   -659.19122   -139.85968   -3860.2808 
20869000    152.58219   -4463.0025   -4201.4818   -4463.0025            0    1996.7137    17.971366    23.406896    21.962154    9238.4656    1939.8596    3161.7771    888.50427    -255.3075   -7.5369033    225.12679   -3932.4575 
20870000    145.87317   -4465.6267   -4215.6051   -4465.6267            0    2538.8018    17.998909    23.075822    22.184098    9213.9352    2445.6902     2352.723    2817.9923   -1122.5979   -315.73325    457.33906   -3874.4516 
20871000    149.70113   -4473.6509   -4217.0683   -4473.6509            0    1944.9719    17.871015    23.445925     21.96737    9204.3822    2286.4984    581.34882    2967.0686   -64.629072   -325.93711    457.76815   -3955.9821 
20872000     154.6064    -4453.545   -4188.5549    -4453.545            0    3109.8767    18.178708    23.119295    21.818982    9170.0583    3278.5496    3472.0816    2578.9988     1336.406    88.946282    393.99737   -3772.6528 
20873000    146.85087   -4480.8573   -4229.1599   -4480.8573            0    948.43396    17.906868    23.593132    21.948919    9272.9598    513.94248   -241.73922    2573.0986   -245.75437     324.3542     -121.617   -4100.8969 
20874000    150.14606    -4455.865   -4198.5198    -4455.865            0    2027.3411    18.008909    23.260502    22.040822    9232.8175    4048.2833     1658.896    374.84407    694.38247   -378.34575   -594.40748   -3925.5359 
20875000     161.8895   -4463.7569   -4186.2839   -4463.7569            0    1818.3621    17.858135    23.389182    22.031233    9202.1634    2004.3698    1684.5158    1766.2008    234.66319   -99.756474    239.99811   -3942.2522 
20876000    149.44901   -4464.0477   -4207.8972   -4464.0477            0    2126.8981    17.999263    23.318117    21.975837    9223.4545    1867.3312    2953.0605    1560.3026    -33.43665   -317.79977    196.19763   -3921.7983 
20877000    148.88768   -4458.7174    -4203.529   -4458.7174            0    2098.2764    18.026275    23.482929    21.778295    9218.9639     3550.248    441.34141    2303.2399   -144.28255    199.03733    266.49398   -3921.4176 
20878000    156.32242   -4475.9912   -4208.0599   -4475.9912            0    1194.6494    18.103045    23.378975    21.902448     9269.787    1801.0853    828.47507    954.38791    74.827662    99.059633   -570.90528   -4046.5549 
20879000    158.04284   -4466.9513   -4196.0713   -4466.9513            0     999.8867    18.001569    23.394417    21.967533    9251.3235    376.92317    1311.2467    1311.4902    581.80179   -202.31693   -1055.8277   -4061.1655 
20880000    145.93935   -4473.0574   -4222.9224   -4473.0574            0     2683.833    17.890201    23.311754    21.999903    9175.1026    2910.0206    2473.1861    2668.2924    10.286992    553.41528    -509.0763   -3863.8001 
20881000    144.41646   -4470.1083   -4222.5835   -4470.1083            0    3250.1002    17.916258    23.240142    22.023507    9170.0684    4183.9519    3180.8605    2385.4882   -402.48157    537.42733   -225.44127   -3787.9279 
20882000    149.92602   -4446.0903   -4189.1222   -4446.0903            0    1695.5235    17.971725    23.529992    21.855046    9241.9429    1190.6936    2125.5071    1770.3697    -383.8406   -223.51072   -290.15743   -3960.5923 
20883000    142.08153   -4458.3578   -4214.8349   -4458.3578            0    2336.6756    18.030179    23.232512    21.971241    9203.4531    1073.5927    4189.5981    1746.8359    314.48954   -543.20103    756.74131   -3901.1995 
20884000    140.61675   -4466.7504   -4225.7381   -4466.7504            0    2153.3238    17.824484    23.329981    22.127503    9201.6088    3154.4654    2287.5251    1017.9809    219.42486    268.91367    311.50238   -3936.7706 
20885000    142.68225   -4479.2691   -4234.7166   -4479.2691            0   -106.14748    18.062159    23.334767     22.10766    9317.8539   -834.11793   -163.07973    678.75522    545.74313   -117.51579   -135.88131   -4249.1411 
20886000    155.60635   -4475.0468   -4208.3429   -4475.0468            0    1310.5733    17.970881    23.494349    21.857411    9228.5082    1829.9028    606.17783    1495.6394   -708.15644   -1259.7868    1.2824061    -4031.955 
20887000    146.35375   -4470.9862   -4220.1409   -4470.9862            0    1710.7839    18.131938    23.279374    21.855441    9225.1853    822.34742    880.80718     3429.197   -618.01055   -513.74256    5.0826631   -3989.9722 
20888000    145.70508   -4457.8671   -4208.1336   -4457.8671            0    1812.1505    17.878866    23.365949    22.135603    9247.2955    3755.3966    128.02505    1553.0297   -776.31766   -484.95742     343.2065   -3963.7428 
20889000    137.60293    -4472.054   -4236.2073    -4472.054            0    2057.7758    17.961144     23.35831    21.889136    9183.4109    1664.8825    1738.1555    2770.2893   -398.05576     107.4223    258.30662   -3960.6081 
20890000    145.03422   -4461.7356   -4213.1519   -4461.7356            0      2584.56    17.979904    23.368461    21.816786     9166.599     3060.232    2047.3759    2646.0723   -150.25876    70.207635    240.89895   -3867.6338 
20891000    146.69645   -4476.1137    -4224.681   -4476.1137            0    2803.4033    17.807675    23.378156    22.054835    9181.6615    3716.7313    2726.3233    1967.1553   -338.64243   -635.96978   -80.180031    -3849.291 
20892000     145.9517   -4471.6193    -4221.463   -4471.6193            0    1473.0969    17.937519    23.251115    22.128133    9228.9209    2320.1319    2092.8923    6.2665454    186.50852   -700.43925    692.28299   -4023.1925 
20893000    143.04611   -4465.1735   -4219.9974   -4465.1735            0    1140.7821     18.08942    23.403987     21.87037    9259.1391   -39.222364    1712.7166    1748.8519   -90.745944   -974.25513    303.62555   -4065.9519 
20894000    152.14253   -4476.2157   -4215.4486   -4476.2157            0    2298.4154    18.035774    23.247207    21.944403    9200.8793    1083.2874    3989.8413    1822.1174    455.61345   -373.53931    441.45116   -3907.0349 
20895000     157.1165   -4459.3332   -4190.0409   -4459.3332            0     3136.282    17.829518    23.357652    22.028409    9173.8562     2697.647    3384.6178    3326.5811   -26.569646   -423.04311   -39.581431   -3770.4337 
20896000    142.98285   -4465.1278   -4220.0601   -4465.1278            0    1171.8518    18.032306     23.51009    21.893927    9281.7362    1843.9074   -657.86713     2329.515    29.506297    527.54134    294.67519   -4061.4328 
20897000    148.18605   -4481.8159   -4227.8301   -4481.8159            0    2244.4958    18.038558    23.315575    21.895661    9208.8631    2224.4634    2719.6733    1789.3506   -1149.6083   -318.50542    111.43195   -3926.3902 
20898000    136.14977   -4464.0115   -4230.6554   -4464.0115            0    3354.9707    17.894532    23.381421    21.959332    9187.7757    2780.0837    4294.2646    2990.5637    498.29871    90.271903    284.25014   -3781.1086 
20899000    153.23649   -4449.6943   -4187.0522   -4449.6943            0    1626.9629    18.001962     23.16541    22.193836    9255.3362    1435.6977    1628.1841     1817.007   -431.79046   -421.90135   -68.572749   -3967.4454 
20900000    149.84972    -4472.262   -4215.4247    -4472.262            0    1452.5973    17.956024    23.348679    22.085418    9259.2993    1649.0502    2107.5579    601.18392    703.00763   -481.19308   -435.37476   -4019.2698 
20901000    153.36797   -4459.3062   -4196.4387   -4459.3062            0     2347.289    18.006818    23.419186    21.824918    9203.6778    2194.6124    1485.4175    3361.8372    248.27913   -625.10699    467.25842    -3881.371 
20902000    143.95928   -4477.1294   -4230.3881   -4477.1294            0    1707.7891    17.902632    23.511734    21.972267     9248.609    2392.3584    1037.4251    1693.5839     254.2338    100.46107    77.333145    -4000.039 
20903000    157.17622   -4473.4031   -4204.0085   -4473.4031            0    1613.3194     17.98077     23.18367    22.153351    9234.8511     1494.535    1726.8712     1618.552   -679.55342   -372.98552    260.51237   -3986.7253 
20904000    145.53863   -4471.6121   -4222.1638   -4471.6121            0    1467.6321    17.971784    23.518304     21.85242    9236.2725    817.72961    1938.6253    1646.5413   -67.402524    -327.3119    -63.73469   -4024.4715 
20905000    142.55985    -4458.803   -4214.4603    -4458.803            0     1110.945     18.10035    23.378914    21.888262    9262.3798    1686.7709    1043.7385    602.32564    553.19032    418.29469   -127.63926   -4064.3912 
20906000    138.01344   -4478.3937   -4241.8434   -4478.3937            0    456.79721    17.995917     23.22628    22.257737    9303.2488      1183.53    1253.1745   -1066.3129    563.63835   -31.189591    51.409191   -4179.8659 
20907000    147.81767   -4470.3119   -4216.9575   -4470.3119            0    2110.4499    17.848328     23.39896    22.045882    9207.0729    3082.3578    1606.9645    1642.0274   -324.83488    189.56028    511.40274   -3933.5753 
20908000    145.89558    -4467.781    -4217.721    -4467.781            0    1022.4389    18.101285    23.284166    21.930857    9243.2712    1507.5568    603.60942    956.15056    554.92391    351.57762    335.85992   -4079.8925 
20909000     154.6032    -4477.995   -4213.0104    -4477.995            0    3047.1237    17.903791    23.515002    21.825758    9188.8118    3002.0056    2141.6824    3997.6832    10.708412    304.17295   -181.74175   -3804.6672 
20910000    153.93354   -4459.3708    -4195.534   -4459.3708            0    2766.7751    17.930555    23.354329    22.013558    9218.3113    4340.8244     2344.531      1614.97   -277.18015   -239.32947    688.98209   -3823.5698 
20911000     145.1105   -4480.3027   -4231.5882   -4480.3027            0    1289.9774    17.891197     23.54508    22.080613    9301.4509    1578.7249     953.3269    1337.8804    46.693789    173.54216   -570.95461   -4056.6001 
20912000    144.77129   -4464.9734   -4216.8404   -4464.9734            0    1345.7157    18.040488    23.339718    21.969049    9250.2856     1049.166    1652.5118    1335.4693   -150.41098   -19.342144   -171.20478   -4035.2954 
20913000    153.98633   -4473.5112   -4209.5839   -4473.5112            0     1401.838    18.009175    23.420017    21.962215    9263.1175    1652.9248    861.04247    1691.5467   -581.52055   -7.9599059    238.83289   -4020.2053 
20914000    150.02497   -4475.5154   -4218.3778   -4475.5154            0    1199.5882     17.89768    23.460334    22.038468    9253.6342    1210.0264    1539.3102    849.42792    11.490591    157.03897    499.87204   -4056.4876 
20915000    148.74686   -4467.4597   -4212.5127   -4467.4597            0    1016.5607    18.091149    23.340783    22.009633    9293.8222    400.42316     2302.201    347.05792    170.33546   -173.47725   -16.925749   -4074.7272 
20916000    153.37635   -4465.9696   -4203.0878   -4465.9696            0    1884.8046    17.967944      23.4522    21.954845    9251.5042    2238.2607     1567.639     1848.514   -547.58812    -295.6898   -347.42589    -3948.783 
20917000    146.30728   -4479.4322   -4228.6665   -4479.4322            0    468.69889    18.163101    23.373376    21.892716    9294.1805   -122.63994    719.06231     809.6743   -667.64041   -345.43794   -759.34352   -4165.1362 
20918000    154.41024   -4449.6482   -4184.9944   -4449.6482            0    1862.0052    17.860477    23.529054    21.953961    9225.9357    2609.8816    904.53635    2071.5977   -61.219191    189.64841   -471.13064   -3934.4601 
20919000    150.97548   -4451.4328    -4192.666   -4451.4328            0    1571.2557    18.042276    23.288589    22.055233    9267.1491    2690.3272    1850.9949    172.44494   -384.36878    315.62523    38.940039   -3980.3079 
20920000    153.62812   -4471.0912   -4207.7779   -4471.0912            0    1159.2582     18.01292    23.421405    21.956633    9263.2376    1790.1527    850.88188       836.74   -20.921666   -124.37587    241.55324   -4051.1681 
20921000    146.82986   -4459.2429   -4207.5816   -4459.2429            0    1920.7941    18.047671    23.326646    21.915191    9226.1123    1098.7728    1783.2096    2880.3998    -520.6801    537.80198   -105.64412   -3949.1322 
20922000    154.26091   -4477.8528   -4213.4549   -4477.8528            0    2381.7195    17.877056    23.237762    22.130368     9193.459    2687.1008    3208.2091    1249.8486    793.66398    730.16233   -484.14157   -3894.1207 
20923000    148.83481   -4472.3963   -4217.2985   -4472.3963            0    866.96108    17.945499    23.445066    22.050906    9277.5526    1899.0664    1686.3153   -984.49843   -359.80539   -7.8267039   -728.28799   -4099.9956 
20924000    145.16482   -4470.0899   -4221.2824   -4470.0899            0     1432.783    18.117494    23.266318    21.924417    9241.7417    372.00264    2293.0641    1633.2821    394.29497   -46.048877   -82.749942     -4028.17 
20925000    152.18991   -4463.8612   -4203.0128   -4463.8612            0    2546.3426    17.851394    23.510731    21.914191    9197.3709    2078.8903    2148.4486    3411.6888   -967.36113    178.38187   -254.29118   -3861.4612 
20926000    146.78987   -4463.8745   -4212.2817   -4463.8745            0    3304.3798    18.010151    23.102547     22.00782    9157.0214    4220.5794    3369.5957    2322.9643   -82.690151   -253.00369    244.79691   -3770.9958 
20927000    155.75839   -4462.0445   -4195.0799   -4462.0445            0    2015.5708    17.911424     23.45292    21.944045     9218.149    3238.5412    1557.0307    1251.1405   -443.74864    384.23772    429.67833   -3924.1122 
20928000    150.45126   -4454.9289   -4197.0606   -4454.9289            0    3567.9702    17.945858      23.3708    21.797977     9142.269    4004.7015    2602.1861    4097.0231    -147.8556   -378.71291    441.02953   -3721.3409 
20929000    145.98848   -4462.1168   -4211.8976   -4462.1168            0    2017.3678    18.023559    23.318081    21.948928    9224.5814    2017.1203     2208.408     1826.575   -727.09546   -326.27999     590.9621    -3940.499 
20930000    143.84023   -4462.0053   -4215.4681   -4462.0053            0    1904.5609    17.996789    23.303975    21.961384    9210.5325    2761.3617    1421.8625    1530.4584    217.29871    -2.533059    475.39248   -3959.6357 
20931000    151.85841   -4465.3714   -4205.0912   -4465.3714            0    2489.7715     17.80134    23.344998    22.211845    9230.6265    3474.2296    2785.4704    1209.6144    52.676823   -258.77289    195.32018   -3869.9201 
20932000    149.34703   -4442.2869   -4186.3112   -4442.2869            0    2709.9318    17.957145    23.300807     22.07672    9237.2526    2868.5705    3086.7806    2174.4444   -454.80297   -317.92983    970.71962   -3821.2404 
20933000    146.56977   -4470.4604   -4219.2448   -4470.4604            0    2305.1439    18.018204     23.37618    21.890152    9220.0616    1138.9135    2886.3414    2890.1768    652.53919   -503.24647     770.1161   -3909.2833 
20934000    146.28066   -4471.8961    -4221.176   -4471.8961            0    1862.5773    17.987883    23.487024    21.842276    9227.9652    1739.9295    869.82306    2977.9795    510.16232   -152.23498   -118.26219   -3970.5096 
20935000    151.11737   -4454.2265   -4195.2165   -4454.2265            0    2579.5637    18.047041    23.372527    21.830384    9208.1643    1891.7829    3034.8785    2812.0295   -909.19985    230.44648    117.40537   -3848.8026 
20936000    150.32701   -4455.4815   -4197.8262   -4455.4815            0     515.1153      17.9253    23.506639    22.065904    9297.7678    759.23593    97.998183    688.11179   -265.88478   -681.58586   -187.58649   -4127.9774 
20937000    149.26842   -4472.3101   -4216.4691   -4472.3101            0    1096.3294    18.230911    23.105198     21.98387    9260.2397     250.1074    2080.3004    958.58037    348.66359    228.79268    351.40507   -4068.4086 
20938000    146.54831   -4445.5076   -4194.3288   -4445.5076            0    2041.8533    17.923168    23.476261    21.952468     9236.917    1791.1031    1584.5261    2749.9306   -2.4751302    315.78122    56.099976   -3919.2688 
20939000    144.09849   -4474.6841   -4227.7042   -4474.6841            0    1406.3813    17.993631    23.271846    22.062201    9238.4363    1348.3791    2518.5194    352.24543    241.39015    146.22733   -325.53309   -4038.2181 
20940000    156.21551    -4448.514    -4180.766    -4448.514            0      1678.09    17.865664    23.446624    22.056665    9239.3054      1153.77    1863.6567    2016.8433   -241.54489     520.9687    173.37728   -3954.6504 
20941000    150.83969   -4462.7023   -4204.1683   -4462.7023            0    2155.1022    18.127976    23.378196    21.763779     9223.476    1032.1575    2527.7802    2905.3689   -292.46046   -449.29096   -84.432115   -3914.2748 
20942000    150.44768   -4460.6457   -4202.7835   -4460.6457            0    2191.0615     17.88724    23.528776    21.945209    9235.9672    2420.0125    1609.0223    2544.1496    29.379125    600.45881    420.16042   -3907.6539 
20943000    148.26246   -4460.8105   -4206.6937   -4460.8105            0    1481.4597    17.960943    23.335191     22.10114    9263.0747    2647.5656    1229.4267    567.38667    332.58675   -465.76784   -616.37952   -4006.5597 
20944000    152.90513   -4454.6644   -4192.5903   -4454.6644            0    1458.1272    17.962293    23.273596    22.094745    9236.6449    1781.0744    2179.0551    414.25213    101.33146   -163.53624     127.1959   -3996.1703 
20945000    156.68064   -4482.7069   -4214.1617   -4482.7069            0    1315.1323    17.888828    23.364372     22.10911    9240.7508    765.62719    2535.2836      644.486    353.75183   -305.95393    284.75941   -4036.9254 
20946000    145.04968   -4453.8634   -4205.2532   -4453.8634            0    1138.0954     18.13501    23.151378    22.002502    9237.7608   -548.88298     3006.119    957.05027    416.58863   -285.71696    297.89795   -4051.9253 
20947000     151.5276   -4469.2708   -4209.5577   -4469.2708            0    1257.4397    17.930458    23.599401    21.906338    9269.6245    1963.4316    250.44761      1558.44   -169.92253   -18.272664   -84.942957    -4039.567 
20948000    141.71245   -4443.0626   -4200.1723   -4443.0626            0      2828.48    18.062964    23.206323    21.873702    9168.9082    2245.3108    2464.0363     3776.093   -668.30773   -466.48703    244.35176   -3821.9504 
20949000    155.48262   -4460.3828   -4193.8909   -4460.3828            0    3569.0426    17.804237    23.344161    21.973461    9132.7191    4721.9582    3336.8745    2648.2949   -296.47326    821.30801    989.06854   -3718.5253 
20950000    144.40129   -4456.8526   -4209.3537   -4456.8526            0    1373.2156    18.056535     23.22115     22.04142    9241.8244    899.92429      1630.25    1589.4726    742.04603   -191.70254   -148.68154   -4024.2682 
20951000    149.86457   -4463.1852   -4206.3225   -4463.1852            0    2214.9532    17.982533    23.365128    21.870702    9189.2854    2103.9995    2871.0183    1669.8418    360.95201    -497.5649    469.42245   -3909.4826 
20952000    148.48673   -4457.4576   -4202.9564   -4457.4576            0    2509.4501    18.015888    23.377704    21.864059    9208.4876    1840.9672    2185.2522    3502.1308   -368.53188    -51.74099    145.98234   -3865.9464 
20953000    141.33605   -4461.2338   -4218.9887   -4461.2338            0     1866.287    18.044763    23.422501    21.798208    9213.0887    1021.2327    1128.3766    3449.2517   -286.62951    186.15521    551.40771   -3968.2279 
20954000    149.79982   -4479.9492   -4223.1975   -4479.9492            0    1064.2608     17.96253    23.336949    22.086655    9258.5193    1552.5825    1956.1213   -315.92137   -289.90766   -255.00176    292.95394   -4079.4946 
20955000    142.51769   -4473.4114    -4229.141   -4473.4114            0    2214.7565    17.949086     23.29047    22.040227    9213.7548    2712.5039    1807.5293    2124.2364   -589.28884   -598.05857    10.496575   -3931.5371 
20956000    146.27432   -4472.3234   -4221.6142   -4472.3234            0    1947.6404    17.867396     23.47598    21.951079    9207.4817    2263.4029    906.52129    2672.9969     481.3337   -406.07103    398.14951   -3960.0818 
20957000      148.649   -4468.5975   -4213.8182   -4468.5975            0    1352.7639    18.027155    23.210066    22.055417    9228.2391    876.86012    1791.0322    1390.3993    1163.7538    1024.1692    221.41201   -4031.7573 
20958000    150.14015   -4456.5525   -4199.2175   -4456.5525            0    1277.8192    17.862367    23.427405    22.170349     9277.602    1685.0251    2477.2763   -328.84398   -164.89009   -27.158618    303.35946    -4026.323 
20959000    155.45577   -4477.0787   -4210.6328   -4477.0787            0      1629.39    18.096898    23.298049    21.885067    9227.2346    2111.4223    1899.7422    877.00547    398.47979   -826.80826    187.61914   -3991.3662 
20960000    154.96935   -4458.9317   -4193.3195   -4458.9317            0    2165.3388    17.942672    23.531444    21.832907    9218.2241    3055.0153    1823.0179    1617.9832    578.41959    454.59029    181.61395   -3902.2149 
20961000    150.25283   -4476.1947   -4218.6665   -4476.1947            0    301.13997    17.941148    23.294675    22.229549    9290.4669    332.63741    962.87156   -392.08907    -148.1381   -115.93878   -570.82818   -4177.8645 
20962000     150.7871   -4468.9413   -4210.4974   -4468.9413            0    2230.5206    17.965384    23.359125    21.964684    9217.6038      1370.19    2007.3006    3314.0712   -213.23894    220.33056   -83.986583   -3910.6501 
20963000    145.79277   -4449.4957   -4199.6119   -4449.4957            0    2101.8339    17.986172    23.528813     21.77577    9215.3595    1578.5567    1958.6531    2768.2917   -520.15846     320.8606     34.19114   -3917.1326 
20964000     149.6811   -4472.0815   -4215.5332   -4472.0815            0    1516.7187    18.007936    23.103829     22.17468    9225.8257    1379.8955    2730.8122    439.44834   -281.61361   -156.02192    717.07513   -4011.4599 
20965000    143.27297   -4488.8567   -4243.2917   -4488.8567            0     1532.467    17.903209     23.38925    22.056119    9235.8375     1741.185    1132.7272    1723.4888      92.5339   -192.90638     141.1479   -4036.8757 
20966000    144.45757   -4464.6506   -4217.0553   -4464.6506            0    1562.6063    18.066453    23.331575    21.830519    9201.9741    1242.5389    1831.0473    1614.2326    238.05539    75.084969    74.603188   -4007.3514 
20967000    142.61249     -4470.36   -4225.9271     -4470.36            0    985.54931    17.861711    23.445932    22.135778    9270.1199     1659.376    1150.9826    146.28931    -173.9093   -491.39171   -378.15454   -4092.6855 
20968000    154.38139   -4471.2877   -4206.6833   -4471.2877            0    1367.6445    17.948902    23.271597    22.137441    9246.8007    709.08549    1787.2354    1606.6126    272.20459    53.749494    293.84969   -4022.2495 
20969000    153.31763   -4466.0282    -4203.247   -4466.0282            0    2141.0966    18.043939    23.399065    21.846366    9223.7825    2225.9511    2531.8668    1665.4719   -177.57338   -18.089143   -441.21894    -3915.228 
20970000    143.54525   -4470.8991   -4224.8675   -4470.8991            0    1414.7277    18.061983    23.397795    21.901333     9255.735    670.10151    1400.7055    2173.3761     664.0099   -463.33431    530.93678   -4033.8999 
20971000    145.21331   -4461.4777    -4212.587   -4461.4777            0    1454.3508    17.911481     23.38325    22.131758    9269.4142    1731.2694    1741.4387    890.34438    418.85264    270.39351   -412.56988   -4015.9808 
20972000    144.80851   -4471.7835   -4223.5866   -4471.7835            0    1162.6679    17.970363    23.510122    21.950386    9273.7181    1562.4433    1121.3561     804.2042   -334.52188   -293.23556   -97.451451   -4066.3385 
20973000    144.87789   -4467.0382   -4218.7224   -4467.0382            0    1757.9904    18.073316     23.31784      21.8709    9217.0685    1167.9307     2775.162    1330.8785    182.34795    282.27108    275.19078   -3982.4107 
20974000    142.82762   -4455.2555   -4210.4538   -4455.2555            0    1717.6553    17.859623    23.411674    22.056288    9222.2563    1958.8609    1598.3933    1595.7116    791.35795   -491.94761    507.03451   -3979.4341 
20975000     145.0312   -4468.8862   -4220.3077   -4468.8862            0    1695.0331    18.078679    23.134836    22.077475    9233.8438    2367.7119     2340.824    376.56335    139.69525    -1063.374   -319.60697   -3992.0442 
20976000    155.89661   -4477.9864    -4210.785   -4477.9864            0    1629.1069    17.868845    23.555923    21.953158    9240.4604    2302.6166    1009.4206    1575.2835   -872.94465   -437.79864    401.03747   -3991.2422 
20977000    162.08637   -4450.8862   -4173.0757   -4450.8862            0    1695.9203    17.979245      23.2996     21.97212    9204.3232    2083.7803     1092.629    1911.3516   -244.92093    198.75651   -734.30708   -3945.4228 
20978000    156.49867   -4460.3165   -4192.0831   -4460.3165            0    3184.6833    17.839639     23.53482    21.854078    9175.4937    4279.3749    3746.5408    1528.1342   -384.37703   -459.92376    152.70589   -3765.9242 
20979000    146.60951   -4448.9339   -4197.6502   -4448.9339            0    3030.2459    17.968279    23.151683    22.014302    9157.8596    2487.7811    4019.2505    2583.7061   -507.83236   -79.495023    147.71487   -3792.9366 
20980000    155.07698   -4455.3782   -4189.5815   -4455.3782            0    1432.4385    17.890342    23.429616    22.048142    9241.7837    1988.2528     1351.591    957.47165    419.23684    195.46816    80.042655   -3996.5147 
20981000    156.34009   -4466.2216     -4198.26   -4466.2216            0     1215.734    18.056048    23.530778    21.820396    9270.8942    495.04027     1270.367    1881.7949   -617.84454    84.329649   -120.69186   -4033.8849 
20982000    146.61189   -4459.9152   -4208.6275   -4459.9152            0    1616.7534    18.103107    23.236937    21.983674     9247.669    657.56681    2077.2942    2115.3994    154.61724    191.62072   -255.06131   -3990.5795 
20983000    147.76096   -4470.3021   -4217.0449   -4470.3021            0    1817.0652    17.948325    23.372265    22.050032    9249.8342    2135.1464    1437.0314    1879.0177    27.091161     240.4656   -183.76957    -3971.924 
20984000    151.83687    -4456.194   -4195.9508    -4456.194            0    2429.8679    17.999036     23.34836    21.850885    9182.7903    2209.4575    1682.6607    3397.4856   -700.98606    -92.91937    57.451997   -3870.5391 
20985000    148.96291   -4478.2287   -4222.9113   -4478.2287            0    2373.6269     18.00231    23.309892    21.917788    9197.4034    2269.5276    2706.2843    2145.0687    1005.0674    277.95934    320.99534   -3904.5256 
20986000    147.58622   -4467.1923   -4214.2345   -4467.1923            0    1665.5951    17.901018    23.289281    22.134664    9227.9821    3542.6029    366.40662    1087.7758   -902.50645   -638.13837   -47.824652   -3990.0776 
20987000    152.47069   -4469.5968   -4208.2673   -4469.5968            0    1963.1701    17.890421    23.422097    22.033134    9232.5696    1298.2774    2186.6573    2404.5756   -472.72535    -596.2652    33.267588   -3943.9312 
20988000    148.61717   -4454.0583   -4199.3335   -4454.0583            0    1099.5076    18.044074    23.439855    21.903705    9264.1827    2003.4305      1561.17   -266.07762    100.00289   -226.78526   -259.75458   -4050.7806 
20989000    147.35359   -4457.2877   -4204.7287   -4457.2877            0    2414.6782    17.881914    23.418506     21.97728    9203.3756    2416.9072    3087.9658    1739.1615   -238.19145    -502.9315    675.44891   -3880.6262 
20990000    151.62149    -4467.398   -4207.5239    -4467.398            0    1643.3104     17.93859    23.247431    22.140242    9233.0596    1305.0798    2184.5164     1440.335   -286.16473    -527.6488   -333.43706   -3986.2444 
20991000    144.49586   -4470.1611   -4222.5002   -4470.1611            0    2249.0682    17.819973    23.424077    21.996266    9181.6024    2133.7338    3005.0353    1608.4353   -320.24472    212.96784   0.16284468   -3921.3404 
20992000    150.13991   -4466.2373   -4208.9027   -4466.2373            0    2438.0247    18.079575    23.269682    21.881154     9205.532    1870.4285    2589.2868    2854.3587   -534.30765   -56.418495   -298.07565   -3881.5899 
20993000    155.13089   -4460.1386   -4194.2495   -4460.1386            0    899.02647    17.974855    23.466019    22.016209    9286.3994    1403.5257    728.31256    565.24115   -556.92725   -306.28724   -541.60442    -4072.492 
20994000    156.80363   -4470.7348   -4201.9787   -4470.7348            0    1015.4114     18.18577    23.167503    22.012899      9274.45    86.649692    1350.9733    1608.6111    360.84299    405.99809    157.72225   -4064.6359 
20995000    162.35259   -4469.3018    -4191.035   -4469.3018            0    3037.6536    17.943695    23.420863    21.927431    9215.1522    1977.2058    3058.7937    4076.9613   -387.85995    482.77948   -88.221484    -3782.794 
20996000    144.95503   -4460.0725   -4211.6246   -4460.0725            0     341.5559    17.970921    23.484146    22.041456    9302.1936    1606.4208   -1229.3654    647.61227   -147.38743    -46.09167   -105.82493   -4165.2881 
20997000    146.66923    -4464.026     -4212.64    -4464.026            0    1289.1843    18.064334    23.178702    22.105974     9255.944    1847.7764    1927.0178    92.758802   -1212.9229    466.22262    423.76342    -4038.615 
20998000    160.52981   -4466.8785   -4191.7359   -4466.8785            0    2023.6531    17.918875     23.39777    21.957265    9205.8405    2735.6711    2432.5253    902.76287    120.63933    55.003002   -9.6038311   -3920.0448 
20999000    144.17784   -4469.7368    -4222.621   -4469.7368            0    1831.2585    18.110255    23.159524    21.998279    9226.6256    1175.6255    1440.2923    2877.8577    174.40955     268.3652   -341.56781   -3976.2052 
21000000    153.45216   -4446.3189   -4183.3071   -4446.3189            0    1409.5392    17.626649      23.7435     22.09264     9246.175     1975.438    435.14256     1818.037   -322.15409    204.12389     -87.9517   -3993.2364 
Loop time of 386.294 on 64 procs for 250000 steps with 864 atoms

Performance: 111.832 ns/day, 0.215 hours/ns, 647.175 timesteps/s
192.8% CPU use with 32 MPI tasks x 2 OpenMP threads

MPI task timing breakdown:
Section |  min time  |  avg time  |  max time  |%varavg| %total
---------------------------------------------------------------
Pair    | 17.768     | 25.45      | 34.339     | 108.6 |  6.59
Bond    | 0.96997    | 1.2294     | 1.4827     |   9.4 |  0.32
Kspace  | 191.48     | 202.78     | 213.36     |  42.8 | 52.49
Neigh   | 0.88891    | 0.93457    | 1.0109     |   3.4 |  0.24
Comm    | 58.829     | 62.443     | 66.794     |  25.6 | 16.16
Output  | 0.56236    | 0.56275    | 0.56448    |   0.0 |  0.15
Modify  | 70.216     | 72.984     | 76.81      |  17.6 | 18.89
Other   |            | 19.91      |            |       |  5.15

Nlocal:        27.0000 ave          40 max          18 min
Histogram: 7 3 5 1 1 7 0 4 3 1
Nghost:        2121.75 ave        2226 max        2020 min
Histogram: 8 8 0 0 0 0 0 1 8 7
Neighs:        6564.22 ave        9959 max        4432 min
Histogram: 6 5 4 1 6 2 2 4 1 1

Total # of neighbors = 210055
Ave neighs/atom = 243.11921
Ave special neighs/atom = 2.0000000
Neighbor list builds = 3252
Dangerous builds = 0

unfix		3
unfix		2
unfix		1

write_data	data.final.${pid} nocoeff
write_data	data.final.0 nocoeff
System init for write_data ...
PPPM initialization ...
  extracting TIP4P info from pair style
  using 12-bit tables for long-range coulomb (../kspace.cpp:340)
  G vector (1/distance) = 0.37143919
  grid = 24 27 25
  stencil order = 5
  estimated absolute RMS force accuracy = 0.0032088696
  estimated relative force accuracy = 9.6634155e-06
  using double precision FFTW3
  3d grid and FFT values/proc = 4410 672
Last active /omp style is kspace_style pppm/tip4p/omp

write_restart   restart.lmp.${pid}
write_restart   restart.lmp.0
System init for write_restart ...
PPPM initialization ...
  extracting TIP4P info from pair style
  using 12-bit tables for long-range coulomb (../kspace.cpp:340)
  G vector (1/distance) = 0.37143919
  grid = 24 27 25
  stencil order = 5
  estimated absolute RMS force accuracy = 0.0032088696
  estimated relative force accuracy = 9.6634155e-06
  using double precision FFTW3
  3d grid and FFT values/proc = 4410 672
Last active /omp style is kspace_style pppm/tip4p/omp
Total wall time: 0:06:26
