LAMMPS data file via write_data, version 30 Jul 2021, timestep = 29500000

864 atoms
2 atom types
576 bonds
1 bond types
288 angles
1 angle types

0.06034852157419479 18.147223878427248 xlo xhi
0.1670805486216942 23.462097251395576 ylo yhi
0.2058772333062553 22.007318566687292 zlo zhi

Masses

1 1.00794
2 15.9994

Atoms # full

707 1 1 0.5897 2.982822146422686 2.0425274209110986 3.640865279862935 0 0 0
706 1 2 -1.1794 2.9894220657493156 2.0874564204991075 2.6847359678934026 0 0 0
30 1 1 0.5897 5.388975891679312 3.950554429082746 2.051612092095546 0 0 0
708 1 1 0.5897 2.248855832995168 2.652988550953661 2.4659400882641225 0 0 0
29 1 1 0.5897 4.670812805562545 2.626368916646096 2.2013730987239564 0 0 0
28 1 2 -1.1794 5.428681078034244 3.0331682226301573 1.7814846932454782 0 0 0
3 1 1 0.5897 0.6632986990400174 4.259514918415407 2.4099505433980237 0 0 0
137 1 1 0.5897 5.172365112958467 5.611218741462444 3.8940549732031355 0 0 0
495 1 1 0.5897 8.3667142892129 2.2657045101692965 2.8540359840867944 0 0 0
494 1 1 0.5897 6.8699299516005965 2.2852871823035703 2.6283564418269028 0 0 0
493 1 2 -1.1794 7.555457647988261 1.8328388725210694 3.119796467517527 0 0 0
1 1 2 -1.1794 0.6712536577883065 3.4186616687839204 1.9527153832215869 0 0 0
846 1 1 0.5897 7.394304123781592 1.76991921246276 4.891163208228673 0 0 0
487 1 2 -1.1794 2.9461323808110382 1.8959126820073062 5.355795561076854 0 0 0
597 1 1 0.5897 0.9207224054329746 5.8993139056045045 4.023601100257604 0 0 0
136 1 2 -1.1794 5.128336580173706 5.657591294568649 2.9389925563218586 0 0 0
595 1 2 -1.1794 0.8453606477839098 5.838525661202918 3.0713108551918498 0 0 0
83 1 1 0.5897 4.380431189113436 2.6506196792174523 6.417823990156591 0 0 0
35 1 1 0.5897 0.9043899072697501 4.293797490086675 9.731252246859867 0 0 0
82 1 2 -1.1794 5.123077980056695 3.053572218068694 6.867563416102912 0 0 0
785 1 1 0.5897 0.7949916122152689 3.4015769039673036 7.478579033731572 0 0 0
674 1 1 0.5897 3.546806639020968 2.4821192689253335 10.308656626640907 0 0 0
356 1 1 0.5897 7.7147067799905615 0.8685710302157298 9.975492762462114 0 0 0
34 1 2 -1.1794 0.7635235845942029 3.4226543844847863 9.360564206424288 0 0 0
489 1 1 0.5897 2.8895799600055327 1.002491109544831 5.694526156067565 0 0 0
845 1 1 0.5897 7.410243588054982 0.918852654533286 6.143069630614249 0 0 0
673 1 2 -1.1794 2.759358908072631 1.97118659582354 10.495761024401427 0 0 0
488 1 1 0.5897 2.292755709030455 2.384208738510125 5.85662329582854 0 0 0
274 1 2 -1.1794 5.285589318702573 2.8498249708698453 9.737845480168799 0 0 0
678 1 1 0.5897 5.306029068071754 4.726945170255954 10.102768530594817 0 0 0
183 1 1 0.5897 0.7385218320235856 5.04126952878103 6.115163352053923 0 0 0
36 1 1 0.5897 1.3577859688273037 2.8544014405297604 9.850577700707614 0 0 0
355 1 2 -1.1794 7.721977292939328 1.8186413427924433 10.091397243300559 0 0 0
686 1 1 0.5897 5.089507820593378 4.733347001407124 6.155446617711777 0 0 0
84 1 1 0.5897 5.893617104579455 2.657103083017656 6.461068156278681 0 0 0
276 1 1 0.5897 6.122711623758925 2.41836924524332 9.90873854490878 0 0 0
675 1 1 0.5897 2.9376892210695478 1.109163811816909 10.119896424364148 0 0 0
275 1 1 0.5897 5.209102234087282 2.855914132267254 8.783725367028222 0 0 0
844 1 2 -1.1794 7.372637551542945 1.828076187731358 5.846354944432654 0 0 0
784 1 2 -1.1794 0.8716407061766495 3.253695167015636 6.535984361755353 0 0 0
112 1 2 -1.1794 0.8880461413552662 5.960094819713882 10.40381450717896 0 0 0
676 1 2 -1.1794 5.306061555730662 5.631025330883376 10.417046548896513 0 0 0
419 1 1 0.5897 8.994541254447332 2.60186921581471 6.105337682553333 0 0 0
685 1 2 -1.1794 5.111680668803981 5.592478131139083 5.734079147191235 0 0 0
181 1 2 -1.1794 0.7989118717305045 5.974698388025037 5.912217270950527 0 0 0
357 1 1 0.5897 7.785586468851902 1.9444268806206968 11.038161723694214 0 0 0
166 1 2 -1.1794 2.755561376422858 1.7619458580974632 13.174957334256803 0 0 0
167 1 1 0.5897 2.678828418172192 1.833057165027988 12.223491757435173 0 0 0
457 1 2 -1.1794 5.089963161743649 3.0557041269852956 13.993692386698532 0 0 0
458 1 1 0.5897 5.74913889692805 2.536548958604882 13.533109736450864 0 0 0
459 1 1 0.5897 4.26080777938824 2.619866262937881 13.796996117244456 0 0 0
762 1 1 0.5897 5.296757029928832 4.84780476122834 13.367491158814705 0 0 0
594 1 1 0.5897 8.186044893547537 2.2798455076820296 13.200466403375051 0 0 0
168 1 1 0.5897 1.9606613235088457 2.1755586969507617 13.51141949386213 0 0 0
468 1 1 0.5897 0.4130785967061836 3.217946560022001 14.947013620455985 0 0 0
466 1 2 -1.1794 0.549051638333695 3.2318646508852997 13.999619077759801 0 0 0
593 1 1 0.5897 7.4485498884671255 0.9734338313867175 12.997939006125678 0 0 0
592 1 2 -1.1794 7.428965878336323 1.8991417873917902 12.755438476460888 0 0 0
365 1 1 0.5897 0.569436596458958 5.017115403255578 13.541562285729633 0 0 0
71 1 1 0.5897 5.187142073327062 3.142978790961439 15.822617333381967 0 0 0
113 1 1 0.5897 0.7822684056983726 5.83528262099017 11.346933564572256 0 0 0
761 1 1 0.5897 5.280979426262882 5.749615024948219 12.151634679048202 0 0 0
760 1 2 -1.1794 5.38399625055232 5.763591539173263 13.10317666171209 0 0 0
364 1 2 -1.1794 0.5012297851457452 5.913711322152527 13.2135443972944 0 0 0
754 1 2 -1.1794 7.5454466557695135 1.8594076234019752 17.183529027184775 0 0 0
21 1 1 0.5897 0.5498156825488962 4.0765388246710685 20.63414750628563 0 0 0
360 1 1 0.5897 8.679771491687019 2.788792879459941 20.858411762627767 0 0 0
755 1 1 0.5897 7.55260052705259 1.8923523235403688 18.140147157896614 0 0 0
290 1 1 0.5897 2.771535023654488 1.2635655993593384 17.32795074029179 0 0 0
42 1 1 0.5897 7.417422067431568 1.1895589480574897 20.31295477253653 0 0 0
289 1 2 -1.1794 2.861382136195144 2.191041771523621 17.546696115629025 0 0 0
41 1 1 0.5897 6.587831644946607 2.4478977126415553 20.171578328074048 0 0 0
143 1 1 0.5897 5.073559843112921 4.76804788857219 20.225630485770417 0 0 0
569 1 1 0.5897 1.9183496031154248 2.225866466537745 20.560402684782133 0 0 0
291 1 1 0.5897 2.0389459536289563 2.5864513357800316 17.257910966931803 0 0 0
570 1 1 0.5897 2.7129538778300337 1.8430311878017729 19.330013526546175 0 0 0
40 1 2 -1.1794 7.413620327152552 2.0506838364867273 19.895106734814 0 0 0
646 1 2 -1.1794 0.43978886357847435 5.93053039233544 20.494060189323697 0 0 0
667 1 2 -1.1794 5.060987219114088 3.0832644182587834 20.825391706495758 0 0 0
134 1 1 0.5897 0.4245758359580964 4.004007753496719 16.956545842927504 0 0 0
568 1 2 -1.1794 2.71359939212205 1.770269356992628 20.284445207944785 0 0 0
756 1 1 0.5897 6.8425977180362905 2.456808542196954 16.928070819838723 0 0 0
669 1 1 0.5897 4.212531028519667 2.6852277463052334 20.630906120852096 0 0 0
278 1 1 0.5897 5.306800084505325 5.131506336399658 17.024035025689855 0 0 0
599 1 1 0.5897 8.94383885413137 2.869645781070201 16.779255028961074 0 0 0
19 1 2 -1.1794 0.479136171906979 3.1889437106535126 20.985307763821332 0 0 0
70 1 2 -1.1794 5.221637445824246 3.3374240703790314 16.75922808115061 0 0 0
72 1 1 0.5897 4.422698682710108 2.9482416779179874 17.114729772576354 0 0 0
571 1 2 -1.1794 0.5033164688965972 5.7466175428562485 17.62500260117718 0 0 0
142 1 2 -1.1794 5.216134127794003 5.703488075918454 20.081567623867045 0 0 0
144 1 1 0.5897 5.260788553632741 5.79568108619909 19.129860669354926 0 0 0
668 1 1 0.5897 5.141904002024084 3.022798395465516 21.777247190289252 0 0 -1
20 1 1 0.5897 0.5769455777373353 3.2966314632525626 21.931388116060422 0 0 -1
133 1 2 -1.1794 0.49818149027618 3.093227425485116 16.6715791717372 0 0 0
253 1 2 -1.1794 2.940530173131473 7.2454494240826115 2.024255068600959 0 0 0
123 1 1 0.5897 3.1548028961164145 8.876882855238721 2.6898505499205694 0 0 0
121 1 2 -1.1794 3.1433337539022808 9.773171282031157 3.0255109762424146 0 0 0
122 1 1 0.5897 3.1774213534552933 9.67361496004651 3.9769110281110884 0 0 0
44 1 1 0.5897 1.552782084961517 10.559169299602429 2.512943453982046 0 0 0
218 1 1 0.5897 5.9856702414722305 10.4937128346217 2.4219297666213198 0 0 0
255 1 1 0.5897 2.1646633808353224 6.7573485957461354 2.2998105427966706 0 0 0
219 1 1 0.5897 4.47338755216209 10.459924510863592 2.3626804414249754 0 0 0
43 1 2 -1.1794 0.6836850975396549 10.883010389639633 2.2764178094614804 0 0 0
415 1 2 -1.1794 7.13265673158039 7.325439934409965 1.9301985125738408 0 0 0
417 1 1 0.5897 7.9339414864739615 6.918333343537134 2.259362184610949 0 0 0
254 1 1 0.5897 2.9362197109142785 7.1836961129653405 1.0690567704692007 0 0 0
217 1 2 -1.1794 5.233911818938967 10.930539964628505 2.021695357763674 0 0 0
66 1 1 0.5897 7.380226494090155 9.691641410607248 4.114179974355037 0 0 0
65 1 1 0.5897 7.425112389767384 8.943805052551507 2.798664388598051 0 0 0
64 1 2 -1.1794 7.446567786373904 9.826230540933153 3.168803289538615 0 0 0
416 1 1 0.5897 6.4268772971513295 6.7759628742891636 2.270920106679623 0 0 0
45 1 1 0.5897 0.6687383944685644 11.78524879198652 2.595593862981082 0 0 0
396 1 1 0.5897 0.6652219597946735 10.936217472185925 0.36731376310534625 0 0 0
138 1 1 0.5897 4.342447238884282 6.173724118766552 2.7597615293152806 0 0 0
363 1 1 0.5897 5.158669794832482 10.908486616480454 0.30045068489839144 0 0 1
773 1 1 0.5897 8.966213045406878 10.555585609551219 2.5581397255856655 0 0 0
256 1 2 -1.1794 3.056830706781251 9.892749780040184 10.384556313951164 0 0 0
12 1 1 0.5897 3.16826632925263 8.00170244628419 6.49809446008608 0 0 0
10 1 2 -1.1794 3.0852857916850516 7.187689195289848 6.994732283961859 0 0 0
795 1 1 0.5897 3.954727679910413 9.965600522862957 6.1087240748713665 0 0 0
526 1 2 -1.1794 7.539256607262817 7.01849105502281 9.359741858225702 0 0 0
577 1 2 -1.1794 5.370065241746138 10.920945261205189 6.873549392756752 0 0 0
145 1 2 -1.1794 7.621136421885388 6.8906077241890795 6.612660993208833 0 0 0
551 1 1 0.5897 0.9653853429483542 10.942052058715529 7.619192630184523 0 0 0
713 1 1 0.5897 8.339966606784708 9.844023760299562 6.231107005424691 0 0 0
580 1 2 -1.1794 5.412338892951421 10.861136889371108 9.638187197342045 0 0 0
650 1 1 0.5897 3.097363549713307 7.218671150233239 8.812721400658525 0 0 0
822 1 1 0.5897 8.546538708243434 9.995389216336012 9.995351604854337 0 0 0
527 1 1 0.5897 7.562239044072117 7.89556173112989 9.742311250359581 0 0 0
15 1 1 0.5897 1.4733437642406544 10.602801337888284 9.747539161925351 0 0 0
582 1 1 0.5897 5.4253777546227315 10.775027623151134 8.684954932227342 0 0 0
820 1 2 -1.1794 7.79803461429192 9.480269009320295 10.296250848317872 0 0 0
581 1 1 0.5897 6.167370180808636 10.35344648933931 9.93537123072838 0 0 0
147 1 1 0.5897 7.611474484058636 7.024716097498089 7.5603784934795994 0 0 0
649 1 2 -1.1794 3.147801513313959 7.291154212164742 9.76585064415453 0 0 0
528 1 1 0.5897 8.339189630332525 6.5980694148691 9.675188723894465 0 0 0
13 1 2 -1.1794 0.7206682074516696 11.024118922012539 9.33264833885703 0 0 0
258 1 1 0.5897 3.9093166673052644 10.187085221726283 10.063967640389043 0 0 0
677 1 1 0.5897 6.061130708237208 6.034000175344901 9.988521460170046 0 0 0
257 1 1 0.5897 2.998632170756049 8.97860022222084 10.106923234179405 0 0 0
146 1 1 0.5897 6.794187399766961 6.44682713020713 6.424650551663594 0 0 0
578 1 1 0.5897 6.16098748912974 10.537747016627073 6.49439442687547 0 0 0
550 1 2 -1.1794 0.9649245630376312 10.83729459303852 6.667733971047042 0 0 0
794 1 1 0.5897 2.4412725913714 9.986934228953134 6.134131299012092 0 0 0
651 1 1 0.5897 3.8849287231467557 6.731707580845976 10.010390813757182 0 0 0
11 1 1 0.5897 2.319276197187523 6.754174118912213 6.618640773622353 0 0 0
687 1 1 0.5897 4.513694706090031 6.129939059188691 6.253410685387626 0 0 0
114 1 1 0.5897 1.6097102205959466 6.5837394991408535 10.323735758902783 0 0 0
714 1 1 0.5897 7.540417971534057 8.570747173354146 6.05471797928097 0 0 0
793 1 2 -1.1794 3.185210797019247 9.562178129149752 5.707176299042392 0 0 0
712 1 2 -1.1794 7.504469251937016 9.514629152174209 5.900058147832483 0 0 0
165 1 1 0.5897 9.021987283581323 6.064805512917939 5.865963128362043 0 0 0
579 1 1 0.5897 5.329641688830579 11.80282332483883 6.503685954446283 0 0 0
552 1 1 0.5897 0.6315279844624038 11.670409591756355 6.334716842990767 0 0 0
826 1 2 -1.1794 7.621763011827193 7.027109170558992 13.983180238268702 0 0 0
827 1 1 0.5897 6.804643421891112 6.606610058046463 13.71553399440179 0 0 0
332 1 1 0.5897 3.0413645059160057 7.874870809217311 13.489530466833322 0 0 0
797 1 1 0.5897 3.33994970892177 9.930277010792528 12.251741296033824 0 0 0
796 1 2 -1.1794 3.294273470399272 9.722011550775955 13.184898314211742 0 0 0
798 1 1 0.5897 2.4357595524679496 10.04299649655556 13.460689631660564 0 0 0
722 1 1 0.5897 4.908416277192172 10.38381578700308 13.903698858878428 0 0 0
261 1 1 0.5897 0.896554632720971 10.835825623236492 15.074834269619368 0 0 0
723 1 1 0.5897 5.52625925706111 10.766053919407282 15.231857950964267 0 0 0
828 1 1 0.5897 7.623705131651682 6.96180908068756 14.938151787229296 0 0 0
259 1 2 -1.1794 0.9784766034471566 10.912551804985839 14.12423571093245 0 0 0
331 1 2 -1.1794 2.978205090158659 6.9655821099270065 13.781673653516318 0 0 0
225 1 1 0.5897 2.772700201734276 7.051859856305503 15.588772590786531 0 0 0
721 1 2 -1.1794 5.620201252898246 10.895438892682245 14.288103684360738 0 0 0
475 1 2 -1.1794 7.667401517922687 9.510523414717904 12.921617891641267 0 0 0
476 1 1 0.5897 6.990875290266711 9.976357915098884 13.41300883049785 0 0 0
477 1 1 0.5897 7.744643557173059 8.664523123039176 13.362593933061275 0 0 0
333 1 1 0.5897 3.7826419682848003 6.555210009515495 13.464469153840355 0 0 0
260 1 1 0.5897 0.20291457695507806 10.469677602147625 13.779982803253963 0 0 0
821 1 1 0.5897 7.836073219318118 9.536758692762644 11.25103125836724 0 0 0
851 1 1 0.5897 9.056678127635646 6.357655455377099 13.126901511683831 0 0 0
104 1 1 0.5897 8.98417538601726 10.519492073093309 13.515999430538905 0 0 0
366 1 1 0.5897 1.3410724647753667 6.315229995137699 13.436213996948672 0 0 0
223 1 2 -1.1794 2.774275950044471 6.923501552312838 16.53732906774419 0 0 0
279 1 1 0.5897 4.427608625504875 6.360038101716184 16.92728612596163 0 0 0
141 1 1 0.5897 7.501493733105018 8.824398313853518 20.62039824566405 0 0 0
361 1 2 -1.1794 5.185648263663806 10.888064336317553 21.145286522554805 0 0 0
9 1 1 0.5897 6.990968419629744 10.160283818051834 17.563596359111017 0 0 0
4 1 2 -1.1794 2.8665479348633025 6.933621360726965 21.11175308573084 0 0 0
627 1 1 0.5897 2.243468672169352 9.937217840688419 17.165680238003 0 0 0
394 1 2 -1.1794 0.7313582804242634 10.897137961070289 21.214642892174616 0 0 0
462 1 1 0.5897 8.885423034184797 6.181039350983703 20.541399358762845 0 0 0
140 1 1 0.5897 6.7993511104267945 10.155079013835978 20.78744762980392 0 0 0
161 1 1 0.5897 6.637705408827357 6.559505024953262 20.805420398261482 0 0 0
690 1 1 0.5897 2.1490734633876003 10.026010133772878 20.754200933822517 0 0 0
625 1 2 -1.1794 3.0133443011715975 9.509829843083295 17.540881934839035 0 0 0
688 1 2 -1.1794 2.930838784324403 9.54094903833894 20.490194558298775 0 0 0
521 1 1 0.5897 6.833000032307424 6.823091349569522 16.95506720957139 0 0 0
522 1 1 0.5897 7.663749985707528 8.069171464927678 17.175935537141292 0 0 0
689 1 1 0.5897 3.661309909836381 10.094070127609912 20.76698252703384 0 0 0
711 1 1 0.5897 9.042227639414085 6.38244015361319 17.469433868733688 0 0 0
626 1 1 0.5897 2.8904930140129594 9.581972944127555 18.48742139231406 0 0 0
139 1 2 -1.1794 7.647166198133309 9.768927180555334 20.56783050995152 0 0 0
6 1 1 0.5897 2.955418144095264 7.857520293567897 20.877991833720365 0 0 0
679 1 2 -1.1794 5.444176408079899 10.897175611003224 16.935966821183207 0 0 0
8 1 1 0.5897 7.734659641422857 9.818243693958532 18.837077113254587 0 0 0
7 1 2 -1.1794 7.783884224204709 9.731268322961679 17.88510911427437 0 0 0
160 1 2 -1.1794 7.448452891605602 7.029635919476291 20.99984182741293 0 0 0
5 1 1 0.5897 3.706898007140365 6.543419893906682 20.871562079138876 0 0 0
224 1 1 0.5897 2.9456443637032743 7.79379898167828 16.89701280652953 0 0 0
277 1 2 -1.1794 5.24264828449125 6.041158249363926 17.314811503003725 0 0 0
680 1 1 0.5897 4.639945002047955 10.474452140878387 17.237088206436646 0 0 0
445 1 2 -1.1794 0.7757783086405899 10.735572717035126 16.884133020673765 0 0 0
572 1 1 0.5897 1.2783511420848765 6.2078763074534535 17.304527037917445 0 0 0
287 1 1 0.5897 9.007666855177936 10.648951684770186 21.128754605073198 0 0 0
647 1 1 0.5897 1.3122086969820002 6.218656557154097 20.762459477140943 0 0 0
520 1 2 -1.1794 7.69373021656549 7.2008019301659765 16.774459148737883 0 0 0
362 1 1 0.5897 5.276082259839798 11.805573794932133 20.888117001698348 0 0 0
446 1 1 0.5897 0.9052209887606124 11.624643961047186 17.21419386586814 0 0 0
648 1 1 0.5897 0.4397524694970772 6.021029949738857 19.541140229497422 0 0 0
162 1 1 0.5897 7.481922486088258 7.06519743249923 21.95579557397553 0 0 0
200 1 1 0.5897 5.0158068550366455 13.417776869696228 4.810837138886852 0 0 0
173 1 1 0.5897 4.237546969587484 13.853728960338415 2.757675609695958 0 0 0
172 1 2 -1.1794 5.097599081480325 13.492702301696358 2.97240987857057 0 0 0
374 1 1 0.5897 0.36455155577918796 13.541453798883536 3.92410442667112 0 0 0
558 1 1 0.5897 2.924179053733858 14.766866801413972 1.1673153784349113 0 0 0
556 1 2 -1.1794 2.841332630722204 14.783317265300585 2.1207811484450403 0 0 0
557 1 1 0.5897 1.9993883145118416 14.363026095191962 2.2957971478941026 0 0 0
478 1 2 -1.1794 7.319885871896038 15.031685238012795 2.4379573657133538 0 0 0
174 1 1 0.5897 5.096715079833384 12.620252615655588 2.5787420158245746 0 0 0
293 1 1 0.5897 2.8723739901255154 16.680465250160456 2.7730032127996425 0 0 0
479 1 1 0.5897 8.030755750762275 14.539750875206837 2.8488301154164066 0 0 0
449 1 1 0.5897 7.544601351457299 16.71381380001196 3.079343273409274 0 0 0
480 1 1 0.5897 6.532978650787826 14.521656091144688 2.6297534359216277 0 0 0
373 1 2 -1.1794 0.5113420944302283 13.584667241180385 2.9792144906286833 0 0 0
448 1 2 -1.1794 7.5044042493287675 17.595582970100864 3.449485737094507 0 0 0
308 1 1 0.5897 7.6753660848270995 17.39336752796979 5.305268845644217 0 0 0
317 1 1 0.5897 7.578082460629225 15.042055714202519 0.6757077972937862 0 0 0
294 1 1 0.5897 2.848352027559067 17.419804927396083 4.093859110934007 0 0 0
292 1 2 -1.1794 2.8903063560482596 17.56090731554533 3.1480468883310717 0 0 0
384 1 1 0.5897 2.9914999576505164 16.503562273809383 10.022873522698001 0 0 0
199 1 2 -1.1794 4.992745901867706 13.396371674035729 5.767521234820687 0 0 0
454 1 2 -1.1794 5.241912232211828 13.48963869024984 10.567502853110335 0 0 0
14 1 1 0.5897 0.7606222945264172 11.933133371352152 9.629684195174441 0 0 0
811 1 2 -1.1794 3.1351802259738526 14.773821307861523 9.231001377095048 0 0 0
456 1 1 0.5897 5.300813313655583 12.587343527222886 10.253600507394207 0 0 0
813 1 1 0.5897 2.4143994129525232 14.283259427400333 9.625934198079294 0 0 0
17 1 1 0.5897 2.7862413927409215 14.871334586881032 7.466721593132995 0 0 0
766 1 2 -1.1794 1.008386848097854 13.534153280573168 10.24236217463902 0 0 0
382 1 2 -1.1794 2.9836709827491337 17.42627520147152 10.277192100842539 0 0 0
377 1 1 0.5897 6.723858108421475 14.408908034614072 10.0271244235508 0 0 0
656 1 1 0.5897 1.1045885646262315 13.915497479858784 6.139748104261153 0 0 0
519 1 1 0.5897 7.922532498393083 14.157950941144279 6.695137897310293 0 0 0
812 1 1 0.5897 3.9254908185558492 14.345385274734285 9.55962831693246 0 0 0
18 1 1 0.5897 3.4388847021542013 14.208096255701486 6.272581296736765 0 0 0
376 1 2 -1.1794 7.530551997615336 14.757412090155167 9.647733653866009 0 0 0
16 1 2 -1.1794 2.6947513496771625 14.75651810132798 6.520846005536143 0 0 0
517 1 2 -1.1794 7.164818808694261 14.664225811545672 6.987919859429773 0 0 0
186 1 1 0.5897 7.6550740551926975 16.46855868393937 10.358820859498145 0 0 0
378 1 1 0.5897 7.359581073637443 14.787609509464144 8.706411099418375 0 0 0
518 1 1 0.5897 7.368823187011868 15.566130486057299 6.740778108645336 0 0 0
201 1 1 0.5897 5.728781362357415 13.94537975730517 6.0376691233258635 0 0 0
239 1 1 0.5897 2.889064502881074 16.514956701454647 5.985095597293734 0 0 0
184 1 2 -1.1794 7.628694174348288 17.383104641050664 10.639957172499635 0 0 0
768 1 1 0.5897 0.22100150396553886 14.033574425676417 10.02614622627705 0 0 0
655 1 2 -1.1794 0.35805776642458614 13.384170648773962 5.8631271065466875 0 0 0
59 1 1 0.5897 8.982334366525873 13.87766209709984 10.085532267525762 0 0 0
238 1 2 -1.1794 2.9058016038112005 17.45641710972001 5.813318208179421 0 0 0
307 1 2 -1.1794 7.6471631724843965 17.260327286765175 6.2527586643772874 0 0 0
296 1 1 0.5897 7.433110742733541 14.880227995489799 14.975911698472242 0 0 0
232 1 2 -1.1794 2.826361601502674 14.841326403413328 14.051834324186581 0 0 0
234 1 1 0.5897 2.910134018614678 14.8637841958214 15.005101212130345 0 0 0
606 1 1 0.5897 2.997079103267752 16.547830037965326 13.391888487598806 0 0 0
427 1 2 -1.1794 5.06379647470256 13.440397806696794 13.32291145875756 0 0 0
233 1 1 0.5897 3.638150983874006 14.434525575920883 13.749091703303451 0 0 0
639 1 1 0.5897 1.4731812239400508 13.828229433544108 13.313257199719414 0 0 0
429 1 1 0.5897 5.798982238473887 14.022848335434235 13.513686675162862 0 0 0
428 1 1 0.5897 5.262473685069888 12.637511894912649 13.804636596552491 0 0 0
455 1 1 0.5897 5.221167782387791 13.411081462870449 11.521254350226537 0 0 0
638 1 1 0.5897 0.7663285526671134 12.489604978230364 13.32176609874385 0 0 0
295 1 2 -1.1794 7.419893394223448 14.899194404767432 14.018989226724276 0 0 0
270 1 1 0.5897 7.422732705006809 16.751486706845473 13.71473617435774 0 0 0
297 1 1 0.5897 8.21056150203584 14.426747551383404 13.758645458892104 0 0 0
637 1 2 -1.1794 0.73013873258666 13.362184534569431 12.930060119149598 0 0 0
605 1 1 0.5897 3.111746675861978 17.311701614805152 12.089894155052034 0 0 0
269 1 1 0.5897 7.372458452583357 17.600034163620403 12.462041000207655 0 0 0
767 1 1 0.5897 0.9266776986129526 13.350532664473183 11.17822744734392 0 0 0
604 1 2 -1.1794 3.188598246581363 17.416389644115206 13.038244035678801 0 0 0
715 1 2 -1.1794 2.885483746963786 17.512402615401147 20.70482674405855 0 0 0
664 1 2 -1.1794 3.300366913045369 14.88291172836645 21.30059241377517 0 0 0
583 1 2 -1.1794 2.732858914095559 17.363139386680228 17.957336564677632 0 0 0
50 1 1 0.5897 7.655073708834238 15.611268103779175 17.08807914495725 0 0 0
51 1 1 0.5897 8.284352549736958 14.239930157478547 16.965349432821867 0 0 0
452 1 1 0.5897 0.9755274551814807 12.704639422862018 20.712089121048365 0 0 0
125 1 1 0.5897 5.382734475914202 13.5830119311169 18.618495408941882 0 0 0
124 1 2 -1.1794 5.14603456025331 13.573028215091096 17.691078092190004 0 0 0
684 1 1 0.5897 4.746058339425603 14.010246101019614 20.74320391980799 0 0 0
159 1 1 0.5897 7.111810630549462 17.42462678045027 19.477524460366155 0 0 0
666 1 1 0.5897 3.1885766728189533 15.825895411891464 21.180562761674587 0 0 0
316 1 2 -1.1794 7.663505390663523 15.016077759285219 21.52412080337057 0 0 0
52 1 2 -1.1794 0.8851791755119852 13.264694734094649 17.762325811976638 0 0 0
318 1 1 0.5897 7.470016126610907 15.909815412806603 21.24136271905423 0 0 0
665 1 1 0.5897 2.5579404752631665 14.492632808738074 20.839454572340152 0 0 0
584 1 1 0.5897 2.9402997901184693 16.491432939148364 17.620841410449394 0 0 0
683 1 1 0.5897 6.259026410420194 14.042281210986525 20.78277531289104 0 0 0
126 1 1 0.5897 5.878876542444974 14.004334809134718 17.25168254792652 0 0 0
682 1 2 -1.1794 5.521451779532277 13.544598499082516 20.430009542529838 0 0 0
610 1 2 -1.1794 7.379249681348563 17.413748467821282 17.731008566938264 0 0 0
53 1 1 0.5897 0.9306045168478468 13.395886858760784 18.709404642000152 0 0 0
451 1 2 -1.1794 1.0515293167380577 13.602043826407412 20.388008782340435 0 0 0
157 1 2 -1.1794 7.2677271791428675 17.491129924696814 20.41959476331673 0 0 0
825 1 1 0.5897 2.2473602149480003 14.33357062531649 17.129242626281794 0 0 0
824 1 1 0.5897 3.7543371810702726 14.46774362653499 17.18087054707547 0 0 0
54 1 1 0.5897 0.0654420875343078 13.684070425591475 17.500996475264635 0 0 0
716 1 1 0.5897 2.851691531058126 17.351865700708288 19.761779107338732 0 0 0
823 1 2 -1.1794 2.967284988924471 14.896789897563782 16.845288960131768 0 0 0
453 1 1 0.5897 0.2099880904735194 14.005801135154057 20.599977956186876 0 0 0
681 1 1 0.5897 5.330707821331175 11.819552945484373 17.16502943599515 0 0 0
49 1 2 -1.1794 7.543472071708257 14.76290120756428 16.65917326443566 0 0 0
267 1 1 0.5897 5.887076756580543 21.75022495214759 2.7502802317823347 0 0 0
696 1 1 0.5897 1.2131806841776713 21.63998381211152 2.602556903894182 0 0 0
266 1 1 0.5897 4.375603477610234 21.738366024491512 2.6665095338228197 0 0 0
265 1 2 -1.1794 5.113428477725385 21.303660472202736 3.094082141438479 0 0 0
344 1 1 0.5897 1.3578710723625549 18.26235365648785 2.622740516037296 0 0 0
228 1 1 0.5897 5.15241992433068 19.649193624631458 2.6514693074956077 0 0 0
345 1 1 0.5897 0.5827860124758613 18.60225123161134 1.3675333299073278 0 0 0
817 1 2 -1.1794 7.468900629023675 22.389456022224614 2.2068760786619808 0 0 0
249 1 1 0.5897 5.286246714975409 21.245472268192 4.925210138958087 0 0 0
226 1 2 -1.1794 5.159271355354473 18.74451968061459 2.3389774435386643 0 0 0
187 1 2 -1.1794 2.7885043204707816 22.50275186911561 2.1572773572071053 0 0 0
695 1 1 0.5897 0.4847358690406294 20.327502822708773 2.7984964918474597 0 0 0
694 1 2 -1.1794 0.43521342007324326 21.259609272152957 3.0102905023339597 0 0 0
818 1 1 0.5897 8.289891847422448 21.97885457478892 2.4780626201892617 0 0 0
343 1 2 -1.1794 0.49847782358402765 18.555372883635062 2.319864453130341 0 0 0
189 1 1 0.5897 2.8197333189219704 22.431424682731425 1.203244379928171 0 0 0
450 1 1 0.5897 6.649830501189857 17.930853830595062 3.1784902232354404 0 0 0
227 1 1 0.5897 4.338227089729005 18.373013857488672 2.661501442084366 0 0 0
413 1 1 0.5897 0.607870011499618 21.295556917680916 4.789798182064691 0 0 0
188 1 1 0.5897 2.8795481501458653 23.439587252021358 2.330998512776548 0 0 0
321 1 1 0.5897 8.942655003310165 18.455891029172683 2.5851011770052956 0 0 0
602 1 1 0.5897 5.192719149217813 18.955498832425725 0.4651590876337475 0 0 0
498 1 1 0.5897 7.492878204516912 22.784656164430473 0.3876976340169783 0 0 0
819 1 1 0.5897 7.535552332399472 23.29058407075659 2.5225834543915617 0 -1 0
555 1 1 0.5897 5.09539320473298 20.209436211821064 10.008918475676236 0 0 0
248 1 1 0.5897 4.52320590622365 21.756789167039376 6.12859596762002 0 0 0
87 1 1 0.5897 8.284253740921015 21.968735728103756 9.836443413633429 0 0 0
37 1 2 -1.1794 2.9895352114743337 22.66713706932099 9.271824171068266 0 0 0
86 1 1 0.5897 7.585455992120886 22.53151519288777 8.617114082658714 0 0 0
342 1 1 0.5897 0.6234071771729216 18.71221979118287 7.5236550617608495 0 0 0
32 1 1 0.5897 8.255053134380658 22.2234603611283 6.3860652501311455 0 0 0
404 1 1 0.5897 1.531450011321054 18.345914250165066 9.707068764255162 0 0 0
39 1 1 0.5897 3.7485499155417332 22.188711759687965 9.60522160998298 0 0 0
553 1 2 -1.1794 5.149609241022153 21.10345256719038 10.346475548737022 0 0 0
701 1 1 0.5897 2.951801772761332 22.630531578096488 7.479317663794461 0 0 0
247 1 2 -1.1794 5.308677856931476 21.268617351562778 5.881868095109423 0 0 0
387 1 1 0.5897 5.223252280487402 19.533491217142423 6.470648303439555 0 0 0
102 1 1 0.5897 5.308075808594726 18.591677810726537 8.486706983167116 0 0 0
700 1 2 -1.1794 3.017538448908212 22.674976153993246 6.525412030962068 0 0 0
385 1 2 -1.1794 5.299758990765101 18.60325003735401 6.682622980681864 0 0 0
702 1 1 0.5897 2.3032366624800185 22.1216558944 6.20958073017937 0 0 0
38 1 1 0.5897 2.23636535883533 22.226185862372397 9.664820119281474 0 0 0
101 1 1 0.5897 6.211114308290296 18.23848539260293 9.649288835900318 0 0 0
341 1 1 0.5897 1.4499684330186609 18.298798328742464 6.324621125655612 0 0 0
33 1 1 0.5897 6.7687056436623445 22.052208722340005 6.616500985861073 0 0 0
340 1 2 -1.1794 0.6085840830231208 18.685442664858126 6.5669364397399885 0 0 0
85 1 2 -1.1794 7.492468166196794 22.432789126985043 9.564656345472569 0 0 0
554 1 1 0.5897 5.979016376531185 21.438599173720178 10.006014399123698 0 0 0
414 1 1 0.5897 0.6322817979164286 20.45641765539194 6.049584514219448 0 0 0
386 1 1 0.5897 6.202147515162008 18.378851128705307 6.455713397956355 0 0 0
31 1 2 -1.1794 7.495941406314413 22.652396574899 6.7809201867434865 0 0 0
100 1 2 -1.1794 5.340551909555339 18.578814275603403 9.44327466387019 0 0 0
405 1 1 0.5897 0.8452982615163342 19.694384132205368 9.657624700279388 0 0 0
403 1 2 -1.1794 0.7990706580482024 18.80801674370205 9.299356822195964 0 0 0
94 1 2 -1.1794 0.7940553601795252 21.35608172570908 10.29522896767489 0 0 0
383 1 1 0.5897 3.875988888756686 17.729064763390834 10.109186969073036 0 0 0
240 1 1 0.5897 3.739941689232828 17.7520691623655 6.177939091784278 0 0 0
185 1 1 0.5897 8.448880881325598 17.756898890255286 10.317901764189175 0 0 0
412 1 2 -1.1794 0.7023016050703901 21.359468167282245 5.740181890641006 0 0 0
309 1 1 0.5897 8.463982053994814 17.64276024841989 6.57322501280822 0 0 0
380 1 1 0.5897 0.5782489080806649 20.263522773802727 13.333383133861753 0 0 0
88 1 2 -1.1794 5.174641501395845 21.399254463256373 13.152430707659668 0 0 0
381 1 1 0.5897 1.332453498267673 21.5699800650993 13.45977154966058 0 0 0
90 1 1 0.5897 5.296971188651416 20.53797746757882 13.551656867208461 0 0 0
763 1 2 -1.1794 5.1899549531501 18.9382561028409 14.28627942721221 0 0 0
738 1 1 0.5897 3.580697097077159 22.04991466999188 13.658224252752309 0 0 0
89 1 1 0.5897 5.153772981833027 21.22671536548181 12.211141924607404 0 0 0
764 1 1 0.5897 4.467615318349587 18.50655198750586 13.830196956058627 0 0 0
474 1 1 0.5897 5.077178238985988 18.844305209159323 16.09266922841138 0 0 0
765 1 1 0.5897 5.9770399584705505 18.513523331807942 13.945325418849613 0 0 0
350 1 1 0.5897 2.78026945199068 22.748767909001227 15.850253464342522 0 0 0
736 1 2 -1.1794 2.7635500381059774 22.40818415128036 14.00471905134886 0 0 0
787 1 2 -1.1794 7.445303550198255 22.65415950839354 13.762769157665861 0 0 0
503 1 1 0.5897 1.5671974807608626 18.222949798800258 13.578502940605519 0 0 0
504 1 1 0.5897 0.664793630144101 18.435205359322396 14.775344943013046 0 0 0