LAMMPS (30 Jul 2021)
  using 1 OpenMP thread(s) per MPI task
package omp 0
using multi-threaded neighbor list subroutines
echo both

include		in.partitions
variable        pid world 0
include		in.temp
variable        temperature equal 260.56
variable	tempDamp equal 100.0
include		in.pressure
variable        pressure equal 8250.0
variable        pressureDamp equal 1000.0 # This is 1 ps
include		in.seed
variable        seed world 745823

units		real
atom_style	full

read_restart	restart.lmp.${pid}
read_restart	restart.lmp.0
Reading restart file ...
  restart file = 30 Jul 2021, LAMMPS = 30 Jul 2021
  restoring atom style full from restart
  orthogonal box = (0.069300525 -0.0045731110 0.17432771) to (19.930700 20.004574 20.525670)
  4 by 4 by 4 MPI processor grid
  restoring pair style lj/cut/tip4p/long/omp from restart
  restoring bond style harmonic/omp from restart
  restoring angle style harmonic/omp from restart
  972 atoms
  648 bonds
  324 angles
Finding 1-2 1-3 1-4 neighbors ...
  special bond factors lj:    0        0        0       
  special bond factors coul:  0        0        0       
     2 = max # of 1-2 neighbors
     1 = max # of 1-3 neighbors
     1 = max # of 1-4 neighbors
     2 = max # of special neighbors
  special bonds CPU = 1.443 seconds
  read_restart CPU = 1.802 seconds
include 	in.setup
variable	out_freq equal 1000
variable	out_freq2 equal 10000
variable	out_freq3 equal 1000

timestep	2.0

neigh_modify    delay 7 every 1

include		in.tip4p
# This is TIP4P/Ice

# create groups ###
group ox type 2
324 atoms in group ox
group hy type 1
648 atoms in group hy

# set charges - beside manually ###
set group ox charge -1.1794
Setting atom values ...
  324 settings made for charge
set group hy charge 0.5897
Setting atom values ...
  648 settings made for charge

# ### TIP3P Potential Parameters ###
pair_style lj/cut/tip4p/long/omp 2 1 1 1 0.1577 8.5
pair_coeff 1 1*2 0.000 0.000
pair_coeff 2 2 0.21084 3.1668
bond_style  harmonic
bond_coeff  1 450 0.9572
angle_style harmonic
angle_coeff 1 55 104.52
kspace_style pppm/tip4p/omp 1.0e-5
pair_modify tail yes

thermo          ${out_freq}
thermo          1000
thermo_style    custom step temp pe etotal epair emol press lx ly lz vol pxx pyy pzz pxy pxz pyz enthalpy

restart 	${out_freq3} restart.lmp.${pid} restart2.lmp.${pid}
restart 	1000 restart.lmp.${pid} restart2.lmp.${pid}
restart 	1000 restart.lmp.0 restart2.lmp.${pid}
restart 	1000 restart.lmp.0 restart2.lmp.0


include         in.dump
dump            myDump all atom ${out_freq2} dump.water.${pid}
dump            myDump all atom 10000 dump.water.${pid}
dump            myDump all atom 10000 dump.water.0
dump            myDump2 all dcd ${out_freq2} dump.dcd
dump            myDump2 all dcd 10000 dump.dcd
dump_modify     myDump append yes
dump_modify     myDump2 append yes


variable natoms 	equal  "count(all)"                        # NUMBER ATOMS
variable H      	equal  "enthalpy/v_natoms"                 # ENTHALPY-per-atom
variable Vol      	equal  "vol/v_natoms"                 # volume-per-atom
fix AVG all 		ave/time ${out_freq} 1 ${out_freq} v_Vol v_H file vol_enthalpy.dat
fix AVG all 		ave/time 1000 1 ${out_freq} v_Vol v_H file vol_enthalpy.dat
fix AVG all 		ave/time 1000 1 1000 v_Vol v_H file vol_enthalpy.dat


timer           timeout 02:55:00 every 1000
New timer settings: style=normal  mode=nosync  timeout=02:55:00

fix 		1 all shake 1e-6 200 0 b 1 a 1
       0 = # of size 2 clusters
       0 = # of size 3 clusters
       0 = # of size 4 clusters
     324 = # of frozen angles
  find clusters CPU = 0.202 seconds
fix             2 all nph aniso ${pressure} ${pressure} ${pressureDamp}
fix             2 all nph aniso 8250 ${pressure} ${pressureDamp}
fix             2 all nph aniso 8250 8250 ${pressureDamp}
fix             2 all nph aniso 8250 8250 1000
fix             3 all temp/csvr ${temperature} ${temperature} ${tempDamp} ${seed}
fix             3 all temp/csvr 260.56 ${temperature} ${tempDamp} ${seed}
fix             3 all temp/csvr 260.56 260.56 ${tempDamp} ${seed}
fix             3 all temp/csvr 260.56 260.56 100 ${seed}
fix             3 all temp/csvr 260.56 260.56 100 745823


run             250000
PPPM initialization ...
  extracting TIP4P info from pair style
  using 12-bit tables for long-range coulomb (../kspace.cpp:340)
  G vector (1/distance) = 0.37203404
  grid = 24 24 24
  stencil order = 5
  estimated absolute RMS force accuracy = 0.0035258369
  estimated relative force accuracy = 1.0617953e-05
  using double precision FFTW3
  3d grid and FFT values/proc = 2197 216
Last active /omp style is kspace_style pppm/tip4p/omp
Neighbor list info ...
  update every 1 steps, delay 7 steps, check yes
  max neighbors/atom: 2000, page size: 100000
  master list distance cutoff = 10.8154
  ghost atom cutoff = 10.8154
  binsize = 5.4077, bins = 4 4 4
  1 neighbor lists, perpetual/occasional/extra = 1 0 0
  (1) pair lj/cut/tip4p/long/omp, perpetual
      attributes: half, newton on, omp
      pair build: half/bin/newton/omp
      stencil: half/bin/3d
      bin: standard
Per MPI rank memory allocation (min/avg/max) = 9.223 | 9.225 | 9.227 Mbytes
Step Temp PotEng TotEng E_pair E_mol Press Lx Ly Lz Volume Pxx Pyy Pzz Pxy Pxz Pyz Enthalpy 
17000000    261.43514   -4654.5212   -4150.3215   -4654.5212            0    9055.3847      19.8614    20.009147    20.351343    8087.8205    10004.992    8312.5615    8848.6006    334.05919    -881.9618   -1215.7451   -3082.2157 
17001000    251.07598   -4685.7431    -4201.522   -4685.7431            0    7235.4209    20.217053    19.769903    20.450256    8173.7461    8303.1149    6834.8081    6568.3396     -447.505   -380.68836   -497.02253   -3339.0185 
17002000    258.07672   -4693.1555   -4195.4329   -4693.1555            0    7586.0147    19.737629    20.114353    20.556327    8161.0597    6210.7437     7925.087    8622.2132    204.96596    -222.3311    -612.8038   -3292.5402 
17003000    259.41412   -4707.9862   -4207.6843   -4707.9862            0    7598.2311    20.037607    19.697402    20.695043    8168.1017    9259.0606    7236.5739    6299.0589    897.04311   -965.35805    240.42154   -3302.5572 
17004000    252.20346    -4715.101   -4228.7054    -4715.101            0    8084.9437    19.786393    20.092353    20.341094    8086.7075    8952.2362    6198.1085    9104.4863   -366.06591    2269.3845   -1207.0738   -3275.1968 
17005000    253.97139   -4680.9204   -4191.1152   -4680.9204            0    7748.8962    19.999426    19.884755    20.455421    8134.7876    6316.4107      10631.5    6298.7777    398.78819   -164.44469   -258.66545   -3271.8053 
17006000    259.77568   -4679.5217   -4178.5225   -4679.5217            0    8054.7974    19.942522    19.692342    20.661041    8113.8999    8492.9057    8607.2154    7064.2711     827.0182    1471.7969   -449.80492   -3225.3749 
17007000    270.68544   -4713.3501   -4191.3105   -4713.3501            0    6856.7357    20.106519    19.739449     20.47797    8127.5345    6205.9345    8269.7874    6094.4851   -52.787494    549.86946    57.878237   -3378.5695 
17008000    261.26272   -4702.6839   -4198.8168   -4702.6839            0    7009.6634    19.955632    19.836413    20.581625    8147.1981    6952.0402    8516.8683    5560.0816    646.19724   -146.20132   -285.73133   -3365.9389 
17009000    268.28407   -4685.8465   -4168.4381   -4685.8465            0    7036.7201    19.982431    19.951875    20.528282    8184.3586    5360.6656     9769.394    5980.1006    55.076244   -48.759278   -1036.0045   -3328.5319 
17010000    264.90893   -4690.3584   -4179.4592   -4690.3584            0    8324.8125     20.02604    19.870152    20.423113    8126.7742    6047.4934    10036.973    8889.9715   -936.90684   -294.78299    -823.8701   -3192.7969 
17011000    257.90858   -4697.9943   -4200.5959   -4697.9943            0    9850.5389    20.036858    19.711795    20.434681    8070.9312    8767.4231    11364.691     9419.503    922.06917   -1304.9181    1029.7993   -3041.1259 
17012000     273.1624   -4678.4342   -4151.6175   -4678.4342            0    7994.3058    19.778087    19.804903    20.797271    8146.3555    7901.9615    9213.2041    6867.7517   -523.94058   -1368.3388    907.08758   -3201.8441 
17013000     263.0905     -4664.49   -4157.0979     -4664.49            0    9274.6825    20.029638    19.775323    20.433304      8093.48    10959.704    7446.7516     9417.592    87.542049    -226.0362   -219.81717   -3062.3598 
17014000    261.79671   -4706.1384   -4201.2414   -4706.1384            0    8178.2702    19.971765    19.918069    20.311666    8079.9606    8081.1423    8112.7861    8340.8823   -855.42526    79.372212    237.95505   -3237.5309 
17015000    247.51507   -4679.3176    -4201.964   -4679.3176            0    7292.4097     19.96841    20.087591    20.373945    8172.3414    7571.8676    5658.6407    8646.7207     169.9117     421.6258   -2028.5017   -3332.8166 
17016000    253.11372   -4684.7478   -4196.5967   -4684.7478            0    6463.5222    20.065829    19.819627    20.528551    8164.1481    5467.3334    6379.7182    7543.5149   -149.87198    474.35502   -637.20449   -3427.0128 
17017000    263.72439   -4692.3401   -4183.7255   -4692.3401            0    8281.1647    19.925989    19.810086    20.495841    8090.4375     8365.081    7126.0807    9352.3326    579.52908    1258.9981    986.23083   -3206.6248 
17018000    247.34329   -4699.1788   -4222.1565   -4699.1788            0    8642.2152    19.862947    20.024544    20.360878    8098.4669    9090.0164    6847.2812    9989.3481   -125.45031    189.16739    1651.2717   -3201.4432 
17019000    238.21261   -4658.0767   -4198.6636   -4658.0767            0    8000.0851    20.012559    19.705599    20.593178    8121.1143    8198.7658    8683.4405    7118.0489    732.27627    2110.1011    1249.7312   -3251.1486 
17020000    255.22969    -4700.523    -4208.291    -4700.523            0     8415.869       19.719    20.002462     20.53127    8098.1189    10200.796    7035.2744    8011.5366   -398.20451   -1213.4414   -932.32963   -3214.3537 
17021000    258.18403   -4719.5027   -4221.5731   -4719.5027            0    8879.2804    19.957268    19.724932    20.460659    8054.4561    8590.3353      9584.06    8463.4457   -749.40765   -342.16878    1119.1305   -3178.5598 
17022000    262.49764   -4704.8349   -4198.5861   -4704.8349            0    8283.0041    19.898696    19.997976    20.394608    8115.7008    9202.4488    6990.9413    8655.6221    569.89655   -547.03865    953.37411   -3218.2166 
17023000    254.74704   -4716.3502   -4225.0491   -4716.3502            0    9250.6242     19.88245    19.691691    20.564003    8051.1994    8282.8155    10286.936    9182.1214   -484.93504   -158.59389    802.71238   -3138.8548 
17024000    274.32598   -4676.6952   -4147.6344   -4676.6952            0    9353.2103    19.873066    19.765508    20.534729     8066.067    7993.1468    10702.049    9364.4349    892.40571    1424.4324    508.87257   -3047.3666 
17025000      258.177   -4656.9454   -4159.0293   -4656.9454            0    9059.6268    19.759461    20.113049    20.353183    8088.8233    10115.606    8317.7774    8745.4969   -589.02589   -1417.5902     -433.208   -3090.2906 
17026000     278.4768   -4708.3105   -4171.2445   -4708.3105            0     7078.522    20.033447    19.858784    20.513794    8161.2056    5701.7329    8348.8952     7184.938    175.75147     214.0352     371.6258   -3328.7389 
17027000    270.14955   -4690.2405   -4169.2344   -4690.2405            0    10067.815    19.753572     19.81009    20.706388    8102.8248    11007.907    10889.166     8306.374   -373.26944    720.20145   -318.84298   -2979.5067 
17028000    259.22235   -4714.3773   -4214.4452   -4714.3773            0    8552.8143    19.922722    19.875104    20.557524    8140.0842    9183.5918     7722.501      8752.35     555.4935   -235.19984    705.72396   -3199.0997 
17029000    260.16852   -4681.9125   -4180.1557   -4681.9125            0    8850.6223    19.918901     19.90973    20.356863    8073.1237    9577.3078    8397.1653    8577.3939    -682.5151   -628.68112    991.92525   -3138.0991 
17030000    258.82433   -4678.5055    -4179.341   -4678.5055            0    7461.3822    19.947212     19.98897    20.416094    8140.3912    8954.0742    5513.6922    7916.3803   -476.68971    221.33719   -463.31755   -3293.5313 
17031000    261.07811   -4659.6564   -4156.1453   -4659.6564            0    9835.8868     19.99818    19.562454    20.628112    8069.9953    9725.7659    10707.985    9073.9097    327.24112    661.89418   -457.34099   -2998.5342 
17032000    261.61369   -4693.8311   -4189.2871   -4693.8311            0    7970.6532    19.833849    19.965937    20.537162    8132.7444    8192.6442    8648.3459    7070.9696    148.10785     106.1437     -227.787    -3243.906 
17033000    258.68245   -4686.6744   -4187.7835   -4686.6744            0    8931.3979    19.892581    20.024278    20.305109    8088.2268    8572.1859    9008.1804    9213.8273   -209.49268    632.92227   -677.44245   -3134.2493 
17034000    247.60576   -4691.9961   -4214.4676   -4691.9961            0    8016.2996    19.882564    19.739454    20.676675    8114.9944    7703.1717    8834.7998    7510.9275    374.90957   -644.54327   -711.54483   -3265.7476 
17035000     260.2069   -4741.4316   -4239.6007   -4741.4316            0    8748.2557    19.679536    19.895746    20.544941    8044.1463    10504.389    8193.5782    7546.8001   -484.46793    439.05003   -597.94154   -3213.2936 
17036000    245.83152   -4712.3273   -4238.2205   -4712.3273            0    6980.4052    19.942717     19.93963    20.480127    8143.9308    8209.1026    6911.3721    5820.7408    357.53577   -495.50071     790.2863   -3409.1517 
17037000     266.8135   -4723.8718   -4209.2996   -4723.8718            0    8088.3636    19.972576    19.905214    20.439352    8125.8357      9514.23    6822.3727    7928.4881    1127.5133   -84.446653   -1817.0218    -3250.772 
17038000    264.78715   -4689.1787   -4178.5144   -4689.1787            0    9033.1919    19.832192    19.858536    20.755391    8174.2677    8032.3878    10506.491    8560.6974    47.029218    352.01754   -131.74529   -3101.6377 
17039000    255.22092   -4709.4429   -4217.2279   -4709.4429            0    7131.3188    20.043991     19.89686    20.286938    8090.6843     7456.972    6547.9314    7389.0531   -435.55756   -1534.1079   -1874.6737   -3375.7727 
17040000    243.75912   -4669.1868   -4199.0768   -4669.1868            0    10611.695     19.83582    19.766844    20.594164    8074.7979    11627.637    9538.3076    10669.141   -82.135842   -956.42062   -929.25837   -2949.4156 
17041000    254.68887   -4676.9775   -4185.7886   -4676.9775            0    8540.4044     19.86443    19.860347    20.582479    8120.0861    8270.5526    8216.6335    9134.0271    146.50306   -410.23827    2.1626787   -3174.4072 
17042000    263.26861   -4715.3269   -4207.5913   -4715.3269            0    7820.1773    19.883091    19.672749    20.691037    8093.4039     6177.954    9730.2001    7552.3777    336.37613    707.49498   -1578.8741   -3284.5445 
17043000     261.9634   -4676.6081   -4171.3896   -4676.6081            0    8037.2345    19.821012    19.928009    20.447152    8076.4882    7842.1766    7014.8506    9254.6762   -85.309859    248.18645   -1780.8921   -3224.7055 
17044000    257.62522   -4711.7495   -4214.8976   -4711.7495            0    8572.5355    19.959359    20.030191    20.160268    8059.8692    8066.2601    7394.4167     10256.93    136.52152   -1115.0299    278.95398   -3207.2395 
17045000    246.62932   -4709.4317   -4233.7863   -4709.4317            0    8115.2855    19.953609    19.878664     20.51493    8137.2692    8980.3666    7844.9687    7520.5211   -346.96527    482.77499   -366.75419   -3270.7152 
17046000    265.49043   -4722.6085   -4210.5879   -4722.6085            0    8867.0742    19.551632    19.829692     20.71849    8032.6173    9174.4071    11053.238    6373.5777   -432.95302    853.18751   -415.04152   -3171.8325 
17047000    272.14956   -4729.9994    -4205.136   -4729.9994            0     8758.637     20.01718    19.794777     20.51644    8129.3443    7364.3952    10607.153    8304.3627   -395.91261   -440.29885    1860.7114   -3166.7283 
17048000    244.16312   -4682.5172    -4211.628   -4682.5172            0    10253.501    19.702571    20.180447     20.16151     8016.351    9948.3492    9998.1097    10814.044    -616.2683    353.08983      785.771   -3012.8886 
17049000    259.44033   -4675.7017   -4175.3492   -4675.7017            0    7551.1668     19.88872     19.90404    20.535765    8129.4084    7675.5746    7152.2927    7825.6331   -16.445134   -1244.2195   -390.83653   -3280.0898 
17050000    261.44893   -4726.6754   -4222.4491   -4726.6754            0    7208.0681     19.99375    19.743844    20.643715    8149.1782    5079.8232    9926.9011    6617.4798    112.46166    919.10199    4.0243759   -3365.7889 
17051000    273.81006   -4660.4074   -4132.3416   -4660.4074            0    8304.6051    20.005846    19.986442     20.34877    8136.3675    7604.2426    8772.5734    8536.9992   -248.08297    1159.7914    468.97067   -3146.9124 
17052000    259.66437   -4724.6764   -4223.8918   -4724.6764            0    8245.7395    19.845195    19.874197     20.55394    8106.6242    8474.5445    8492.0681    7770.6059   -803.13751   -780.41118    379.33414   -3249.0244 
17053000    253.99413   -4717.4925   -4227.6434   -4717.4925            0    8827.5948    19.751242    19.786018    20.613149    8055.5864     8975.866    9052.0698    8454.8486   -428.15927    352.43966    2.4373969   -3190.5558 
17054000    270.07246   -4704.9232   -4184.0657   -4704.9232            0    7129.9663    20.174998    19.671556    20.583828     8169.178    6833.9001    8573.1407    5982.8583   -727.19797    1082.0979   -1029.0331   -3334.6081 
17055000    258.84785   -4694.5431   -4195.3333   -4694.5431            0    9572.7281    19.891631    20.016776    20.404805     8124.506    9558.8127    9695.2254    9464.1463    143.02609     413.9575      786.309   -3061.0838 
17056000    270.01236   -4677.1483   -4156.4068   -4677.1483            0    8516.2718    20.057006    19.782631    20.608358    8176.9914    9415.0261    9236.5199    6897.2694   -12.092639    768.67462   -1070.8403   -3140.8155 
17057000    244.60439   -4700.7861    -4229.046   -4700.7861            0    8968.4315    19.574534    19.920683    20.718215    8078.8208    10212.408    7162.7295    9530.1565   -1150.5646    1456.8159     348.4752   -3172.3736 
17058000    260.35777   -4706.0035   -4203.8817   -4706.0035            0     6200.585    19.903065    20.014586     20.49359    8163.6549    3551.4237    7915.7027    7134.6285   -181.48399     515.6074    344.25939   -3465.6491 
17059000    256.91063   -4694.3613   -4198.8876   -4694.3613            0    8428.8656    20.055944    19.807341    20.330199    8076.2717    9433.8001    7083.7264    8769.0703   -92.442208    1332.3838    1281.6856   -3206.1009 
17060000     267.3865   -4709.1133    -4193.436   -4709.1133            0    9464.9827    19.955295    19.802599    20.461554    8085.7252    7622.8476    11265.306    9506.7942   -555.48425   -652.17473    1511.5915   -3077.3062 
17061000    261.92567   -4701.8007    -4196.655   -4701.8007            0    6732.6645     19.86422    20.057072    20.629231    8219.0588    5037.7314    7885.3193    7274.9428   -1057.2235   -363.52166    1006.7328   -3389.6338 
17062000    269.88383   -4676.6817   -4156.1881   -4676.6817            0      8563.98    19.725108    19.970026    20.623319    8123.7507    8360.1216    8944.5422    8387.2763   -4.8029223    15.711356    515.49423   -3141.5571 
17063000    266.83443   -4679.2425   -4164.6299   -4679.2425            0    8398.0368    19.723893     19.99927    20.551151    8106.6783    8019.6275    10053.279    7121.2036   -51.853379    1126.7467   -997.26323   -3171.7503 
17064000    259.93611   -4694.1645   -4192.8559   -4694.1645            0    8491.5962     19.82968    19.619286    20.787674    8087.3235    8362.4109    10255.825    6856.5528   -142.76519    158.99155    285.43514   -3191.3118 
17065000    265.95001     -4732.49    -4219.583     -4732.49            0    7840.6377    19.891042    19.963945    20.461093    8125.1748    7802.4188    7676.7376    8042.7569     183.6617   -251.62021   -631.80152   -3290.4883 
17066000    268.03982   -4664.5281   -4147.5908   -4664.5281            0    7405.7694    20.091984    19.932954    20.274061    8119.6112    4930.4288    9614.7332    7672.1462    789.96077    835.59493   -1480.2335   -3270.6277 
17067000    260.95703   -4718.8264   -4215.5489   -4718.8264            0     8826.459    19.881304    19.918961    20.458826    8102.0001     8204.987    8941.0769     9333.313    446.47264    2383.7061    229.20578   -3172.6201 
17068000    270.01843    -4720.968   -4200.2147    -4720.968            0    9050.5701    19.991667    19.811177    20.509035    8122.7767    10445.802    7096.8001    9609.1086   -840.87956    1377.4745    119.16486   -3128.0628 
17069000    249.74366    -4705.334   -4223.6824    -4705.334            0    9909.0733    19.744477    19.843766    20.491272    8028.5782    9504.4369    9229.1541    10993.629    702.98271    1251.4831    1106.6601   -3063.4431 
17070000    262.33182   -4691.2497   -4185.3207   -4691.2497            0    9231.5608    19.888341    20.215163    20.195064    8119.3458    11356.703    7259.5517    9078.4275   -381.36721    693.42655     630.9319   -3092.1901 
17071000    249.12033   -4672.7985    -4192.349   -4672.7985            0    7406.3989    19.953251    19.936036    20.384521    8108.7323    7080.6567    6511.4901      8627.05    33.553076   -236.92955    527.90113   -3316.4865 
17072000    270.42507   -4660.6536   -4139.1162   -4660.6536            0    8634.2594    20.095923    19.976275    20.275126    8139.2807    7732.1035    8264.6734    9906.0013   -856.07742    775.72239    783.36221   -3114.2032 
17073000    261.87008   -4739.8688   -4234.8304   -4739.8688            0    9051.2225    20.053769    19.794524    20.346512    8076.6462     8603.545    10360.611    8189.5115    385.32796   -240.39146    378.70074   -3168.6905 
17074000    245.44175   -4692.6518   -4219.2967   -4692.6518            0    9919.4501    19.751559    19.879482    20.516359    8055.7639    10360.124     10784.54    8613.6865   -135.45929    -6.801461   -108.61615   -3053.9096 
17075000    248.71747    -4688.452   -4208.7795    -4688.452            0    7987.5808    19.961913    19.763704    20.545883    8105.7889     6626.254    9179.3254     8157.163    27.056346    1520.2999   -38.611462   -3264.5307 
17076000    269.04999   -4724.4319   -4205.5464   -4724.4319            0    7565.7949    19.865606    19.914375    20.564444    8135.5228    9424.8403    5656.7038    7615.8406    310.74277    540.77816   -790.29452    -3307.878 
17077000    260.90608   -4744.3292   -4241.1499   -4744.3292            0    7445.7881    20.120594    19.617584    20.422985    8061.3084    5990.2278    8492.9319    7854.2045   -79.961652    457.38935   -818.25934    -3365.779 
17078000    276.27605   -4684.1815   -4151.3599   -4684.1815            0    10331.024    19.721141    19.845582    20.539776    8038.8063    11007.078    9600.4917    10385.501    395.44896    109.19985    1041.2127    -2940.174 
17079000    259.35787   -4729.4828   -4229.2894   -4729.4828            0    5922.9071    19.900985    19.940069    20.693762    8211.8439    7322.2638    5442.1353    5004.3221    -331.6717    -129.0027    810.21795   -3519.9542 
17080000     264.3837   -4684.7274   -4174.8412   -4684.7274            0    8659.1579    20.090674    19.793062    20.389923    8108.1743    6858.4883    10202.463    8916.5224   -146.29072    966.82329    740.03238   -3150.9009 
17081000    260.29399   -4696.6815   -4194.6827   -4696.6815            0    8467.4437    19.910576    19.845223    20.595071    8137.7267    7780.9382    9235.2688    8386.1241    556.14445   -320.80575    -72.45065   -3189.7631 
17082000    254.73451   -4723.0334   -4231.7565   -4723.0334            0    6801.4375    19.754321    20.210922    20.400101    8144.8024    7285.4263    6206.7856    6912.1007    680.01132    2006.9018    724.24068   -3423.8573 
17083000    263.69829   -4694.0839   -4185.5196   -4694.0839            0    9416.9252    19.845358    19.829201    20.541582    8083.4736    8372.2845    11242.307    8636.1842   -360.69888      102.733    1070.7537   -3075.3661 
17084000     274.0748   -4684.1175   -4155.5412   -4684.1175            0    9206.6025    19.783565    19.792146    20.702523    8106.2635    9424.3474    10546.688    7648.7718    249.03076    350.88575    552.27304   -3067.1224 
17085000    256.25806   -4706.1262    -4211.911   -4706.1262            0    7946.2144    19.987573    19.908795    20.375579    8108.0237    5667.3309    9103.9245    9067.3879   -56.467989    2643.3354    1331.0699   -3272.2933 
17086000     251.6514   -4702.4937   -4217.1628   -4702.4937            0    7813.2868    19.899752    19.923388    20.570319    8155.5243    9042.8723    6758.0387    7638.9492   -761.85067    -276.1731     435.1822   -3287.8508 
17087000     249.0793   -4689.8408   -4209.4704   -4689.8408            0    9155.5339    19.965735    19.693165    20.605907    8102.0061    9306.5178    10363.712     7796.372   -463.14178   -347.40975    220.39755   -3127.6576 
17088000    263.02865   -4701.1963   -4193.9234   -4701.1963            0    8595.8166     19.99899     19.88392    20.342026    8089.1759    9257.8913    6918.5103    9611.0482    1671.8462    1249.2695    184.78581   -3179.8549 
17089000    246.09693   -4724.2741   -4249.6554   -4724.2741            0    9169.6724    19.881313    19.742654    20.595207    8083.8224    9391.5492    9159.5859    8957.8821   -249.95934    55.285196     1067.545   -3168.6037 
17090000    258.45335   -4704.1345   -4205.6855   -4704.1345            0    9129.1233     19.71017    20.026791    20.427302    8063.2989    9980.0728    7701.0843    9706.2128   -129.56076    772.09002    106.65458   -3132.1467 
17091000    257.34935   -4710.0033   -4213.6834   -4710.0033            0    8509.0208    19.952386    19.830147    20.484445    8104.8497    6901.6014    10139.618    8485.8432    536.97312   -55.376789     -11.2766   -3207.9093 
17092000     269.1529   -4724.1658   -4205.0818   -4724.1658            0     8143.954    19.809153    19.682428    20.713372    8075.9831    8934.5141    7779.0926    7718.2552    -318.0181    206.32492   -217.27559   -3245.8875 
17093000    277.33567   -4709.1175   -4174.2523   -4709.1175            0    7755.9826     19.83413    19.810024     20.45494    8037.0442    6609.4003    7912.0242    8746.5234    724.97295    1346.8879   -365.06436   -3265.1577 
17094000    253.32284   -4688.9306   -4200.3762   -4688.9306            0    7850.2841    19.793356    19.692235    20.789841    8103.3689    7208.5096    8444.5681    7897.7745   -996.77647   -264.70033   -112.43678   -3272.6349 
17095000    245.16251   -4713.2835    -4240.467   -4713.2835            0    8422.4931    19.851064    19.944462    20.470966    8104.8404    8404.3864     7295.715    9567.3779   -1.2462836   -51.496977    1310.3398   -3244.9217 
17096000     270.1012   -4701.3806   -4180.4677   -4701.3806            0    9012.3318    19.906006    19.978298    20.310587    8077.2788    6989.8114    10015.203    10031.981   -383.13214    -510.1433   -2267.6784   -3118.8256 
17097000    256.41058   -4690.1946   -4195.6852   -4690.1946            0     8685.114    19.816345    19.875232      20.5444    8091.5033    10361.523    6576.3329    9117.4858    446.36038   -1029.5316    -646.2238   -3170.7872 
17098000    263.39196   -4700.9024   -4192.9289   -4700.9024            0    9434.2542    19.855451      19.6733    20.562201    8032.0532    10171.847    10264.932    7865.9837    403.72129   -286.36677   -1409.8724   -3087.8074 
17099000    259.38087    -4700.282   -4200.0442    -4700.282            0    9848.4927    19.689777    19.855264    20.503044    8015.5772    10274.853    9178.2902    10092.335    232.99647   -689.29526   -725.97378   -3048.7655 
17100000     267.7434   -4720.6488   -4204.2831   -4720.6488            0    7092.6601    19.942779    19.983855     20.44002    8146.0347    5732.1029    7492.8966    8052.9807   -756.90336    549.93607   -2558.5217    -3361.664 
17101000    257.51033    -4736.054   -4239.4236    -4736.054            0    8196.7697     20.00939    19.650638    20.605264    8101.9335    8762.2271    7523.6837    8304.3982    219.37327   -0.2931856    521.99492   -3270.9065 
17102000    262.44159   -4686.3492   -4180.2086   -4686.3492            0    9421.8096    19.526953     20.08665    20.517065    8047.4304    10025.349    7751.1978    10488.882   -1231.1354   -449.90149   -1136.0871   -3074.4318 
17103000    272.49089   -4697.7119   -4172.1903   -4697.7119            0    8622.9322    20.019912    19.550185    20.623909    8072.0534    6047.3153    11002.995    8818.4864    270.43932    270.69397   -1243.9901   -3157.0761 
17104000    256.64346   -4678.7955   -4183.8369   -4678.7955            0    8491.6828     19.92749    19.810798    20.603211    8133.7249    7329.5028    10344.574    7800.9718   -223.00855    40.567398   -1250.4218   -3176.5363 
17105000    273.72485   -4676.6805   -4148.7791   -4676.6805            0    9131.8589    19.764758    20.067648    20.463892    8116.6385    9397.6857    8657.7002    9340.1908     355.2706    85.996287    136.36328    -3067.815 
17106000    253.14493   -4708.8795   -4220.6683   -4708.8795            0     9093.706    20.002217    19.733617    20.458115    8075.1472    9579.9319    8748.8799    8952.3061   -633.77151   -2168.2667     747.6095   -3149.7231 
17107000    259.38354   -4695.5404   -4195.2974   -4695.5404            0    8521.8152    19.873233    19.735667    20.647681    8098.2578    7706.9906    9759.8374    8098.6176   -19.786142   -121.28585   -855.79673   -3188.8302 
17108000    264.87062   -4690.6882   -4179.8629   -4690.6882            0    9754.6334    19.519379    20.055566    20.668298    8091.0642    11951.052    7955.8374     9357.011    174.10157    654.80112    -412.3299   -3028.8174 
17109000     262.6788   -4700.1942    -4193.596   -4700.1942            0    9169.2643    20.078663    19.696415    20.404632    8069.5765    6917.8026    10618.729    9971.2615    53.658566    566.96071   -1438.3031   -3114.4975 
17110000    264.88709   -4689.1452   -4178.2881   -4689.1452            0     6447.319     19.72527    20.115476    20.602993    8174.9213    7981.1406    5146.0085    6214.8079   -280.54484    146.88266    1293.4944   -3409.6204 
17111000    276.52164   -4701.7183   -4168.4231   -4701.7183            0    7918.1317    20.045409    19.751852    20.605577    8158.4472    7284.8673    8217.6648     8251.863    648.02304   -700.41775   -748.59312   -3226.3033 
17112000      248.953   -4668.3704   -4188.2436   -4668.3704            0     8780.315    19.920638    19.851735    20.559409    8130.4079    6042.5367    11579.688    8718.7202   -386.62144   -977.61958   -1376.7173   -3147.1295 
17113000    256.26189   -4715.6943   -4221.4717   -4715.6943            0    9493.2936    19.988336    19.931824    20.226352    8058.2595    9610.3579    7904.0434     10965.48    1470.9402   -614.48945   -1096.0773    -3105.806 
17114000     273.8109   -4712.2455   -4184.1782   -4712.2455            0    8404.3836     19.89489    19.876918    20.408152    8070.3853    8179.9236    8292.7381     8740.489   -220.46761    190.90316   -1510.9448   -3194.9966 
17115000    254.96899   -4682.8675   -4191.1384   -4682.8675            0    8629.2048    19.867417    19.784809    20.504621    8059.8139    8125.3084    9826.9158    7935.3901    245.75608    858.19167    2220.4746   -3176.8261 
17116000    256.21133   -4723.5003   -4229.3752   -4723.5003            0    8171.8287     19.84567    19.710679    20.756276    8119.2664    9087.3951    6911.2204    8516.8706    366.30987     260.7107   -1123.9304   -3261.7394 
17117000    252.46443   -4719.9404   -4233.0415   -4719.9404            0    7856.2068    19.762666    19.957011    20.527906    8096.2831    9300.3399    6834.1506      7434.13   -234.50109   -537.64141   -409.88496   -3305.4121 
17118000    260.65315   -4715.5798   -4212.8883   -4715.5798            0    7189.8544    19.737248    19.950053    20.710248    8154.8496    7271.7748    9195.1017    5102.6869   -237.20667   -690.08854    319.72326    -3357.798 
17119000     253.2254   -4720.3139   -4231.9474   -4720.3139            0    6481.0028    19.969979     19.97409    20.423246    8146.4685    5978.8521    6342.3726    7121.7837   -429.28172    183.65892   -37.311357   -3461.9532 
17120000     276.6628   -4731.9308   -4198.3633   -4731.9308            0    7252.2465     19.96185    19.987123    20.474919    8169.0824    6959.8193    7716.0856    7080.8348    312.72858    -19.59362    42.687031   -3334.3474 
17121000    247.09956   -4710.3668   -4233.8145   -4710.3668            0    9951.2471     19.96263    19.840194     20.38866    8075.1826    9206.7132    10429.807    10217.221   -292.73129   -503.44993    775.28116   -3061.8735 
17122000    266.15871   -4680.9445   -4167.6351   -4680.9445            0    9774.6686    19.642819    19.907347    20.631507    8067.6703    9141.8882     10583.78    9598.3379   -346.46952    2249.0003    170.06522   -3017.5603 
17123000    259.14236     -4693.76   -4193.9822     -4693.76            0    10121.294    19.937027    19.825571    20.346683    8042.2898    10156.333    10123.541    10084.006   -32.046266   -48.506077    1180.1773   -3006.8704 
17124000    258.09884   -4680.0794    -4182.314   -4680.0794            0    11542.954       19.842    19.715321    20.573497    8048.1754    10705.146    13814.288    10109.429    67.577141    1234.2116    1028.9136   -2827.4669 
17125000     269.5008   -4678.8975   -4159.1425   -4678.8975            0    10332.571     19.74021    19.962861    20.516656    8085.0204    12403.977    8842.3558    9751.3806    94.596236   -615.90315    1270.1661   -2940.8112 
17126000     255.2529   -4729.1379   -4236.8613   -4729.1379            0     7933.327    19.994294     19.81612    20.441373    8099.0626    4557.7018    10798.515     8443.764    119.23207   -418.23798   -960.77258   -3299.8043 
17127000    258.08876   -4712.5706   -4214.8248   -4712.5706            0    7797.3873    19.665155    20.082719    20.640348    8151.4881    10275.324    5231.2538    7885.5847   -187.26786    343.17465   -33.839471   -3287.8628 
17128000    245.78021   -4682.6687   -4208.6609   -4682.6687            0    8033.3216    19.970461    19.818408    20.377341    8065.0002    7044.1712    8061.1818     8994.612   -560.11833    512.26691    499.26865   -3263.7835 
17129000    275.67908   -4689.2517   -4157.5814   -4689.2517            0    7710.2046    19.642844    20.052981    20.632633    8127.1443    6610.4181    9033.0638    7487.1319    751.41884    370.22916   -614.84641   -3243.7212 
17130000    250.75203   -4724.8341   -4241.2377   -4724.8341            0    8223.5993    19.634688     19.81749    20.739555    8069.9731    7571.5917    10340.601    6758.6056      193.658   -383.17089    208.86257   -3273.3836 
17131000    239.99114   -4716.5712   -4253.7281   -4716.5712            0    7832.7806    20.077894    19.879471    20.449346    8162.1094    6395.3249    8524.1972    8578.8197     -572.605   -119.31965    971.05704   -3321.3453 
17132000    261.59137   -4666.2777   -4161.7767   -4666.2777            0    7608.3825    19.825614    20.157505     20.37497    8142.5493    8354.0115    7480.7898    6990.3461    875.18026   -562.68615    206.31901   -3258.2758 
17133000     260.3258   -4663.8356   -4161.7754   -4663.8356            0    9952.8505    20.012924    19.660036    20.526298    8076.1709    8997.6046     11741.14    9119.8073    19.879393    -808.6049   -121.14257   -2989.5021 
17134000    253.81331   -4708.6975   -4219.1971   -4708.6975            0     6618.348    19.802096    19.992135    20.442071    8092.7333    6501.4273    6250.9511    7102.6658   -587.47128    1473.4383   -856.35711   -3438.0718 
17135000    257.74246   -4703.4412   -4206.3632   -4703.4412            0    7867.9406    19.840288    19.704556    20.702923     8093.685    8556.6704    8533.5159    6513.6356   -267.83702    584.28196    629.79712   -3277.6465 
17136000    269.12024   -4706.8835   -4187.8625   -4706.8835            0    8167.7667     20.03169     19.75357    20.517422    8118.6901    6729.5105    11525.955     6247.835   -462.98175   -856.37563    277.27837   -3220.7763 
17137000    255.36536   -4713.5029   -4221.0094   -4713.5029            0    7909.9363    19.989256    19.993399    20.290781    8109.2748    8390.0274    7182.8507    8156.9309    1104.2054    654.27443   -685.60248   -3285.5371 
17138000    264.20973   -4704.2021   -4194.6514   -4704.2021            0    10505.326    19.900017    19.807513    20.296839    8000.4019    10358.475    9821.8973    11335.607      83.5987   -686.99701    812.62947   -2968.9145 
17139000    245.31223   -4723.9764   -4250.8711   -4723.9764            0    8753.6064    19.757984    19.980536    20.621867         8141    7340.5829    9922.6235    8997.6128   -563.98855    339.47553   -132.25195   -3211.5717 
17140000    263.84066    -4682.414   -4173.5751    -4682.414            0    9206.7616    20.091432    19.787839    20.281857    8063.3772    7872.9038    9161.5472    10585.834    385.44112    84.000188    871.02973   -3090.8959 
17141000    263.98606    -4723.409   -4214.2897    -4723.409            0    7109.6833    19.989476    19.983154    20.418261    8156.1308    6643.1521    5970.4019     8715.496   -217.19705     13.33393    1835.2448   -3368.6014 
17142000    245.40014   -4679.8778    -4206.603   -4679.8778            0    7804.7988    19.940758    19.620478    20.685839    8093.2765    8744.4563     7311.476    7358.4641    606.25714    899.12101   -315.21014   -3285.3859 
17143000    254.82301    -4698.626   -4207.1784    -4698.626            0    9300.4452    19.626971    20.033588    20.443142     8038.216    9932.6937    8113.4953    9855.1465   -267.62739    -357.1863    35.882878   -3116.8952 
17144000    263.34625   -4716.8434    -4208.958   -4716.8434            0    7185.7777    19.907615    19.758854    20.755152    8164.0733    4405.2836    9223.6287    7928.4207   -62.777733   -726.38836   -839.58005    -3353.386 
17145000    247.62595   -4688.4118   -4210.8443   -4688.4118            0    6430.0695    19.801792     20.13383    20.563496    8198.3761    4713.7772     6484.564    8091.8672   -43.187129      -190.05   -302.22997   -3442.0336 
17146000    254.02362     -4709.19   -4219.2841     -4709.19            0    7090.5358    19.868808    19.587373    20.755159    8077.4459    8737.6088    8302.0853    4231.9133    1465.5833   -910.74205    174.05077     -3384.01 
17147000    255.26228   -4721.1636   -4228.8688   -4721.1636            0    8240.3291     20.01087    19.694128    20.557294    8101.5605    6224.9311    10887.163    7608.8929    57.619434    813.81381   -241.81421   -3255.2496 
17148000    266.03288   -4726.7262   -4213.6594   -4726.7262            0    8774.1276    19.936343    19.889183    20.241329    8026.0425    9650.4049    7545.7016    9126.2764   -1141.4365    1018.7203   -1305.9817   -3186.6338 
17149000    268.54328   -4685.7116   -4167.8033   -4685.7116            0    10277.102    19.937237    19.728868    20.483197    8056.8425    9961.1135    10019.036    10851.157    306.78191   -580.88773   -558.12651   -2960.2357 
17150000    255.32911   -4695.8681   -4203.4444   -4695.8681            0    8962.7953    19.838868    19.810066    20.544289    8074.0963    11042.545     6998.214    8847.6274    162.58937   -1690.4283   -171.87279   -3148.0536 
17151000    265.30205   -4668.5507   -4156.8934   -4668.5507            0    7748.4597    19.759667    20.094494    20.564315    8165.2776    6957.3899    7636.6695    8651.3196    609.63668    315.03023   -811.57081   -3234.1898 
17152000    266.60194   -4687.6573    -4173.493   -4687.6573            0    10228.642     19.78937    19.927935    20.445946    8063.0897    9984.5748    10695.292     10006.06   -979.21718    713.43708    1216.3134   -2970.6876 
17153000    260.03603     -4702.78   -4201.2787     -4702.78            0    9588.9883    19.822649    19.649128     20.68601    8057.1546    8001.3477    10925.951    9839.6665   -364.98751    88.995566     -301.147   -3074.5214 
17154000    266.54188   -4729.7139   -4215.6654   -4729.7139            0    6966.8343    19.937725    19.970616    20.525544    8172.6284    5904.5802    7453.4407    7542.4821    1017.1523    2033.3036    2271.2757   -3385.2926 
17155000    265.53363   -4717.2833   -4205.1793   -4717.2833            0    7967.6606    19.974572    19.896235    20.378423     8098.768    8204.6951     7768.053    7930.2338   -24.482267    1868.5557    438.35855   -3264.1012 
17156000    245.29762   -4708.5637   -4235.4866   -4708.5637            0    7406.5805     19.81786    19.908065    20.582356     8120.465     6859.747    8597.9506    6762.0438   -275.80336   -750.43196   -381.13796   -3358.3353 
17157000    264.39494   -4691.5698    -4181.662   -4691.5698            0    9222.3273    19.786236    19.952034    20.377587     8044.575    10525.582    7456.2399    9685.1602    76.765004    133.63412    -866.4463   -3099.6812 
17158000    248.85427   -4707.1442   -4227.2078   -4707.1442            0    9071.0127    19.813132    19.797205    20.589888    8076.2728    9694.7244    7446.6278    10071.686    1244.6844   -78.557097   -1125.6077   -3158.7862 
17159000     260.5362   -4732.0424   -4229.5765   -4732.0424            0    6858.3221    20.109409     20.01387     20.28203    8162.8497    5321.7238    7315.5251    7937.7175    468.31226    854.42798   -412.51794   -3413.1152 
17160000    262.11807   -4705.9613   -4200.4446   -4705.9613            0    8359.3899    19.810022    19.919953     20.58865    8124.5838    9525.4461    8448.1022    7104.6214    311.19805   -453.66905    755.86525   -3209.9512 
17161000    253.06579   -4699.0563   -4210.9977   -4699.0563            0    11250.811    19.892009    19.625809    20.471583    7992.0398    10263.662     11980.04    11508.731   -361.58478    1606.2653    958.69041   -2899.6515 
17162000    256.37389   -4701.3036   -4206.8649   -4701.3036            0    7521.2787    20.045216    19.952195    20.516162    8205.3579    8368.2112    7101.9926    7093.6323    499.31693    1585.2862   -1167.1714   -3306.8181 
17163000    264.62007   -4710.4362   -4200.0942   -4710.4362            0    4787.9795    20.115465    19.967877    20.456882    8216.7752    5684.5116     4053.866    4625.5609   -166.71929    -440.5137   -92.394073   -3626.3351 
17164000    269.10652   -4730.2439   -4211.2494   -4730.2439            0    8649.1221    19.782508    19.995875    20.508197    8112.3976    9052.2583    7564.4365    9330.6714   -830.24477    1410.4283   -218.77444   -3187.9631 
17165000    261.38304   -4700.3374   -4196.2382   -4700.3374            0    7914.0943    19.711538    19.868879     20.57086    8056.4986    9385.0053    6130.3978    8226.8799   -555.09046   -150.82813    -2390.354   -3266.3656 
17166000    263.20102   -4684.9942   -4177.3889   -4684.9942            0    8715.5079    19.812545    19.680011    20.756143     8093.051    9015.1377    9917.8744    7213.5117   -155.15052    831.44869    753.44316   -3148.7075 
17167000    261.38137   -4700.7812   -4196.6853   -4700.7812            0    9517.4361    19.824367    19.931973    20.380708    8053.2075    11172.528    7582.1799    9797.6005   -216.47257    1679.0959   -807.05811   -3078.8836 
17168000    277.99311   -4710.1949   -4174.0618   -4710.1949            0     7683.429    20.062278    19.792713    20.563695     8165.574    7619.6201    7792.7401    7637.9267   -205.86211    653.70257    348.35433    -3259.069 
17169000    267.31688   -4684.1638   -4168.6207   -4684.1638            0    9752.3388    19.692533    20.011565    20.557988    8101.4596    9953.0541    9321.1018    9982.8604   -333.06108   -437.11282    -450.4294   -3016.3674 
17170000    272.39953   -4718.0176   -4192.6722   -4718.0176            0    8537.0666    20.184595    19.832202    20.311416    8130.7606    7934.0635    7150.1317    10527.005   -1415.9912    1376.2786   -535.19652    -3180.357 
17171000    261.92648   -4681.3456   -4176.1984   -4681.3456            0     7851.124    19.677785    19.960432    20.659283    8114.4934    6847.9399    9242.2595    7463.1727   -1079.0807   -1689.4241    1082.3713   -3247.0841 
17172000    250.06323   -4689.5293   -4207.2613   -4689.5293            0    11150.662     19.82773    19.729818    20.619815    8066.4204    10396.366     12484.08    10571.539   -189.09107    984.12441   -1012.1945   -2895.4923 
17173000    262.40088    -4727.552   -4221.4898    -4727.552            0    8726.2877    19.829346    19.941543    20.351389    8047.5039    9907.3365    6995.6569    9275.8696    190.50283   -508.29439   -372.42615   -3197.3327 
17174000    255.17037   -4684.1164   -4191.9989   -4684.1164            0    8477.5783    19.634562    19.854748    20.786503    8103.3952    9386.2831    8439.0606    7607.3913   -874.86826   -252.74923   -909.07919   -3190.1211 
17175000    255.37068    -4705.526   -4213.0222    -4705.526            0    6699.8604    19.996244    19.804628    20.595859    8156.3344    7099.4028    5745.3833    7254.7952    400.14392    461.77662    996.34674   -3416.0619 
17176000    257.17338    -4725.654   -4229.6735    -4725.654            0     8050.056    19.994808    19.613989    20.669685    8106.1943    9863.3278    8666.1937    5620.6467    122.90121    560.51385   -848.91139   -3277.9916 
17177000    262.27443   -4708.8924   -4203.0741   -4708.8924            0    6177.8693    20.021327    19.909498    20.489649    8167.4727     5848.266    7734.2938     4951.048    1045.7474    -372.3385    -1024.732    -3467.202 
17178000    262.57472   -4708.5678   -4202.1703   -4708.5678            0     7649.893    19.955603    19.927416    20.441958    8129.0226     7066.864    8296.8754    7585.9395   -460.12732   -889.11217    134.29234   -3295.2491 
17179000    257.12209   -4673.9607   -4178.0791   -4673.9607            0    6434.3244    19.841584    20.066046    20.565242    8187.8894    7618.3408    5047.8633     6636.769    -154.2536   -700.34119    775.37394   -3409.7438 
17180000    270.51256   -4710.9321   -4189.2259   -4710.9321            0    6618.2515    19.983547     20.05363    20.424114    8184.8138    7843.4461    5929.2531    6082.0553    650.23514   -444.53971   -49.141154   -3399.2243 
17181000    249.56785   -4695.1632   -4213.8507   -4695.1632            0    7235.9791     19.78689    19.898437    20.629422    8122.3846    7604.1966    7591.6908      6512.05   -52.961474    2350.0855   -699.73893   -3356.7008 
17182000    260.80918   -4698.2576   -4195.2652   -4698.2576            0    8962.0792    19.833129    19.707981    20.622036    8060.5543      10229.3     8321.347    8335.5901     859.4119   -431.01674   -1144.2858   -3141.7287 
17183000    242.43495   -4697.1439   -4229.5877   -4697.1439            0    8127.7146    19.792767    19.789549    20.602811    8069.9137    7807.7271    8224.5602    8350.8565   -588.99393   -113.68598   -1117.5085   -3273.0255 
17184000    255.87009    -4713.793    -4220.326    -4713.793            0    8339.5491    19.559898    20.018057    20.619911      8073.75    9893.7026    8123.7892    7001.1555    348.11034   -773.42651     582.4989   -3238.3661 
17185000    269.57778   -4696.9082   -4177.0048   -4696.9082            0    8417.5737    20.116129    19.839014    20.295718    8099.6999    7077.5439    8424.6745    9750.5025    1059.8742    791.79052     198.4284   -3182.6721 
17186000     262.0426   -4682.5779   -4177.2067   -4682.5779            0    8293.3007    19.771196    19.935162    20.568634    8106.9624    8183.0732    7808.8664    8887.9625    372.48436   -119.28169    350.70617   -3196.6754 
17187000    262.13781   -4716.4654   -4210.9106   -4716.4654            0    8093.2703    19.955006    19.906549    20.285723     8058.205    8046.4853     6565.675    9667.6506    886.01544    972.78424    857.61357   -3259.7842 
17188000     276.1427   -4719.7226   -4187.1582   -4719.7226            0    7964.5655    19.898358    19.758482    20.722621    8147.3338    5788.8858    9116.2038    8988.6069    33.173897    589.10197   -681.28334   -3240.8045 
17189000    249.37378     -4706.47   -4225.5316     -4706.47            0    8684.8686    19.748124    19.888701     20.50651    8054.2299    8785.1946     8141.267    9128.1443    11.919832    -295.9529    603.73492   -3205.3837 
17190000     265.6671   -4680.1715   -4167.8101   -4680.1715            0    7745.0038    19.934813    19.918932    20.581571    8172.5337    7183.7106    7768.7483    8282.5525     -982.579    163.94429    -318.5084   -3244.6984 
17191000    250.20547   -4686.5008   -4203.9585   -4686.5008            0    5019.6591    19.863429    19.966789    20.732725    8222.7833    6400.2175    4936.4297      3722.33    950.16608    371.21406   -742.11953   -3601.9966 
17192000    256.43476   -4678.9517   -4184.3957   -4678.9517            0    10135.247    19.993035    19.870548    20.273225     8053.996    10288.894    9296.8014    10820.044    -310.6234   -704.57421    -259.2456   -2993.9171 
17193000    261.85562   -4694.4474   -4189.4369   -4694.4474            0    10236.074    19.865376    19.884791    20.339057    8034.3109    9719.0919    10602.865    10386.264    1.3899379   -149.88245   -935.49919   -2990.0537 
17194000    267.34741    -4695.855   -4180.2531    -4695.855            0    7640.4155    19.914768    19.748368    20.774874    8170.4293     6240.059    8340.5524    8340.6351   -102.07599   -350.84262    713.56713   -3269.8415 
17195000    264.66612   -4698.6642   -4188.2333   -4698.6642            0     8076.049    19.836442    19.844882    20.486773    8064.6559    8648.2205    8153.7576     7426.169   -263.29136   -968.56118   -736.15628    -3238.371 
17196000    260.60995   -4707.7782     -4205.17   -4707.7782            0     7835.388    19.962449     19.86773    20.493401     8127.858    7716.3737    6481.9241    9307.8662    20.434985   -1405.3837   -1698.4801   -3276.3907 
17197000    256.19273   -4698.7079   -4204.6187   -4698.7079            0    8390.7345    19.922142    19.911804    20.498777    8131.5736    9081.9658    7010.5937     9079.644    82.484118   -83.790977    698.74391    -3209.556 
17198000    258.91603   -4682.3049   -4182.9636   -4682.3049            0    9411.0165    19.883521    19.911726    20.374529     8066.586    10450.294    9631.5356    8151.2195    269.07708   -535.54796    763.73024   -3075.8245 
17199000    256.05307   -4660.8215   -4167.0016   -4660.8215            0    8542.0135    19.932136    19.641119    20.585463    8058.9917    9260.1732    9421.9863    6943.8811   -36.105054    646.69757    236.35096   -3163.0406 
17200000    247.31857   -4689.8753   -4212.9007   -4689.8753            0    6537.5316    19.559709    20.028368    20.864395    8173.6069      7503.78    5790.4877    6318.3271    419.73639    69.974627   -1854.6213   -3433.6029 
17201000    255.73154   -4704.9903   -4211.7905   -4704.9903            0    7756.5915    20.080601    19.963282    20.434009    8191.4774    5368.1427     9497.812    8403.8198    179.40321    873.13591    -1320.529   -3285.1548 
17202000    266.38288   -4701.8187    -4188.077   -4701.8187            0     7264.666    19.762618     20.01181    20.528277    8118.6412    5828.6863    7897.8045    8067.5072   -42.628098    712.42791    736.85742   -3327.9256 
17203000    260.92006   -4726.2525   -4223.0462   -4726.2525            0    10058.489    20.080995    19.605522     20.43785    8046.3486    9402.0023    10968.279    9805.1854    139.89918   -121.90906   -210.45346   -3042.7053 
17204000    257.26065   -4726.7868    -4230.638   -4726.7868            0    8465.7861    19.890517    20.019714    20.372558    8112.4029     8979.806    8336.4722    8081.0802   -578.17085    1763.4527   -49.856989   -3229.0418 
17205000    257.01673   -4744.7319   -4249.0536   -4744.7319            0    6801.5647    20.168332    19.725195    20.526683     8166.013    7138.0665    6328.0939    6938.5336    468.79843    494.23395     1054.027   -3439.0353 
17206000    260.09096   -4731.0821   -4229.4748   -4731.0821            0    8460.9993    19.673223     19.90638    20.650901    8087.3606    10729.033    6758.7213    7895.2437    324.47543   -992.16455   -1121.8912    -3231.535 
17207000    264.98324     -4711.15   -4200.1076     -4711.15            0    7861.7721    20.010063    19.956255    20.395096    8144.2907    6802.1278    7864.9713    8918.2172    111.06393   -1248.7784    375.52101   -3266.3167 
17208000    257.09389   -4675.5822    -4179.755   -4675.5822            0     7775.843    19.899574    19.646218    20.639786    8069.1524    8125.6963    7612.1795    7589.6534     496.6655   -86.070827    893.13663   -3264.6914 
17209000    261.40916    -4717.556   -4213.4064    -4717.556            0    7898.5091    19.953292    19.924199    20.500005    8149.8461    6235.9129    9097.9694    8361.6451    264.83335   -443.78414   -1548.3666   -3274.6122 
17210000    273.14775   -4683.0444    -4156.256   -4683.0444            0    11067.303    19.725659    20.005611    20.174301    7961.2602    11905.976    10400.008    10895.924    580.38235    230.47915    1088.9582   -2871.2667 
17211000    269.91441   -4717.4542   -4196.9015   -4717.4542            0    6884.4987    19.775438    20.014985     20.48801    8109.2586    8866.6705    5581.0998    6205.7259    227.27318   -853.25847   -918.27166   -3382.7048 
17212000    250.09806   -4681.1107   -4198.7755   -4681.1107            0    9643.2313    19.849755    19.954761     20.50927    8123.6629    9729.1966     8149.335    11051.162   -403.45451   -276.40022   -317.57447   -3056.2909 
17213000     268.4434   -4680.2689   -4162.5533   -4680.2689            0    9536.6049    19.841081    19.898837    20.455344    8076.0653    9028.5923    10011.771    9569.4517   -1143.9621    377.91788    196.03112   -3039.3212 
17214000    268.17655    -4693.319    -4176.118    -4693.319            0    7123.1038    19.837321    19.977441    20.495682    8122.4167    6209.8912    8026.7241     7132.696    708.03387   -215.70896    1553.0781   -3332.3357 
17215000    250.15556   -4729.6483   -4247.2023   -4729.6483            0    8237.5563    19.804954     19.98374    20.523131     8122.584    8472.1264    8369.4013    7871.1413   -687.87508   -408.70454   -28.863041    -3271.385 
17216000     242.4365   -4680.0119   -4212.4527   -4680.0119            0     9545.043     19.95672     19.81134    20.510557    8109.2458    9558.9561    10532.873    8543.3002    888.98608    182.41416   -479.65995   -3083.6079 
17217000    254.77713   -4716.8133   -4225.4542   -4716.8133            0    9222.2088    19.573191     19.85948    20.668449    8034.1033    10370.041    9544.4919     7752.093    179.85793   -720.53864   -546.62575   -3144.8958 
17218000    259.60072   -4689.4218     -4188.76   -4689.4218            0     8152.112    19.944869    19.874962    20.542385    8143.0736    6905.5034    9848.5541    7702.2785    408.92984    939.44143    1128.9049   -3220.6284 
17219000    256.49505   -4683.7365   -4189.0642   -4683.7365            0    7261.8303    19.877889     19.98528    20.450392    8124.2288     7887.717    6645.4203    7252.3537    605.45313   -690.01566    2200.6759   -3328.6569 
17220000    256.28259   -4729.8901   -4235.6276   -4729.8901            0    7083.3426    19.974036     19.74528    20.640653    8140.5276    5682.1782    10158.043    5409.8065   -72.832454   -383.19444    1372.8994   -3394.6844 
17221000    260.13952    -4706.496   -4204.7951    -4706.496            0    10413.886     19.83379    19.730565    20.601046    8061.8464    11470.074    9956.9433    9814.6412   -321.38639     1614.125    105.37624   -2980.3953 
17222000    253.91895   -4712.0503   -4222.3463   -4712.0503            0    9261.1412    19.786122    20.227686    20.250393    8104.7637    8709.1956    7505.3238    11568.904   -632.57657    916.28379    198.00609   -3127.6825 
17223000     257.0237   -4715.8636   -4220.1718   -4715.8636            0    8288.7735    20.014029    19.768334    20.494905    8108.6864    6991.9597    10646.394    7227.9668   -1426.3698    1264.3144   -840.28804   -3239.9674 
17224000    269.63021   -4723.7995    -4203.795   -4723.7995            0    8515.6699    19.767966    19.840821    20.743834    8135.9945    7790.6863    9773.8325    7982.4908   -429.32826    144.23528   -864.83974    -3193.367 
17225000    252.21878   -4689.7944   -4203.3693   -4689.7944            0    7747.7832    19.937773     19.78161    20.392596    8042.8656    8621.2295     6022.653    8599.4672    751.05324   -977.98756   -506.93734    -3294.578 
17226000    265.04014   -4714.2208   -4203.0687   -4714.2208            0     7591.262    19.773466    19.980756    20.501427    8099.8843    7753.3876    6824.3242    8196.0742    60.431147   -2104.6901   -447.95797   -3306.3242 
17227000    283.84391   -4678.6749   -4131.2581   -4678.6749            0    8668.4903    19.789221     19.92061    20.542358     8098.072    7572.5909     9127.158    9305.7219   -583.87049    240.61422   -466.65849   -3107.4914 
17228000    257.40385   -4658.3835   -4161.9586   -4658.3835            0    9549.9692     19.82407    19.685475    20.604541    8040.8443    10592.275    10632.177    7425.4551    825.74268    686.44233    229.50523   -3042.0579 
17229000    265.74731   -4697.2302   -4184.7141   -4697.2302            0    7345.7672     19.86127    19.870492    20.596868    8128.6202    6734.9811    8662.9201    6639.4004    509.92032    760.95279    102.43224   -3313.8911 
17230000    267.99824   -4668.7049   -4151.8478   -4668.7049            0    8313.0945    20.011495    19.787775    20.415046    8084.0102    9070.9137     6759.629    9108.7407    323.28776    1161.1679   -1062.0898   -3171.7589 
17231000    269.02539   -4693.4723   -4174.6342   -4693.4723            0     9951.584    19.626012    20.073751    20.501652    8076.9884    10010.567    9421.0157     10423.17   -948.90897   -678.27673    683.58895   -3002.3914 
17232000    266.32582   -4706.1882   -4192.5564   -4706.1882            0    8203.1914    19.818305     19.85538    20.564294    8092.0493    8125.8803    8791.3888    7692.3052   -856.88592      127.471    1151.0477   -3224.4631 
17233000    255.09274   -4711.3767   -4219.4089   -4711.3767            0    7013.6804    19.872247     20.15789    20.303016    8133.0344    7344.0576     5814.452    7882.5316    78.103939    -448.1831   -411.06197   -3387.5025 
17234000    265.45099   -4703.0856    -4191.141   -4703.0856            0    7171.9388     19.94884    19.982867    20.475535    8162.2652    7082.3749    7348.0556    7085.3859    121.22356    658.44198    321.33729   -3337.4059 
17235000    252.27931   -4709.6367   -4223.0948   -4709.6367            0    8879.6199    19.867535    19.795341    20.531669    8074.7897    7555.1771    10127.933    8955.7494     525.8901     1962.747   -775.59041   -3177.4084 
17236000    260.13538   -4727.3152   -4225.6223   -4727.3152            0    7291.8995    19.813518    20.069207    20.574039    8181.0934    9045.2051    5855.5143    6974.9792   -63.095113   -356.70753    1371.1151   -3355.6049 
17237000    257.48032   -4691.9129   -4195.3405   -4691.9129            0     9936.889     19.86757    19.920577    20.390133     8069.873    10984.206    8808.9644    10017.497    508.96851   -1610.5153   -209.10457   -3025.8599 
17238000    268.65953   -4713.9363   -4195.8038   -4713.9363            0    6608.3291    19.874009    20.106853    20.526159    8202.3307    6295.4247    7169.4266    6360.1359    541.15231    93.688592   -1004.2344   -3405.2984 
17239000    247.72965   -4687.3379   -4209.5705   -4687.3379            0    7729.4969    19.991227    19.905358     20.50273     8158.703    9739.4419    5969.3581    7479.6905    59.661896    -706.9212   -673.10154   -3289.8661 
17240000    261.78894   -4699.6056   -4194.7236   -4699.6056            0    9273.3688    19.937339    20.098915    20.302243    8135.4919    8589.1386    9089.5288    10141.439    1146.8374   -219.49779   -1189.3786   -3094.4588 
17241000    258.52412   -4730.1704   -4231.5848   -4730.1704            0     8013.485    19.855785    19.878896    20.619381    8138.6983    9269.3637    8308.4035    6462.6878   -147.36166    557.76642   -85.857412   -3280.4277 
17242000    260.74423    -4697.955   -4195.0879    -4697.955            0    8404.6227    19.896916    19.785865    20.540971    8086.5223    5062.3654    10704.207     9447.296   -1087.3164   -704.22553    782.37552   -3203.9002 
17243000    269.77508   -4693.4762   -4173.1923   -4693.4762            0    8344.1078    19.910196    20.041303    20.335071    8114.2272    6889.4132    8962.8082     9180.102    427.06502   -467.42341   -419.60952   -3185.7699 
17244000    262.10389   -4691.4937   -4186.0043   -4691.4937            0    7712.4063    19.934471    19.840701    20.556746    8130.4785    7709.2569    8418.9386    7009.0233   -547.70304   -299.17046    338.50319   -3271.5081 
17245000     272.0009   -4684.6417   -4160.0651   -4684.6417            0    8402.1582    19.698148    20.041582    20.708287    8175.2599    9790.7112    6678.0515    8737.7118   -999.94982    685.99532   -415.73081   -3158.2944 
17246000    249.52259   -4661.6556   -4180.4303   -4661.6556            0    8789.0193    20.194626    19.868722    20.208005    8108.2886    7075.9294    9725.6425    9565.4859    824.45812    1423.1445    468.89679   -3141.1194 
17247000    260.28598   -4710.4752   -4208.4918   -4710.4752            0    7574.8816    19.863441    19.990231    20.425101    8110.2925    6339.3723    6243.7817    10141.491   -924.61256   -401.84141   -158.24767   -3312.5325 
17248000    262.38467   -4687.7187   -4181.6878   -4687.7187            0    8621.0245    19.889813    19.773918    20.750962    8161.3437    7552.5975    9021.7681     9288.708   -307.93487   -164.89633     133.0706   -3155.5718 
17249000    249.05864   -4705.5201   -4225.1895   -4705.5201            0    8738.9434    19.800828    20.079037    20.425648    8120.8608    9151.5298    6949.1383    10116.162   -179.21374    20.519194    277.32781   -3190.1978 
17250000    263.82158   -4659.9349   -4151.1328   -4659.9349            0    7987.6935    20.084735    19.776586    20.451793    8123.6054    5158.4347    9989.1702    8815.4755    73.049379    1043.5779   -578.66553   -3204.7952 
Loop time of 492.766 on 64 procs for 250000 steps with 972 atoms

Performance: 87.668 ns/day, 0.274 hours/ns, 507.340 timesteps/s
99.0% CPU use with 64 MPI tasks x 1 OpenMP threads

MPI task timing breakdown:
Section |  min time  |  avg time  |  max time  |%varavg| %total
---------------------------------------------------------------
Pair    | 20.535     | 28.226     | 36.57      |  76.6 |  5.73
Bond    | 0.26572    | 0.2742     | 0.28476    |   0.8 |  0.06
Kspace  | 194.52     | 214.37     | 228.84     |  48.4 | 43.50
Neigh   | 2.9931     | 3.9425     | 4.691      |  19.9 |  0.80
Comm    | 100.2      | 112.11     | 127.75     |  56.0 | 22.75
Output  | 1.2729     | 1.2757     | 1.2869     |   0.4 |  0.26
Modify  | 123.48     | 126.49     | 129.42     |  15.6 | 25.67
Other   |            | 6.083      |            |       |  1.23

Nlocal:        15.1875 ave          20 max          10 min
Histogram: 1 2 5 9 9 9 10 10 2 7
Nghost:        2268.44 ave        2311 max        2232 min
Histogram: 3 7 10 6 11 8 7 7 2 3
Neighs:        4836.59 ave        7172 max        3306 min
Histogram: 7 7 9 13 5 10 7 4 0 2

Total # of neighbors = 309542
Ave neighs/atom = 318.45885
Ave special neighs/atom = 2.0000000
Neighbor list builds = 7864
Dangerous builds = 0

unfix		3
unfix		2
unfix		1

write_data	data.final.${pid}
write_data	data.final.0
System init for write_data ...
PPPM initialization ...
  extracting TIP4P info from pair style
  using 12-bit tables for long-range coulomb (../kspace.cpp:340)
  G vector (1/distance) = 0.37188846
  grid = 24 24 24
  stencil order = 5
  estimated absolute RMS force accuracy = 0.0035457356
  estimated relative force accuracy = 1.0677877e-05
  using double precision FFTW3
  3d grid and FFT values/proc = 2197 216
Last active /omp style is kspace_style pppm/tip4p/omp
WARNING: Not all mixed pair coeffs generated from mixing. Use write_data with 'pair ij' option to store all pair coeffs. (../write_data.cpp:312)

write_restart   restart.lmp.${pid}
write_restart   restart.lmp.0
System init for write_restart ...
PPPM initialization ...
  extracting TIP4P info from pair style
  using 12-bit tables for long-range coulomb (../kspace.cpp:340)
  G vector (1/distance) = 0.37188846
  grid = 24 24 24
  stencil order = 5
  estimated absolute RMS force accuracy = 0.0035457356
  estimated relative force accuracy = 1.0677877e-05
  using double precision FFTW3
  3d grid and FFT values/proc = 2197 216
Last active /omp style is kspace_style pppm/tip4p/omp
Total wall time: 0:08:16
