LAMMPS (30 Jul 2021)
  using 1 OpenMP thread(s) per MPI task
package omp 0
using multi-threaded neighbor list subroutines
echo both

include		in.partitions
variable        pid world 0
include		in.temp
variable        temperature equal 244.51
variable	tempDamp equal 100.0
include		in.pressure
variable        pressure equal 3000.0
variable        pressureDamp equal 1000.0 # This is 1 ps
include		in.seed
variable        seed world 745823

units		real
atom_style	full
box tilt large
read_restart	restart.lmp.${pid}
read_restart	restart.lmp.0
Reading restart file ...
  restart file = 30 Jul 2021, LAMMPS = 30 Jul 2021
  restoring atom style full from restart
  triclinic box = (-10.738273 -9.3061570 -0.046814939) to (12.718273 12.296155 21.906814) with tilt (-8.9334022 1.7975586 2.8894282)
  4 by 4 by 4 MPI processor grid
  restoring pair style lj/cut/tip4p/long/omp from restart
  restoring bond style harmonic/omp from restart
  restoring angle style harmonic/omp from restart
  1296 atoms
  864 bonds
  432 angles
Finding 1-2 1-3 1-4 neighbors ...
  special bond factors lj:    0        0        0       
  special bond factors coul:  0        0        0       
     2 = max # of 1-2 neighbors
     1 = max # of 1-3 neighbors
     1 = max # of 1-4 neighbors
     2 = max # of special neighbors
  special bonds CPU = 0.210 seconds
  read_restart CPU = 0.395 seconds
include 	in.setup
variable	out_freq equal 1000
variable	out_freq2 equal 10000
variable	out_freq3 equal 1000

timestep	2.0

neigh_modify    delay 7 every 1

include		in.tip4p
# This is TIP4P/Ice

# create groups ###
group ox type 2
432 atoms in group ox
group hy type 1
864 atoms in group hy

# set charges - beside manually ###
set group ox charge -1.1794
Setting atom values ...
  432 settings made for charge
set group hy charge 0.5897
Setting atom values ...
  864 settings made for charge

# ### TIP3P Potential Parameters ###
pair_style lj/cut/tip4p/long/omp 2 1 1 1 0.1577 8.5
pair_coeff 1 1*2 0.000 0.000
pair_coeff 2 2 0.21084 3.1668
bond_style  harmonic
bond_coeff  1 450 0.9572
angle_style harmonic
angle_coeff 1 55 104.52
kspace_style pppm/tip4p/omp 1.0e-5
pair_modify tail yes

thermo          ${out_freq}
thermo          1000
thermo_style    custom step temp pe etotal epair emol press lx ly lz vol pxx pyy pzz pxy pxz pyz enthalpy

restart 	${out_freq3} restart.lmp.${pid} restart2.lmp.${pid}
restart 	1000 restart.lmp.${pid} restart2.lmp.${pid}
restart 	1000 restart.lmp.0 restart2.lmp.${pid}
restart 	1000 restart.lmp.0 restart2.lmp.0


include         in.dump
dump            myDump all atom ${out_freq2} dump.water.${pid}
dump            myDump all atom 10000 dump.water.${pid}
dump            myDump all atom 10000 dump.water.0
dump            myDump2 all dcd ${out_freq2} dump.dcd
dump            myDump2 all dcd 10000 dump.dcd
dump_modify     myDump append yes
dump_modify     myDump2 append yes


variable natoms 	equal  "count(all)"                        # NUMBER ATOMS
variable H      	equal  "enthalpy/v_natoms"                 # ENTHALPY-per-atom
variable Vol      	equal  "vol/v_natoms"                 # volume-per-atom
fix AVG all 		ave/time ${out_freq} 1 ${out_freq} v_Vol v_H file vol_enthalpy.dat
fix AVG all 		ave/time 1000 1 ${out_freq} v_Vol v_H file vol_enthalpy.dat
fix AVG all 		ave/time 1000 1 1000 v_Vol v_H file vol_enthalpy.dat


timer           timeout 10:00:00 every 1000
New timer settings: style=normal  mode=nosync  timeout=10:00:00

fix 		1 all shake 1e-6 200 0 b 1 a 1
       0 = # of size 2 clusters
       0 = # of size 3 clusters
       0 = # of size 4 clusters
     432 = # of frozen angles
  find clusters CPU = 0.012 seconds
fix             2 all nph tri ${pressure} ${pressure} ${pressureDamp}
fix             2 all nph tri 3000 ${pressure} ${pressureDamp}
fix             2 all nph tri 3000 3000 ${pressureDamp}
fix             2 all nph tri 3000 3000 1000
fix             3 all temp/csvr ${temperature} ${temperature} ${tempDamp} ${seed}
fix             3 all temp/csvr 244.51 ${temperature} ${tempDamp} ${seed}
fix             3 all temp/csvr 244.51 244.51 ${tempDamp} ${seed}
fix             3 all temp/csvr 244.51 244.51 100 ${seed}
fix             3 all temp/csvr 244.51 244.51 100 745823


run             250000
PPPM initialization ...
  extracting TIP4P info from pair style
  using 12-bit tables for long-range coulomb (../kspace.cpp:340)
  G vector (1/distance) = 0.367157
  grid = 30 40 32
  stencil order = 5
  estimated absolute RMS force accuracy = 0.0045031709
  estimated relative force accuracy = 1.3561165e-05
  using double precision FFTW3
  3d grid and FFT values/proc = 5168 640
Last active /omp style is kspace_style pppm/tip4p/omp
Neighbor list info ...
  update every 1 steps, delay 7 steps, check yes
  max neighbors/atom: 2000, page size: 100000
  master list distance cutoff = 10.8154
  ghost atom cutoff = 10.8154
  binsize = 5.4077, bins = 7 5 5
  1 neighbor lists, perpetual/occasional/extra = 1 0 0
  (1) pair lj/cut/tip4p/long/omp, perpetual
      attributes: half, newton on, omp
      pair build: half/bin/newton/tri/omp
      stencil: half/bin/3d/tri
      bin: standard
Per MPI rank memory allocation (min/avg/max) = 9.431 | 9.438 | 9.443 Mbytes
Step Temp PotEng TotEng E_pair E_mol Press Lx Ly Lz Volume Pxx Pyy Pzz Pxy Pxz Pyz Enthalpy 
 8000000    247.24701   -6290.1715   -5654.1437   -6290.1715            0     1901.587    23.456546    21.602312    21.953629    11124.247    2080.3098    2556.1014      1068.35   -1657.7685    15.692952   -859.86302   -5345.6383 
 8001000     245.3101   -6342.5611   -5711.5158   -6342.5611            0    1662.9992    23.480093     21.65151    21.871074    11118.805     2190.793    1065.5627    1732.6419   -808.29104   -712.14582    123.69909   -5441.8499 
 8002000     236.6851   -6308.4198   -5699.5619   -6308.4198            0    2747.7064    23.379536    21.576053    21.952468    11073.661    3992.1484    1712.0049     2538.966   -253.45804   -579.53285   -720.23998   -5255.8128 
 8003000    238.89535   -6313.4193   -5698.8756   -6313.4193            0    2425.8951    23.442765    21.581736    21.843864    11051.588     2633.137    1166.4366    3478.1116    144.72263   -1092.1183    605.19233   -5307.8794 
 8004000    234.49323   -6337.7096   -5734.4901   -6337.7096            0    1738.2326    23.654149    21.569622    21.720817    11082.201     867.9608    1932.2868    2414.4501   -122.62922    788.71182    232.29167   -5453.5525 
 8005000    240.96809   -6323.9552   -5704.0795   -6323.9552            0    444.72649    23.493442    21.608017    21.945877    11140.752     1418.121   -182.57598    98.634434    594.77783   -738.84335   -66.360576   -5631.8219 
 8006000    254.82972   -6343.0852   -5687.5512   -6343.0852            0    1558.2226     23.43943    21.536942    21.987415    11099.547    2930.7238    1652.3807    91.563323    655.80669   -567.22869   -629.14223   -5435.3132 
 8007000    231.29589   -6309.9577   -5714.9631   -6309.9577            0    3515.0269    23.416219    21.510433    21.858462    11009.954    4033.7169    3546.8284    2964.5356    668.19751   -160.77174    123.30162   -5150.5591 
 8008000     244.9297   -6322.9724   -5692.9056   -6322.9724            0    3768.6804    23.569705    21.548603    21.643458    10992.587    2829.3431    3805.0895    4671.6085   -791.02004   -240.59801   -268.99013   -5088.7274 
 8009000    260.37624   -6321.0059   -5651.2039   -6321.0059            0    4068.3664    23.269348    21.588186    21.887103    10994.833    4260.0574    4167.5969    3777.4449    1098.7277   -243.02628   -493.95269    -4998.848 
 8010000    254.94933   -6343.0034   -5687.1618   -6343.0034            0    3119.5523    23.402233    21.335988     22.10291    11036.199     3680.712    3992.9352    1685.0097   -144.82878     -238.554    300.82069   -5185.0648 
 8011000    231.62408   -6300.5941   -5704.7552   -6300.5941            0    3065.2613    23.319431    21.643609    21.889306    11047.897    2887.6894    2951.0103    3357.0843   -540.93263    349.26764   -335.63183   -5210.8735 
 8012000    254.11085   -6320.3987    -5666.714   -6320.3987            0    2771.3251    23.646826    21.539341    21.700633    11052.936     778.8568    4152.2249    3382.8937   -46.736268    117.58613   -398.99202   -5219.9882 
 8013000    251.35274   -6318.1824   -5671.5928   -6318.1824            0    3568.5331    23.321797    21.774677    21.706524    11023.107     3534.441    3612.3423    3558.8158   -1794.9262   -627.93415   -1596.3277   -5097.9129 
 8014000    246.57797   -6369.1473   -5734.8405   -6369.1473            0    2856.6406    23.412305    21.410479     22.01081    11033.329    1922.9564    3416.8487    3230.1167    175.04901    971.87266    211.94096   -5275.1791 
 8015000    246.94939   -6333.8909   -5698.6287   -6333.8909            0    2790.5556    23.376623    21.525717     21.97469    11057.632     1385.454     3780.958    3205.2547    590.24868   -37.045363    152.09855   -5248.6119 
 8016000    248.94207   -6344.7941   -5704.4058   -6344.7941            0    2976.1718    23.496455    21.707111    21.647341    11041.014    1714.0384    2424.5649    4789.9122    1136.4371   -404.56491   -83.438815    -5225.177 
 8017000    246.87792   -6334.0097   -5698.9313   -6334.0097            0    4719.2065    23.491418    21.594433    21.591135    10952.834    3896.4412    4640.0884    5621.0899    937.52655   -609.65334   -620.77391   -4945.1048 
 8018000    235.68508   -6342.2349   -5735.9494   -6342.2349            0    2407.6937    23.418847    21.607127    21.878443    11070.798    1980.7531    3091.0479    2151.2801     929.8253   -272.23564    -255.3675   -5347.2122 
 8019000     247.9258   -6343.2624   -5705.4884   -6343.2624            0    3024.6292    23.427817    21.527415    21.869304    11029.572    2224.6052    2996.2296    3853.0529    4.9305557   -560.31159    1148.4974   -5218.9617 
 8020000    248.24552   -6356.3197   -5717.7232   -6356.3197            0    2466.2687    23.443203    21.564511     21.86445     11053.38    2787.6285    1107.7856    3503.3919   -346.86273   -1590.4898   -369.97805   -5320.1552 
 8021000    229.12324   -6326.9768   -5737.5713   -6326.9768            0    2818.4968    23.577853    21.556565    21.740214    11049.627    3383.8336    1886.3296    3185.3273   -686.20405   -1373.1277   -95.903369   -5283.3776 
 8022000    239.36023   -6311.1102   -5695.3706   -6311.1102            0    3097.2495    23.483724    21.623576    21.711144    11024.964    3081.8496    2494.3241    3715.5748    404.32341     618.6476   -103.23103   -5197.3707 
 8023000    240.13045   -6332.0406   -5714.3197   -6332.0406            0    2869.0397     23.40473      21.5237     21.95947    11062.223    2991.2941    3269.7425    2346.0824   -273.89092    754.18914   -719.19178   -5251.4541 
 8024000    263.05515   -6313.5149   -5636.8216   -6313.5149            0    1889.3962    23.376673    21.583892    22.061026    11131.102    2381.8789    2006.8542    1279.4556    1015.1845   -204.94151   -424.14455   -5330.1051 
 8025000     251.0488   -6317.3901   -5671.5824   -6317.3901            0    2807.7958     23.61435    21.644122    21.634237    11057.516    2306.0405    2861.9688    3255.3782   -762.73887   -316.96282    740.46633   -5218.7901 
 8026000    248.09713   -6305.2642   -5667.0494   -6305.2642            0    2479.9229    23.351665    21.657352    21.885592    11068.315     3345.427    2323.1105    1771.2312    -1435.577   -212.54513   -274.50374   -5266.7402 
 8027000    246.26788   -6318.4343   -5684.9252   -6318.4343            0    3449.6314    23.559185    21.368693    21.945839    11048.172    3470.8895    3339.2393    3538.7654    -860.5735    322.16298   -108.89099   -5129.0991 
 8028000    234.56127   -6333.6549   -5730.2603   -6333.6549            0     4639.475     23.33803    21.670154    21.671486    10960.109    4128.9413    4505.6685    5283.8152    404.24779    1240.9429   -925.60477   -4988.6776 
 8029000    239.05303   -6333.5617   -5718.6124   -6333.5617            0    2610.6451    23.516908    21.411301    21.946413    11050.625    3269.2163    2406.2501    2156.4691    1012.6072    477.53052    259.75898   -5297.8755 
 8030000    249.62423   -6299.8867   -5657.7436   -6299.8867            0     1503.252    23.465641    21.566846    21.951733     11109.33    2511.4893    1150.6812    847.58546    815.51352     799.0932    738.57353   -5414.1894 
 8031000    249.61568   -6313.6516   -5671.5305   -6313.6516            0    1869.0248    23.443813    21.712879    21.808876    11101.431    2294.0874    1106.8382    2206.1489    535.01005    437.54587   -165.93956   -5368.9298 
 8032000    247.92726   -6317.7841   -5680.0063   -6317.7841            0    3079.1675     23.66667     21.45569    21.695588    11016.688    1741.2695    3431.8872     4064.346    48.825847   -128.41685    1468.1674   -5185.2854 
 8033000     241.3964   -6329.6244   -5708.6469   -6329.6244            0    3341.0066    23.289318    21.792225    21.756298    11041.889    4281.8545    2502.9522    3238.2129   -41.339415   -972.52077   -86.276203   -5170.6292 
 8034000     242.4578   -6340.2816   -5716.5736   -6340.2816            0    3637.5776    23.543431    21.405721    21.847873    11010.544    2501.6662    4591.5038    3819.5628    141.62818    206.41636   -1109.8493   -5132.4606 
 8035000    242.76233   -6356.3183   -5731.8269   -6356.3183            0    4353.0991    23.237849    21.566912    21.848518    10949.792    4646.3671     3885.855    4527.0751    920.58543    1135.2093    680.74942   -5036.6741 
 8036000    243.99779   -6346.0052   -5718.3358   -6346.0052            0    3882.7438    23.502647     21.47194    21.744315    10973.212     3823.869    4212.7101    3611.6523     333.8747    1163.0963   -508.25271   -5096.9684 
 8037000     245.5088   -6323.6812   -5692.1247   -6323.6812            0    3905.3602    23.486244    21.526798    21.801993    11022.731    3581.7251    3999.4846    4134.8709   -378.98081    -390.5376    846.81156   -5064.3177 
 8038000    251.20755   -6340.5703   -5694.3542   -6340.5703            0    2456.3419     23.40713     21.71838    21.781644    11073.024    1538.9234    3048.2355    2781.8669   -56.691613   -123.52881     144.5134   -5297.6827 
 8039000    237.09751    -6305.926   -5696.0071    -6305.926            0     2766.941     23.52166    21.385717    22.030644    11082.021    2971.6518     3237.917    2091.2543    601.08147   -323.25445   -26.677825   -5248.8144 
 8040000     247.3625    -6350.728    -5714.403    -6350.728            0    2287.8425    23.316012    21.706867    21.854221    11060.805    1662.3317    2408.0023    2793.1936    1255.7265   -168.94184    448.67091     -5345.35 
 8041000    241.15509   -6337.4164   -5717.0597   -6337.4164            0    1781.6418     23.70174    21.459136    21.837271    11106.848    251.70519    2037.7506    3055.4696    578.37243    16.630754    1270.1513   -5428.4658 
 8042000    244.61024    -6336.318    -5707.073    -6336.318            0    3543.0072    23.288311    21.588342    21.890987    11005.825    4199.9102    4281.5019    2147.6094    144.22813    563.71921   -675.10101   -5138.3897 
 8043000     246.5581   -6318.5945   -5684.3388   -6318.5945            0    3114.8064    23.532609    21.429691    21.874306    11031.137     3144.969    3831.0552    2368.3949    350.78439   -1005.7832   -702.13052   -5183.2356 
 8044000    239.65981   -6306.1809   -5689.6706   -6306.1809            0    3991.3933     23.42992    21.642493    21.659916    10983.351    2888.2683    4040.1143    5045.7974    812.25256   -797.92129   -541.83417   -5050.3256 
 8045000    227.92119   -6355.9134      -5769.6   -6355.9134            0    2719.9975    23.432839     21.60033    21.798072    11033.248    2612.5902    2746.9114    2800.4909   -909.57842    71.929213   -627.45133    -5331.929 
 8046000    252.75248   -6343.4001   -5693.2097   -6343.4001            0    3077.8823    23.479786    21.411898     21.99495     11057.89    3807.4227    3815.6934    1610.5307   -749.22282   -157.65705    504.88276   -5196.8458 
 8047000    244.15818   -6354.1897   -5726.1077   -6354.1897            0    3949.6049    23.277483    21.637724    21.749387    10954.552    4497.6479    3288.9364    4062.2305   -488.19106    908.40944   -369.64644   -5095.1152 
 8048000    239.81267    -6302.102   -5685.1985    -6302.102            0     3206.655    23.536924    21.466797    21.807156    11018.336     2621.996    3619.7224    3378.2467    898.44649   -79.294603    215.56937   -5169.9175 
 8049000    258.95101   -6347.3411   -5681.2054   -6347.3411            0    3040.5622    23.211113    21.609769    22.008461    11039.153    3423.2955     3784.864     1913.527    354.71644    499.70418   -1487.6592   -5191.6909 
 8050000    248.81346   -6335.7126   -5695.6551   -6335.7126            0    4323.9822    23.490806    21.343516    21.843012    10951.571    4202.8949    5192.9795    3576.0721    157.58622   -670.67797   -1091.6707   -5005.0398 
 8051000    260.59633   -6336.2321   -5665.8639   -6336.2321            0    2994.8811    23.322372    21.812499    21.672287    11025.109    3710.6767    1614.2196     3659.747   -785.21941   -312.61686    589.40739   -5184.3173 
 8052000    234.02191   -6332.2805   -5730.2734   -6332.2805            0    2505.6567    23.500001    21.343442     22.02991    11049.562    3062.5217    3929.0513    525.39724   -1799.1454   -756.23145   -305.45626   -5326.4955 
 8053000    247.81157   -6358.6283   -5721.1481   -6358.6283            0    3609.3753    23.300801    21.548766    21.926393    11009.319    5075.4127    3770.3139    1982.3994    -555.8789     98.28837   -886.30237   -5141.6282 
 8054000    252.56725    -6329.282   -5679.5681    -6329.282            0    2219.7187    23.525937    21.592673    21.815301    11081.908    1849.6682    2049.7652    2759.7226   -258.90533    763.08573    687.73815    -5320.821 
 8055000    256.04013   -6345.4276   -5686.7799   -6345.4276            0    3026.8834    23.409263    21.473474    21.952673     11035.13    3254.7326     3325.159    2500.7586   -395.66026    456.52099    285.94793   -5199.6453 
 8056000    247.52585   -6295.7701    -5659.025   -6295.7701            0    2751.9986    23.371898    21.547774    21.987732    11073.294    2764.9403    2844.2074    2646.8481   -793.71131    345.09968    121.86509   -5214.5975 
 8057000    243.77789   -6330.2851   -5703.1813   -6330.2851            0    3800.5335    23.486032    21.484747    21.792078    10996.096    2135.3912    4325.5578    4940.6516    1205.4087   -34.198651   -275.10889    -5093.702 
 8058000    236.80506   -6318.0245   -5708.8579   -6318.0245            0    3334.9734    23.496417    21.515708    21.721791    10981.278    3354.4805    2467.7736     4182.666   -932.22956    321.66709    958.07913   -5174.7597 
 8059000      250.129   -6345.6634   -5702.2218   -6345.6634            0    3629.9075    23.333384    21.548184    21.932798    11027.636    5395.1612    2381.5795    3112.9818   -561.33893   -461.86919    113.65112   -5118.4355 
 8060000    231.90049   -6335.0888   -5738.5389   -6335.0888            0    3242.5675    23.449465     21.57391    21.827898    11042.661     2924.346    2046.2672    4757.0893   -125.32711   -280.36503    505.77996   -5216.3368 
 8061000    241.01987   -6322.6099    -5702.601   -6322.6099            0    1684.2081    23.525791    21.685094    21.688286    11064.474    2341.4739    344.90456    2366.2458   -77.963817   -913.09479   -242.23295   -5430.8304 
 8062000      248.943   -6321.5938   -5681.2031   -6321.5938            0    2064.1457    23.522282    21.429779    21.974229     11076.71     1932.861    1975.9438    2283.6323    1084.1343   -1146.1627    684.66764    -5347.756 
 8063000    253.16278   -6306.6673   -5655.4215   -6306.6673            0    1727.6855    23.440005    21.649237    21.942866    11135.088    1679.8286    1949.4896    1553.7384   -349.61457  -0.51700113    1212.0866    -5374.856 
 8064000    243.21123   -6339.7069   -5714.0608   -6339.7069            0    929.62504     23.53069    21.619049    21.815434    11097.755    519.18958    1045.1311    1224.5545    110.56028   -752.06891   -694.56053   -5563.6016 
 8065000    234.47683   -6364.9719   -5761.7945   -6364.9719            0    1673.3302    23.562559    21.573706    21.745221    11053.785      2017.55    510.14483    2492.2958   -615.72078   -40.216947   -472.54835   -5492.0401 
 8066000    251.16019   -6318.1086   -5672.0143   -6318.1086            0    3637.1938    23.319158    21.506932    22.027239    11047.179    3765.7603      4502.57    2643.2511    218.63424    101.82639   -779.69233   -5086.0196 
 8067000    234.32009   -6346.7794   -5744.0053   -6346.7794            0    3796.8415    23.286763    21.439378    21.966852    10967.032    4171.8339     4201.845    3016.8455    140.57061   -45.851817    646.04835   -5136.7274 
 8068000    231.07177   -6320.5494   -5726.1313   -6320.5494            0    2653.4443    23.474984    21.626459    21.827181    11081.241    3500.8963    859.19559     3600.241   -1191.8504    1474.0868   -93.266817   -5297.3121 
 8069000     228.3335    -6338.771    -5751.397    -6338.771            0    2774.5775    23.550803    21.678468    21.642781    11049.621    2240.3061    2154.1185    3929.3079   -321.39008   -8.2118891   -139.75333   -5304.2811 
 8070000     242.5305   -6334.7978   -5710.9028   -6334.7978            0    1985.7633    23.465074    21.579067     21.88008    11079.075    1197.6456    2074.5986    2685.0457    380.40742    117.63282    628.33877   -5390.0492 
 8071000    243.48049   -6326.0657    -5699.727   -6326.0657            0    1954.0948    23.430212    21.671295    21.881671    11110.704    2607.9092    1077.5342    2176.8409   -55.681091   -539.04901    1583.3709    -5383.089 
 8072000    255.10831   -6301.7897   -5645.5391   -6301.7897            0    2675.5529    23.507104    21.462535    21.994928    11096.926    2394.3171    3098.7206    2533.6209    -109.8032   -486.95305     1079.244   -5212.5349 
 8073000    244.57705   -6360.5756   -5731.4161   -6360.5756            0    4099.2179    23.372245    21.458713     21.83297     10950.07    4165.1979    4415.5741    3716.8816    1402.5715   -1817.3581    341.48849   -5076.7893 
 8074000    243.06774   -6329.7795   -5704.5026   -6329.7795            0    3974.6236    23.321685    21.591384    21.822589    10988.709    4535.0527    3050.1754    4338.6427    856.71304    93.103246   -606.86134   -5067.5331 
 8075000    247.79965   -6339.8624   -5702.4129   -6339.8624            0     3101.908    23.521853    21.520841    21.792438    11031.551    3157.0754    2889.6475    3259.0012     714.2785   -310.32505   -532.20651   -5203.3659 
 8076000    239.75089    -6324.799   -5708.0544    -6324.799            0    3306.1594    23.404605     21.62436    21.783456    11024.816    3345.4876    3247.2165    3325.7739     1388.747   -148.78536   -528.19678   -5176.4715 
 8077000    248.52376   -6362.7964   -5723.4842   -6362.7964            0    1864.9743     23.60706    21.296726    22.027974    11074.632    1284.7929     2524.116     1786.014    835.26335   -1584.1831    719.10817   -5422.2682 
 8078000    250.36621   -6311.5573   -5667.5054   -6311.5573            0     2893.747     23.20654    21.757568    21.942309    11079.064    4258.8166    2607.5837    1814.8408    206.88232   -720.96024    242.32635   -5199.9431 
 8079000    241.99837   -6354.6426   -5732.1165   -6354.6426            0    4261.5767    23.539877    21.492706    21.704939    10981.303    3595.0359    4222.0164    4967.6778    188.53146   -290.76595    162.43433   -5049.6206 
 8080000    249.03786   -6306.2211   -5665.5864   -6306.2211            0    2604.8775    23.406441    21.587994    21.906573     11069.35    2575.6148    2552.1998    2686.8178    160.11883    -866.3728   -811.70668   -5245.0677 
 8081000    240.05788   -6335.4432   -5717.9089   -6335.4432            0    2154.8242     23.42997    21.494074    22.023666    11091.239    2935.5134     2028.057    1500.9021    481.59208    71.048722   -52.784788   -5369.3568 
 8082000    242.47625   -6344.8037   -5721.0483   -6344.8037            0    2547.1239    23.490088    21.512832    21.855932     11044.64    2571.6334    3112.8121    1956.9264    260.61565   -97.308553   -222.29394   -5310.7709 
 8083000    252.46676   -6353.4172   -5703.9619   -6353.4172            0     3164.376     23.33794    21.676912    21.738939    10997.609    4383.5548    2115.9751    2993.5982    333.30179    107.84751    362.00479   -5196.4312 
 8084000    253.84876   -6306.8333   -5653.8228   -6306.8333            0    2479.2607    23.556668    21.510971    21.929833    11112.434    2221.1418    3142.4665    2074.1737    439.32534   -1148.5763   -611.57649   -5252.0253 
 8085000     241.0524   -6339.0542   -5718.9616   -6339.0542            0    3409.7578    23.300102    21.547361    21.940177    11015.191    3947.2627    2613.7181    3668.2925    470.82545   -1381.9036    643.08758   -5171.2002 
 8086000     234.2575   -6328.4141    -5725.801   -6328.4141            0    3179.3758    23.533447    21.533554    21.769215     11031.74    3502.6553    2361.6281     3673.844    431.49913   -586.62653    1089.8309   -5214.2819 
 8087000    242.29953   -6353.8679   -5730.5671   -6353.8679            0    2770.9808      23.4664    21.611575     21.67625     10993.02     2640.961    1335.9992    4335.9822    976.21926    -337.8832      1238.91   -5286.3182 
 8088000    246.91587    -6326.691   -5691.5149    -6326.691            0    2896.1948     23.49133     21.46398    21.953865    11069.522    3884.1009    3199.0137    1605.4697    135.56906   -798.89533   -1240.7145   -5223.9601 
 8089000     236.6115    -6356.862   -5748.1933    -6356.862            0    3246.5637    23.263888     21.49611    21.995929    10999.792    4143.5153    3950.9998     1645.176    2235.1944    -1009.235   -1260.1257   -5227.3774 
 8090000    243.81321   -6353.6825   -5726.4879   -6353.6825            0    2419.4162    23.376409    21.579477    21.928697    11061.946    3704.2967    1694.6585    1859.2934   -240.54217    -913.1969    314.13567   -5336.1704 
 8091000    238.08693   -6351.7485   -5739.2844   -6351.7485            0    2770.8346    23.573727    21.529707    21.734262    11030.908    1724.1247    2408.6975    4179.6817     29.14882   -458.20226   -2.0724671   -5293.5278 
 8092000     235.7313   -6314.2143   -5707.8098   -6314.2143            0    2207.9314    23.422375    21.646677    21.838317    11072.389    2903.3332    2732.0907     988.3703   -1467.8855   -152.84955    -469.5633   -5351.2743 
 8093000    246.81157   -6335.8017    -5700.894   -6335.8017            0    3417.9771    23.433408     21.39374    21.950335    11004.322    3763.1739    2997.5277    3493.2297   -368.03441   -1153.7127   -42.031537   -5152.3539 
 8094000    245.37321   -6332.4972   -5701.2896   -6332.4972            0    3658.7433    23.344442    21.642187    21.844673     11036.47    4042.3324    2656.3525    4277.5451   -150.93066    913.60457   -876.33414   -5112.3944 
 8095000    238.83028   -6359.9362   -5745.5598   -6359.9362            0    3870.2155    23.363035    21.445551    21.952642    10999.001     4282.123    4624.7742    2703.7494    733.46475    384.28181   -379.70694   -5124.7418 
 8096000    255.09984   -6336.6468    -5680.418   -6336.6468            0    2662.7963    23.382006    21.468295    22.009956    11048.378    2977.9119    3426.9515    1583.5256    95.143622    796.33783   -1159.4591   -5251.3636 
 8097000    243.89594   -6336.7098   -5709.3023   -6336.7098            0    3535.1477    23.410438    21.565962    21.767633    10989.795    3790.3227     3251.286    3563.8343   -714.82559     571.8189    242.50805   -5142.7069 
 8098000    228.84175   -6329.5764   -5740.8949   -6329.5764            0    3178.9849    23.405916    21.483962    21.894449    11009.663    3908.7197    2738.0462    2890.1887   -992.12168    -133.8089    763.81288   -5230.4624 
 8099000     239.2848   -6311.0598   -5695.5143   -6311.0598            0    2271.3405    23.232744    21.646673    22.098529    11113.607    2815.7302    1929.5224     2068.769   -946.93688    417.60342   -61.927001   -5327.3741 
 8100000    237.15563   -6340.9835   -5730.9151   -6340.9835            0    2391.7677    23.533155    21.510233    21.830155    11050.504    1854.4246    3218.0302    2102.8485    469.40404    314.38833   -811.13209   -5345.4572 
 8101000    241.07274   -6353.3502   -5733.2053   -6353.3502            0     4006.067    23.479486    21.610037    21.621455    10970.565    3606.0039    3050.1828    5362.0143   -130.15414   -1469.6567    -192.2752   -5092.2568 
 8102000    237.65787   -6319.6842   -5708.3238   -6319.6842            0    2208.1174    23.524547    21.408234    22.049392    11104.493    1085.1946    3248.5766    2290.5811   -572.02116    1914.2804   -170.68318   -5350.7244 
 8103000    251.20278   -6327.5311   -5681.3272   -6327.5311            0     2024.127    23.408561    21.611887    21.926255    11092.562    2422.9417     1333.058    2316.3812     -450.031    417.76707   -418.32061   -5353.8768 
 8104000    240.09846   -6316.8565   -5699.2178   -6316.8565            0    3895.1511    23.585211    21.497698    21.734855    11020.174     2756.144    3850.8814    5078.4279    47.003517    356.00175    464.55242   -5073.1972 
 8105000     252.2163   -6339.8845   -5691.0734   -6339.8845            0    2230.6006    23.540716    21.633254    21.751853    11077.398    1417.5515    2433.6309    2840.6193   -533.97168   -436.00544    375.27029   -5330.7143 
 8106000    242.24635   -6346.2039   -5723.0399   -6346.2039            0    2871.9285    23.470027    21.544869    21.861938    11054.679    2275.5111    3969.3461    2370.9282    6.1277505    382.27192    -460.7386   -5260.0243 
 8107000    244.11936   -6348.0879   -5720.1058   -6348.0879            0    3069.9221     23.43537    21.538912    21.862383    11035.527    3483.5597    2085.5936    3640.6129    745.54148   -1161.9216    756.43164   -5226.0268 
 8108000    253.86589   -6359.0639   -5706.0094   -6359.0639            0    4214.2732    23.492932    21.518028    21.703717    10971.697    4411.4137    3135.2455    5096.1606   -260.68218   -711.55603    244.44389   -5031.6796 
 8109000     240.1985   -6340.5422   -5722.6462   -6340.5422            0    2518.3334    23.560519    21.423533    21.909158    11058.638    1535.2189    3667.8346    2351.9467    1282.4233   -1089.3679   -913.76278   -5316.4922 
 8110000    241.78108   -6340.3184   -5718.3514   -6340.3184            0    1930.0758    23.363111    21.548645    22.086618    11119.362    1063.7819     3165.177    1561.2686    569.53872    563.91065   -889.79813   -5405.3616 
 8111000    246.90156   -6341.3448   -5706.2056   -6341.3448            0    2395.9703    23.576766    21.526831    21.800974    11064.714     1190.358    3653.7368     2343.816     579.6073    51.676092   -544.90685   -5319.5738 
 8112000     242.0751   -6329.1407   -5706.4172   -6329.1407            0    3312.3996     23.55135    21.587375    21.676216    11020.444    1975.6009    3233.1798    4728.4181    160.71156    273.63326    328.71707   -5174.0422 
 8113000    249.43983   -6341.6762   -5700.0074   -6341.6762            0    4620.5175    23.318022    21.551701    21.788735    10949.777    4129.4554    5491.0649    4241.0323    551.28984     520.1432    1031.6751   -4962.1511 
 8114000    244.62244   -6315.5179   -5686.2416   -6315.5179            0    3912.7437    23.410414    21.438172    21.942469    11012.409    3809.0854    4378.6019    3550.5437   -963.62327    352.61568    191.98498   -5057.8366 
 8115000    247.86209   -6327.9718   -5690.3617   -6327.9718            0    2245.6673    23.570394    21.719855    21.632451    11074.637    1208.2267    1085.2593     4443.516    -238.2009    607.14354     1294.248   -5327.6589 
 8116000    236.51939   -6358.5085   -5750.0768   -6358.5085            0    1578.3203    23.400384    21.546143     21.98445    11084.297     2430.183    1009.0547    1295.7233   -365.38316    617.40205     536.8588   -5494.9364 
 8117000    225.55878   -6352.8408   -5772.6045   -6352.8408            0    3467.5433    23.381238    21.416934    21.986222    11009.699    2791.0447    4351.3034    3260.2818    340.80811    1028.2942   -719.93789   -5215.8379 
 8118000    244.75757   -6360.9677   -5731.3437   -6360.9677            0    4701.5261    23.355076    21.693919    21.559797    10923.554    3080.9919    4624.8811    6398.7054    1165.5454    706.33305    742.82862   -4982.3491 
 8119000     244.1259   -6345.7831   -5717.7841   -6345.7831            0    4371.2878    23.490548    21.486786     21.74883    10977.426    3477.1309    3698.6305    5938.1021   -401.42042   -351.45279    757.44591    -5017.965 
 8120000    245.90266    -6343.948   -5711.3784    -6343.948            0    2099.7967    23.289985    21.688843    21.975904    11100.751     2352.535    1566.5171    2380.3381   -53.412212   -166.77193    258.59092   -5371.4358 
 8121000    237.82604   -6324.0227   -5712.2297   -6324.0227            0    1917.8568    23.667525     21.42825    21.827718    11070.007    1091.7725    2384.3642    2277.4339    442.16633    261.95232    1013.3079   -5402.6019 
 8122000    252.81659   -6324.2499   -5673.8946   -6324.2499            0     2269.867    23.348657    21.689149     21.87922     11079.91    2187.4872    1091.2671    3530.8467    646.27777   -145.58834    1829.6249   -5307.1088 
 8123000    243.79017   -6343.0017   -5715.8663   -6343.0017            0    3319.6374    23.478374    21.518232     21.84822    11038.007    4399.4095     2725.292    2834.2106   -750.17403   -667.59832   -382.76591   -5181.4777 
 8124000    243.32915   -6318.7407   -5692.7913   -6318.7407            0    4259.1133    23.400449    21.615667    21.742642    10997.783    3344.3486    4365.3054    5067.6858   -507.30871     146.2852   -593.79517   -5009.6662 
 8125000    252.67955    -6326.002   -5675.9993    -6326.002            0    2623.6687    23.462419    21.390469    22.004477    11043.434    2909.9341     3289.024    1672.0479   -570.33413    173.18546   -29.108427   -5253.4387 
 8126000     244.3047   -6337.0809    -5708.622   -6337.0809            0    4133.9841    23.368525    21.578164    21.799503    10992.396    3541.1888    3690.0016    5170.7619    2006.8595    334.93174    1130.5276   -5045.8913 
 8127000    234.51178   -6315.3801   -5712.1129   -6315.3801            0    2276.0604     23.51434    21.580875    21.855068    11090.573    2468.0486    1584.1587     2775.974    413.41956    35.434122    29.505756   -5343.9723 
 8128000    251.01527    -6358.083   -5712.3615    -6358.083            0    2633.7425    23.445858    21.535792    21.928413    11072.207    2831.0561    3426.7401    1643.4311   -32.298054    192.49525   -116.91946   -5287.0733 
 8129000    254.77253   -6320.3293   -5664.9425   -6320.3293            0    3240.9773    23.422079    21.640828    21.760637    11029.883    3437.5254    2819.4782    3465.9283   -1929.4442    14.985049   -149.29937   -5143.6004 
 8130000    240.51984   -6371.6013   -5752.8787   -6371.6013            0    2771.1037     23.47881     21.48253    21.840909     11016.21     2782.029    2101.5238    3429.7582    424.28174    1258.5569    2267.9874   -5307.6728 
 8131000    246.72086   -6385.7023   -5751.0279   -6385.7023            0    2824.6228    23.406631    21.514449    21.900573    11028.707    2690.8993    2942.3891      2840.58     1219.774    46.116992    760.26571   -5296.7089 
 8132000    248.01241    -6315.804   -5677.8072    -6315.804            0    2129.5814    23.405217     21.68426    21.852701    11090.788    3404.5891    928.05749    2056.0976    681.43848   -342.39185    579.01438   -5333.3521 
 8133000    246.20805   -6318.3302    -5684.975   -6318.3302            0    2901.0328    23.588024    21.541471    21.778193    11065.951    2477.5741    3240.3203     2985.204   -526.42419   -607.01586   -125.53053   -5216.7903 
 8134000    240.64075   -6364.8795   -5745.8458   -6364.8795            0    2955.4671    23.359812    21.703763     21.76715    11035.854    4322.7444    1562.5204    2981.1363    -99.08337   -762.54989   -126.28506   -5270.1734 
 8135000    240.72421   -6363.7959   -5744.5476   -6363.7959            0    3641.6851     23.39544     21.50568    21.779992    10958.273    2949.0326    4565.1136    3410.9091    515.42508   -633.55299    213.52478    -5162.551 
 8136000     249.1209   -6313.1407   -5672.2924   -6313.1407            0    3803.5275    23.389389    21.552226    21.838776    11008.782     3868.536    4151.6586    3390.3881   -398.34562   -1025.0996    1233.7197   -5061.6292 
 8137000    237.47755   -6325.0098   -5714.1133   -6325.0098            0    4252.9614     23.33306    21.585354    21.846664    11003.124    4348.6279    4400.3032    4009.9532   -845.94413   -60.210738   -984.98058   -5031.6437 
 8138000    244.32829   -6367.6277   -5739.1081   -6367.6277            0    2708.9965    23.494041    21.462795    21.874728    11030.283    2126.7164    3736.2942    2263.9788    243.29546   -209.55911   -1102.7342   -5303.3244 
 8139000    241.36485     -6348.95   -5728.0536     -6348.95            0    2814.2703    23.352962    21.572587    21.859067    11012.244    3313.2208     2750.055    2379.5351    227.17709    1266.0088   -633.76469   -5276.0754 
 8140000    245.07576   -6340.5386   -5710.0962   -6340.5386            0    2656.7472     23.71436    21.367014    21.774069    11033.031    1389.3773    3190.6856    3390.1786    329.82608    1582.9333    621.50393   -5282.6111 
 8141000    236.53863   -6337.7863   -5729.3051   -6337.7863            0    1646.3643    23.297627    21.686201    21.998016    11114.212    3334.7242    629.67034    974.69841    61.299861    -443.7749   -517.10915   -5462.4469 
 8142000    243.91885   -6342.5413   -5715.0749   -6342.5413            0    2506.7593    23.477407    21.546675    21.930294     11093.66    3314.4351    1873.5645    2332.2784   -408.20541   -342.44206    870.20453   -5309.5072 
 8143000    254.92616   -6359.9279   -5704.1459   -6359.9279            0    3254.8682    23.403791    21.550972    21.818981    11004.937    3622.1407    3985.0519    2157.4122    107.95483   -857.68667   -165.46909   -5181.7535 
 8144000    238.26222   -6323.9351   -5711.0201   -6323.9351            0    2821.8015    23.370323    21.616087    21.895787    11061.202    3771.0527    3375.3871    1318.9648   -1281.2096   -472.96625   -886.79882   -5255.8175 
 8145000    252.93896   -6313.5747   -5662.9046   -6313.5747            0    2305.2338    23.640427    21.401118     21.93659    11098.413    1041.2644    3493.6686    2380.7683     1073.824     13.22651    -227.1359   -5289.7818 
 8146000    241.30138   -6346.1699   -5725.4368   -6346.1699            0    2744.1133    23.349258     21.67706    21.816279    11042.163    3467.9512     2294.911    2469.4777   -27.601088    992.61673     24.63424   -5283.5286 
 8147000    243.49287   -6361.1976    -5734.827   -6361.1976            0    3964.2376    23.427817    21.342547    21.922139    10961.273    3906.7926    4397.8574    3588.0628   -386.93784    1075.3561   -175.17213   -5101.1083 
 8148000    239.60984   -6350.7715   -5734.3897   -6350.7715            0    3767.8101    23.190259    21.747853    21.725166    10956.834    6555.7041    1837.9688    2909.7573   -2582.8079   -1710.3716    13.018006   -5132.3156 
 8149000    248.31711   -6312.5153   -5673.7347   -6312.5153            0    3797.7951    23.590418    21.460452    21.774323    11023.491    2965.7342    4355.5636    4072.0873     314.7234   -832.14382    264.44966   -5063.1772 
 8150000    235.81064   -6331.9802   -5725.3717   -6331.9802            0    3073.0537    23.373774    21.641692    21.902789    11079.482    4926.1575    2610.6116     1682.392   -1609.6641   -594.43528   -889.68058   -5228.8188 
 8151000    255.29975   -6338.6414   -5681.8984   -6338.6414            0      3215.72     23.43974    21.483866     21.91538    11036.065    1644.7786    4489.9726    3512.4088    1514.1645    129.43129   -523.23955   -5164.3292 
 8152000    245.96703    -6369.047   -5736.3118    -6369.047            0    2807.9736    23.538911    21.500436    21.765333    11015.366    1923.9877     3234.932     3265.001    93.434701   -557.98763    387.36845   -5285.2169 
 8153000    249.33134    -6318.795   -5677.4053    -6318.795            0    3597.5256    23.390293    21.707506    21.688038    11011.992    3879.4251    1773.3044    5139.8474     796.1887   -2194.8956    1381.4476   -5099.6477 
 8154000    240.14244   -6323.6703   -5705.9185   -6323.6703            0    3287.2937    23.681501     21.28838    21.843237    11012.067    2832.8139    4021.3685    3007.6986    54.433673   -776.36187   -468.61006   -5177.9801 
 8155000    239.20029    -6353.133   -5737.8048    -6353.133            0    2274.4459    23.316307    21.634375    21.911243     11052.77    2334.3705    1829.8533    2659.1139    524.51185   -132.84175   -365.16123   -5371.1794 
 8156000     230.7625   -6357.2855    -5763.663   -6357.2855            0    1847.9714    23.420088    21.524581    21.951828    11066.083    1766.8685    2814.4781    962.56762   -530.99658   -1218.1829   -369.09758   -5465.4236 
 8157000    245.09702   -6365.9723   -5735.4751   -6365.9723            0     1263.279    23.539361     21.59961    21.871991    11120.617    1342.8948    842.85952    1604.0827    90.512699    92.595189    262.86821    -5530.593 
 8158000    249.48843   -6380.3597   -5738.5659   -6380.3597            0    2536.7816    23.426943    21.618499     21.79542    11038.407    3186.8089    1423.6799    2999.8559    253.91598   -341.67598    -370.9073   -5330.1851 
 8159000    254.92894    -6365.225   -5709.4359    -6365.225            0    4293.1933    23.340111    21.376995    21.990639    10972.041     4432.057    4627.7212    3819.8017    267.43296     5.443229   -403.35183   -5022.4564 
 8160000     241.4209   -6337.7487   -5716.7082   -6337.7487            0    3085.7123    23.236388     21.54538    22.085107    11056.618    4213.9389    3448.4032    1594.7948   -750.10106   -105.37481   -1055.0131   -5219.1389 
 8161000    244.00042   -6367.5369   -5739.8606   -6367.5369            0    3599.3775    23.476617    21.664716    21.589494    10980.725    3240.0026    2711.9952    4846.1345   -448.37368    999.28618     588.7724   -5163.4469 
 8162000    239.00769   -6317.6616   -5702.8289   -6317.6616            0    1305.3152    23.568019    21.595365    21.899022    11145.726    1042.7541    1744.6169    1128.5747   -52.817793   -110.66237   -393.27393   -5490.6512 
 8163000    240.38785   -6334.4028   -5716.0198   -6334.4028            0    2241.1184    23.296968    21.576679      22.0239     11070.78    2889.7512    2486.5342    1347.0697    184.32426   -1409.0872   -280.65066   -5354.1778 
 8164000    245.28305   -6363.5504   -5732.5747   -6363.5504            0    3065.5768    23.320772    21.515176    21.920137     10998.44    2861.2346    3993.4584    2342.0373    838.01048   -930.84883    201.16949   -5240.8533 
 8165000    245.27324   -6338.1974    -5707.247   -6338.1974            0    3403.0357     23.47777    21.432301    21.833689    10986.334    3687.1467    2994.5099    3527.4506   -834.02262     333.5652   -238.85249   -5161.9976 
 8166000    241.75558   -6292.7913   -5670.8898   -6292.7913            0    3270.9532    23.360254    21.708879    21.744376    11027.115    4840.4136    2448.9089    2523.5371    1180.3396   -313.54846   -1160.3485   -5144.8578 
 8167000    241.59844   -6341.9568   -5720.4595   -6341.9568            0    3759.3389    23.535147     21.41049    21.901643    11036.217    4188.3692    3092.0759    3997.5717    188.32849    164.63803     773.7736   -5115.3868 
 8168000    251.57995   -6329.1271    -5681.953   -6329.1271            0    2993.5943    23.343753    21.562886    21.935493    11041.421     3108.209    1787.4125    4085.1612    753.29023   -1114.1829    723.76754   -5199.9011 
 8169000    255.72214   -6311.5896   -5653.7599   -6311.5896            0    3870.0176    23.434859    21.490433    21.880811    11019.729    4637.1914    4081.1386    2891.7229   -846.73351     51.83153   -213.74258   -5031.8038 
 8170000    249.08044    -6345.981   -5705.2368    -6345.981            0    3322.7936    23.541513    21.519728    21.774504    11031.115    2387.5773    3199.3001    4381.5033   -115.15904   -997.63218    1084.8059    -5170.674 
 8171000    242.46317   -6328.9354   -5705.2136   -6328.9354            0    3484.9377    23.363946    21.643129    21.843928    11045.795    3380.6046    3161.5806     3912.628    -341.4423   -912.45357   -43.350527   -5143.8195 
 8172000    244.42625   -6328.6315   -5699.8599   -6328.6315            0    3586.4088    23.529976    21.488805    21.869696    11057.998    2542.3836    4768.7126    3448.1302     423.1258    181.34462    303.48894   -5121.4814 
 8173000    246.43914   -6354.0997   -5720.1501   -6354.0997            0    3855.3368    23.396159    21.625439    21.710757    10984.605    3555.7729    4003.6924    4006.5452    -645.5249    132.02937    38.662865   -5102.5282 
 8174000    241.91453   -6352.5804   -5730.2701   -6352.5804            0    1974.1565    23.639717    21.539933    21.733453    11066.629    907.99535    1621.7015    3392.7726   -344.50395    -400.7113   -173.05778   -5411.6502 
 8175000    244.52218   -6335.3628   -5706.3444   -6335.3628            0    1106.7411     23.51621     21.70218    21.805823    11128.668    284.06152    905.68228    2130.4796   -256.56942     808.8408   -751.91686   -5526.7201 
 8176000    241.15731   -6362.8476   -5742.4851   -6362.8476            0    3034.7312    23.452076     21.43029    21.892191    11002.682    2882.9275    3432.9137    2788.3523   -23.933835   -801.44506    623.81144   -5255.5235 
 8177000     249.1981   -6311.8558   -5670.8088   -6311.8558            0    3383.6573    23.367311    21.461141    21.966908    11016.166     4360.267    3966.7036    1824.0014    175.44319    245.24028    415.07098   -5127.1922 
 8178000     244.5036   -6324.5291   -5695.5585   -6324.5291            0    3175.4765    23.474451    21.484716    21.833102    11011.348    2930.6446    3666.6164    2929.1685    -721.2887    151.87802    307.05282   -5185.6112 
 8179000    238.88262   -6328.7034   -5714.1924   -6328.7034            0    3197.7729    23.423309     21.54051    21.840517    11019.633    2978.4915    2616.9773      3997.85    1254.2305   -1053.0866    434.55259   -5200.2782 
 8180000    243.23046    -6325.756   -5700.0605    -6325.756            0    2033.5315    23.437613    21.628495    21.933416    11118.493    2948.9442    2126.5691    1025.0812   -262.68936   -694.02086   -1330.9249   -5370.3196 
 8181000    241.44999   -6337.8049   -5716.6895   -6337.8049            0    3899.7707    23.440307    21.453788    21.862657    10994.367    4595.1356    4205.4963    2898.6801    276.91418   -430.81603   -537.71628   -5091.3942 
 8182000    246.62785   -6314.8589   -5680.4238   -6314.8589            0    3556.3576    23.466279    21.471695    21.839993    11004.316     2746.756     4004.933    3917.3839    669.55366    1371.2664    1208.5419   -5109.6758 
 8183000    241.83387   -6355.4798   -5733.3769   -6355.4798            0    3428.9612    23.324773    21.459114    21.997791    11010.532    4907.8853    4603.0671    775.93119   -809.28305    51.399308   -552.11223   -5182.7635 
 8184000    242.73246   -6351.6594    -5727.245   -6351.6594            0      2434.77     23.38388    21.552896    22.000664    11088.122    3336.8737    1532.7602     2434.676   -553.26659    346.85967   -269.77016    -5333.521 
 8185000    242.77921    -6310.793   -5686.2582    -6310.793            0    3013.4788    23.486851    21.584529    21.783097    11042.998    2718.3039    1910.4423    4411.6901   -616.07493    527.19462    314.86951   -5200.9351 
 8186000    246.43844   -6313.8943   -5679.9465   -6313.8943            0    3449.0809    23.549091    21.485389    21.817229    11038.676    3530.5482    3439.5255    3377.1688    283.45352   -98.374802    407.93966   -5124.6867 
 8187000    244.47106   -6373.7098   -5744.8229   -6373.7098            0    1921.6585    23.254382    21.614026     22.02456    11070.003    3322.1912    514.85608    1927.9283    720.72197    829.54474    978.14433   -5434.5815 
 8188000     254.9763   -6341.2245   -5685.3135   -6341.2245            0    3596.2452    23.407633    21.477104    21.912417    11015.989      3537.57    4280.0671    2971.0983   -231.46866   -19.538568   -1541.4255   -5107.5519 
 8189000    235.39363   -6352.7074   -5747.1716   -6352.7074            0    3895.5826     23.41773    21.622434    21.677507    10976.369    2588.1151    4476.0787    4622.5539     145.5053     447.0829   -434.74204   -5123.5704 
 8190000    244.51926   -6275.2842   -5646.2733   -6275.2842            0    2796.7513    23.483968    21.567499    21.911069    11097.747    2004.4233    4336.8396    2048.9911   -498.14884    202.82557   -48.181904   -5193.6212 
 8191000    248.28334   -6318.2318    -5679.538   -6318.2318            0    2544.6898    23.464037    21.407833     22.04941    11075.732    2921.4803     2327.106     2385.483    781.46787   -736.02275    1456.0943   -5268.4989 
 8192000    241.97079   -6318.6549   -5696.1998   -6318.6549            0    3800.1682    23.275017      21.6776    21.830952    11014.731    3502.7634    3523.4263     4374.315    81.584307    409.57226    563.46925   -5085.7463 
 8193000    245.46143   -6356.8743   -5725.4397   -6356.8743            0    3967.0768    23.702836    21.426568    21.621507    10980.924    2617.1737    4637.2986    4646.7581    555.42045   -147.91728   -146.14988   -5090.1302 
 8194000    246.05983   -6335.7345   -5702.7606   -6335.7345            0    2663.3062    23.335602    21.675098    21.806208    11029.611     3192.319    1542.0798    3255.5197    278.42157   -396.28651    15.329289    -5274.353 
 8195000    249.36382   -6330.5386   -5689.0654   -6330.5386            0    3234.4124    23.348139    21.495877    21.994106    11038.594    2959.2178    5117.0018    1627.0175    764.20149   -622.08125   -373.72356   -5168.3684 
 8196000    240.70382   -6334.8361   -5715.6402   -6334.8361            0    2573.1722    23.398896    21.497898    22.027509    11080.433    4133.7822    1672.2034    1913.5309    271.84296    241.58858    588.42046   -5299.8239 
 8197000    235.19963   -6310.1951   -5705.1584   -6310.1951            0    952.92671    23.781526     21.72404    21.621769    11170.472    97.548204    275.40819    2485.8237    1461.5676   -583.62973   -451.95926   -5549.9173 
 8198000    246.40613   -6327.3767   -5693.5119   -6327.3767            0    3574.9759    23.379241    21.611194     21.84394    11036.723    2795.6076     2895.285    5034.0351    425.95462    -623.3131    356.64327   -5118.0864 
 8199000    247.82275   -6316.0167   -5678.5078   -6316.0167            0    4874.3051    23.426946    21.380224    21.906962    10972.614    4830.7604    5067.3686    4724.7863    186.53041   -998.71142   -63.425577   -4898.5005 
 8200000     244.8173   -6345.5666    -5715.789   -6345.5666            0    4401.2308    23.364482    21.602566    21.712563    10959.042    4479.3297    4278.8302    4445.5326    486.04676   -10.274319     274.4054   -5012.3562 
 8201000    251.75192   -6347.1639   -5699.5474   -6347.1639            0    2236.0535    23.579055    21.408868    21.926979    11068.758    1515.9872    2644.7746    2547.3986    71.055977   -610.27091    481.60264   -5338.5892 
 8202000    244.73398   -6346.2376   -5716.6743   -6346.2376            0    2856.9371    23.360709    21.573335    21.899427    11036.619    2417.6033     2859.894    3293.3141     984.2309    1069.0301   -682.09743   -5256.8281 
 8203000    234.96364   -6370.1985   -5765.7688   -6370.1985            0    2808.8038      23.4228    21.549282     21.85527    11031.328    2159.7599    2547.4462    3719.2053    435.92199    84.512645    395.62554   -5313.8868 
 8204000    244.42893   -6355.5959   -5726.8174   -6355.5959            0    2389.9144    23.553783    21.519927    21.833811    11067.028    1711.1482    3638.7036    1819.8913   -147.92562    632.63203   -48.145702   -5341.0822 
 8205000    250.16591   -6371.4669   -5727.9304   -6371.4669            0    4091.4194    23.304463    21.558861    21.802853    10954.139    4993.9219    4373.6477    2906.6885    -1053.118    883.00893    1066.3588   -5074.3062 
 8206000     241.5293   -6366.4652   -5745.1458   -6366.4652            0     3727.692     23.43101    21.391374    21.908604    10981.063    3442.7148     4275.086    3465.2753   -1762.9764    287.54763    112.69422   -5148.1651 
 8207000     238.3812   -6341.2126   -5727.9915   -6341.2126            0    2093.6148    23.195257    21.729813    21.943881    11060.344    2557.2252    2708.2964     1015.323   -193.00348    345.62282    -1305.623   -5390.2835 
 8208000    244.53761   -6333.4538   -5704.3957   -6333.4538            0    2057.9925     23.69866    21.457983    21.779141    11075.247    1484.2373    2161.1137    2528.6266     -237.552   -204.00958   -348.03244   -5371.9865 
 8209000    244.86742   -6325.0119   -5695.1054   -6325.0119            0    3104.2812    23.191361    21.727427    21.887056    11028.638    4317.1668    2446.8682    2548.8087    115.45889    145.62259   -818.76377   -5195.8085 
 8210000     237.9618   -6331.9666   -5719.8244   -6331.9666            0    2657.3485    23.503885    21.353824    22.057475    11070.599    2885.1184    3052.8826    2034.0444   -1183.1361    15.668374   -766.90715   -5290.7866 
 8211000    243.39394   -6322.8585   -5696.7424   -6322.8585            0    3430.3571    23.334155    21.705849    21.757647    11019.979    3802.5089    3235.5512    3253.0112    760.35435   -16.516686    225.66828   -5145.4322 
 8212000    244.67565   -6353.4014   -5723.9882   -6353.4014            0    2977.0249    23.606383    21.373387    21.788914    10993.561    2572.6333    2971.6864    3386.7549   -977.26055    534.93679     285.2888   -5246.6824 
 8213000     240.0254   -6328.3388   -5710.8881   -6328.3388            0    3221.0719    23.142768    21.862555    21.891282    11076.114    5605.8168    1493.7106    2563.6883    684.84128   -530.79895   -134.80736   -5190.5762 
 8214000     246.0022   -6342.3745   -5709.5488   -6342.3745            0     3169.002    23.495336    21.429785    21.858886    11005.949    2789.9166    3709.1322    3007.9571   -381.80304     1387.061   -313.72246   -5200.8908 
 8215000    246.03095   -6378.0332   -5745.1336   -6378.0332            0    2725.2089    23.451983    21.593169    21.705963    10991.957    1145.3806    3102.5628    3927.6835    34.791692    1932.7104   -390.39918   -5308.2651 
 8216000    237.25094   -6324.3204   -5714.0068   -6324.3204            0    3854.6011    23.382243    21.493837    21.869428    10991.009    3594.2496    4561.5443    3408.0094    1167.7767    565.31397   -110.85753   -5096.1428 
 8217000    244.52309   -6341.7102   -5712.6895   -6341.7102            0    3248.5725    23.474848    21.486706    21.863592    11027.934    2579.8247    5074.7995    2091.0934    403.72895     354.7934   -559.42874    -5190.218 
 8218000    258.99608   -6354.9185   -5688.6669   -6354.9185            0    1630.2622    23.500574    21.696986    21.711754    11070.641    1254.1697    1920.0455    1716.5715    548.43961   -743.21718   -488.36867   -5425.4546 
 8219000    241.21977   -6332.5869   -5712.0637   -6332.5869            0     2659.432    23.668056    21.469406    21.709411    11031.401    631.73263     4706.957    2639.6063   -174.82841    971.42503   -351.37208   -5284.2098 
 8220000    229.73731   -6350.0733   -5759.0881   -6350.0733            0    1575.8739    23.377389    21.629432    21.951334    11099.465     1778.498    1854.6172    1094.5063   -439.05845   -445.92263    13.813384   -5503.9946 
 8221000    235.32824   -6336.5998   -5731.2322   -6336.5998            0     3989.579    23.472618    21.385806    21.912234    10999.522    4232.5356     4702.881    3033.3203    1399.6515   -276.26919    827.61714   -5091.2369 
 8222000    245.73123   -6356.3801   -5724.2515   -6356.3801            0    4395.7509     23.38108    21.632204    21.648268    10949.354    3225.3165    4295.5909    5666.3451    979.15421   -710.39845    165.52277   -5022.3156 
 8223000    238.46668   -6339.6881   -5726.2471   -6339.6881            0    2563.4891    23.433863    21.452881    21.987509    11053.646    3215.5326    2263.7231    2211.2115    -691.2988   -240.37069   -61.176382    -5312.997 
 8224000    253.49817   -6327.6251   -5675.5165   -6327.6251            0    2404.3476    23.432917     21.56822    21.890204    11063.447    2708.4144    1915.4011    2589.2274   0.51539494     344.0094   -361.73521   -5287.5774 
 8225000    234.10946   -6325.4733    -5723.241   -6325.4733            0    2480.2675    23.509281    21.597815    21.789473    11063.586    3739.1047    1146.0403    2555.6574   -837.98605    760.18731    567.10473   -5323.0473 
 8226000    243.07638   -6342.9407   -5717.6416   -6342.9407            0    3131.5046    23.516565    21.410028    21.961865    11057.586    2554.4052    4789.0792    2051.0295   -107.34429    245.33233   -426.89385    -5212.644 
 8227000     266.0778   -6342.1803   -5657.7114   -6342.1803            0    4148.0327    23.397453    21.684021     21.72093    11020.133    3254.6098    3524.2251    5665.2632    154.37382    943.15541    -209.6966   -4991.0507 
 8228000    248.11215   -6293.8042   -5655.5508   -6293.8042            0    4243.4892    23.552674    21.504797    21.733961    11008.153    4407.0017    3557.4555    4766.0103     -743.556    300.98233    479.57401   -4974.2899 
 8229000    244.54895   -6319.8922    -5690.805   -6319.8922            0    3656.7184    23.291989    21.440377    22.049534    11011.295    4183.7685    4852.3249    1934.0617    -723.3791    277.82836    222.69094   -5103.5782 
 8230000    254.45664   -6326.0722    -5671.498   -6326.0722            0    2086.6618     23.35038    21.685527    21.949468    11114.449    2836.7023    1626.9138    1796.3693    424.07107    135.51816      89.9642    -5333.265 
 8231000     242.6619    -6303.251   -5679.0181    -6303.251            0    2563.5399    23.623209    21.569666    21.777574    11096.648    2002.0331    2973.1212    2715.4654   -367.76998   -1.1244314   -1379.3444   -5264.1521 
 8232000    253.04992   -6347.8838   -5696.9283   -6347.8838            0    4065.3978    23.233888    21.651773    21.831704    10982.545    4349.8085    3596.3526    4250.0322   -791.12908   -629.21068    -475.3639   -5045.7769 
 8233000    247.32389   -6347.3724   -5711.1467   -6347.3724            0    5209.2886    23.479511    21.344186    21.725644    10887.829    4590.8387    4732.4032    6304.6238    1041.0757    683.10092    588.06144   -4883.9751 
 8234000    243.93383   -6330.8588   -5703.3539   -6330.8588            0    3766.0375    23.357486    21.626305    21.764321    10993.945    3717.3355    2561.1275    5019.6495    265.15038    1607.6785     496.8358   -5099.5247 
 8235000    245.68931   -6349.4792   -5717.4584   -6349.4792            0    3787.6376    23.370627    21.451782    21.936108    10997.484    4055.4618     3877.667    3429.7838   -480.17635   -377.69849   -186.07401   -5109.9705 
 8236000      245.148      -6349.8   -5719.1717      -6349.8            0    2001.0675    23.363699    21.561666    21.957828    11061.482    2095.4544    2059.0178    1848.7302   -61.472926   -145.18408   -372.86492   -5396.3588 
 8237000    229.84064   -6320.2119   -5728.9608   -6320.2119            0    2299.0846    23.436128      21.8223    21.629719    11062.092    2658.5063     815.8187    3422.9287   -833.19751    487.86498    81.367065   -5358.0512 
 8238000    248.86132   -6318.3821   -5678.2015   -6318.3821            0    3640.0544    23.596833    21.442682    21.787978    11024.268    3163.4142    3210.7618    4545.9872    9.8915738   -844.99894    348.52308   -5092.9621 
 8239000    236.53813   -6324.9338   -5716.4539   -6324.9338            0    2151.7896    23.241017     21.70232    21.938654    11065.506    2813.5377    1056.9979    2584.8331   -169.23181   -359.25953   -1276.0435   -5369.2001 
 8240000    247.55368   -6334.7169   -5697.9001   -6334.7169            0    3431.4156    23.573294    21.343043    21.854463    10995.545    2151.1886    3995.6747    4147.3836   -43.546001    1145.1412   -651.96481   -5147.6426 
 8241000     240.1409   -6331.5978     -5713.85   -6331.5978            0     3442.043    23.373862    21.790002    21.593307    10997.828    2759.4068     3030.958    4535.7641    164.20966   -556.92911    228.12468   -5161.7737 
 8242000    245.12731   -6346.9316   -5716.3565   -6346.9316            0    746.23653    23.648121    21.515887    21.870837    11128.107    67.931147    445.42329    1725.3552   -653.53991    1122.9055    878.77786   -5595.2483 
 8243000    250.84663   -6336.4911   -5691.2035   -6336.4911            0    2847.3839    23.396632    21.605874    21.846107    11043.309     3089.124    1990.0225    3463.0052    1914.1423   -440.90706    995.42625   -5232.6171 
 8244000    245.93178   -6345.0504   -5712.4059   -6345.0504            0    2945.1599    23.371905     21.52406    21.933222    11033.689    1978.2744     3712.928    3144.2774   -293.19314    2.8432769    580.76099   -5238.4854 
 8245000    250.71545   -6307.3774   -5662.4271   -6307.3774            0    3756.5558    23.440154    21.569628    21.802433     11023.21     3232.365    4950.9293    3086.3731   -368.22558    128.32544    1141.9813   -5058.5149 
 8246000    231.57696   -6323.5781   -5727.8605   -6323.5781            0    2378.1343    23.404608      21.5089    21.938684    11044.095    2533.0273    2756.4281    1844.9475   -276.36187   -776.86334    265.97145    -5344.822 
 8247000    237.26216   -6316.6227   -5706.2802   -6316.6227            0    2709.5431    23.587067    21.420493    21.918259    11074.126    2705.0862    2791.3615    2632.1815    -1282.828   -1089.2266   -809.19285   -5268.6761 
 8248000    247.96668   -6328.7554   -5690.8762   -6328.7554            0    3981.4417    23.308197    21.694028     21.82329    11034.917    4705.3895    3236.5172    4002.4182    -183.5717    293.17952   -712.21903    -5050.131 
 8249000    230.59662   -6308.0778   -5714.8821   -6308.0778            0    2779.5364    23.551705    21.385175     21.90541     11032.82    2040.2692    3789.2403    2509.0998    420.95011   -205.75647    -1157.405   -5267.6481 
 8250000     251.1475   -6305.9299   -5659.8683   -6305.9299            0    1993.5135    23.449441    21.752155    21.731339    11084.632    2532.1992    1388.4797    2059.8615    584.36068   -524.95275    449.52257   -5337.6009 
Loop time of 654.282 on 64 procs for 250000 steps with 1296 atoms

Performance: 66.027 ns/day, 0.363 hours/ns, 382.098 timesteps/s
99.3% CPU use with 64 MPI tasks x 1 OpenMP threads

MPI task timing breakdown:
Section |  min time  |  avg time  |  max time  |%varavg| %total
---------------------------------------------------------------
Pair    | 29.311     | 38.286     | 47.444     |  95.3 |  5.85
Bond    | 0.2688     | 0.27791    | 0.29708    |   1.1 |  0.04
Kspace  | 340.51     | 360.18     | 378.52     |  45.9 | 55.05
Neigh   | 4.27       | 5.2703     | 6.147      |  21.3 |  0.81
Comm    | 102.07     | 114.7      | 131.37     |  62.8 | 17.53
Output  | 1.2726     | 1.2803     | 1.2874     |   0.6 |  0.20
Modify  | 123.61     | 127.48     | 132.08     |  17.7 | 19.48
Other   |            | 6.813      |            |       |  1.04

Nlocal:        20.2500 ave          26 max          14 min
Histogram: 5 5 7 5 5 13 5 6 6 7
Nghost:        2536.00 ave        2562 max        2503 min
Histogram: 3 2 3 5 13 10 5 15 4 4
Neighs:        6291.91 ave        8150 max        4321 min
Histogram: 4 6 7 6 6 11 5 6 7 6

Total # of neighbors = 402682
Ave neighs/atom = 310.71142
Ave special neighs/atom = 2.0000000
Neighbor list builds = 9108
Dangerous builds = 1

unfix		3
unfix		2
unfix		1

write_data	data.final.${pid}
write_data	data.final.0
System init for write_data ...
PPPM initialization ...
  extracting TIP4P info from pair style
  using 12-bit tables for long-range coulomb (../kspace.cpp:340)
  G vector (1/distance) = 0.36779192
  grid = 30 40 32
  stencil order = 5
  estimated absolute RMS force accuracy = 0.0043580355
  estimated relative force accuracy = 1.3124095e-05
  using double precision FFTW3
  3d grid and FFT values/proc = 5168 640
Last active /omp style is kspace_style pppm/tip4p/omp
WARNING: Not all mixed pair coeffs generated from mixing. Use write_data with 'pair ij' option to store all pair coeffs. (../write_data.cpp:312)

write_restart   restart.lmp.${pid}
write_restart   restart.lmp.0
System init for write_restart ...
PPPM initialization ...
  extracting TIP4P info from pair style
  using 12-bit tables for long-range coulomb (../kspace.cpp:340)
  G vector (1/distance) = 0.36779192
  grid = 30 40 32
  stencil order = 5
  estimated absolute RMS force accuracy = 0.0043580355
  estimated relative force accuracy = 1.3124095e-05
  using double precision FFTW3
  3d grid and FFT values/proc = 5168 640
Last active /omp style is kspace_style pppm/tip4p/omp
Total wall time: 0:10:55
