LAMMPS data file via write_data, version 30 Jul 2021, timestep = 19750000

1296 atoms
2 atom types
864 bonds
1 bond types
432 angles
1 angle types

-10.784857227059609 12.76485722705961 xlo xhi
-9.21348086096594 12.20347886096594 ylo yhi
0.08163898765103461 21.778360012357094 zlo zhi
-9.615205553468689 2.1378282364559773 2.8746160231675435 xy xz yz

Masses

1 1.008
2 15.999

Pair Coeffs # lj/cut/tip4p/long/omp

1 0 0
2 0.21084 3.1668

Bond Coeffs # harmonic/omp

1 450 0.9572

Angle Coeffs # harmonic/omp

1 55 104.52

Atoms # full

298 100 2 -1.1794 -6.0024812224536666 -7.106850345353201 4.130720420066374 1 1 0
270 90 1 0.5897 -8.573323096168387 -7.017521307445067 2.118662158500918 1 1 0
269 90 1 0.5897 -9.32509952258 -5.757860195599717 2.492551677938738 1 1 0
268 90 2 -1.1794 -9.225650388348935 -6.679282233778172 2.7320449555512782 1 1 0
324 108 1 0.5897 -7.034340618426368 -4.247002018187672 3.542851497471351 1 1 0
275 92 1 0.5897 -10.769765053065427 -7.8340213912492604 3.0691444954841374 1 1 0
163 55 2 -1.1794 -7.486721280554191 -7.850940842716806 0.8543344333560455 1 1 0
323 108 1 0.5897 -6.405482690029851 -5.569387839941575 3.1586607698760294 1 1 0
73 25 2 -1.1794 -8.219794374335216 -3.6312379444131846 5.064996711226152 1 0 0
299 100 1 0.5897 -6.494363526318274 -7.87232304703001 4.4280433911165025 1 1 0
280 94 2 -1.1794 -9.470699048575534 -4.263342472070216 1.377756245885085 1 1 0
75 25 1 0.5897 -9.0921847291552 -3.3151244167765386 4.830370173324653 1 0 0
282 94 1 0.5897 -10.312726297709213 -3.86959633069437 1.6058293056928814 1 1 0
314 105 1 0.5897 -8.953441399170142 -6.661368975651187 4.570596067224955 1 1 0
164 55 1 0.5897 -6.705136115001147 -8.333421797181822 1.1234266424644745 1 1 0
165 55 1 0.5897 -7.936332351685051 -8.440763150601505 0.24913240110376658 1 1 0
322 108 2 -1.1794 -6.5542376638054085 -4.680164777197972 2.837088474481585 1 1 0
1226 409 1 0.5897 -9.830512572120771 -5.541205748929747 0.16311173014508298 0 0 1
261 87 1 0.5897 -6.942316829296533 -5.07706227917536 0.8814068013087557 1 1 0
194 65 1 0.5897 -4.767228924729043 -8.79901475360317 2.2372255583701928 1 1 0
300 100 1 0.5897 -5.101907732769882 -7.4191166582923636 4.04417309743298 1 1 0
313 105 2 -1.1794 -8.929498529322624 -6.284477271085953 5.450209557771491 1 1 0
315 105 1 0.5897 -8.726420674064666 -5.359659335535509 5.309583827861481 1 1 0
1141 381 2 -1.1794 -10.633067762579897 -8.826015770514607 0.08169393862582766 0 0 1
419 140 1 0.5897 -8.85794183450404 -5.541306229193562 8.901137761196717 1 0 0
418 140 2 -1.1794 -9.381344078540447 -6.251645973201157 9.272303060109424 1 0 0
618 206 1 0.5897 -7.726400615619063 -7.463353428055187 6.488159526112517 1 1 0
429 143 1 0.5897 -6.025164651798935 -7.33184135659404 8.381422714543417 1 0 0
627 209 1 0.5897 -10.443676575016788 -6.545728025990804 6.493258697942409 1 1 0
420 140 1 0.5897 -8.753582632401681 -6.7804719529658355 9.764643247373339 1 0 0
414 138 1 0.5897 -6.496537120905802 -4.811310813793677 7.694248576952234 1 0 0
413 138 1 0.5897 -7.463219815626167 -3.6625461339449883 7.887773785410615 1 0 0
412 138 2 -1.1794 -7.293710217481316 -4.563664934387981 8.162552415008554 1 0 0
633 211 1 0.5897 -5.581231906071988 -5.802480848569021 5.573152218312253 1 1 0
350 117 1 0.5897 -7.12397512884135 -4.176637936082942 10.06729875466012 0 0 0
428 143 1 0.5897 -6.547771869235833 -7.381980578353655 9.801462793030476 1 0 0
427 143 2 -1.1794 -5.810405327253357 -7.070102953726451 9.276808432240655 1 0 0
74 25 1 0.5897 -8.041711077483383 -3.2338456901538333 5.917455326686483 1 0 0
616 206 2 -1.1794 -7.276756069857653 -8.102517809395145 7.040868270025141 1 1 0
408 136 1 0.5897 -10.88165877677558 -5.221812907170673 9.643792028445205 1 0 0
661 221 2 -1.1794 -9.216410101923955 -4.605437533756768 12.993660275145642 0 0 0
788 263 1 0.5897 -4.569714463486329 -4.670582380011654 15.538004796133379 0 0 0
780 260 1 0.5897 -7.029396962399893 -3.9387810434874293 15.135003001282659 0 0 0
779 260 1 0.5897 -6.932864469130115 -2.816273804304287 14.123670299575632 0 0 0
778 260 2 -1.1794 -7.53466503038544 -3.225087778903222 14.745764826199181 0 0 0
684 228 1 0.5897 -8.274438825694897 -6.610721475507853 14.28960089044474 0 0 0
662 221 1 0.5897 -8.76471002724025 -4.151331318705484 13.705042798220259 0 0 0
652 218 2 -1.1794 -5.631980126378589 -5.39239781801991 12.845173246678751 0 0 0
654 218 1 0.5897 -6.125971182894219 -5.026388692319712 12.111524030170404 0 0 0
653 218 1 0.5897 -6.276433933568259 -5.898630786706025 13.33981902146567 0 0 0
740 247 1 0.5897 -10.72826105068523 -3.6288081296374717 12.198732685168261 1 0 0
768 256 1 0.5897 -9.686104144523178 -2.6917476051292013 14.705331704669995 0 0 0
682 228 2 -1.1794 -7.705618912125297 -7.093928016830366 13.690322082867254 0 0 0
663 221 1 0.5897 -8.554008795601316 -4.697624714720904 12.308864399670789 0 0 0
758 253 1 0.5897 -9.216224405519991 -5.339766695828676 16.298689340255606 0 0 0
766 256 2 -1.1794 -10.463886188381904 -2.143401158378037 14.807326344301607 0 0 0
767 256 1 0.5897 -11.192871368735034 -2.7130017261497494 14.561677811488256 0 0 0
729 243 1 0.5897 -7.795758304675798 -7.248023146954476 11.812218705636514 1 0 0
757 253 2 -1.1794 -9.563744122258889 -6.002508162576909 15.701773273993206 0 0 0
739 247 2 -1.1794 -11.423609626520232 -3.1291892084873165 11.770969766345523 1 0 0
351 117 1 0.5897 -7.395249207027481 -3.244163427844393 11.228737805490539 0 0 0
727 243 2 -1.1794 -7.89725907435453 -7.661094314958312 10.954665122928088 1 0 0
349 117 2 -1.1794 -7.352982729809549 -4.171882719196013 10.996747532058256 0 0 0
1142 381 1 0.5897 -8.316234866511865 -6.307221831961172 20.907973178637967 0 0 0
1089 363 1 0.5897 -6.274622154634789 -4.791395724563863 17.47173044705621 0 0 0
1227 409 1 0.5897 -8.853394328357615 -2.9552734479001277 20.93179337919147 0 0 0
1121 374 1 0.5897 -4.8712372197476235 -3.4357586383788163 18.681127971291716 0 0 0
1108 370 2 -1.1794 -9.226595126513931 -4.286737319243222 18.12500678486507 0 0 0
1219 407 2 -1.1794 -10.306462267715933 -1.997293743856 20.71880317732729 0 0 0
1152 384 1 0.5897 -6.716087895083211 -4.051197065132828 20.123289255057813 0 0 0
1248 416 1 0.5897 -5.62255686438872 -1.5046640062646333 20.439372864791267 0 0 0
1151 384 1 0.5897 -5.764886944730412 -5.1921072564857855 19.83153185489668 0 0 0
1150 384 2 -1.1794 -6.148812456805188 -4.407719957746805 19.439698938298847 0 0 0
1109 370 1 0.5897 -8.547937735812152 -3.6117570297437824 18.11566925625938 0 0 0
1129 377 2 -1.1794 -7.583856818313757 -1.9755344410599696 17.70019871399201 0 0 0
1131 377 1 0.5897 -7.001434589666028 -2.198310309975758 16.97398766893135 0 0 0
1225 409 2 -1.1794 -7.980075926114251 -3.265586016699065 21.170683018445942 0 0 0
1097 366 1 0.5897 -8.320472868563792 -5.830428282595621 18.840910969393015 0 0 0
1087 363 2 -1.1794 -6.239233226917623 -5.117104115055084 16.572288078055742 0 0 0
1143 381 1 0.5897 -8.508770392355263 -5.00269737163775 21.651697060189456 0 0 0
1088 363 1 0.5897 -6.341691311070831 -6.065135495475517 16.65616642352952 0 0 0
1110 370 1 0.5897 -10.050063148077 -3.7991967191652893 18.10931946309774 0 0 0
1130 377 1 0.5897 -7.019827826916133 -1.5299475222580536 18.332336406304222 0 0 0
259 87 2 -1.1794 -4.726059006062087 -2.4863072857195565 21.667296023858015 1 1 -1
1221 407 1 0.5897 -10.62313768875642 -2.0370445212553587 19.81633232882706 0 0 0
260 87 1 0.5897 -4.8509105614254775 -3.4348031725184445 21.69993993957968 1 1 -1
258 86 1 0.5897 -12.292868879465184 -2.5433929474603554 1.3488479254956782 1 1 0
44 15 1 0.5897 -9.90358019009194 1.1426232964749161 0.391530317497195 1 0 0
272 91 1 0.5897 -9.524085747373713 -0.9290992797619371 1.253413423501466 1 1 0
69 23 1 0.5897 -10.952338442049905 -2.783620522589077 3.6794728182982177 1 0 0
301 101 2 -1.1794 -8.018496585616752 -2.0028319932228724 1.7555352976823162 1 1 0
83 28 1 0.5897 -9.908412847188856 -0.7789322229322213 4.354093931484491 1 0 0
84 28 1 0.5897 -8.501015374703758 -0.2285958953853111 4.264156949368236 1 0 0
271 91 2 -1.1794 -10.33485687094588 -0.5333657061916863 0.933859304901908 1 1 0
98 33 1 0.5897 -12.392376938075017 0.4483700843356946 4.512989949950916 1 0 0
54 18 1 0.5897 -11.747240155130712 0.025516753113841162 2.101545003944632 1 0 0
53 18 1 0.5897 -12.715803315803026 1.1648753486556096 2.3367398885131347 1 0 0
52 18 2 -1.1794 -12.416190833835845 0.33657627326108397 2.711395940175641 1 0 0
68 23 1 0.5897 -11.437419299039593 -2.6403658572880957 5.106466525722595 1 0 0
67 23 2 -1.1794 -10.650679571625243 -2.5794048898031647 4.564701893344031 1 0 0
82 28 2 -1.1794 -9.398023854191617 0.01989336339817882 4.487061848802403 1 0 0
107 36 1 0.5897 -9.792812480219816 1.6228841758447299 3.5897874397765106 1 0 0
97 33 2 -1.1794 -12.22569360548757 0.6847282735593403 5.42551118538599 1 0 0
256 86 2 -1.1794 -11.922587479286317 -3.2266693982844172 1.9076353452347068 1 1 0
99 33 1 0.5897 -12.186685374725734 1.6411482851314965 5.422418185527829 1 0 0
281 94 1 0.5897 -8.834192646061064 -3.5601549776023518 1.5068203632705979 1 1 0
273 91 1 0.5897 -10.709549330407736 -1.1924630674808565 0.3494771839511501 1 1 0
59 20 1 0.5897 -13.785372909565158 -0.7091431832016379 3.596712440383144 1 0 0
1249 417 2 -1.1794 -13.786895298154313 -1.7812303795750433 0.2065398831268216 0 0 1
257 86 1 0.5897 -12.662724642925907 -3.5381129287331667 2.4286254323950742 1 1 0
426 142 1 0.5897 -8.855814634632939 -1.6234662150959709 7.563654821860762 1 0 0
536 179 1 0.5897 -9.71249312898184 -0.042726958455105546 10.250867496164755 1 0 0
528 176 1 0.5897 -12.337951568694892 0.42446651024101456 9.88716174532359 1 0 0
402 134 1 0.5897 -10.84772641980428 -0.3429280280557663 6.670162108416897 1 0 0
401 134 1 0.5897 -11.384744171563462 -1.1032599243743668 7.864180446933402 1 0 0
400 134 2 -1.1794 -10.572711463359362 -0.7726876360240151 7.480078495450724 1 0 0
527 176 1 0.5897 -12.04501637157041 1.6251602703096921 9.012729087096341 1 0 0
526 176 2 -1.1794 -12.751339102199829 1.035996660715238 9.277783371145317 1 0 0
424 142 2 -1.1794 -7.972058358462529 -1.9354393634492313 7.369524534459819 1 0 0
537 179 1 0.5897 -9.669438650868758 0.012750210926743222 8.738491304693635 1 0 0
435 145 1 0.5897 -7.599862861270898 -0.8426977622547884 9.9885352734954 0 0 0
535 179 2 -1.1794 -9.178238867221829 0.2673799374157575 9.519633578337881 1 0 0
415 139 2 -1.1794 -8.724451832815278 1.590385492196246 6.561062068411478 1 0 0
411 137 1 0.5897 -13.581398340965148 0.13779195348456064 6.466583578571564 1 0 0
522 174 1 0.5897 -10.174698107888515 2.2979190963724285 7.394153591140368 1 0 0
417 139 1 0.5897 -8.979076767532252 1.0069768358871922 5.846140669684976 1 0 0
425 142 1 0.5897 -7.4372526802783785 -1.1418939794109502 7.345863854017627 1 0 0
760 254 2 -1.1794 -8.854268713458751 1.8722187663176513 12.593193371308057 0 0 0
790 264 2 -1.1794 -10.923422373783781 0.3552420245754746 13.767811958984105 0 0 0
791 264 1 0.5897 -10.786458985703035 -0.5671921979218961 13.983699833308947 0 0 0
836 279 1 0.5897 -11.322121121549179 -1.409209409123803 11.207917594375399 1 0 0
762 254 1 0.5897 -9.41214048873276 2.1613700749846743 11.87111746681452 0 0 0
761 254 1 0.5897 -9.429355927099891 1.339366547097745 13.142410441791762 0 0 0
769 257 2 -1.1794 -12.81683959563468 2.6047559176504187 12.495760829521132 0 0 0
792 264 1 0.5897 -11.56055506178649 0.6606980402011242 14.413501975874137 0 0 0
837 279 1 0.5897 -11.423491769366795 -0.07521699280944105 11.916564324121643 1 0 0
770 257 1 0.5897 -12.225929619287431 2.773993932134573 13.229545307801788 0 0 0
888 296 1 0.5897 -10.81508297997682 3.1506400302881197 15.29942258998389 0 0 0
866 289 1 0.5897 -12.723677388644424 1.5411925840340928 16.162691003705753 0 0 0
896 299 1 0.5897 -7.937299966773561 2.6653452237502933 15.53837742382303 0 0 0
771 257 1 0.5897 -12.294809689855509 2.7992127559359687 11.717318238535977 0 0 0
835 279 2 -1.1794 -11.472656908505309 -0.4773261931914554 11.049252630144348 1 0 0
1099 367 2 -1.1794 -9.89808611197143 -0.642037440427405 17.190983116111994 0 0 0
1206 402 1 0.5897 -11.49912058499204 -0.14865821146637614 18.403700469117403 0 0 0
1216 406 2 -1.1794 -12.608000972686712 2.549569790439648 17.741806656922847 0 0 0
1259 420 1 0.5897 -8.958132674394713 1.8657188424220017 19.647483153208 0 0 0
1258 420 2 -1.1794 -9.152964173514505 2.7507033747865517 19.339126335896218 0 0 0
1236 412 1 0.5897 -7.642087084019024 -0.13031358724181707 20.367345580957625 0 0 0
1246 416 2 -1.1794 -6.059392285153411 -0.9058296638021623 19.833740987012206 0 0 0
1100 367 1 0.5897 -9.023196504069704 -1.0082483426645368 17.319313031395204 0 0 0
1234 412 2 -1.1794 -8.421496850180418 0.31283547245046783 20.702285125163613 0 0 0
1250 417 1 0.5897 -11.699873037079897 0.6457660042632352 21.058635676060277 0 0 0
1204 402 2 -1.1794 -11.956536156881365 0.30698967117172415 19.11033462187315 0 0 0
1196 399 1 0.5897 -9.702487989885654 1.3530426102588802 16.436750098101534 0 0 0
1217 406 1 0.5897 -11.993287146891902 3.274299816807755 17.85658922664998 0 0 0
1260 420 1 0.5897 -9.856149306526886 3.055191045112174 19.912693438794747 0 0 0
1197 399 1 0.5897 -9.600936336554721 2.5592938559657306 17.34598584292221 0 0 0
1235 412 1 0.5897 -9.072388996408598 -0.38301316661946316 20.79386410527156 0 0 0
1009 337 2 -1.1794 -11.165748835666813 3.709376258593826 20.914319665333146 0 -1 0
1011 337 1 0.5897 -12.031310800678662 4.026599592898027 20.65701539327287 0 -1 0
1205 402 1 0.5897 -12.273242333974279 1.1160228045051053 18.708607454442934 0 0 0
1195 399 2 -1.1794 -9.759825594391923 2.3085368800674857 16.435919610232737 0 0 0
1101 367 1 0.5897 -10.280402627326382 -1.1730485778594844 16.492296348241318 0 0 0
1251 417 1 0.5897 -11.625588448375348 2.0240580610252845 21.680600679085302 0 0 0
1229 410 1 0.5897 -7.887857547916379 3.6625023340371055 18.549819741623395 0 0 0
1010 337 1 0.5897 -10.916392339510328 4.2647795953019525 21.65300420280103 0 -1 0
55 19 2 -1.1794 -13.636026413501767 6.426802713654949 0.8745203126941836 1 0 0
66 22 1 0.5897 -14.175494912499346 2.9196951400507043 1.33546356850115 1 0 0
191 64 1 0.5897 -12.827970818114826 6.316934513143728 4.202706106511296 1 0 0
56 19 1 0.5897 -13.02801723267061 6.005300329207525 1.4818329806207615 1 0 0
65 22 1 0.5897 -12.727558751988127 3.352867108258648 1.4220948234561879 1 0 0
64 22 2 -1.1794 -13.282097503107666 2.576481682730501 1.3446556335837085 1 0 0
177 59 1 0.5897 -14.554700262608886 4.261526229218481 3.0247114930050376 1 0 0
181 61 2 -1.1794 -12.056121829599842 3.30610703468329 4.869524653196409 1 0 0
40 14 2 -1.1794 -15.705537939954286 3.6193991864725046 1.5571559264783033 1 0 0
183 61 1 0.5897 -12.812068841689982 3.653912565984271 4.396562177617095 1 0 0
43 15 2 -1.1794 -10.13999543243393 2.0667827331275497 0.470403760996861 1 0 0
85 29 2 -1.1794 -11.377560478693368 4.612621499225309 1.6816457705384755 1 0 0
42 14 1 0.5897 -16.157900621125698 4.280466620235657 1.033177432417383 1 0 0
175 59 2 -1.1794 -14.266636409465075 4.550349258959423 3.890694640375647 1 0 0
176 59 1 0.5897 -15.026407456529299 4.409820885648864 4.455665920077996 1 0 0
190 64 2 -1.1794 -12.28970825042995 7.030243118508839 3.8595380780164317 1 0 0
108 36 1 0.5897 -10.529026395531693 2.9364013766192585 3.7458604437451726 1 0 0
57 19 1 0.5897 -13.645275976194664 5.8538452750455185 0.10773607521027728 1 0 0
162 54 1 0.5897 -15.168375834622154 6.934405769966919 2.1854420805275065 1 0 0
45 15 1 0.5897 -9.993362033824372 2.2741272495252396 1.3933584700484556 1 0 0
167 56 1 0.5897 -17.113998946291066 6.309127353470505 3.2460613402558094 1 0 0
182 61 1 0.5897 -11.754986296599762 4.036004083516504 5.410709765908089 1 0 0
192 64 1 0.5897 -11.464335007243793 6.611814921766445 3.6151136595986877 1 0 0
106 36 2 -1.1794 -9.843815078320386 2.509228427630596 3.2319122847942996 1 0 0
508 170 2 -1.1794 -13.829881109728735 6.35275086906983 7.195407001296367 1 0 0
520 174 2 -1.1794 -10.802850881830791 2.737091869485898 7.967479608359996 1 0 0
510 170 1 0.5897 -14.174135398704879 6.960070165532233 6.540500278153024 1 0 0
509 170 1 0.5897 -14.605504382207124 6.027149234682147 7.652149672643469 1 0 0
543 181 1 0.5897 -10.705341792987017 6.237715513820527 9.921386699697194 0 0 0
643 215 2 -1.1794 -12.090322980279126 7.208248074315875 9.274867043893407 1 0 0
644 215 1 0.5897 -12.724795426649017 7.07833640895057 9.979724003222676 1 0 0
521 174 1 0.5897 -11.03793150537824 3.537178367817857 7.4975309482120736 1 0 0
534 178 1 0.5897 -12.314060694155119 5.438753977281298 6.888825166738109 1 0 0
532 178 2 -1.1794 -11.437033656025305 5.123759629970968 6.6705096794178855 1 0 0
645 215 1 0.5897 -12.57175511427246 6.993502885290187 8.47586638649654 1 0 0
636 212 1 0.5897 -15.323389149148813 7.433865064198823 9.626242085126476 1 0 0
519 173 1 0.5897 -16.77920307812659 7.459484001427025 6.403688279534291 1 0 0
458 153 1 0.5897 -10.643055894905482 3.1225087531028937 9.812137606461174 0 0 0
533 178 1 0.5897 -10.894881432124157 5.91256811074868 6.658295464758435 1 0 0
457 153 2 -1.1794 -10.668304827286386 3.252358981375007 10.76021385689215 0 0 0
459 153 1 0.5897 -10.368072894189147 4.152374636192906 10.887251409567423 0 0 0
900 300 1 0.5897 -14.476846173767447 7.939358397044181 14.354497826653988 0 0 0
898 300 2 -1.1794 -13.716492553418298 7.596951071902048 13.884704120711984 0 0 0
649 217 2 -1.1794 -15.982581593537446 8.215936769267866 15.41413221431222 0 -1 0
887 296 1 0.5897 -10.43396924911133 3.934785953622246 14.06165948496047 0 0 0
899 300 1 0.5897 -13.58813213860411 6.7189191657228875 14.243656566441452 0 0 0
945 315 1 0.5897 -14.008997394326368 7.171439391657149 12.132066259111424 1 0 0
874 292 2 -1.1794 -13.84819785909134 4.925137582913017 14.954737140513249 0 0 0
876 292 1 0.5897 -12.95571455216287 4.594676751368134 14.853260385803155 0 0 0
886 296 2 -1.1794 -11.189564999297538 3.580616365930254 14.53056750252501 0 0 0
944 315 1 0.5897 -14.608133447879926 5.996875474648496 11.388076317762357 1 0 0
848 283 1 0.5897 -14.442831711202555 3.571368055474043 12.161896674033805 1 0 0
943 315 2 -1.1794 -14.216553584316884 6.859563821402297 11.25116306615194 1 0 0
875 292 1 0.5897 -14.40383069228658 4.153691867364152 14.843314631103386 0 0 0
869 290 1 0.5897 -12.532085916323355 8.49888349210072 12.988767075167319 0 0 0
650 217 1 0.5897 -15.882584559334695 8.484922328182162 16.327360507887335 0 -1 0
980 327 1 0.5897 -12.749329536997053 8.248465901998241 16.6458977123062 0 -1 0
1208 403 1 0.5897 -12.570895455333064 5.870338750360904 17.55224665209157 0 0 0
990 330 1 0.5897 -14.45506766584903 7.096166520658091 18.41247415929228 0 -1 0
1043 348 1 0.5897 -12.213213221419547 9.225073694790812 19.78622245720677 0 -1 0
1018 340 2 -1.1794 -11.80285115817011 7.642368974521034 20.440466461422936 0 -1 0
1019 340 1 0.5897 -12.590999141190254 7.10259362086099 20.3797794773904 0 -1 0
1020 340 1 0.5897 -11.08057327198197 7.014491730664982 20.427925881725756 0 -1 0
1030 344 2 -1.1794 -9.56973172303432 6.117792768615569 20.149200557915123 0 -1 0
1237 413 2 -1.1794 -10.856126218113436 5.058411474846505 17.81019066178488 0 0 0
1034 345 1 0.5897 -15.0400382841982 7.683400100643826 20.490042908937937 0 -1 0
1239 413 1 0.5897 -10.19488924519439 5.3115997860993875 17.1660706612589 0 0 0
1238 413 1 0.5897 -10.515205819617375 5.381906323233446 18.6441195962002 0 0 0
1032 344 1 0.5897 -9.125220343550179 5.746233135906486 20.911176625379476 0 -1 0
1207 403 2 -1.1794 -13.294747661407996 6.3859213321634805 17.19686223170543 0 0 0
1003 335 2 -1.1794 -13.491345330645458 5.027226015338087 20.396292294839654 0 -1 0
989 330 1 0.5897 -15.415725790517431 8.252099484370415 18.5928361296847 0 -1 0
1035 345 1 0.5897 -14.847235973286093 8.99922873630506 21.213555188382017 0 -1 0
1209 403 1 0.5897 -13.57485156321614 5.9024600679728785 16.419611353853604 0 0 0
1033 345 2 -1.1794 -15.010547412667945 8.068423334228477 21.365950340350494 0 -1 0
174 58 1 0.5897 -17.2035538802727 10.079044705747474 1.691434867670121 1 0 0
173 58 1 0.5897 -15.724214329277718 10.394585627116587 1.631585527765507 1 0 0
172 58 2 -1.1794 -16.34424400358855 9.665664485579654 1.6092847705888442 1 0 0
161 54 1 0.5897 -16.03092203338658 8.170673772286637 2.3242907587660215 1 0 0
160 54 2 -1.1794 -15.72270765476949 7.40451927682129 2.808263050922607 1 0 0
284 95 1 0.5897 -17.741118505050878 11.73879147100249 5.093536099446923 1 0 0
148 50 2 -1.1794 -18.716077897456383 10.937333211595348 2.2689687331300474 1 0 0
289 97 2 -1.1794 -15.01769225482565 10.431751415377981 4.950239145009779 1 0 0
283 95 2 -1.1794 -17.14012020364861 11.864309045627774 4.359152682475198 1 0 0
291 97 1 0.5897 -15.852579152014048 10.781551746563135 4.639317401467631 1 0 0
150 50 1 0.5897 -18.848126844832933 11.603302686119186 1.5941742805847263 1 0 0
285 95 1 0.5897 -17.597450867991896 11.487225068441894 3.6075123856717095 1 0 0
216 72 1 0.5897 -13.605054968088314 9.874339719761029 3.7487401777664577 1 0 0
153 51 1 0.5897 -13.651653315114793 9.53545431042949 1.3226874679815974 1 0 0
205 69 2 -1.1794 -15.317293294024736 7.915614261601181 5.381536941628065 1 0 0
152 51 1 0.5897 -13.511966723663184 8.268783499376532 0.5053511729665336 1 0 0
215 72 1 0.5897 -12.639550988502743 8.786481351054263 3.329247835743507 1 0 0
151 51 2 -1.1794 -13.428095260491924 9.220534472911222 0.446810317526104 1 0 0
193 65 2 -1.1794 -14.783057874696357 12.113120599624636 1.5294316448827683 1 0 0
206 69 1 0.5897 -15.399485706213632 7.531216038932726 4.508723829827382 1 0 0
525 175 1 0.5897 -12.41868233356486 8.380760975231198 5.289711196564323 1 0 0
214 72 2 -1.1794 -12.966937910445758 9.648369171215712 3.0720182663813342 1 0 0
207 69 1 0.5897 -15.15480608768486 8.845043241825202 5.22010266842107 1 0 0
635 212 1 0.5897 -15.3705700412843 8.53020034880668 8.583203652622933 1 0 0
640 214 2 -1.1794 -14.565619429724535 11.966865253547383 7.172055937151892 1 0 0
566 189 1 0.5897 -13.594843379449555 9.92147603484646 9.683862760405363 0 0 0
630 210 1 0.5897 -13.321015422642272 9.189762260586615 7.229914053041357 1 0 0
629 210 1 0.5897 -14.162187323856141 10.258764325466576 7.894280002044905 1 0 0
628 210 2 -1.1794 -13.924017386794858 9.333949255861015 7.95918058538577 1 0 0
523 175 2 -1.1794 -12.13862112743631 8.889570230645674 6.050632604956336 1 0 0
327 109 1 0.5897 -13.857628761156564 13.298831012557258 9.69839958607276 0 -1 0
634 212 2 -1.1794 -15.909872810700417 8.080495696999087 9.233760642122066 1 0 0
565 189 2 -1.1794 -13.590598108233744 10.10258623987453 10.62382242014636 0 0 0
642 214 1 0.5897 -15.46571975820455 12.290686890303238 7.203633932962201 1 0 0
617 206 1 0.5897 -17.582713283599762 12.944053123180627 7.590356361989964 1 0 0
641 214 1 0.5897 -14.052067214190298 12.714812611006156 6.866891714497267 1 0 0
567 189 1 0.5897 -13.616053256078459 11.057534221254286 10.684324828861026 0 0 0
646 216 2 -1.1794 -18.925201147796926 12.106731444898887 8.45671237193482 1 0 0
290 97 1 0.5897 -14.73584841254614 11.048370264411993 5.626009633645555 1 0 0
624 208 1 0.5897 -17.42212102478731 9.15665960165077 9.576867899752742 1 0 0
728 243 1 0.5897 -17.69292351337857 12.836522884232885 11.150979171873619 1 -1 0
683 228 1 0.5897 -17.293966286598117 13.435604736876758 14.048148771408773 0 -1 0
877 293 2 -1.1794 -16.067644233546204 9.799596803909665 12.216805421119458 0 0 0
658 220 2 -1.1794 -16.826226739642323 11.768971256171636 14.949832793032298 0 -1 0
672 224 1 0.5897 -13.578607936798782 10.298247857408963 15.064654782861574 0 -1 0
671 224 1 0.5897 -13.706780560691215 11.172732382757427 13.835438848072146 0 -1 0
670 224 2 -1.1794 -14.214732034719695 10.612197605334504 14.422030142717535 0 -1 0
660 220 1 0.5897 -15.956990440669667 11.368427560314132 14.9493797498265 0 -1 0
659 220 1 0.5897 -17.427446809027195 11.037379313192854 15.089780511538066 0 -1 0
878 293 1 0.5897 -15.460983915437412 10.035153379791005 12.918755926006154 0 0 0
879 293 1 0.5897 -15.504780032639484 9.61437478733226 11.465064291623948 0 0 0
870 290 1 0.5897 -12.473903492668622 9.459781854878894 11.820251676606778 0 0 0
956 319 1 0.5897 -17.451530525434116 10.850574237089102 12.023382269316526 1 0 0
680 227 1 0.5897 -11.171938844232738 9.276583834026749 15.415932063071194 0 -1 0
868 290 2 -1.1794 -11.954864886228751 9.124867360002565 12.551457107650931 0 0 0
993 331 1 0.5897 -16.334643383170345 13.097561958132633 16.32318047669493 0 -1 0
1022 341 1 0.5897 -13.463406497717589 12.332494360760421 18.797647449679083 0 -1 0
1117 373 2 -1.1794 -14.609702991756931 10.761621494979472 21.02566581644531 0 -1 0
992 331 1 0.5897 -15.461212516053013 13.117202397313374 17.559586822531863 0 -1 0
1140 380 1 0.5897 -12.060656390381737 12.925362758709301 20.769199707345372 0 -1 0
1119 373 1 0.5897 -15.38135358573467 11.243125893357366 20.727693989117043 0 -1 0
1126 376 2 -1.1794 -15.024502289711027 14.654122299210066 20.448504622222444 0 -1 0
1000 334 2 -1.1794 -15.506797926762179 9.823922956383068 17.751763539216356 0 -1 0
1138 380 2 -1.1794 -12.69585015674367 13.367493340280053 20.20599135197312 0 -1 0
1127 376 1 0.5897 -15.682778837488653 14.04387474657917 20.11607039348344 0 -1 0
981 327 1 0.5897 -12.790934256674959 9.398755122494368 17.629347499210397 0 -1 0
1023 341 1 0.5897 -13.233448687701935 12.458544655829865 17.306543175533633 0 -1 0
1111 371 2 -1.1794 -16.76027424238582 12.216784459557108 20.485153917521394 0 -1 0
1002 334 1 0.5897 -16.275103180166255 10.391460751235815 17.81233167868892 0 -1 0
1044 348 1 0.5897 -13.221467931776363 10.35066371064968 19.875782003914516 0 -1 0
1001 334 1 0.5897 -14.763192932547287 10.42663382996783 17.745901762264552 0 -1 0
1021 341 2 -1.1794 -13.91017362707965 12.261163108068551 17.954082845958673 0 -1 0
1128 376 1 0.5897 -14.187094805064046 14.235828496644068 20.248938286939612 0 -1 0
991 331 2 -1.1794 -16.186007062704043 13.578315374317171 17.13750210070591 0 -1 0
1098 366 1 0.5897 -17.366997842227814 14.240943792694761 18.443703247300263 0 -1 0
1042 348 2 -1.1794 -12.520365177138803 10.004714779206413 19.32357962610216 0 -1 0
1139 380 1 0.5897 -12.167561797939758 13.76318825536142 19.51271460229571 0 -1 0
1113 371 1 0.5897 -17.043600656386268 11.800557119864695 19.671019828619983 0 -1 0
979 327 2 -1.1794 -12.598740939122534 9.191265702085758 16.714828959462338 0 -1 0
1096 366 2 -1.1794 -17.848516422924035 14.682508147212413 19.14325789376005 0 -1 0
1118 373 1 0.5897 -14.261721939228355 11.287772281697137 21.745661488143007 0 -1 0
310 104 2 -1.1794 -3.586872724492019 -8.449273709985436 3.7765083224831058 1 1 0
311 104 1 0.5897 -2.912110574873103 -7.849893258744064 3.4576248679974695 1 1 0
305 102 1 0.5897 -1.5480644964685144 -5.688664893486468 2.459336626672996 1 1 0
304 102 2 -1.1794 -1.66324713340207 -6.638854796067662 2.4465263140476137 1 1 0
316 106 2 -1.1794 -2.0104578480493593 -4.104854881650628 1.3818171067559113 1 1 0
242 81 1 0.5897 -1.0748213990196707 -7.007911122800294 4.549743454713069 0 1 0
306 102 1 0.5897 -0.9642926960169866 -6.95760448774173 1.875550080146202 1 1 0
199 67 2 -1.1794 0.4660461215840428 -7.999890298569727 0.4734338907478071 1 1 0
3 1 1 0.5897 -1.7121279851317652 -3.649117881687804 4.274082551099801 0 0 0
318 106 1 0.5897 -2.876430446830982 -3.7925522176255466 1.643773293581079 1 1 0
1 1 2 -1.1794 -0.9694497184022097 -4.063755023971964 4.7129601167815025 0 0 0
293 98 1 0.5897 -5.318576958802172 -3.5945508003106914 2.261430306642547 1 1 0
241 81 2 -1.1794 -1.0908821754723252 -6.715314175826232 5.4610468935966745 0 1 0
243 81 1 0.5897 -1.023692219052764 -5.761910519432413 5.408188896709779 0 1 0
1262 421 1 0.5897 -2.3903155534937817 -5.8558663411492375 0.082649849617428 0 0 1
348 116 1 0.5897 -1.1006428533364332 -6.60219750914042 9.881531799632356 0 0 0
347 116 1 0.5897 -1.0783628677534747 -5.542196392084742 8.800785303353235 0 0 0
346 116 2 -1.1794 -1.6752673387541002 -6.065453191615678 9.33576787708913 0 0 0
336 112 1 0.5897 -3.5004980875177676 -5.129606169548108 9.498566975696441 0 0 0
632 211 1 0.5897 -4.587979580132028 -5.840281447902076 6.715040708457377 1 1 0
334 112 2 -1.1794 -4.380457230303542 -4.772190106656724 9.616768434279729 0 0 0
555 185 1 0.5897 -2.63306211217183 -7.077831990842898 6.27114254490049 0 1 0
546 182 1 0.5897 -0.054017071675557915 -7.534588801228386 6.736425965235549 0 1 0
554 185 1 0.5897 -2.7797977913476597 -7.075499082575563 7.7780160144295385 0 1 0
335 112 1 0.5897 -4.960897223525576 -5.527491031342358 9.522445896315059 0 0 0
553 185 2 -1.1794 -3.286129516953565 -7.139754046574309 6.96821287238031 0 1 0
404 135 1 0.5897 -5.522174874049528 -3.392457250606829 5.693217188781907 1 0 0
359 120 1 0.5897 -4.741361976853673 -3.0796939608555594 8.777523491446088 0 0 0
631 211 2 -1.1794 -5.2920150442435965 -5.310254803330928 6.3415260586289826 1 1 0
544 182 2 -1.1794 0.41444443855308677 -8.052624769702623 7.390949623664957 0 1 0
356 119 1 0.5897 1.4713280824610315 -7.069848738856096 10.013092159417944 0 0 0
793 265 2 -1.1794 -1.914518682050895 -6.102082080523237 15.183902132228438 0 0 0
787 263 2 -1.1794 -3.9958376195706276 -4.3829406126285875 14.827931367622194 0 0 0
718 240 2 -1.1794 0.3996538049094145 -6.8569165026468255 13.75861008298869 0 0 0
795 265 1 0.5897 -2.6346472131780097 -5.672279633902988 14.72259904136872 0 0 0
816 272 1 0.5897 0.31166250795473616 -4.01971823028924 15.038292945876712 0 0 0
668 223 1 0.5897 -3.1477011585241748 -3.271689543425075 11.676726750506129 0 0 0
667 223 2 -1.1794 -3.9516046664003097 -2.8095284033704315 11.43964788694953 0 0 0
697 233 2 -1.1794 -1.7136160747177662 -4.363702555168794 12.450713121182487 0 0 0
802 268 2 -1.1794 -2.478387575196626 -2.2972241775852895 14.63726933502294 0 0 0
677 226 1 0.5897 -2.5917684518947475 -6.049712066349787 12.409765975742596 0 0 0
699 233 1 0.5897 -0.9997194485686922 -4.277451293117262 11.818944815515142 0 0 0
676 226 2 -1.1794 -3.155872355704834 -6.821723208467112 12.455159961460701 0 0 0
678 226 1 0.5897 -4.043316377596091 -6.467526429281862 12.510027719461496 0 0 0
655 219 2 -1.1794 -0.0008950137859518037 -7.428241285468722 11.15459571009095 0 0 0