LAMMPS data file via write_data, version 30 Jul 2021, timestep = 4750000

864 atoms
2 atom types
576 bonds
1 bond types
288 angles
1 angle types

0.4338960111908001 17.773676388803196 xlo xhi
1.6026034582631237 22.026574341735856 ylo yhi
0.5293521201865499 21.683843679810423 zlo zhi

Masses

1 1.00794
2 15.9994

Pair Coeffs # lj/cut/tip4p/long/omp

1 0 0
2 0.21084 3.1668

Bond Coeffs # harmonic/omp

1 450 0.9572

Angle Coeffs # harmonic/omp

1 55 104.52

Atoms # full

129 1 1 0.5897 2.396751490613421 3.040363610908182 5.24949723051278 -1 1 -4
387 1 1 0.5897 3.7333156250659747 5.809454744652295 5.163958559561405 -3 1 1
128 1 1 0.5897 3.713605289946182 2.915147575623017 4.513131208647787 -1 1 -4
51 1 1 0.5897 4.411935259232357 4.118433059678409 0.8822152751233314 9 1 0
732 1 1 0.5897 2.0696737210876686 3.8461979692536987 3.263287060907198 2 2 -3
49 1 2 -1.1794 4.131744392951292 3.203254566051199 0.8971511791295189 9 1 0
127 1 2 -1.1794 2.849011431012276 2.5119282412048274 4.591804653618641 -1 1 -4
731 1 1 0.5897 1.1579409918964285 5.041862176291106 3.4398340310654665 2 2 -3
574 1 2 -1.1794 1.288423290609387 1.9946521828589232 1.0105187479182838 2 0 2
36 1 1 0.5897 3.27716424414136 6.047539207093017 0.6478535933577284 -5 1 -1
35 1 1 0.5897 1.9719578987620847 5.514607175666063 1.1996015213860878 -5 1 -1
425 1 1 0.5897 0.6299395307020137 5.916442591798918 5.71395115090814 8 -3 0
50 1 1 0.5897 3.267277285362412 3.223603368997269 1.307716147358824 9 1 0
385 1 2 -1.1794 4.151897599418847 4.962331377441261 5.317143791670311 -3 1 1
730 1 2 -1.1794 1.6068621397698961 4.524417943235237 2.7712410549761994 2 2 -3
424 1 2 -1.1794 0.5788727183519919 6.1258104607650745 4.781301115245947 8 -3 0
576 1 1 0.5897 0.5230798119873228 2.4576658819444757 1.3513581573851141 2 0 2
409 1 2 -1.1794 2.4993505214371385 1.7587348389216828 7.72056916805645 5 3 -6
832 1 2 -1.1794 4.509656832185608 2.8292465267368954 10.443635749975439 4 -2 1
668 1 1 0.5897 4.049766563729928 4.98414932561979 8.55750361145231 -8 -3 0
834 1 1 0.5897 4.4046954396325155 1.9032684893135894 10.224944835901406 4 -2 1
833 1 1 0.5897 3.7021045103962504 3.060475086195134 10.902623391280368 4 -2 1
211 1 2 -1.1794 1.2633021795528983 3.800829083811562 6.590970207260389 4 1 2
411 1 1 0.5897 3.4480746310644905 1.639267158892927 7.676680263032166 5 3 -6
323 1 1 0.5897 2.111968048340578 6.541917938860217 8.505914042753304 7 -3 -1
213 1 1 0.5897 1.6488216059189216 3.068171269603549 7.071455206021306 4 1 2
212 1 1 0.5897 1.1379334183551757 4.481841889281777 7.251876708861775 4 1 2
803 1 1 0.5897 1.0492218342108317 3.928550709589482 10.823508162544153 6 3 -3
322 1 2 -1.1794 3.0112463223403485 6.481591721915674 8.828308064957358 7 -3 -1
386 1 1 0.5897 4.250071070886169 4.911575674075303 6.267980131165402 -3 1 1
221 1 1 0.5897 3.4947005830198083 6.519561334131972 11.006004737697506 4 -2 3
313 1 2 -1.1794 0.4459563430289073 6.390008087788033 7.649780251495614 -1 -1 -2
804 1 1 0.5897 1.5228567800978599 3.640753272263762 12.232371113446572 6 3 -3
490 1 2 -1.1794 3.453012455545576 4.7239623071244 14.86214384558011 0 5 3
491 1 1 0.5897 3.9212451718821066 4.553294525161249 14.04488659468282 0 5 3
132 1 1 0.5897 1.7148145209608852 6.177890788088879 12.108522117385705 -4 2 1
422 1 1 0.5897 4.697713958019313 2.3232665577169525 13.49917092281065 -4 2 3
492 1 1 0.5897 3.9551167608292292 4.255194000362795 15.528802004741461 0 5 3
263 1 1 0.5897 1.758242469682096 4.163301960421 14.260054761224767 3 -2 5
262 1 2 -1.1794 0.9457413136158259 3.9232292755866736 13.814507409030094 3 -2 5
264 1 1 0.5897 0.6972354701768388 4.709495973433986 13.328382988759603 3 -2 5
130 1 2 -1.1794 0.8274947696193036 6.440558443762456 12.35336070376679 -4 2 1
220 1 2 -1.1794 3.6535031579201265 6.293121404742285 11.922434144346715 4 -2 3
257 1 1 0.5897 1.1281762618491926 5.057992779572158 16.144069830667014 -2 -1 0
802 1 2 -1.1794 1.6648815643859203 3.389127568712569 11.31978354148441 6 3 -3
27 1 1 0.5897 4.572180766277138 1.8665345585895126 15.286533050494947 0 7 5
721 1 2 -1.1794 2.747430062381758 5.213302693229399 18.810264203653496 1 0 0
258 1 1 0.5897 1.3179749408276937 4.673792201249099 17.596100379403467 -2 -1 0
767 1 1 0.5897 4.634457398375529 2.6284353506744145 17.601123926434425 0 -2 0
256 1 2 -1.1794 0.7914153239452839 4.472604236604008 16.822446235006545 -2 -1 0
34 1 2 -1.1794 2.3404543967812814 5.994676488778301 21.61245997739244 -5 1 -2
752 1 1 0.5897 3.173585999258734 1.8052471911846548 19.214147652200296 3 2 -2
753 1 1 0.5897 3.7418632591602825 2.5597617749705743 20.39729573701881 3 2 -2
723 1 1 0.5897 3.0118117473373758 4.323515078773209 19.04406330647911 1 0 0
751 1 2 -1.1794 3.692866195038839 2.576597653800864 19.441462382617104 3 2 -2
722 1 1 0.5897 2.471720771683322 5.607067582717087 19.638040089238892 1 0 0
351 1 1 0.5897 0.6541237967686279 2.8277644874965384 16.908601950567785 -10 1 -3
674 1 1 0.5897 0.6808297089603682 3.283288234393023 20.570602753802945 -3 -1 -5
857 1 1 0.5897 4.629393547121058 5.858451753333809 19.22868698892291 0 0 -2
349 1 2 -1.1794 0.4977246668402625 1.8952275586070129 17.057568143745826 -10 1 -3
42 1 1 0.5897 3.0057929969213757 8.03236212859196 4.007564763318943 -2 1 4
516 1 1 0.5897 2.0798185166286007 8.784660122369239 2.32787679889658 -3 -4 0
40 1 2 -1.1794 2.951328720894251 7.3265991223428 4.651938993428664 -2 1 4
225 1 1 0.5897 1.4460977819739935 9.976710025758486 5.206817959073192 3 -1 -8
515 1 1 0.5897 2.878622612664793 10.024044229443641 2.671162276257952 -3 -4 0
514 1 2 -1.1794 2.949212289465706 9.07155642524867 2.607388151162263 -3 -4 0
41 1 1 0.5897 2.0254950252798816 7.0837832128593385 4.664256782465649 -2 1 4
615 1 1 0.5897 4.75985044763521 9.266620722095329 1.6124562333510555 -6 1 5
811 1 2 -1.1794 4.455159216216238 11.382410753854 5.044064856890635 -4 4 -3
812 1 1 0.5897 3.8576723547073533 11.791115845083729 4.417767762475556 -4 4 -3
224 1 1 0.5897 2.28190110789256 8.78166310251102 5.613390165746529 3 -1 -8
599 1 1 0.5897 1.7816439488694822 9.380473595249368 9.79994278227456 0 -3 -5
827 1 1 0.5897 4.554708298510304 8.738110297097755 6.542916929165172 1 2 2
223 1 2 -1.1794 1.858025449594672 9.564135947550195 5.966011320280612 3 -1 -8
598 1 2 -1.1794 2.4582087445629592 9.841607556493154 9.304063038513764 0 -3 -5
600 1 1 0.5897 2.748815459038859 9.20797582544012 8.648061981453688 0 -3 -5
826 1 2 -1.1794 4.414988509036344 8.222665371303194 7.337319648330874 1 2 2
281 1 1 0.5897 4.112632069706948 9.064431703755876 10.102290369301167 -3 -1 1
324 1 1 0.5897 3.5281599263597796 6.974850668782257 8.191296126148053 7 -3 -1
59 1 1 0.5897 2.855772565742487 11.073364841956565 7.932462415977422 4 -1 -3
447 1 1 0.5897 3.2145031221742872 11.40769844592859 11.099564273036481 1 0 -2
813 1 1 0.5897 4.019140076339265 11.480131857430628 5.89059840127726 -4 4 -3
168 1 1 0.5897 2.2542789255790945 10.647141325225245 13.143793693110226 -1 1 4
207 1 1 0.5897 1.772883002156682 7.442665874255491 15.525985472422736 -4 3 -4
167 1 1 0.5897 3.587006393281676 11.352121672613956 13.281461404972182 -1 1 4
797 1 1 0.5897 4.004628189524248 7.892998697226108 14.570863141847369 0 -4 -2
166 1 2 -1.1794 3.1872267453058982 10.54596431924467 12.954918253360153 -1 1 4
222 1 1 0.5897 3.771747424887799 7.135803252358356 12.360823133613925 4 -2 3
798 1 1 0.5897 3.757106822294089 8.930325473998842 13.496289485013104 0 -4 -2
205 1 2 -1.1794 0.9848485047055929 7.250046638597136 15.017861574733336 -4 3 -4
796 1 2 -1.1794 4.306069102906845 8.175061322910679 13.707233807582462 0 -4 -2
202 1 2 -1.1794 3.3964071334811163 7.633328831453812 16.28495483998777 -7 2 1
592 1 2 -1.1794 0.6423575716207295 11.515696136343065 13.679362946773898 -1 -1 -3
131 1 1 0.5897 0.9377861937220909 6.92515685495722 13.171454824263089 -4 2 1
126 1 1 0.5897 1.0896432870178403 10.21222357611866 20.905724577444303 2 2 4
413 1 1 0.5897 2.2010730768685622 8.487932389201415 19.252416987389545 2 -2 2
125 1 1 0.5897 1.8747060892782808 11.476145224540419 20.626063758784397 2 2 4
355 1 2 -1.1794 1.0751361709454001 8.263322047424055 20.57482032587903 0 -1 4
124 1 2 -1.1794 1.2087669068749336 11.112146840522598 21.209430141564297 2 2 4
356 1 1 0.5897 1.6366864599746076 7.656698434635984 21.057467096437193 0 -1 4
414 1 1 0.5897 3.6321994713708023 8.927175123502632 19.026584547591305 2 -2 2
204 1 1 0.5897 3.2822343621721854 8.088214141874655 17.11942531581446 -7 2 1
412 1 2 -1.1794 2.7717277674444376 8.90634115386213 18.607738175147006 2 -2 2
228 1 1 0.5897 1.7850489876539875 10.431585536674174 17.95302884372945 3 -1 2
226 1 2 -1.1794 1.3126511736229909 11.086677931446145 17.43924530500243 3 -1 2
227 1 1 0.5897 1.0083776449107147 11.724401857117918 18.08500608477228 3 -1 2
203 1 1 0.5897 3.976407564733643 6.8996472758467045 16.48895106122579 -7 2 1
268 1 2 -1.1794 1.6340407534912094 15.677241586881522 5.359509979169329 1 5 6
269 1 1 0.5897 2.1039695043201663 15.553899631171387 4.534723358135149 1 5 6
660 1 1 0.5897 0.48422921894009563 15.595208525557087 0.5895279596556238 2 -2 4
121 1 2 -1.1794 4.045791296137019 15.633858725483632 4.036624443125675 1 -2 1
270 1 1 0.5897 0.7560970530769587 15.953558072227965 5.096516506515696 1 5 6
123 1 1 0.5897 3.8975306975513546 16.511254168559898 3.68380087426789 1 -2 1
238 1 2 -1.1794 3.2089961624388064 11.908520136669374 2.829791159714008 -6 -5 -1
239 1 1 0.5897 3.785414828830688 12.577713838070842 2.4607383473287747 -6 -5 -1
830 1 1 0.5897 0.4987584157573324 12.151349656701054 1.3204136001412863 4 2 5
240 1 1 0.5897 2.329989636032894 12.279477557039911 2.752032642889295 -6 -5 -1
193 1 2 -1.1794 3.3205329831985346 15.940798005628924 8.740090517778592 1 -4 0
195 1 1 0.5897 3.52040489865354 16.013318636864124 9.67341813794696 1 -4 0
445 1 2 -1.1794 3.518161218846317 12.208954546644376 10.672845628018523 0 0 -2
791 1 1 0.5897 1.38075571489621 14.056659067009898 5.850579137303481 1 5 -2
60 1 1 0.5897 2.442043215853879 12.370125154481187 7.269671279551482 4 -1 -3
58 1 2 -1.1794 3.1740507459255123 11.95138954822098 7.72257469951381 4 -1 -3
790 1 2 -1.1794 1.033732664247863 13.211346214878759 6.135759967027404 1 5 -2
194 1 1 0.5897 2.675215101765782 16.629118575862 8.578669603499861 1 -4 0
116 1 1 0.5897 0.5282216271865886 13.621778928226025 10.899441051290927 0 -3 3
446 1 1 0.5897 3.5466856344081865 11.988943278638105 9.74168541326931 0 0 -2
117 1 1 0.5897 1.9787287535294769 13.221996660914433 11.067461770978435 0 -3 3
115 1 2 -1.1794 1.300778110607274 13.785563605482027 11.440374564392764 0 -3 3
99 1 1 0.5897 3.419945257381395 15.99209493536899 13.245308046209564 5 -6 6
619 1 2 -1.1794 0.8273222161515434 14.109534426321208 14.546480255702582 0 -1 3
635 1 1 0.5897 2.778819433360442 13.567324603139843 13.904389971343315 -7 1 1
594 1 1 0.5897 0.7338972609196617 12.44495359529352 13.890034762742957 -1 -1 -3
97 1 2 -1.1794 3.3556881834401198 16.253954382552593 14.163781500216889 5 -6 6
634 1 2 -1.1794 3.5886733887498483 13.079781598048866 14.055171834879262 -7 1 1
208 1 2 -1.1794 3.3904012268461354 15.519697634494058 11.505083957501201 0 -2 2
810 1 1 0.5897 3.50019727874845 12.708082191583534 15.84314812730237 4 -3 -1
95 1 1 0.5897 3.0578025327195077 15.513957138831879 16.174083016150334 -3 0 -3
210 1 1 0.5897 2.635332718134102 14.96387660385634 11.312037142710286 0 -2 2
209 1 1 0.5897 4.109827439082217 14.905217046172918 11.650421246743727 0 -2 2
636 1 1 0.5897 4.269449977588028 13.612124671386933 13.64352683868635 -7 1 1
809 1 1 0.5897 2.5917132810989627 12.141145830456153 16.913334558216555 4 -3 -1
309 1 1 0.5897 2.6652971451133967 14.946489813914392 21.08786453479828 -1 5 -3
284 1 1 0.5897 4.4259053899440834 16.66062086223996 18.54746080395391 5 -1 -2
443 1 1 0.5897 0.8882132913457765 13.187703603296361 19.55266541631832 4 4 -3
308 1 1 0.5897 2.767633829854804 13.492222850542483 20.67962983012034 -1 5 -3
94 1 2 -1.1794 2.7392290021254686 15.165284788396555 17.006678823648464 -4 0 -3
705 1 1 0.5897 4.238901619605318 12.147886913138743 20.095192908405075 3 -2 -2
96 1 1 0.5897 3.2086769902199204 14.338245837432403 17.11586699942027 -4 0 -3
704 1 1 0.5897 3.569153782906275 12.345825937788616 18.751958181989835 3 -2 -2
503 1 1 0.5897 1.087618310787661 15.482631054922265 17.263428051945425 -5 -1 3
307 1 2 -1.1794 2.158964790149131 14.13537233160985 21.043173067619506 -1 5 -3
808 1 2 -1.1794 3.4599332164224794 12.521995335751402 16.781257778546426 4 -3 -1
230 1 1 0.5897 3.644105641818596 16.761299875207413 20.441900609669567 3 3 0
703 1 2 -1.1794 3.4185045843574886 11.990321068493708 19.62786156762514 3 -2 -2
524 1 1 0.5897 0.5287674063346247 16.44764741116921 19.233141345947132 2 0 1
229 1 2 -1.1794 3.7600584458703885 16.577461575525582 21.37412643783444 3 3 0
523 1 2 -1.1794 1.0411970528401517 16.91341176723035 19.894019877664164 2 0 1
677 1 1 0.5897 1.4365975976182779 18.79159496917923 0.8340238042609331 0 0 -3
643 1 2 -1.1794 3.9318913180450217 18.343040980353166 3.4925816607711826 4 -3 -1
644 1 1 0.5897 3.319952860225857 18.831289317443776 2.941719736551338 4 -3 -1
645 1 1 0.5897 3.699810437547827 18.591301480506644 4.387464342236945 4 -3 -1
609 1 1 0.5897 4.097399712151146 20.292833358364796 1.222590132841741 8 1 2
676 1 2 -1.1794 1.7130159052162057 18.14277209672727 1.481262906127994 0 0 -3
201 1 1 0.5897 2.2889637376813954 21.384665642167633 2.003471513236909 1 -1 0
364 1 2 -1.1794 0.5602888231360856 20.200950412813434 3.8012105097449695 3 2 1
762 1 1 0.5897 1.1719781928199637 20.344831744631307 5.575346970813981 0 -3 -1
365 1 1 0.5897 1.3716891023661377 20.383624464273048 3.3273429860174533 3 2 1
199 1 2 -1.1794 2.847106121173596 20.93707800663961 2.6394336747336027 1 -1 0
200 1 1 0.5897 2.875886232683664 21.528491116494656 3.391586089830388 1 -1 0
231 1 1 0.5897 3.0149304072419256 17.004079459437 0.642862481628015 3 3 1
678 1 1 0.5897 0.9695397980647509 17.54420565628394 1.5536906429198318 0 0 -3
684 1 1 0.5897 1.2944943721383555 17.798529060385164 10.801288061581904 5 -1 -4
159 1 1 0.5897 2.5821283668732433 18.527109778330512 6.403334767502641 2 2 -2
158 1 1 0.5897 2.6599244250998932 17.05518883599586 6.057765489997334 2 2 -2
551 1 1 0.5897 1.7802973893295533 21.04820491750126 9.389759073387271 -1 8 -4
837 1 1 0.5897 1.2372615498277089 19.005271691130986 8.978881260771423 1 2 -2
410 1 1 0.5897 2.140439365097282 21.425285046891176 7.258209302429903 5 2 -6
835 1 2 -1.1794 1.3201352064777598 18.052337359567808 8.942381163058108 1 2 -2
563 1 1 0.5897 3.7783767902164596 20.026594630549162 10.727193209453352 3 -1 4
550 1 2 -1.1794 0.8802158799580853 20.774285794157812 9.566117726808036 -1 8 -4
157 1 2 -1.1794 3.206047135857689 17.82297439118998 6.2266963377552855 2 2 -2
552 1 1 0.5897 0.7444237527625159 20.9776593275906 10.491583190106955 -1 8 -4
708 1 1 0.5897 4.355585052341098 18.683982087243315 7.384696863159052 0 -4 -8
760 1 2 -1.1794 1.4827670733199034 20.097580965896654 6.446305277682532 0 -3 -1
562 1 2 -1.1794 4.258531861262786 20.51230960858277 10.05651207186056 3 -1 4
761 1 1 0.5897 0.699065309956572 19.791362265553886 6.902770367042541 0 -3 -1
564 1 1 0.5897 4.350805727603757 19.893598842554987 9.331971253340356 3 -1 4
449 1 1 0.5897 3.1253320735551036 18.932517082328047 13.862569781503767 4 -2 -5
682 1 2 -1.1794 1.1542300319015029 17.628515822864124 11.732800230226571 5 -1 -4
450 1 1 0.5897 2.204680098782176 19.748988234796343 14.744548318941941 4 -2 -5
448 1 2 -1.1794 2.69568843736497 18.92769824049722 14.717957454392316 4 -2 -5
440 1 1 0.5897 4.502016443383537 18.365551085250154 12.127195065319126 1 0 -1
260 1 1 0.5897 2.1896775561842103 21.7462461423589 14.42138068895633 1 -2 7
98 1 1 0.5897 2.8334053583379557 17.05601251675762 14.148667156138032 5 -6 6
25 1 2 -1.1794 4.060394550135795 21.777142224544335 14.661384265754672 0 6 5
441 1 1 0.5897 3.052432810045379 17.999714021122273 11.888643412926557 1 0 -1
259 1 2 -1.1794 1.258058844296202 21.529068201205746 14.386717497493548 1 -2 7
439 1 2 -1.1794 3.6164724377392528 18.72841933932586 12.147756839501652 1 0 -1
683 1 1 0.5897 0.6838629154033191 18.399764882878983 12.049353215714653 5 -1 -4
26 1 1 0.5897 4.387142609266157 20.882915188542853 14.760741059296354 0 6 5
261 1 1 0.5897 0.8789483855542768 21.976822849345787 15.143073361049865 1 -2 7
717 1 1 0.5897 1.9364953311820008 18.490320318650824 16.359897928101027 5 -6 -3
584 1 1 0.5897 1.6282130890245348 21.5098741486496 18.05460079558599 1 -5 1
716 1 1 0.5897 0.7771634317386964 18.750519688389836 17.298166625145676 5 -6 -3
583 1 2 -1.1794 2.0781810672955245 20.871453036786036 18.607975841899353 1 -5 1
525 1 1 0.5897 1.3275596572548052 17.714410481895747 19.455061707258032 2 0 1
283 1 2 -1.1794 4.020164511194379 17.52687016815463 18.58313203130379 5 -1 -2
585 1 1 0.5897 1.975568554072656 20.039183924352578 18.146375094981593 1 -5 1
285 1 1 0.5897 3.191308348941853 17.423093073381438 18.115679323294906 5 -1 -2
24 1 1 0.5897 0.8537660054669374 20.400733710742642 20.072317059965606 -4 1 1
715 1 2 -1.1794 1.7200800154763394 18.585966318463747 17.287460558431725 5 -6 -3
22 1 2 -1.1794 0.6841778333524644 20.05735254157161 20.949604969071224 -4 1 1
575 1 1 0.5897 0.9242895794739456 21.732089827127936 21.60606647892358 2 -1 1
244 1 2 -1.1794 8.410037435183117 2.7094713700577255 4.495422267500857 -4 2 -1
477 1 1 0.5897 7.485084729564235 2.6200269612430773 0.7691581903854854 3 -1 -1
245 1 1 0.5897 8.376618203682073 2.629795112865086 5.44873977713123 -4 2 -1
68 1 1 0.5897 6.730491732487655 2.287475359140821 4.167276255341581 3 -1 -4
346 1 2 -1.1794 8.458324748882504 5.69825569125382 5.516187143213368 -4 2 -2
816 1 1 0.5897 7.835171192587921 4.506216755648828 2.448990415311651 -3 8 -4
80 1 1 0.5897 5.412375303633464 5.930611220852737 4.175867636062961 2 1 -3
348 1 1 0.5897 8.93390416703638 5.2537926357815925 4.81432873133916 -4 2 -2
79 1 2 -1.1794 6.084068990541069 6.480608928689192 3.772602794764775 2 1 -3
347 1 1 0.5897 7.783044958681576 6.20496746179969 5.064962557787918 -4 2 -2
815 1 1 0.5897 6.353823705871492 4.317312940505488 2.2000633961004086 -3 8 -4
740 1 1 0.5897 5.210826531137519 6.40611722556719 2.052728774982837 0 0 4
814 1 2 -1.1794 7.21526245738344 4.041391252372247 1.8868998149998748 -3 8 -4
741 1 1 0.5897 5.285304554193707 6.019509042169624 0.5908740989597929 0 0 4
67 1 2 -1.1794 5.926871718577818 1.767412169271529 4.1600108591311855 3 -1 -4
246 1 1 0.5897 9.066394367824769 2.0677796124852623 4.223832470492456 -4 2 -1
739 1 2 -1.1794 4.832205633026916 5.809065273259438 1.4073862843823512 0 0 4
692 1 1 0.5897 7.575040809963389 2.9526059533618065 8.296396091180512 0 -1 4
344 1 1 0.5897 6.354382186395683 5.487679076239949 7.968939140486494 -1 1 -1
343 1 2 -1.1794 7.217734449408581 5.887939246751999 7.865466443358285 -1 1 -1
667 1 2 -1.1794 4.848859732319116 4.569688786944848 8.231992437153714 -8 -3 1
709 1 2 -1.1794 7.822181954731362 3.3067131464185264 10.151998210545704 -4 -1 -3
693 1 1 0.5897 6.68764426344346 2.1478214078415636 7.370719222264162 0 -1 4
711 1 1 0.5897 7.276809872185291 4.02201972558478 10.479454439692221 -4 -1 -3
345 1 1 0.5897 7.476284680808341 5.6725563660252405 6.9693333103523285 -1 1 -1
691 1 2 -1.1794 7.538166115233987 2.584949609450599 7.413363195027248 0 -1 4
710 1 1 0.5897 7.5170421594233625 2.5347026401134443 10.62865839779007 -4 -1 -3
669 1 1 0.5897 4.946691565987192 3.7828369030834637 8.768256298931032 -8 -3 1
113 1 1 0.5897 8.962497272126383 5.90996010609899 8.320237497022486 -3 -2 1
457 1 2 -1.1794 7.7585297146739105 3.8826940510785803 13.150152431945395 -1 -2 -1
781 1 2 -1.1794 7.588711410915224 2.1080982877081933 15.906550661780086 -5 -2 1
842 1 1 0.5897 9.09992048377846 3.869594039987476 14.356587961164736 -2 2 1
507 1 1 0.5897 6.977427142380967 5.577413180383532 13.759692829994272 3 4 -2
459 1 1 0.5897 8.26291611946166 3.9320857075436115 12.338087252222781 -1 -2 -1
737 1 1 0.5897 5.744843782127071 5.824430385099512 15.98979940537344 1 0 -1
423 1 1 0.5897 4.932823427579156 2.9205511379377698 12.12804633526923 -4 2 3
783 1 1 0.5897 8.244085604509777 2.771605241346185 15.690847353319278 -5 -2 1
458 1 1 0.5897 6.905807151554237 3.53984846704225 12.882549368371688 -1 -2 -1
421 1 2 -1.1794 5.128155821779667 3.0541741596670744 13.055557047392558 -4 2 3
505 1 2 -1.1794 6.652000615400891 6.26222424629843 14.34399482391259 3 4 -2
236 1 1 0.5897 5.257862939109891 5.5926311085743965 11.469283735574953 0 -2 -4
237 1 1 0.5897 6.473588934172233 6.479757506178464 11.304792052541714 0 -2 -4
235 1 2 -1.1794 6.158768270385833 5.58987496093064 11.145791620690028 0 -2 -4
46 1 2 -1.1794 7.3285020287980736 4.206585822617821 19.19199970185538 3 -1 -1
48 1 1 0.5897 7.339716430146274 3.529118209909149 19.8681670104459 3 -1 -1
856 1 2 -1.1794 5.331632190554223 6.07598639876886 19.84172640529708 0 0 -2
736 1 2 -1.1794 5.4900297824125115 5.880388986253519 16.910815788820003 1 0 -1
738 1 1 0.5897 5.339783374679314 4.972326070015127 17.173798511136518 1 0 -1
47 1 1 0.5897 6.6072697501699915 4.7840084168172385 19.442683235548166 3 -1 -1
475 1 2 -1.1794 7.559637020658892 2.249829387356934 21.044048868301815 3 -1 -2
768 1 1 0.5897 5.852053569248706 2.720032050935891 16.706085299218117 0 -2 0
766 1 2 -1.1794 4.9596688888288085 3.0514907538455445 16.806425633990074 0 -2 0
642 1 1 0.5897 8.851914824819456 11.469816532953185 3.499633777740279 5 1 -2
825 1 1 0.5897 6.303126695538921 9.041359782798299 5.018416868896291 -2 3 5
81 1 1 0.5897 5.862353715640665 7.370399789055493 4.0471872390766 2 1 -3
184 1 2 -1.1794 7.5314478275883046 7.988106984179247 1.8279879010268902 -2 4 3
614 1 1 0.5897 6.228885048285518 9.087327025088783 1.2933680150252154 -6 1 4
613 1 2 -1.1794 5.476848483565331 9.649393646410894 1.1068053727011955 -6 1 5
186 1 1 0.5897 7.153018471245312 7.264504291297304 2.3274798233012786 -2 4 3
823 1 2 -1.1794 5.391687242754619 8.95958630857638 4.737579637036995 -2 3 5
824 1 1 0.5897 5.087527781650163 9.86236129347631 4.64380513989499 -2 3 5
633 1 1 0.5897 5.515446183689761 11.368228164960414 0.5876527652982189 3 3 4
185 1 1 0.5897 7.981037825638211 7.565366664052826 1.0962407691736629 -2 4 3
618 1 1 0.5897 8.701640288999805 9.24290896029493 5.082084247842632 -1 3 1
616 1 2 -1.1794 7.985617492726141 9.255863208431105 5.717282330927082 -1 3 1
90 1 1 0.5897 9.07342610701984 8.264609823288385 2.8165810497324464 7 -1 4
137 1 1 0.5897 7.4181151127993195 9.150350445630789 8.58763019718068 7 -7 0
282 1 1 0.5897 5.570928549039405 8.663493562258417 10.170472342190596 -3 -1 1
136 1 2 -1.1794 6.765324051243377 8.490793514340393 8.82243462259112 7 -7 0
828 1 1 0.5897 5.235689566174361 8.303556671902044 7.823322862419265 1 2 2
617 1 1 0.5897 8.419913814520186 9.214381025349388 6.56931024988127 -1 3 1
138 1 1 0.5897 7.191506619997661 7.6542427806129965 8.63581276723993 7 -7 0
429 1 1 0.5897 6.552604259570001 11.709237534825698 10.281842766150016 1 0 -2
840 1 1 0.5897 7.0496364413794135 11.119722180898764 6.014848287925887 -3 -2 -2
304 1 2 -1.1794 9.08996379391329 9.999880951613829 8.252269141421559 5 -3 -5
280 1 2 -1.1794 4.81571344842863 8.868706032437657 10.72168495736736 -3 -1 1
428 1 1 0.5897 5.747950784726459 10.548407667200102 10.82693892694685 1 0 -2
427 1 2 -1.1794 6.486422642769859 11.121171154829597 11.034232655976739 1 0 -2
540 1 1 0.5897 7.418777418436954 8.735494306778048 12.358498969677846 0 -3 1
21 1 1 0.5897 6.471993216325452 11.5876493750708 14.228883304330138 -4 -3 1
353 1 1 0.5897 5.893596685585343 9.215304130825746 14.601755157834596 5 3 -3
352 1 2 -1.1794 6.620762387088008 9.45643552567811 15.175656102790658 5 3 -3
538 1 2 -1.1794 6.941854247590461 7.911709525083688 12.257227038524162 0 -3 1
539 1 1 0.5897 6.026091183988819 8.144058141226214 12.411270258666429 0 -3 1
354 1 1 0.5897 6.200936534656161 9.755143929028652 15.982386843417718 5 3 -3
461 1 1 0.5897 8.050611005200917 10.491906062113245 11.727239751327703 3 2 -2
460 1 2 -1.1794 8.810605152385298 9.987587873853972 12.017691163742924 3 2 -2
335 1 1 0.5897 8.514745072759862 10.18801283461273 15.212326895866756 7 0 2
506 1 1 0.5897 6.485120082196347 7.009039397174127 13.768933674111477 3 4 -2
822 1 1 0.5897 8.655641141139297 6.85364524081111 13.278541860532183 2 2 6
639 1 1 0.5897 8.22448117246109 10.295085036891278 19.139420072061505 -6 0 4
637 1 2 -1.1794 8.515334754547297 9.384048386332053 19.180591933376682 -6 0 4
419 1 1 0.5897 6.850818603598793 7.154234337486925 17.30588014766827 -7 -2 5
52 1 2 -1.1794 5.274157650758566 9.050227644205732 19.531453245101098 -5 -1 3
53 1 1 0.5897 5.365032235141121 9.840864264685306 18.999515284680818 -5 -1 3
719 1 1 0.5897 6.291061223991317 11.439970138412777 17.909050487599004 3 3 0
681 1 1 0.5897 8.964716020374178 8.024617612572793 20.171640361567285 -8 -5 0
54 1 1 0.5897 5.241729468306474 9.370012232462297 20.43310385306905 -5 -1 3
418 1 2 -1.1794 7.474883575205566 7.875444531677728 17.22406778958051 -7 -2 5
718 1 2 -1.1794 5.731218442443109 10.85063319772857 17.40352846110938 3 3 0
679 1 2 -1.1794 8.920119639947423 7.273842030766641 20.76382356646598 -8 -5 0
858 1 1 0.5897 5.505085126977361 7.00476157684964 19.68820040441723 0 0 -2
638 1 1 0.5897 7.910154733175602 8.912799328158037 18.607915517753916 -6 0 4
420 1 1 0.5897 7.139586959294703 8.401770008856708 16.498234741485014 -7 -2 5
720 1 1 0.5897 4.945654703045936 11.36547970822951 17.218856633529974 3 3 0
713 1 1 0.5897 8.71145107824946 6.732992662624824 16.438874406122654 -5 0 3
724 1 2 -1.1794 7.323308629126375 12.637495016614375 3.1788295797881885 1 -5 3
267 1 1 0.5897 5.869606559912085 13.444255651822976 2.777460712251098 -2 2 -1
726 1 1 0.5897 7.769381796327144 13.228485750214901 3.785495287979267 1 -5 3
265 1 2 -1.1794 5.125877877515702 13.76277848333138 2.2658985964389404 -2 2 -1
4 1 2 -1.1794 8.544060473407644 14.38043234229549 4.833482944444226 1 -2 -1
178 1 2 -1.1794 8.714518186034784 16.88647317051081 2.350189114996198 -8 0 0
180 1 1 0.5897 8.800223972974974 16.74974592665952 3.29371398199692 -8 0 0
725 1 1 0.5897 7.631010328881571 12.905399166320652 2.312889983121269 1 -5 3
179 1 1 0.5897 7.780238001475419 16.77341802312484 2.1751983125421788 -8 0 0
374 1 1 0.5897 5.235180828310355 16.50385565894162 1.3887836994086382 2 5 -1
581 1 1 0.5897 7.2305234648812196 15.3916903006774 5.2246139661793425 -1 -1 0
580 1 2 -1.1794 6.417835307088128 15.858206391423842 5.420059456316933 -1 -1 0
532 1 2 -1.1794 8.711037783550747 13.854500533221167 1.146188453571045 -6 -1 -1
632 1 1 0.5897 5.338428255193478 12.849828362871106 0.843668952970384 3 3 4
839 1 1 0.5897 6.093062648600964 12.192900524549087 5.540216940907495 -3 -2 -2
534 1 1 0.5897 8.11364543346966 14.393428395404587 0.627578756067026 -6 -1 -1
122 1 1 0.5897 4.8738300162526205 15.70305876142566 4.51185228337917 1 -2 1
266 1 1 0.5897 4.844164132442088 14.55658312509528 2.7206430069382876 -2 2 -1
5 1 1 0.5897 8.521382528161343 14.148021393603113 5.761787089031743 1 -2 -1
582 1 1 0.5897 6.15205987217383 15.52803454602662 6.278337124831788 -1 -1 0
671 1 1 0.5897 6.525341244610265 12.257161384147476 7.957021734314698 7 2 0
670 1 2 -1.1794 5.977583194205067 12.523782108362582 8.695388337463674 7 2 0
838 1 2 -1.1794 6.874653557476974 12.058812197273742 6.076326388111906 -3 -2 -2
799 1 2 -1.1794 5.816124524148634 15.17240916554969 8.013986912763265 -1 -2 2
801 1 1 0.5897 4.909552891023496 15.39251250064383 8.228384009487186 -1 -2 2
672 1 1 0.5897 5.080886827523668 12.444585975617391 8.369896799871677 7 2 0
729 1 1 0.5897 8.37168112733002 13.630463302330895 11.03047934921715 -2 0 0
800 1 1 0.5897 5.842282798607011 14.215743532491993 8.035118305923515 -1 -2 2
501 1 1 0.5897 6.425002054136232 16.65178838982801 8.599659574014591 -2 -1 -3
649 1 2 -1.1794 6.002915366401375 16.78807361075267 14.636313425515421 1 -2 0
528 1 1 0.5897 8.247863145929987 14.167913873267203 14.812409124049156 -4 -5 -1
2 1 1 0.5897 6.418708517506483 15.312963854405158 15.882453825183523 1 -6 2
216 1 1 0.5897 6.280605290722894 14.14766572622462 11.567228437026829 -1 1 2
3 1 1 0.5897 6.507113443850923 13.828608006679005 15.598029081109493 1 -6 2
214 1 2 -1.1794 5.4368662803303485 13.903743669308302 11.947877284248758 -1 1 2
19 1 2 -1.1794 6.583876089658659 12.533316999778483 14.32623870541316 -4 -3 1
527 1 1 0.5897 8.423176855144954 14.643056329103802 13.385692930130425 -4 -5 -1
526 1 2 -1.1794 8.753503771139744 14.776868343957432 14.274097586833287 -4 -5 -1
20 1 1 0.5897 6.228012609368226 12.90159938914441 13.517528310481453 -4 -3 0
727 1 2 -1.1794 8.15210696123783 14.360406915439347 11.60949217005745 -2 0 0
215 1 1 0.5897 5.0897844763362095 13.237214353617713 11.354955026232671 -1 1 2
650 1 1 0.5897 5.065473613895088 16.596565025758302 14.607744982390242 1 -2 0
497 1 1 0.5897 8.556830487707918 16.71277827405791 13.924523060961238 1 2 1
728 1 1 0.5897 8.641565262868307 15.10304805516297 11.255654278180623 -2 0 0
1 1 2 -1.1794 6.639670630797568 14.475840142627263 16.290731787968546 1 -6 2
105 1 1 0.5897 5.752757317105097 14.685369523117947 18.118969244755178 3 0 6
392 1 1 0.5897 8.299778452198229 15.115064114758919 17.392402004734564 2 -2 -1
522 1 1 0.5897 7.964905508561399 15.678709953399867 19.847672744660507 -3 -1 -3
521 1 1 0.5897 6.828739623566568 16.376397167413852 20.564910106996003 -3 -1 -3
103 1 2 -1.1794 5.286082940373527 14.89942637009279 18.926854228573035 3 0 6
104 1 1 0.5897 5.961406477584578 14.885122542654447 19.60509887125977 3 0 6
520 1 2 -1.1794 7.4059116505581555 15.614861895287646 20.62209828300503 -3 -1 -3
631 1 2 -1.1794 5.516038052529755 12.217954498932482 21.301406175349236 3 3 3
785 1 1 0.5897 8.060551921846603 12.555716226685057 19.387664139492422 4 5 3
784 1 2 -1.1794 7.193055319810994 12.260515698116258 19.110927721905213 4 5 3
391 1 2 -1.1794 8.681095681582061 15.680441561268678 18.064168564875594 2 -2 -1
786 1 1 0.5897 6.645406649676203 12.36184072961067 19.889446548701045 4 5 3
648 1 1 0.5897 7.679258885967625 19.694010787851717 2.1577000532403825 -7 -2 -1
647 1 1 0.5897 6.937081777400943 19.62964373780229 3.4757212693431203 -7 -2 -1
578 1 1 0.5897 8.555796689117368 18.25963277109806 5.212380198151875 1 2 -3