LAMMPS data file via write_data, version 30 Jul 2021, timestep = 8250000

1008 atoms
2 atom types
672 bonds
1 bond types
336 angles
1 angle types

-3.1475308695709128 14.75752986912512 xlo xhi
-0.1408505962239026 22.720849596220425 ylo yhi
0.0076410787290281945 19.222356921268563 zlo zhi
-0.31895681796822867 -6.687148181370805 0.3285339732343697 xy xz yz

Masses

1 1.008
2 15.999

Pair Coeffs # lj/cut/tip4p/long/omp

1 0 0
2 0.21084 3.1668

Bond Coeffs # harmonic/omp

1 450 0.9572

Angle Coeffs # harmonic/omp

1 55 104.52

Atoms # full

21 7 1 0.5897 1.265558890097096 2.323953130521917 0.9705523775391774 0 0 0
55 19 2 -1.1794 -0.5117499373066146 4.204328299063689 3.5543708926713635 0 0 0
56 19 1 0.5897 -1.2030774366986192 3.7912373424285155 3.037031406493143 0 0 0
57 19 1 0.5897 0.19504805008897907 4.361416642810464 2.9282852861354667 0 0 0
121 41 2 -1.1794 -2.4542585851696006 2.7457817333763352 2.2588240212322037 1 0 0
122 41 1 0.5897 -2.367905062328275 2.249617664994032 1.4447288957981 1 0 0
86 29 1 0.5897 -2.683247304878389 1.9878947469471262 4.147800257514543 1 0 0
31 11 2 -1.1794 1.6507759468955747 1.2270128148189299 2.521192906324298 0 0 0
32 11 1 0.5897 1.2775697153071999 1.5131798440954467 3.3549748913606465 0 0 0
46 16 2 -1.1794 2.002416684130851 4.771136237644265 2.293526638657927 0 0 0
123 41 1 0.5897 -3.3614933166600744 3.0510234675127865 2.2588290320618225 1 0 0
33 11 1 0.5897 1.112156456289183 0.4797736310886299 2.260936746075442 0 0 0
18 6 1 0.5897 4.73128573830824 3.9453588036650755 0.1940310653242196 0 0 0
527 176 1 0.5897 3.918892332421729 1.6995681941320808 0.17312355464761972 0 0 1
602 201 1 0.5897 -0.5153121115110779 5.0786912079886015 0.3943650399272913 1 0 1
70 24 2 -1.1794 3.921588644282882 0.34413168407690403 1.3579221694977663 0 0 0
47 16 1 0.5897 2.212111436011246 5.250630275669557 1.492033240519204 0 0 0
48 16 1 0.5897 2.2135012638208647 5.381162141946648 3.0003880272391537 0 0 0
101 34 1 0.5897 -2.9228267103098395 4.444805326448997 0.034246106000068124 1 0 0
53 18 1 0.5897 4.603180872131368 2.796733096148937 3.0331455464476487 0 0 0
52 18 2 -1.1794 3.7818857962956294 2.9650895935327886 3.495091778534029 0 0 0
158 53 1 0.5897 -4.310770690677447 4.462319530877674 4.443235944838619 1 0 0
54 18 1 0.5897 3.212717065065325 3.3620729116840815 2.835768530145616 0 0 0
71 24 1 0.5897 3.164590761733277 0.615162067634741 1.877337988504267 0 0 0
19 7 2 -1.1794 1.0693529589603168 2.527436584777358 0.05600068307453965 0 0 0
482 161 1 0.5897 -0.812524044092394 0.4981903553907603 1.0776173924878738 1 1 0
6 2 1 0.5897 3.450185798327748 1.6273900843658227 4.576429284857955 0 0 0
78 26 1 0.5897 0.3774896614073078 2.917714724470861 4.692493072022497 0 0 0
16 6 2 -1.1794 5.1868500192081495 4.734006744969527 0.48853781565306453 0 0 0
134 45 1 0.5897 -2.5883079280694514 2.6685346595939325 6.110244393022374 1 0 0
135 45 1 0.5897 -1.9224067103810936 3.8511449277910144 6.781086379252928 1 0 0
98 33 1 0.5897 -4.265691872127752 5.225604361970498 8.78935898884684 1 0 0
34 12 2 -1.1794 -0.011531675183982237 1.0870470147561204 7.373279604988957 0 0 0
35 12 1 0.5897 0.24082461338708505 1.7943201764852605 7.966935235513945 0 0 0
36 12 1 0.5897 -0.7681123476052396 0.6789476229235567 7.794254925385737 0 0 0
124 42 2 -1.1794 -5.1495197174374905 2.3696934324509438 7.445170830596649 1 0 0
69 23 1 0.5897 -2.7073351782670625 1.0311465081582554 8.927632622975418 0 0 0
68 23 1 0.5897 -3.159426490970407 0.060530368426779335 7.857301694120747 0 0 0
58 20 2 -1.1794 2.3280050266409704 4.229590804981868 6.359540397867452 0 0 0
59 20 1 0.5897 1.9003296375149024 3.4574772184490454 5.989114894765448 0 0 0
77 26 1 0.5897 0.4279546037558788 1.754129819987255 5.659730550590903 0 0 0
159 53 1 0.5897 -3.346087275422969 4.508300131901068 5.609086352139606 1 0 0
126 42 1 0.5897 -4.278557164848021 2.701149125640512 7.226735363994001 1 0 0
45 15 1 0.5897 0.44970427148482406 4.850399652902192 7.131340235016414 0 0 0
133 45 2 -1.1794 -2.756260480216208 3.3848520724115074 6.7226877204936235 1 0 0
669 223 1 0.5897 -5.619230144482187 1.8278758823644172 8.965027668511473 1 0 0
43 15 2 -1.1794 -0.4656423825690048 5.035259104566561 7.34158781743331 0 0 0
522 174 1 0.5897 1.9845496011366208 5.405405873270374 9.351990979100032 0 0 0
60 20 1 0.5897 3.0963598003709496 3.8836008540570877 6.8136011136951655 0 0 0
22 8 2 -1.1794 0.3381487378437469 2.8182978944935213 9.489836975183588 0 0 0
5 2 1 0.5897 3.012288512110798 0.23302243614130103 4.971336327618923 0 0 0
401 134 1 0.5897 2.5374690580824915 0.13782418390463969 8.925598051556525 0 1 0
67 23 2 -1.1794 -2.4237601882290787 0.2600985952556282 8.436245273354512 0 0 0
44 15 1 0.5897 -0.4459300079201203 5.346670705590305 8.246575807933429 0 0 0
606 202 1 0.5897 -6.242562219488665 4.797303649579062 9.348763964414088 1 0 0
87 29 1 0.5897 -3.573259728650439 0.9912885145136834 4.859425093810184 1 0 0
4 2 2 -1.1794 3.6536765502625883 0.9123707391267892 5.179452499882141 0 0 0
85 29 2 -1.1794 -2.667917143723095 1.298180301269436 4.811371239627058 1 0 0
157 53 2 -1.1794 -3.795675008486213 5.068152979741342 4.976059687345016 1 0 0
76 26 2 -1.1794 0.9564803547350094 2.228350911817449 5.017862603360295 0 0 0
987 329 1 0.5897 -3.441064190237551 0.08434609713103189 11.531372887650438 1 1 0
589 197 2 -1.1794 -5.73621300546141 0.9827510258958945 14.287322691518428 1 0 0
560 187 1 0.5897 -4.891940720406906 3.7811742176085175 12.690320884382974 0 0 0
552 184 1 0.5897 -2.8639892984302557 5.019353161133224 12.519819988454929 0 0 0
986 329 1 0.5897 -4.641108627216955 0.2852672002583838 10.630605046308863 1 1 0
561 187 1 0.5897 -3.8957587551709416 3.6255601232349064 13.819634123782636 0 0 0
525 175 1 0.5897 -1.5090486478230272 3.0263138292650518 9.803931692408234 0 0 0
574 192 2 -1.1794 0.390419472059075 0.31570329748125797 11.132945114201803 0 0 0
535 179 2 -1.1794 -2.1201964039076113 1.1619184468273283 12.247665522517671 0 0 0
536 179 1 0.5897 -2.37786586499515 1.6121113317286764 13.052213440104591 0 0 0
537 179 1 0.5897 -2.186140201914421 1.8312393048391795 11.566530850628839 0 0 0
662 221 1 0.5897 -7.935838427515377 4.871052772399745 13.713427067794424 1 0 0
625 209 2 -1.1794 -6.32162416725042 2.5767028365154148 11.993092077916389 1 0 0
556 186 2 -1.1794 0.29262146776201714 3.720948169535267 12.873325669272504 0 0 0
557 186 1 0.5897 0.015989044863260027 2.9264893110827 13.330004277235098 0 0 0
668 223 1 0.5897 -6.0205167422349835 1.9069558877775363 10.42271897672536 1 0 0
558 186 1 0.5897 -0.5234959353363182 4.12443556804732 12.57768586216359 0 0 0
559 187 2 -1.1794 -4.251926259011978 4.269855051647745 13.207815221254434 0 0 0
576 192 1 0.5897 -0.21368123650076054 0.6724460506325148 11.784215121037908 0 0 0
550 184 2 -1.1794 -1.9893586712627078 5.320985021033559 12.274460280182986 0 0 0
626 209 1 0.5897 -6.187448158218055 1.881459555885888 12.637241248589739 1 0 0
667 223 2 -1.1794 -5.7968753927155845 1.2831816244387015 9.731851864904511 1 0 0
627 209 1 0.5897 -7.224960320888286 2.8613163646917035 12.13173940716089 1 0 0
23 8 1 0.5897 0.6731769620017998 2.115087734251629 10.046223905699962 0 0 0
523 175 2 -1.1794 -2.3800034155488095 2.7035644391817053 10.035090693897397 0 0 0
99 33 1 0.5897 -4.160581001857103 5.48672301552541 10.27695112273977 1 0 0
551 184 1 0.5897 -1.6682616666778323 5.78182053237004 13.049608636342283 0 0 0
661 221 2 -1.1794 -7.331185410503744 5.431311964710924 14.199994156373636 1 0 0
593 198 1 0.5897 -7.797732725020933 0.5883601214646633 14.396190222225094 1 0 0
24 8 1 0.5897 0.8502691661842512 3.587214715016854 9.74033457226975 0 0 0
524 175 1 0.5897 -2.9589356638913573 3.452643761663424 9.89342110826071 0 0 0
97 33 2 -1.1794 -4.395559480916937 4.81011860146028 9.641875227940702 1 0 0
571 191 2 -1.1794 -5.904610990865329 0.2977286173218614 17.91408923213958 0 0 0
526 176 2 -1.1794 -2.846505913420584 2.8750530720142464 18.948693472487655 0 0 0
84 28 1 0.5897 -4.037333243965721 5.632718511465564 18.449304806785058 0 0 -1
165 55 1 0.5897 -9.157123037991202 0.7955283462996329 18.995986090464974 1 0 -1
614 205 1 0.5897 -7.589606948356889 5.719495033869416 17.491760367309382 1 0 0
590 197 1 0.5897 -5.565137503157658 1.669504564329329 14.931885177337225 1 0 0
639 213 1 0.5897 -6.417803476782969 3.980056221047641 14.941311311641913 1 0 0
581 194 1 0.5897 -3.0662973309531214 1.9224208765821813 15.398649939171149 0 0 0
538 180 2 -1.1794 -3.5262729511580266 1.1661946379922947 16.928307060675188 0 0 0
539 180 1 0.5897 -3.2017003067110963 1.8245810545635899 17.542715421572623 0 0 0
547 183 2 -1.1794 -3.9614483978522346 4.843026283051062 16.85144094767587 0 0 0
540 180 1 0.5897 -4.3661179326621085 0.8895127692793467 17.294712641620798 0 0 0
638 213 1 0.5897 -6.640984186629174 3.0417628210987875 16.108253674566967 1 0 0
549 183 1 0.5897 -4.669288685948994 4.227334576709578 16.661550070132755 0 0 0
562 188 2 -1.1794 -1.2543440572821343 4.048258094214968 16.137716964938356 0 0 0
20 7 1 0.5897 -5.65676816982389 2.0029412595848206 18.83806074531764 0 0 -1
564 188 1 0.5897 -1.9431693720088985 4.258643002211345 16.768251626933925 0 0 0
637 213 2 -1.1794 -5.950139862056977 3.444441717161674 15.582157145135469 1 0 0
164 55 1 0.5897 -8.642221987903422 2.017566353468929 18.265653671399548 1 0 -1
628 210 2 -1.1794 -8.413183382407478 2.6085750275905464 16.58612698995904 1 0 0
582 194 1 0.5897 -2.073157617977814 2.9675419317651404 14.936966605784521 0 0 0
563 188 1 0.5897 -1.2014998036882005 4.81988482971644 15.57372920284537 0 0 0
510 170 1 0.5897 0.2825138765822066 1.8357199867244005 15.524316159543599 0 0 0
580 194 2 -1.1794 -2.8004274967818876 2.42646547658582 14.62955053905076 0 0 0
630 210 1 0.5897 -8.460444689123303 1.979344481678189 15.866266102615795 1 0 0
548 183 1 0.5897 -4.138918672759508 5.594623030309468 16.285826471240632 0 0 0
528 176 1 0.5897 -3.76432599098454 3.121214103289074 19.063734620476666 0 0 0
905 302 1 0.5897 -1.9412413223829432 0.2795604699524141 17.2638576980978 0 1 0
603 201 1 0.5897 -6.929729380689752 4.004483619736498 19.108829427501504 1 0 0
163 55 2 -1.1794 -8.76875061875838 1.6578689134055953 19.143653192012295 1 0 -1
601 201 2 -1.1794 -7.598804831721997 4.689055927650158 19.115677690578956 1 0 0
591 197 1 0.5897 -5.2219064651621 0.2347822652824032 14.59123091370346 1 0 0
508 170 2 -1.1794 0.31756555141842124 1.4307913996276245 14.657607740356863 0 0 0
289 97 2 -1.1794 -2.7512176905547845 10.451814185770278 2.6500348855900775 1 0 0
255 85 1 0.5897 -2.410615844802777 8.917512772259213 3.987738209771868 1 0 0
146 49 1 0.5897 -1.3336205242447239 6.677764988529967 1.9075679141779704 1 0 0
147 49 1 0.5897 -0.9557053156104307 7.6568165530286 0.8164251660060422 1 0 0
332 111 1 0.5897 -2.223878738907662 9.60461770066828 1.1166222485044601 1 0 0
112 38 2 -1.1794 -3.225870612253511 6.498570955854671 2.7059115533346776 1 0 0
145 49 2 -1.1794 -0.6889629612286505 6.829044457623912 1.2163849970992369 1 0 0
291 97 1 0.5897 -3.6263039626903533 10.789020344498711 2.841857367305929 1 0 0
696 232 1 0.5897 4.238922357944223 11.009784958166707 0.3516057861985086 0 0 1
290 97 1 0.5897 -2.1567105148663854 11.122357376150555 2.986430192206096 1 0 0
9 3 1 0.5897 -0.7879050899258537 5.736141237076797 4.372005426377046 0 0 0
224 75 1 0.5897 -0.07339129950702938 11.281800068409495 3.8388464142362517 0 0 0
694 232 2 -1.1794 3.738372614151836 10.211106942647856 0.18484513844878656 0 0 1
221 74 1 0.5897 4.273961135024286 10.560292977980462 3.1413939114316936 0 0 0
10 4 2 -1.1794 2.132485957177111 6.364631811916643 4.499036562136452 0 0 0
188 63 1 0.5897 0.8311719874565715 9.686977558771167 1.192260976309399 0 0 0
200 67 1 0.5897 0.5165535907162462 7.7996124331489085 2.244753305494406 0 0 0
199 67 2 -1.1794 1.0326506897514687 8.49778598931725 2.6478153824697257 0 0 0
187 63 2 -1.1794 0.937204479960247 10.00469851854826 0.29554224118561356 0 0 0
238 80 2 -1.1794 3.5616412608939108 8.001564275119375 1.678540591657834 0 0 0
174 58 1 0.5897 3.4162860427859414 9.297903960386105 4.425225859950691 0 0 0
245 82 1 0.5897 0.7744067338546525 9.319169056172017 4.136558388261812 0 0 0
239 80 1 0.5897 3.6667444315887545 8.825084668604617 1.202054556402112 0 0 0
240 80 1 0.5897 3.316133484165811 7.3652751922535025 1.0068186260872167 0 0 0
220 74 2 -1.1794 3.4930360602970447 10.953487835047856 3.531094252012752 0 0 0
201 67 1 0.5897 1.9372365677975436 8.296210391333593 2.408352701073459 0 0 0
331 111 2 -1.1794 -1.8956889777079138 9.039774006373367 0.4168724856408863 1 0 0
189 63 1 0.5897 1.847775686046341 10.296190319653581 0.2503402737629409 0 0 0
173 58 1 0.5897 3.244030890342529 7.817037895507179 4.688761492426396 0 0 0
12 4 1 0.5897 1.2058191306502382 6.596297241799937 4.43697552637906 0 0 0
114 38 1 0.5897 -3.3474018781677897 5.848090028708704 2.0141888445649108 1 0 0
113 38 1 0.5897 -3.5903515648483175 6.086772006487851 3.4893908909338003 1 0 0
244 82 2 -1.1794 0.661744190025372 10.009777754953497 4.789781601938303 0 0 0
191 64 1 0.5897 0.4911751817918084 10.119459359863242 8.813148042279131 0 0 0
228 76 1 0.5897 1.7299902506279432 10.898745001501212 6.044404645202882 0 0 0
111 37 1 0.5897 -5.295905708592295 6.83738890582833 7.345645668328926 1 0 0
258 86 1 0.5897 -5.080780525504636 9.172438380023314 5.948937601887855 1 0 0
293 98 1 0.5897 -3.840940535265136 10.376299381622152 7.176996947004156 1 0 0
109 37 2 -1.1794 -4.4586669504082685 6.386714821808615 7.235150298184458 1 0 0
837 279 1 0.5897 -6.239599385019481 8.659811600816903 9.47130829196008 1 0 0
301 101 2 -1.1794 -2.0814629265029945 10.842705569907777 6.697644141110799 1 0 0
246 82 1 0.5897 0.45239691770227175 9.543025988586729 5.598849921750861 0 0 0
294 98 1 0.5897 -4.937932460253527 9.819193562041741 8.059052564105793 1 0 0
292 98 2 -1.1794 -4.791733342694638 10.365045174708495 7.286526812812745 1 0 0
64 22 2 -1.1794 1.937362080233763 6.766339761960433 8.194606251137328 0 0 0
257 86 1 0.5897 -4.14951833699277 8.4559140871303 4.994164198787697 1 0 0
202 68 2 -1.1794 0.37960948069423406 8.79369573805012 7.238360030881497 0 0 0
203 68 1 0.5897 -0.5113961079246878 8.46958736158685 7.369585039235654 0 0 0
204 68 1 0.5897 0.9295917739541775 8.011999657671046 7.2915073023292605 0 0 0
588 196 1 0.5897 -1.5484946482314985 6.732851130494993 9.308940083279 0 0 0
235 79 2 -1.1794 -2.2346478338594116 8.011304917344178 7.965175020826871 0 0 0
236 79 1 0.5897 -3.0871841531363966 7.704615091232828 7.656475156020395 0 0 0
237 79 1 0.5897 -2.4413883503850053 8.70871204825074 8.587502528114555 0 0 0
302 101 1 0.5897 -1.883385364152356 10.071617560399096 6.166044483926941 1 0 0
110 37 1 0.5897 -4.491497965784352 6.033839364381807 6.345896841649487 1 0 0
7 3 2 -1.1794 -0.6565253429611486 6.511626898093019 4.917640684885957 0 0 0
66 22 1 0.5897 2.7057535314810623 6.73150062207295 7.624854207680105 0 0 0
8 3 1 0.5897 -0.7312511294747939 6.188747949407792 5.815670623361636 0 0 0
65 22 1 0.5897 2.1931037064128382 7.3522509091143515 8.907091964030018 0 0 0
11 4 1 0.5897 2.1644658140536635 5.679666340532683 5.1669196126758905 0 0 0
303 101 1 0.5897 -1.2690890848142349 11.34887144826155 6.6983106105322605 1 0 0
172 58 2 -1.1794 3.6834470002035467 8.599212450251759 5.022519437757983 0 0 0
254 85 1 0.5897 -1.7547753942858302 7.90588871408365 4.903483317032571 1 0 0
253 85 2 -1.1794 -2.2985908353663427 8.693652405506295 4.911670893837367 1 0 0
724 242 2 -1.1794 0.3748297279765582 10.685531073100202 12.879322124644986 0 0 0
750 250 1 0.5897 -3.3391523428763286 10.324905481841244 14.104547899350152 0 0 0
513 171 1 0.5897 -4.27811740123286 5.875790999082716 14.137770037559935 0 0 0
794 265 1 0.5897 -5.65195644495488 10.847673640852559 12.73306937010322 1 0 0
742 248 2 -1.1794 0.548043374536991 7.76022739169048 11.258849099062173 0 0 0
678 226 1 0.5897 0.3990873612040051 9.358968037988928 14.163165906361945 0 0 0
192 64 1 0.5897 0.7501156907105981 11.208825732550489 9.832170143444078 0 0 0
693 231 1 0.5897 -2.3973348635565537 9.540667439132823 10.760209447333786 0 0 0
649 217 2 -1.1794 -4.130455031862659 7.1404820488728005 10.947827866844296 1 0 0
650 217 1 0.5897 -3.496424538475281 7.19166977052193 11.663119773841343 1 0 0
651 217 1 0.5897 -4.982426348932838 7.118934327406418 11.383514128613617 1 0 0
795 265 1 0.5897 -6.196423082068918 10.087818062693417 11.542161623578297 1 0 0
744 248 1 0.5897 0.15502584581729728 7.197546839693385 10.591589709057686 0 0 0
793 265 2 -1.1794 -6.344919277114066 10.239665129401839 12.475564222931766 1 0 0
836 279 1 0.5897 -4.8922573382839305 8.688468920566415 10.161002695572778 1 0 0
759 253 1 0.5897 -6.23739602702526 9.05262151769731 13.842187282963819 1 0 0
703 235 2 -1.1794 -1.9435489652509101 8.6040609549893 12.233997390439054 0 0 0
704 235 1 0.5897 -1.0709289706681107 8.216448243525656 12.166392888761838 0 0 0
705 235 1 0.5897 -1.9833819065895781 8.951843622435195 13.124964152413735 0 0 0
743 248 1 0.5897 0.6529999079049227 8.60781541060747 10.82657950705794 0 0 0
616 206 2 -1.1794 -6.715514472259894 6.578943760769099 11.859547710593366 1 0 0
618 206 1 0.5897 -6.945851067450198 6.097426369661842 11.06491817767758 1 0 0
726 242 1 0.5897 -0.39088560417127916 11.063010369544068 12.446357309112388 0 0 0
725 242 1 0.5897 0.6517568066859809 11.355653238494254 13.504265635735518 0 0 0
587 196 1 0.5897 -1.2681980837180054 5.962752145791642 10.581879577739258 0 0 0
692 231 1 0.5897 -1.4990874962096843 10.292639165234135 9.801282973288867 0 0 0
835 279 2 -1.1794 -5.628078519659592 9.248534876313101 9.91366843634496 1 0 0
691 231 2 -1.1794 -2.409471177081812 10.03056896900382 9.937928381079457 0 0 0
663 221 1 0.5897 -6.938077345870751 5.995364496134973 13.533998168798034 1 0 0
586 196 2 -1.1794 -0.8827408235462255 6.1944067698349246 9.736885952675921 0 0 0
190 64 2 -1.1794 0.20960771442614679 10.435287135935855 9.671828137809207 0 0 0
333 111 1 0.5897 -8.251437180739734 9.974704150120967 18.96923884808797 1 0 -1
695 232 1 0.5897 -2.639180278845056 10.236062831629733 18.54611604696494 0 0 0
741 247 1 0.5897 -5.743962450618778 9.07225023968677 18.075734081954195 0 0 0
514 172 2 -1.1794 -1.3961045280361972 6.46307010912994 14.759080247841906 0 0 0
740 247 1 0.5897 -6.302534341109697 7.864466840987138 17.35369441698589 0 0 0
568 190 2 -1.1794 -1.1300260865172183 7.241788421893859 18.152656774599265 0 0 0
805 269 2 -1.1794 -5.834158591599845 11.01064520061849 15.895667997588848 1 0 0
512 171 1 0.5897 -4.823361723277442 7.215095083527542 14.586418451873604 0 0 0
569 190 1 0.5897 -1.5774195421487862 6.449324086068714 18.449417031038756 0 0 0
83 28 1 0.5897 -4.647081538455059 7.016888600773311 18.516246365557286 0 0 -1
511 171 2 -1.1794 -4.068256043368505 6.634623242741036 14.682244918009928 0 0 0
749 250 1 0.5897 -2.8626118148475372 9.455687467635295 15.248834811545489 0 0 0
676 226 2 -1.1794 0.39202137045705854 8.666247021339288 14.823749334267125 0 0 0
613 205 2 -1.1794 -7.688050206020783 6.440667378281232 16.87006390366512 1 0 0
796 266 2 -1.1794 -8.296504561987339 10.57538062298007 17.177180904695973 1 0 0
706 236 2 -1.1794 -2.8577106284161484 9.04967842869824 17.05465896739473 0 0 0
707 236 1 0.5897 -3.715884632636018 8.712463838235456 17.311482069019206 0 0 0
708 236 1 0.5897 -2.2357612896848904 8.404860844647105 17.391858499095868 0 0 0
739 247 2 -1.1794 -5.478820375171503 8.288493954018588 17.59424155123004 0 0 0
758 253 1 0.5897 -6.000822577800056 8.968409987330888 15.335191512852942 1 0 0
797 266 1 0.5897 -7.521506733048156 10.85536964102706 16.690205805424334 1 0 0
798 266 1 0.5897 -8.671255559914929 9.871533248401906 16.647628099832957 1 0 0
515 172 1 0.5897 -2.2788266075625403 6.833144304817431 14.74838865375135 0 0 0
748 250 2 -1.1794 -2.5494705155942583 9.94049911479682 14.485197682389318 0 0 0
762 254 1 0.5897 -8.081070761030553 8.29968683144421 14.801628701137934 1 0 0
731 244 1 0.5897 -1.8882738182602878 11.24529381746603 15.36511249695639 0 0 0
516 172 1 0.5897 -0.8200269453908691 7.219800442277559 14.867168853729 0 0 0
615 205 1 0.5897 -7.525783282839242 6.043588323664179 16.014269417333026 1 0 0
757 253 2 -1.1794 -6.208329743543293 8.431733527803456 14.570159309248124 1 0 0
654 218 1 0.5897 -9.48006243792609 8.186041359787165 18.262949840776457 1 0 0
82 28 2 -1.1794 -4.12615301208781 6.393897744644947 19.02298352135263 0 0 -1
570 190 1 0.5897 -0.45942288164416745 6.926121821569603 17.54686914306661 0 0 0
807 269 1 0.5897 -5.278906864050436 11.569179493575492 16.439714405796373 1 0 0
281 94 1 0.5897 -3.187360130445179 13.87842655290385 3.5447558602224327 1 0 0
282 94 1 0.5897 -2.665624869029288 14.399058063690566 2.222357814862135 1 0 0
280 94 2 -1.1794 -3.468559343509097 14.11960568238469 2.662113707894496 1 0 0
500 167 1 0.5897 -1.7642819598891875 16.064833573137033 0.27447472365176745 1 0 0
407 136 1 0.5897 4.027345170609944 15.16244238726399 1.9933178807075564 0 0 0
369 123 1 0.5897 0.8878810843352527 16.844798810231286 3.420369683576 0 0 0
214 72 2 -1.1794 1.9715939739096342 12.423168182875996 1.9214646957987391 0 0 0
180 60 1 0.5897 2.050509382467536 13.379088651581423 3.6517198667007555 0 0 0
184 62 2 -1.1794 5.143111070073397 12.543716463232853 0.2715338426900158 0 0 0
313 105 2 -1.1794 -0.9042327933353902 14.907201672766412 1.1759761644261872 1 0 0
315 105 1 0.5897 -0.6538265289619383 14.116673114764478 0.6976724217856811 1 0 0
223 75 2 -1.1794 -0.39233322169057283 11.860883388386242 3.1465709875884436 0 0 0
314 105 1 0.5897 -0.1089353203451493 15.169147040673602 1.6397526163550131 1 0 0
225 75 1 0.5897 -0.6427744971228364 12.664580384419924 3.6023539708577785 0 0 0
367 123 2 -1.1794 0.8656560309382835 16.304031031288172 2.6307791138457763 0 0 0
216 72 1 0.5897 1.043008105465609 12.359930470039199 2.1448946925463868 0 0 0
215 72 1 0.5897 1.9842105912566659 12.858432247711205 1.0690104597223364 0 0 0
252 84 1 0.5897 2.781982693240878 14.708331601770897 0.5167088071186073 0 0 0
423 141 1 0.5897 -2.4920761551252495 16.474190415942214 4.0286187878519435 1 0 0
368 123 1 0.5897 1.7784858018543153 16.056350831971766 2.483660187878431 0 0 0
406 136 2 -1.1794 3.340224167461904 15.796138148709097 1.7868968627082873 0 0 0
408 136 1 0.5897 3.805015672017177 16.534485351374848 1.3931589333213565 0 0 0
178 60 2 -1.1794 2.107332105198947 13.702695374422236 4.550839409062763 0 0 0
770 257 1 0.5897 -1.4205991057486966 12.34321319385766 0.260251433041158 1 0 1
222 74 1 0.5897 3.0739800167698714 11.421372534074422 2.808752956204698 0 0 0
269 90 1 0.5897 -3.581485314399575 12.942492434291477 1.1692783221844447 1 0 0
268 90 2 -1.1794 -3.395859914952435 12.590476214429756 0.29863948243082006 1 0 0
175 59 2 -1.1794 -0.6314735356263723 14.209665922132775 4.769859805954103 0 0 0
177 59 1 0.5897 0.3028587322276888 14.41144071304932 4.720430658658944 0 0 0
341 114 1 0.5897 3.125601488589269 15.368182868046471 4.67807737595487 0 0 0
176 59 1 0.5897 -1.0624438882692813 15.06438988785349 4.760632489007031 0 0 0
404 135 1 0.5897 -2.0339051230960736 15.817411946882551 7.462193935954454 0 0 0
422 141 1 0.5897 -2.4912284550390704 16.905835213248842 5.479778058338038 1 0 0
421 141 2 -1.1794 -2.54125544253599 16.130454374264012 4.920656093388379 1 0 0
327 109 1 0.5897 -3.9500312664324246 13.060414887821889 5.911014994856118 1 0 0
371 124 1 0.5897 0.1885533044632166 16.926987295806857 7.818144281211569 0 0 0
211 71 2 -1.1794 -0.26116009639367643 12.774915342319225 7.2488350360339 0 0 0
233 78 1 0.5897 2.4265127121153114 14.53179234311495 7.768532847639944 0 0 0
213 71 1 0.5897 -0.4206134071657863 13.337235782952293 6.490784657244889 0 0 0
212 71 1 0.5897 -0.5747233788850412 13.284675787655944 7.995965328253762 0 0 0
227 76 1 0.5897 1.223636076902757 12.065490646346227 6.865732514177591 0 0 0
232 78 2 -1.1794 1.789989095344363 14.786482927332306 8.436591671937249 0 0 0
326 109 1 0.5897 -3.155193511868874 11.8030933496964 5.628789637337156 1 0 0
234 78 1 0.5897 1.2217165139895663 15.419540484949001 7.99770655873483 0 0 0
370 124 2 -1.1794 0.03137711003984789 16.32497007503823 7.090662774497165 0 0 0
756 252 1 0.5897 -1.6656595440409214 14.685973541128064 9.214633911269479 0 0 0
277 93 2 -1.1794 -4.676697339409527 14.013954007080851 7.294864397810781 1 0 0
278 93 1 0.5897 -4.020633420640613 14.669790276584935 7.530808820657028 1 0 0
405 135 1 0.5897 -2.691036792466445 16.385733778656494 8.702134107297331 0 0 0
179 60 1 0.5897 2.2933496648542366 12.923626830862226 5.074966527293007 0 0 0
403 135 2 -1.1794 -2.6917519957588825 15.619224574225935 8.128674947721981 0 0 0
340 114 2 -1.1794 3.4793516772048143 16.21007646276496 4.965076433978071 0 0 0
267 89 1 0.5897 -4.089724331662591 12.569726688467723 8.787230824224642 1 0 0
325 109 2 -1.1794 -3.6869714897813757 12.474435319533967 5.2012052095330175 1 0 0
1004 335 1 0.5897 -5.492394182901425 17.099946541057406 8.920559682546914 1 0 0
279 93 1 0.5897 -5.5154317657091045 14.458470185890336 7.418276417714957 1 0 0
226 76 2 -1.1794 2.0286265961773626 11.631344790984329 6.583294272248135 0 0 0
425 142 1 0.5897 -4.3356095180541345 16.300982905612866 5.049349913405116 1 0 0
372 124 1 0.5897 -0.014406641543230236 16.888574982601565 6.318317697650871 0 0 0
727 243 2 -1.1794 -4.311558316156261 11.806126394292576 13.263469707915023 0 0 0
755 252 1 0.5897 -0.44555150935027 14.646707006675099 10.110004193784649 0 0 0
688 230 2 -1.1794 1.8368456224206282 12.626534776000286 10.156318811087104 0 0 0
718 240 2 -1.1794 -1.6592668023149146 12.41355718133738 12.069088371714281 0 0 0
912 304 1 0.5897 0.9527362208961385 15.34649626418084 11.590673179034528 0 0 0
720 240 1 0.5897 -1.486428140946285 13.131552834746454 12.678163202892096 0 0 0
1003 335 2 -1.1794 -5.783579655041603 16.620537418869667 9.696190548810742 1 0 0
871 291 2 -1.1794 -2.1308524661702917 16.40157350473685 12.323933304676338 0 0 0
1005 335 1 0.5897 -5.028020913661184 16.08939134127538 9.947778739678272 1 0 0
784 262 2 -1.1794 -6.632474207181984 13.999710299870067 11.95664019464014 1 0 0
729 243 1 0.5897 -4.335889058740035 12.651081338224266 13.71274136161209 0 0 0
911 304 1 0.5897 -0.44945809030370043 15.876426041789706 11.802804348616256 0 0 0
910 304 2 -1.1794 0.2707056785263471 15.87189746657797 11.172251098502265 0 0 0
846 282 1 0.5897 0.27228663809420706 17.084885098680257 13.958397760420324 0 0 0
728 243 1 0.5897 -3.5767788058426206 11.879161451711921 12.65436352354764 0 0 0
719 240 1 0.5897 -1.5217517346481175 12.795723365563582 11.202302857185439 0 0 0
786 262 1 0.5897 -6.7610046528227965 13.62883800275522 12.829696569765662 1 0 0
817 273 2 -1.1794 -4.104053864993265 14.79491292905472 11.096653638480284 1 0 0
818 273 1 0.5897 -4.922031232740171 14.515212011439855 11.507570180342132 1 0 0
819 273 1 0.5897 -3.8020890229802196 14.024985041955082 10.614549122155552 1 0 0
873 291 1 0.5897 -2.581229538793255 15.60384107633917 12.046392769760809 0 0 0
773 258 1 0.5897 -6.6938880925469295 12.713368334358595 10.767274340227942 1 0 0
925 309 2 -1.1794 -5.860039923439741 15.95889765795813 14.283288795856219 1 0 0
785 262 1 0.5897 -7.283804797113381 14.69845136772631 11.894437321931914 1 0 0
772 258 2 -1.1794 -6.613658074707773 12.233528944861925 9.942828618482901 1 0 0
962 321 1 0.5897 -6.157519949286695 17.09811219998708 12.782522691916569 1 0 0
829 277 2 -1.1794 -7.289230328384981 13.052655920673256 14.313341638028529 1 0 0
872 291 1 0.5897 -2.3953785452448715 17.06181055574682 11.683314380479596 0 0 0
831 277 1 0.5897 -7.990815136964542 12.422998164081477 14.147527865221297 1 0 0
754 252 2 -1.1794 -1.0655530480649862 14.080630927098449 9.650230078909663 0 0 0
682 228 2 -1.1794 -1.2808050080443731 14.178576676694997 14.123722855073444 0 0 0
684 228 1 0.5897 -0.7844941895671065 14.984915767857823 14.264170423059293 0 0 0
359 120 1 0.5897 0.36937187106539726 17.155565675209793 9.776367257509065 0 0 0
774 258 1 0.5897 -5.676747032866059 12.247139221159754 9.747369416913351 1 0 0
266 89 1 0.5897 -3.2664162234622514 11.655764305715062 9.669792791565643 1 0 0
690 230 1 0.5897 1.7300654603597136 13.450765203258184 9.681402748902968 0 0 0
265 89 2 -1.1794 -3.9563479910957096 12.318594653056389 9.701251392915406 1 0 0
830 277 1 0.5897 -7.536688656652892 13.476932280877325 15.135012361370473 1 0 0
844 282 2 -1.1794 0.40324646488022875 16.322233472783733 14.521885806302235 0 0 0
717 239 1 0.5897 -2.972443683000085 12.37915900039634 17.126590858228333 0 0 0
927 309 1 0.5897 -5.740305915298354 16.81919880554325 14.685668500987784 1 0 0
679 227 2 -1.1794 -3.874171596480984 14.254595356398964 15.108808112989266 0 0 0
681 227 1 0.5897 -3.8564020171721696 13.62118367000531 15.826280154901237 0 0 0
930 310 1 0.5897 -7.691557923035015 16.022280578977142 14.714409652018832 1 0 0
874 292 2 -1.1794 -3.2186872652277225 16.913350889904383 17.20884590417738 0 0 0
715 239 2 -1.1794 -3.9162139111494216 12.507518208396053 17.221538461930052 0 0 0
716 239 1 0.5897 -4.007602862705961 13.04299878164117 18.009748891432977 0 0 0
737 246 1 0.5897 -1.4133060176631815 15.4169079526209 18.357129872342213 0 0 0
907 303 2 -1.1794 -5.989136353544788 16.132077621437816 17.677248050437235 0 0 0
251 84 1 0.5897 -5.03234736152695 15.004973793933617 18.721306085329246 0 0 -1
876 292 1 0.5897 -2.850863657103118 16.04450448304948 17.047033244954847 0 0 0
736 246 2 -1.1794 -1.6379967192956553 14.811745761465062 17.650289040729447 0 0 0
909 303 1 0.5897 -5.181112951522286 16.38918930063985 17.23326886681751 0 0 0
781 261 2 -1.1794 -7.540918729536182 14.016712978036926 16.784517382208058 1 0 0
782 261 1 0.5897 -7.328766629264077 13.617673829154231 17.628350780154314 1 0 0
783 261 1 0.5897 -8.401856818739944 14.413762942610253 16.916491798261227 1 0 0
908 303 1 0.5897 -6.389101232383197 15.487559808150728 17.09337695325091 0 0 0
730 244 2 -1.1794 -1.46371376021943 12.012239336486854 15.749593924683827 0 0 0
680 227 1 0.5897 -2.9899122298750456 14.228064398550888 14.743331792370652 0 0 0
806 269 1 0.5897 -6.206702775875934 11.604563828655008 15.243919433676128 1 0 0
683 228 1 0.5897 -1.0555073781207387 13.624802998578682 14.871292990484477 0 0 0