LAMMPS data file via write_data, version 30 Jul 2021, timestep = 14500000

1296 atoms
2 atom types
864 bonds
1 bond types
432 angles
1 angle types

-10.681464577619222 12.661464577619222 xlo xhi
-9.190270740680932 12.180268740680932 ylo yhi
-0.058343363370386925 21.918342363368307 zlo zhi
-9.175750354745949 1.8482641248829954 2.8220381301190933 xy xz yz

Masses

1 1.008
2 15.999

Pair Coeffs # lj/cut/tip4p/long/omp

1 0 0
2 0.21084 3.1668

Bond Coeffs # harmonic/omp

1 450 0.9572

Angle Coeffs # harmonic/omp

1 55 104.52

Atoms # full

280 94 2 -1.1794 -9.433243991040639 -4.52714366694082 1.6293492338780122 1 1 0
270 90 1 0.5897 -8.206186229669587 -7.45285764633379 2.2114319970928915 1 1 0
269 90 1 0.5897 -9.080171358568823 -6.224781932016298 2.352939460134193 1 1 0
268 90 2 -1.1794 -8.903677686743938 -7.078081880503475 2.7492255872982123 1 1 0
314 105 1 0.5897 -8.744433622912792 -6.6514684177467185 4.628302913841475 1 1 0
299 100 1 0.5897 -6.594181624692391 -7.989702561200978 4.115586112822424 1 1 0
163 55 2 -1.1794 -7.120812250860199 -8.201641542870313 0.9171728371271328 1 1 0
164 55 1 0.5897 -6.268897669377454 -8.508994140125088 1.2267905040321894 1 1 0
298 100 2 -1.1794 -6.011206746575237 -7.236124284645337 4.023145340712095 1 1 0
1226 409 1 0.5897 -9.993277412048233 -5.580566783488134 -0.018724305420720656 0 0 1
275 92 1 0.5897 -10.460509409124715 -8.129814452365268 3.3552636186025 1 1 0
199 67 2 -1.1794 0.30903777805934496 -7.959611671427962 0.6434370051493065 1 1 0
324 108 1 0.5897 -7.0881227666752675 -4.319047542458802 3.5147856567932307 1 1 0
300 100 1 0.5897 -5.161790012885803 -7.616084890724149 3.79896915252489 1 1 0
281 94 1 0.5897 -8.841587296177789 -3.8757158013389503 1.2527659980663335 1 1 0
243 81 1 0.5897 -1.117890554562095 -5.7818542663096135 5.176132346469178 0 1 0
73 25 2 -1.1794 -8.345487747290548 -3.746183373880676 4.685302766955032 1 0 0
305 102 1 0.5897 -1.6821939313814749 -6.166799964359436 2.0677392579036296 1 1 0
323 108 1 0.5897 -6.258616428427131 -5.583203023671511 3.4380369892930207 1 1 0
322 108 2 -1.1794 -6.298480922153674 -4.683101992597164 3.1146775957636197 1 1 0
261 87 1 0.5897 -6.5424988892388845 -5.330796822043721 1.283845611269858 1 1 0
242 81 1 0.5897 -1.1753525073769602 -7.1776187691199596 4.592317844687541 0 1 0
260 87 1 0.5897 -6.871943286203553 -6.4542945355601695 0.32398707089276685 1 1 0
306 102 1 0.5897 -1.0968303082296007 -7.5494968025495455 1.8735691351312385 1 1 0
282 94 1 0.5897 -10.296987818622364 -4.116397287226234 1.5925327422129647 1 1 0
316 106 2 -1.1794 -1.9297518912315645 -4.522783309496738 1.2748141748359507 1 1 0
304 102 2 -1.1794 -1.686938864938199 -7.049687226136986 2.4376426198983134 1 1 0
241 81 2 -1.1794 -1.1842075420768854 -6.7040678081646154 5.424110093605176 0 1 0
311 104 1 0.5897 -2.952621568349816 -8.184481863210664 3.2073911988458716 1 1 0
318 106 1 0.5897 -2.7499288460066476 -4.0751082122524025 1.4823012998262612 1 1 0
259 87 2 -1.1794 -6.711404809324908 -5.511222506550887 0.3591465556093928 1 1 0
75 25 1 0.5897 -9.156263536663833 -3.5105599728749857 4.23452092906083 1 0 0
3 1 1 0.5897 -1.653127990369132 -3.5968290405225503 4.354767806226282 0 0 0
165 55 1 0.5897 -7.335559772816216 -8.783934494955774 0.18841688859080993 1 1 0
317 106 1 0.5897 -1.247045710934529 -3.8971387588855197 1.5171601072874483 1 1 0
293 98 1 0.5897 -5.007009650524325 -3.681358051521152 2.2310956954069145 1 1 0
1 1 2 -1.1794 -0.9134127665113922 -4.06171454578398 4.745687073635866 0 0 0
1262 421 1 0.5897 -2.1638309577419435 -5.765496908128984 -0.02190373173461426 0 0 1
201 67 1 0.5897 0.09097623317591008 -8.594228890847823 -0.03920549920800811 1 1 0
420 140 1 0.5897 -8.943432420545301 -6.577642561027331 9.85669729100655 1 0 0
618 206 1 0.5897 -7.812686201872838 -7.3883145905312535 6.766270689853178 1 1 0
413 138 1 0.5897 -7.629804600255495 -3.4899634161329924 7.603645325351991 1 0 0
419 140 1 0.5897 -8.744285015901914 -5.4034741296669075 8.922001470684625 1 0 0
418 140 2 -1.1794 -9.423904504894777 -5.9124554972626076 9.363876438796694 1 0 0
414 138 1 0.5897 -6.655166477767983 -4.642046118928388 7.482270624351477 1 0 0
350 117 1 0.5897 -7.020350806300674 -4.045331204156133 10.155029202352127 0 0 0
412 138 2 -1.1794 -7.31231889769963 -4.264941446159742 8.06718055271117 1 0 0
429 143 1 0.5897 -6.209111309792039 -7.253041574204965 8.60568281060744 1 0 0
427 143 2 -1.1794 -5.827422461181646 -6.928035168404922 9.421067055553221 1 0 0
428 143 1 0.5897 -6.518332168284047 -7.0454162421690185 10.0729779626438 1 0 0
404 135 1 0.5897 -5.353172694687737 -3.5956257903424182 5.622253639167434 1 0 0
631 211 2 -1.1794 -5.385722646363725 -5.303974388854954 6.261612387880607 1 1 0
627 209 1 0.5897 -10.30324260717658 -6.852266826478352 6.538828988505446 1 1 0
348 116 1 0.5897 -1.3175835096026223 -6.511458840537006 9.64654319688531 0 0 0
335 112 1 0.5897 -4.794124477043307 -5.440594668656695 9.479958659405279 0 0 0
356 119 1 0.5897 1.2782426943210883 -7.367698346510568 10.113091423890577 0 0 0
336 112 1 0.5897 -3.3471258540720124 -4.9959068505585 9.488215319436538 0 0 0
632 211 1 0.5897 -4.6319603977658 -5.73048938792418 6.669092390265957 1 1 0
359 120 1 0.5897 -4.481141751197766 -3.101901405753706 8.75077701132132 0 0 0
553 185 2 -1.1794 -3.2586422074346055 -6.963523678077413 7.1005683858993365 0 1 0
346 116 2 -1.1794 -1.7116955324240823 -5.849758154266741 9.078194502364752 0 0 0
554 185 1 0.5897 -2.7640055613544394 -6.613741555979849 7.841611229178562 0 1 0
546 182 1 0.5897 -0.05887325765235474 -7.552523491434593 6.636579819070858 0 1 0
334 112 2 -1.1794 -4.237195913369251 -4.678929978889277 9.64124735766737 0 0 0
616 206 2 -1.1794 -7.384622774419832 -8.075329367546871 7.277133355655255 1 1 0
555 185 1 0.5897 -2.7059877671728714 -6.788254943753191 6.338996060620445 0 1 0
347 116 1 0.5897 -0.9670428547992067 -5.3669353239041335 8.719638391653158 0 0 0
351 117 1 0.5897 -7.085691178403218 -2.7355305909473415 10.911576977938486 0 0 0
544 182 2 -1.1794 0.33635983237026856 -8.061640507914152 7.344204595550216 0 1 0
326 109 1 0.5897 -3.3873505179199643 -7.7820232320231515 10.691692910727513 0 0 0
633 211 1 0.5897 -5.703590438616633 -5.939849490827187 5.620591067616983 1 1 0
408 136 1 0.5897 -11.02949354826767 -4.91005722596377 9.585826867927558 1 0 0
626 209 1 0.5897 -10.459869999194535 -6.532252538090682 8.010152231621861 1 1 0
327 109 1 0.5897 -4.26936329327297 -7.906165484964145 9.46767516094787 0 0 0
655 219 2 -1.1794 -0.4316564635977205 -7.608861138807113 10.877542211032992 0 0 0
315 105 1 0.5897 -8.654411913983505 -5.433086831796816 5.522528490468934 1 1 0
2 1 1 0.5897 -0.6778963344099296 -3.537265963637388 5.5110187161971655 0 0 0
313 105 2 -1.1794 -8.747333268276181 -6.385520831746447 5.547781298650244 1 1 0
652 218 2 -1.1794 -5.7361380841310154 -5.1797109231144125 12.948699155778414 0 0 0
780 260 1 0.5897 -7.5676463657201305 -3.711446416420685 15.348475470176831 0 0 0
779 260 1 0.5897 -7.231842438855834 -2.7051721537073483 14.268423583817855 0 0 0
778 260 2 -1.1794 -7.968768650979655 -3.157782842028613 14.678618274449649 0 0 0
768 256 1 0.5897 -9.577501292570203 -2.5530849489110334 14.977301803063462 0 0 0
654 218 1 0.5897 -6.147453821183077 -4.687683060741535 12.238159655742585 0 0 0
653 218 1 0.5897 -6.387688148474072 -5.836467969935159 13.19447603079184 0 0 0
662 221 1 0.5897 -8.924105080087989 -4.114304184393545 13.462486746290429 0 0 0
661 221 2 -1.1794 -9.384992040621707 -4.39317280596284 12.671305062497826 0 0 0
663 221 1 0.5897 -8.820336961816608 -4.109908404829027 11.952232162614251 0 0 0
684 228 1 0.5897 -8.328552546474217 -6.5217289096508075 14.34523901654792 0 0 0
739 247 2 -1.1794 -11.521295398296747 -2.894833521573746 11.880995466751363 1 0 0
767 256 1 0.5897 -11.024413665027295 -2.997120442146681 15.007075796776794 0 0 0
802 268 2 -1.1794 -2.9287080142595494 -2.2818463492568677 15.04553377007708 0 0 0
657 219 1 0.5897 -0.29267122226636033 -7.21402903337826 11.738355049143319 0 0 0
766 256 2 -1.1794 -10.464434329423971 -2.2322680946668765 15.140241909152826 0 0 0
682 228 2 -1.1794 -7.661671797235331 -6.929234153645975 13.792611048279127 0 0 0
788 263 1 0.5897 -5.159454333700519 -4.462690088205937 15.839104333191734 0 0 0
699 233 1 0.5897 -1.0308768161227704 -4.334990653856503 11.90362904259106 0 0 0
678 226 1 0.5897 -4.038902898195071 -6.048745529300317 12.18810158610851 0 0 0
789 263 1 0.5897 -4.903865691147237 -4.62265853936191 14.355603742250185 0 0 0
758 253 1 0.5897 -9.449157825609598 -5.295338683382391 16.0956009357162 0 0 0
697 233 2 -1.1794 -1.7219677964728586 -4.39669065425281 12.56295642972065 0 0 0
787 263 2 -1.1794 -4.454241344088699 -4.531685326490011 15.195640656586312 0 0 0
718 240 2 -1.1794 -0.31041101178847263 -6.8787899378475235 13.685710961990269 0 0 0
677 226 1 0.5897 -2.533842175320835 -5.985756468842789 12.33758558561026 0 0 0
668 223 1 0.5897 -3.215918972819754 -3.221082326681829 12.025295414857093 0 0 0
729 243 1 0.5897 -7.766313723214332 -7.038769488092807 12.021599024917043 1 0 0
793 265 2 -1.1794 -2.143305977110094 -5.750318709063654 15.727569390509865 0 0 0
816 272 1 0.5897 0.01854797105974626 -3.8445278458467387 15.318817660217878 0 0 0
667 223 2 -1.1794 -3.98442781820156 -2.7668467307492257 11.68005961728243 0 0 0
676 226 2 -1.1794 -3.240065830203232 -6.548614736593411 12.020307400768933 0 0 0
814 272 2 -1.1794 -0.3633547623887754 -3.1874809246016644 14.736889324981473 0 0 0
803 268 1 0.5897 -3.471375225147897 -3.070398097174486 15.049480363046955 0 0 0
804 268 1 0.5897 -2.042195228644415 -2.601607054089559 14.87829375877254 0 0 0
795 265 1 0.5897 -2.9640070848789764 -5.3562053647119825 15.432215640180633 0 0 0
720 240 1 0.5897 -0.8251131535037004 -6.393076430404424 14.330218885197077 0 0 0
698 233 1 0.5897 -1.3628104286865312 -3.950081855662961 13.329607827029513 0 0 0
740 247 1 0.5897 -10.80540828148388 -3.3476639607681813 12.326600108589817 1 0 0
774 258 1 0.5897 -5.153494412746642 -2.314616974780762 12.915099932245585 0 0 0
749 250 1 0.5897 -10.259916347976999 -6.081317213175687 12.384260541138227 1 0 0
757 253 2 -1.1794 -9.493649718665694 -5.858176850745862 15.322626009236805 0 0 0
689 230 1 0.5897 1.0974711463946587 -6.184058598706635 13.00626155592358 0 0 0
727 243 2 -1.1794 -7.85562573398448 -7.436352557123315 11.155484000180122 1 0 0
669 223 1 0.5897 -4.3385906096708435 -3.3624991068460446 11.01973578361848 0 0 0
349 117 2 -1.1794 -7.25663184076124 -3.672818388982531 11.004498774923372 0 0 0
1150 384 2 -1.1794 -6.477492073943477 -4.410228475939111 19.428369924761473 0 0 0
1152 384 1 0.5897 -7.100653591656611 -3.9879752857685036 20.019609181676852 0 0 0
1227 409 1 0.5897 -9.178627883217954 -2.9109124709081318 20.862524214313183 0 0 0
1109 370 1 0.5897 -9.125984077815747 -3.608736907805995 17.775425031505986 0 0 0
1089 363 1 0.5897 -6.615128519142187 -4.361795015730825 17.617601353804552 0 0 0
1151 384 1 0.5897 -6.3366654674297695 -5.27775023801847 19.80770630464593 0 0 0
1108 370 2 -1.1794 -9.721502404902667 -4.3405991583272225 17.614085092237676 0 0 0
1225 409 2 -1.1794 -8.362793007880704 -3.2884417805230592 21.191141590781367 0 0 0
1186 396 2 -1.1794 1.2919730732205483 -4.426918170039119 19.345731516074512 0 0 0
1219 407 2 -1.1794 -10.562177411653352 -1.7780030960678808 20.294882623217894 0 0 0
1141 381 2 -1.1794 -8.59026019622938 -6.192714673387243 21.7936193549014 0 0 0
1125 375 1 0.5897 1.1682450767677626 -4.695699964483476 17.49210826193036 0 0 0
1187 396 1 0.5897 1.6484736246501814 -5.260889835683085 19.651822479227672 0 0 0
1188 396 1 0.5897 0.8044340819193376 -4.08478834350753 20.095024277580755 0 0 0
1146 382 1 0.5897 -2.650139229004724 -3.715252556909708 18.054570483701237 0 0 0
1087 363 2 -1.1794 -6.716582347979686 -4.606826813054539 16.697907890249823 0 0 0
1124 375 1 0.5897 1.1002793308463001 -5.813525973502592 16.473303702724372 0 0 0
1121 374 1 0.5897 -5.030243192468189 -3.2827258523547673 18.66377474419585 0 0 0
1122 374 1 0.5897 -4.661411858388976 -2.266316299290537 17.604169005429227 0 0 0
1166 389 1 0.5897 0.4271691077185267 -1.786182351566616 18.774906572525975 0 0 0
1145 382 1 0.5897 -1.176841022173969 -3.3781554130367493 17.96884319688577 0 0 0
1129 377 2 -1.1794 -7.835882480757317 -2.053886302676325 17.865331335337714 0 0 0
1097 366 1 0.5897 -9.260101040672604 -5.929627291211395 18.61827818623777 0 0 0
1178 393 1 0.5897 -0.7692655482494377 -6.458294128220713 20.837405787271393 0 0 0
1096 366 2 -1.1794 -8.93030667380416 -6.695865577755342 19.08771549639603 0 0 0
1144 382 2 -1.1794 -1.7825194784848222 -4.11776896600846 18.017957373312516 0 0 0
1133 378 1 0.5897 -1.35817098679364 -5.734276488934819 18.751124379260858 0 0 0
1263 421 1 0.5897 -1.4561086746568819 -2.996281902066296 20.960849537830793 0 0 0
1257 419 1 0.5897 -3.2562324762811885 -2.400183423012807 19.75705724382791 0 0 0
1261 421 2 -1.1794 -0.6177600210135381 -3.406324759731916 21.173340085780215 0 0 0
1130 377 1 0.5897 -7.421161819634196 -2.0464831098528853 18.72792067179965 0 0 0
1255 419 2 -1.1794 -2.861074910086433 -2.1001490566706122 20.575589728677365 0 0 0
1256 419 1 0.5897 -3.4635761089262456 -2.399062410964733 21.256614839643643 0 0 0
1120 374 2 -1.1794 -4.279279706218534 -2.905071616897617 18.205962041847105 0 0 0
1248 416 1 0.5897 -5.857159431458422 -1.728160410981907 20.9692142433174 0 0 0
1132 378 2 -1.1794 -1.128966155147534 -6.615760158217416 19.0457041555425 0 0 0
1165 389 2 -1.1794 0.017133785475099472 -1.9660360401946377 17.928939988921684 0 0 0
1088 363 1 0.5897 -6.828745026242633 -5.5573935537699555 16.713669179414772 0 0 0
1143 381 1 0.5897 -8.522649811047229 -5.250715694738336 21.637231186355987 0 0 0
1177 393 2 -1.1794 -0.8754212232179501 -6.166784073713435 21.74290565046345 0 0 0
1179 393 1 0.5897 -0.8260581771843114 -5.21196481960137 21.69509177839034 0 0 0
1131 377 1 0.5897 -7.134624867502929 -1.813611935096036 17.25981849197108 0 0 0
1221 407 1 0.5897 -10.989562876652375 -2.114763814946871 19.507414569613786 0 0 0
1246 416 2 -1.1794 -6.328507261625852 -1.2798759643199977 20.267072802033592 0 0 0
794 265 1 0.5897 -1.9018809197740314 -5.247289394926269 16.505331571107853 0 0 0
1123 375 2 -1.1794 1.268167958628137 -4.874817742229435 16.557180413842243 0 0 0
59 20 1 0.5897 -13.309504161467721 -1.0966347118829205 3.1282426017408906 1 0 0
96 32 1 0.5897 -6.301574486242983 -1.7067832545846278 4.367827885590153 1 0 0
98 33 1 0.5897 -11.969373829160487 0.3248955114953187 4.380732773892308 1 0 0
54 18 1 0.5897 -11.339555179149109 -0.3392196204775413 1.9417370821873288 1 0 0
107 36 1 0.5897 -9.474835104113339 1.635758228166397 3.1735263188805405 1 0 0
301 101 2 -1.1794 -7.953663662774767 -2.1960221584814317 1.4266034461029862 1 1 0
44 15 1 0.5897 -10.12837410498319 0.9629552780509538 0.11148005361071939 1 0 0
271 91 2 -1.1794 -10.20122366628375 -0.8936889411621998 0.7915075457454106 1 1 0
68 23 1 0.5897 -11.235684884709974 -2.3768454443525444 4.593846815201676 1 0 0
67 23 2 -1.1794 -10.56418911693449 -2.388018257175945 3.911865619903101 1 0 0
52 18 2 -1.1794 -11.942509824889832 0.13830898645793255 2.5114962915229997 1 0 0
258 86 1 0.5897 -12.328042313675539 -2.8625104992270547 1.0881413779795421 1 1 0
53 18 1 0.5897 -12.106919945258507 0.9612814365910758 2.0510826047089044 1 0 0
69 23 1 0.5897 -11.040641304674365 -2.6004908656611905 3.1093788160672546 1 0 0
82 28 2 -1.1794 -9.297006584862055 0.0019581449480998714 4.156794629317077 1 0 0
272 91 1 0.5897 -9.361140079487187 -1.1301820220077765 1.1844583659911034 1 1 0
83 28 1 0.5897 -9.858781557264788 -0.755466116564099 3.992380085573587 1 0 0
309 103 1 0.5897 -2.6155134464603815 -1.438943276638053 0.04261330747118952 1 1 0
88 30 2 -1.1794 -4.632490887116392 -0.018271519384319035 2.2499585129571344 1 0 0
84 28 1 0.5897 -8.406040720510886 -0.34178852270607507 4.09249709448076 1 0 0
94 32 2 -1.1794 -6.737214362138305 -1.0822678305221682 3.7878398221184684 1 0 0
303 101 1 0.5897 -7.247349383790745 -2.140834326617888 0.7830217285667586 1 1 0
302 101 1 0.5897 -7.53091155450716 -2.0052048469323704 2.2638549410875313 1 1 0
90 30 1 0.5897 -3.9640247090207072 -0.42183848604430096 1.6963754727621927 1 0 0
292 98 2 -1.1794 -4.296019720777059 -3.307109272571865 1.7109096111580997 1 1 0
95 32 1 0.5897 -6.062542783695951 -0.8286655055276047 3.1580424753409018 1 0 0
26 9 1 0.5897 -4.282827659612489 0.25632599574506365 4.253633370729973 0 0 0
294 98 1 0.5897 -4.737548224763925 -2.8421897201988795 1.0002493422197836 1 1 0
89 30 1 0.5897 -4.632633177002517 0.9037908387555298 1.9927219876266915 1 0 0
105 35 1 0.5897 -3.2507251457243234 -2.431276181668294 2.970801000330417 1 0 0
103 35 2 -1.1794 -2.8161748671110276 -2.363864564903987 3.820938263895761 1 0 0
104 35 1 0.5897 -3.528430871842702 -2.4085758877542522 4.458763377516469 1 0 0
273 91 1 0.5897 -10.332761166912567 -1.5410326462091346 0.0987274848006463 1 1 0
27 9 1 0.5897 -4.038504998110697 1.5318923143902037 5.031740373752848 0 0 0
256 86 2 -1.1794 -11.942818694989596 -3.4036644995855854 1.7772773706758205 1 1 0
99 33 1 0.5897 -11.871167215517174 1.6650109170661196 5.0783782587469 1 0 0
25 9 2 -1.1794 -4.0456229952353455 0.5789939047193453 5.122998452347573 0 0 0
97 33 2 -1.1794 -12.04832768488598 0.7383296363827014 5.240414573637387 1 0 0
74 25 1 0.5897 -8.241697449972488 -3.074343378179443 5.359220791471101 1 0 0
528 176 1 0.5897 -12.270939642372593 0.8700260720823323 10.340652359966866 1 0 0
443 148 1 0.5897 -7.95151320271825 1.6604378031174782 9.737060400132556 0 0 0
425 142 1 0.5897 -7.509539670387106 -1.1490963657540725 6.725917935782483 1 0 0
527 176 1 0.5897 -12.041674644174874 1.828213804906314 9.191240645787124 1 0 0
537 179 1 0.5897 -9.584093235452096 -0.07578519517601379 8.830801285771853 1 0 0
424 142 2 -1.1794 -8.033256086091331 -1.9503679997069723 6.7278273840233895 1 0 0
535 179 2 -1.1794 -8.995813786898871 -0.021769694678837936 9.583867477773353 1 0 0
426 142 1 0.5897 -8.934968704363495 -1.6472923245582916 6.833530892126903 1 0 0
402 134 1 0.5897 -10.900531624878889 -0.12999134213146668 6.662673152440607 1 0 0
401 134 1 0.5897 -11.109768704451712 -1.3150704525568608 7.581244579926694 1 0 0
526 176 2 -1.1794 -12.735334352848328 1.4002724834911024 9.693095651430859 1 0 0
536 179 1 0.5897 -9.578899725658879 0.0588416900979194 10.338621794606016 1 0 0
400 134 2 -1.1794 -10.45427097102492 -0.6705822806681638 7.314406975626885 1 0 0
435 145 1 0.5897 -7.141624700590966 -0.7077361652876508 9.779182102321283 0 0 0
415 139 2 -1.1794 -8.658835513594866 1.7217822859878993 6.384665376075648 1 0 0
405 135 1 0.5897 -5.173405984866623 -2.2571747646124294 6.306730014242557 1 0 0
411 137 1 0.5897 -13.40794834472492 0.4659942069786762 6.480042129141734 1 0 0
433 145 2 -1.1794 -6.399730840080852 -1.1460830232803882 10.195788569143197 0 0 0
454 152 2 -1.1794 -4.811778159487807 1.2916343950172546 8.911614338504524 0 0 0
522 174 1 0.5897 -9.883452815730653 2.324010054106152 7.685865649707721 1 0 0
416 139 1 0.5897 -7.866509407116034 1.2542560472203235 6.648783457563467 1 0 0
358 120 2 -1.1794 -4.598806050903272 -2.220130957537787 8.397270469746356 0 0 0
338 113 1 0.5897 -5.903860586298345 0.3393872189946503 7.602850504616511 0 0 0
455 152 1 0.5897 -4.025055373484287 1.6693321784500412 8.51847072097052 0 0 0
337 113 2 -1.1794 -6.350877754578078 0.2582112565049943 6.760414037228209 0 0 0
360 120 1 0.5897 -5.19882896255601 -1.7941722149772623 9.009422164759068 0 0 0
442 148 2 -1.1794 -7.392985297935596 2.427063366566511 9.60806110530576 0 0 0
329 110 1 0.5897 -3.2181743947674084 -1.258171802781269 7.468233679042897 0 0 0
456 152 1 0.5897 -4.501491373189139 0.8724320838895991 9.714188488443556 0 0 0
330 110 1 0.5897 -3.084573029078106 -0.30936998381244685 6.296158149907951 0 0 0
339 113 1 0.5897 -5.654176082416341 0.34417493564207113 6.109766290845478 0 0 0
444 148 1 0.5897 -6.5135445761052395 2.066747768707174 9.49461342048514 0 0 0
328 110 2 -1.1794 -2.5687078438197997 -0.791199243794976 6.942577294684661 0 0 0
464 155 1 0.5897 -1.8461086748694786 0.06137886778176416 9.854583485938221 0 0 0
403 135 2 -1.1794 -5.206457822469961 -2.6669321685326715 5.442308602330345 1 0 0
410 137 1 0.5897 -13.662579765705974 0.5083025676215129 7.971700074499248 1 0 0
434 145 1 0.5897 -6.1332889484962365 -0.552018229985519 10.897476301098434 0 0 0
417 139 1 0.5897 -9.088900504898396 1.133406453810153 5.764085263910443 1 0 0
763 255 2 -1.1794 -3.3810802365001074 -0.14583003997928934 10.899203295798946 0 0 0
764 255 1 0.5897 -3.560205034063033 -1.0861811365121614 10.892150582090338 0 0 0
797 266 1 0.5897 -1.9376527224722722 1.1797144574090268 13.411359306813564 0 0 0
896 299 1 0.5897 -8.048320587346122 2.501312559906106 15.79318012693618 0 0 0
806 269 1 0.5897 -4.06062219832449 2.894650294704526 13.432887423937947 0 0 0
902 301 1 0.5897 -4.843688105833036 1.8344814834088972 16.237996437433484 0 0 0
837 279 1 0.5897 -11.036848900657217 0.007057853085880694 12.358411232103087 1 0 0
792 264 1 0.5897 -11.538358960253268 0.803845100387063 14.812743300495562 0 0 0
762 254 1 0.5897 -9.353839364410383 2.3114276553149544 12.401311659060724 0 0 0
760 254 2 -1.1794 -8.834678577649957 1.650302938524982 12.859118515376357 0 0 0
791 264 1 0.5897 -10.90090704326015 -0.5179705106904606 14.440430245168947 0 0 0
761 254 1 0.5897 -9.482522053882494 1.0881129997747063 13.283874124732273 0 0 0
790 264 2 -1.1794 -10.964493475121317 0.39632236845820756 14.164054965350953 0 0 0
772 258 2 -1.1794 -5.751382042015075 -1.9517492873331905 13.568584760944221 0 0 0
826 276 2 -1.1794 -3.4654319604506707 0.07122353401181414 13.670662227287185 0 0 0
897 299 1 0.5897 -7.962760552802976 2.419946776950459 14.28396495347387 0 0 0
786 262 1 0.5897 -7.116886841245812 0.8460835079686273 12.512443789166468 0 0 0
771 257 1 0.5897 -12.077793678890849 2.7028172815312796 11.96213567221066 0 0 0
770 257 1 0.5897 -12.209166425284906 3.0113002068840107 13.438379747475077 0 0 0
835 279 2 -1.1794 -11.234463531662938 -0.21383712575832625 11.448296141355568 1 0 0
828 276 1 0.5897 -4.223999828163041 0.4840738306850163 14.08333034305362 0 0 0
903 301 1 0.5897 -5.9014829885658315 1.7575653419506594 15.157860350995172 0 0 0
888 296 1 0.5897 -10.644639117434526 3.37200745518993 15.433543738492466 0 0 0
895 299 2 -1.1794 -7.468675246977902 2.6944706007386454 15.056404949176942 0 0 0
773 258 1 0.5897 -5.8774050677688585 -1.041734363622199 13.299617299982426 0 0 0
818 273 1 0.5897 -5.635507509197041 -1.6229818786497159 15.490281338549556 0 0 0
784 262 2 -1.1794 -6.245095300260739 0.5117626754692175 12.301871867569309 0 0 0
901 301 2 -1.1794 -5.156651557636229 1.2801592402770776 15.523130537387473 0 0 0
765 255 1 0.5897 -3.332193310976871 0.08226335306219745 11.827508711539542 0 0 0
785 262 1 0.5897 -5.674200823221486 1.2780380245442036 12.358521964060063 0 0 0
827 276 1 0.5897 -3.4635391934321147 -0.8230974988703448 14.012028045463403 0 0 0
807 269 1 0.5897 -3.8452280745387455 2.845558017355229 11.935267282991566 0 0 0
769 257 2 -1.1794 -12.699813702991566 2.6738058215998937 12.689036085873031 0 0 0
805 269 2 -1.1794 -4.513247796798227 2.716678371222006 12.608521084453217 0 0 0
836 279 1 0.5897 -11.390480912801438 -1.1582677225171736 11.458911298075977 1 0 0
924 308 1 0.5897 -2.7346838001467813 3.230097870057021 15.539113506243243 0 0 0
817 273 2 -1.1794 -5.7288081001256215 -1.2702131620761392 16.375183376627184 0 0 0
819 273 1 0.5897 -5.597812676830017 -0.3274676899898026 16.27288355679332 0 0 0
1045 349 2 -1.1794 -3.5870198978192533 3.580055619849004 21.003409011216082 0 -1 0
1232 411 1 0.5897 -2.0778095775865992 1.1177938805344745 16.869886014478126 0 0 0
1250 417 1 0.5897 -11.843087090876505 1.0234378804099418 20.64303744567616 0 0 0
1247 416 1 0.5897 -5.640632958328921 -0.8986989270261709 19.72145842178354 0 0 0
1047 349 1 0.5897 -4.433158210267447 4.019278181068163 20.91823045720488 0 -1 0
1216 406 2 -1.1794 -12.607384264460439 3.124192367779024 18.033897322618838 0 0 0
1197 399 1 0.5897 -9.85608834228897 2.3889165805691004 17.633891358134232 0 0 0
1206 402 1 0.5897 -11.363772362904346 0.326010457618203 18.55112297389228 0 0 0
1235 412 1 0.5897 -9.487733951843204 -0.34142277440213675 20.493794983138077 0 0 0
1196 399 1 0.5897 -9.889149283891696 1.3255061382448439 16.556792980399525 0 0 0
1240 414 2 -1.1794 -4.375289170578324 0.33118377156175427 19.04959285812509 0 0 0
1231 411 2 -1.1794 -1.8637421799413314 2.041422190178997 16.737737419829664 0 0 0
1099 367 2 -1.1794 -10.099000933020534 -0.40314263313942256 17.249363854307756 0 0 0
1009 337 2 -1.1794 -11.305807186092082 3.9408786765179205 21.02866083233833 0 -1 0
1195 399 2 -1.1794 -9.831374903349397 2.2725283707568753 16.684159956002347 0 0 0
1236 412 1 0.5897 -7.990266627582677 -0.19258682778973224 20.329492336880573 0 0 0
1100 367 1 0.5897 -9.60013286134205 -0.9670032928512295 17.84041052633069 0 0 0
1260 420 1 0.5897 -9.965747125377794 3.2064465536916327 20.04243820500148 0 0 0
1234 412 2 -1.1794 -8.77250452511779 0.28477245840934806 20.605915731325933 0 0 0
1258 420 2 -1.1794 -9.29031451234641 2.7633325601593235 19.52898577447898 0 0 0
1259 420 1 0.5897 -9.187321521135804 1.9110499316798926 19.952451693466358 0 0 0
1204 402 2 -1.1794 -12.167933104050372 0.6350796753024817 18.96818824420287 0 0 0
1271 424 1 0.5897 -1.709467777702935 -0.39693242563097364 20.7490937494011 0 0 0
1294 432 2 -1.1794 -1.5083007804367234 2.6387523080072377 19.413755802327945 0 0 0
1233 411 1 0.5897 -1.8377530310901449 2.410533586681371 17.620509891009764 0 0 0
866 289 1 0.5897 -12.770559002325342 2.0056063155615256 16.540943831887223 0 0 0
1135 379 2 -1.1794 -2.272405062289515 -0.6482492465594376 17.300582463828658 0 0 0
1137 379 1 0.5897 -2.554322709744971 -1.1843670124182726 16.55940161121024 0 0 0
1254 418 1 0.5897 -5.506033192956551 3.1229935801663586 18.00774523763446 0 0 0
1136 379 1 0.5897 -1.4641881143014643 -1.0625760042800874 17.60263005271458 0 0 0
1242 414 1 0.5897 -3.6460192741201096 -0.06639153735744507 18.573915581595735 0 0 0
1296 432 1 0.5897 -2.2747768451140082 3.020831890796897 19.841181097697742 0 0 0
1218 406 1 0.5897 -13.439179078644473 3.5974116841744994 18.015895895101938 0 0 0
1252 418 2 -1.1794 -4.635054291767583 2.756057509490857 17.856464388573954 0 0 0
1270 424 2 -1.1794 -0.9778859506029587 0.21836469709082706 20.699756619332433 0 0 0
1241 414 1 0.5897 -4.531869608135834 1.1610676798154707 18.598956092591038 0 0 0
1286 429 1 0.5897 -4.134736931654925 0.6195098926022506 20.893471759869737 0 0 0
1229 410 1 0.5897 -7.815554304155902 3.5778778627480836 18.756777896820168 0 0 0
1253 418 1 0.5897 -4.047007952931982 3.510392153325979 17.894792930152168 0 0 0
1295 432 1 0.5897 -1.4416174640145147 1.7580916446093102 19.78297567736418 0 0 0
1205 402 1 0.5897 -12.236529786427042 1.5532884819909807 18.706431619885137 0 0 0
1272 424 1 0.5897 -0.21720766248420098 -0.3286782723598254 20.504094665547306 0 0 0
1217 406 1 0.5897 -11.946333551744804 3.7943972434253457 17.860418357669545 0 0 0
1101 367 1 0.5897 -10.377811152187718 -0.9843588876549489 16.541762214807612 0 0 0
1285 429 2 -1.1794 -3.878928973976686 0.8582438264217753 21.78438477667236 0 0 0
1287 429 1 0.5897 -3.569427656027557 1.7611656417621422 21.711488946468226 0 0 0
1046 349 1 0.5897 -3.1489055266302257 4.040180306950539 21.71932955818256 0 -1 0
1251 417 1 0.5897 -11.542777614020736 2.0781761023765633 21.68678274161403 0 0 0
1249 417 2 -1.1794 -11.6280722091929 1.1319423838782345 21.569388929277714 0 0 0
40 14 2 -1.1794 -15.22284289217939 3.86985961997361 1.7349064741386528 1 0 0
177 59 1 0.5897 -14.273706309611118 4.31525559217895 3.2924656003317545 1 0 0
56 19 1 0.5897 -12.599648485950066 5.903874068800439 0.9572375542046925 1 0 0
66 22 1 0.5897 -13.600192172478474 3.0273457742464718 1.4543076306729112 1 0 0
65 22 1 0.5897 -12.120666478924297 3.3410330371757535 1.519004172931525 1 0 0
64 22 2 -1.1794 -12.736514549756407 2.62238514062115 1.3755885314404999 1 0 0
191 64 1 0.5897 -12.688179454079231 6.059863628897126 3.9216591201718813 1 0 0
183 61 1 0.5897 -12.45702772072853 3.845710779930016 4.490749761788192 1 0 0
175 59 2 -1.1794 -13.890031724327354 4.708641984819897 4.076195765200031 1 0 0
176 59 1 0.5897 -14.619601649770527 4.777510985502349 4.6919164310976385 1 0 0
181 61 2 -1.1794 -11.573135272551745 3.5003022421338894 4.615383495905131 1 0 0
55 19 2 -1.1794 -13.335489893547926 6.380252962751481 0.5728943738693114 1 0 0
42 14 1 0.5897 -15.791585946506313 4.312155064984864 1.1048120886281876 1 0 0
91 31 2 -1.1794 -5.704608996735308 6.410705688245651 0.4847879758438477 1 0 0
190 64 2 -1.1794 -12.157135055325337 6.833807042319629 4.109585006129381 1 0 0
106 36 2 -1.1794 -9.55493365650833 2.474226223159123 2.7187207845126706 1 0 0
76 26 2 -1.1794 -7.297094641329977 3.809141536433149 1.6986923533712677 1 0 0
192 64 1 0.5897 -11.255394622115878 6.512953055304857 4.104514178304826 1 0 0
85 29 2 -1.1794 -11.061302764348483 4.859232946969767 1.5521382187947572 1 0 0
108 36 1 0.5897 -10.195498217143072 2.9658891679777266 3.232676241435813 1 0 0
45 15 1 0.5897 -9.923781581088596 2.1663516416535167 1.0071062353019014 1 0 0
86 29 1 0.5897 -10.565112285080684 5.125137204514047 2.3262432939436652 1 0 0
87 29 1 0.5897 -10.409334776636909 4.814645747622107 0.8527913367789025 1 0 0
78 26 1 0.5897 -7.569164069815909 4.306848703928795 0.9277056141707138 1 0 0
43 15 2 -1.1794 -10.033324347115714 1.9152704387954707 0.08997650928938139 1 0 0
206 69 1 0.5897 -15.257695058968118 7.111650224238341 4.387184060688371 1 0 0
102 34 1 0.5897 -5.719488566137163 2.8860117354465 1.1572112290065675 1 0 0
100 34 2 -1.1794 -4.808065782048136 2.5952684377138056 1.1276399080610897 1 0 0
204 68 1 0.5897 -9.149295185667933 5.4832131232507315 4.5143710375398 1 0 0
212 71 1 0.5897 -6.820710780133102 4.570852897784949 4.665465486994723 1 0 0
211 71 2 -1.1794 -6.170896297101341 4.8085959204810305 4.004144906718901 1 0 0
77 26 1 0.5897 -8.108104464116847 3.4317378400868144 2.0392605270707644 1 0 0
203 68 1 0.5897 -8.732745867124079 6.42275055708021 3.4027906012340887 1 0 0