LAMMPS data file via write_data, version 30 Jul 2021, timestep = 17000000

864 atoms
2 atom types
576 bonds
1 bond types
288 angles
1 angle types

0.125589415608788 18.0819829843773 xlo xhi
0.15574417879179592 23.473433621219645 ylo yhi
0.15072204699423253 22.062473753011016 zlo zhi

Masses

1 1.00794
2 15.9994

Atoms # full

707 1 1 0.5897 3.0885929282801374 1.6023329801860233 3.8227859091965826 0 0 0
706 1 2 -1.1794 3.044320597602603 1.5340174003717344 2.869035663194992 0 0 0
846 1 1 0.5897 7.566897109787822 1.6999832315850867 5.200620162350178 0 0 0
595 1 2 -1.1794 0.920412549489401 5.607998143324822 2.7431930020116058 0 0 0
495 1 1 0.5897 8.323619932690463 1.9529924819963038 3.079248356447986 0 0 0
708 1 1 0.5897 2.208655087473535 1.9395192991504875 2.637915385532347 0 0 0
29 1 1 0.5897 4.435902254931716 2.560122135084264 2.3389511905241975 0 0 0
28 1 2 -1.1794 5.333975416847143 2.843757787816719 2.1681595542697356 0 0 0
3 1 1 0.5897 0.8867940692017727 3.9465210700964355 2.2351717097123287 0 0 0
494 1 1 0.5897 6.8121117610122965 2.0134310619273945 3.0214184040127714 0 0 0
30 1 1 0.5897 5.394378893019062 3.7078007757153957 2.575662248512794 0 0 0
493 1 2 -1.1794 7.535512615120886 1.5478830895085827 3.441121565974233 0 0 0
1 1 2 -1.1794 0.9952826676435487 3.0701037019072177 1.8658327911571118 0 0 0
2 1 1 0.5897 0.23959731562468706 2.5787290236329468 2.187825468121318 0 0 0
136 1 2 -1.1794 5.252128212200249 5.621053706104606 3.1957716562732297 0 0 0
597 1 1 0.5897 0.9622922545714027 5.561356893490256 3.698355974957721 0 0 0
668 1 1 0.5897 5.31412558845251 3.0323329659662757 0.3078831764325366 0 0 0
137 1 1 0.5897 5.104713490674189 5.730322490218574 4.135239168715458 0 0 0
181 1 2 -1.1794 0.6923520831623322 5.711533470124053 5.612794191646797 0 0 0
487 1 2 -1.1794 3.2815782903907986 1.8890375811365048 5.566798135073532 0 0 0
183 1 1 0.5897 0.562253200017639 4.79839946493545 5.86890535767789 0 0 0
685 1 2 -1.1794 5.100541008163973 5.797180849774038 6.035086012907489 0 0 0
36 1 1 0.5897 1.082770316766764 2.9103487823097933 9.691953575827657 0 0 0
84 1 1 0.5897 6.164899606288386 2.7061751749189544 6.453080759689798 0 0 0
83 1 1 0.5897 4.665062403450966 2.702200192815921 6.247702098583641 0 0 0
678 1 1 0.5897 4.893223561130543 4.671750362569738 9.80633403583857 0 0 0
674 1 1 0.5897 3.533098204741522 2.3824289374201775 9.967278549278682 0 0 0
355 1 2 -1.1794 7.543818352999779 2.0136051001061017 10.342775835606068 0 0 0
35 1 1 0.5897 0.18742139309495565 4.124999210522204 9.569998370161887 0 0 0
34 1 2 -1.1794 0.2807131379402743 3.220312420560299 9.27147146960027 0 0 0
274 1 2 -1.1794 5.034358778887664 2.9209600741264894 9.426974475348329 0 0 0
356 1 1 0.5897 7.549223616320216 1.0933012718968702 10.07953982390957 0 0 0
112 1 2 -1.1794 0.4019757479166249 5.771887880002875 10.414294810302849 0 0 0
675 1 1 0.5897 2.80101870485846 1.0669314538050159 9.807610715285795 0 0 0
686 1 1 0.5897 5.0367696438711205 4.9633269767879264 6.5008194187283435 0 0 0
673 1 2 -1.1794 2.709217631048369 1.944017317060076 10.179884369211356 0 0 0
276 1 1 0.5897 5.909706715197918 2.6350512844262903 9.688096072486786 0 0 0
82 1 2 -1.1794 5.369050643581621 3.188782270318336 6.676489251062518 0 0 0
275 1 1 0.5897 5.048272330501609 2.8932912089362737 8.47025788444785 0 0 0
784 1 2 -1.1794 0.9231296391427429 3.135327943529656 6.510764062022282 0 0 0
488 1 1 0.5897 2.4434664780358637 2.2594289246196 5.843486973907442 0 0 0
489 1 1 0.5897 3.237657280107436 0.9706043174268542 5.832965106158357 0 0 0
785 1 1 0.5897 0.8466827847456139 3.247113397935523 7.458363651051565 0 0 0
845 1 1 0.5897 7.584901837143136 0.8727802983923187 6.46845565530536 0 0 0
676 1 2 -1.1794 4.764844231240192 5.555790548209035 10.150236116833364 0 0 0
844 1 2 -1.1794 7.625993627194572 1.7756050283426306 6.153021834625925 0 0 0
166 1 2 -1.1794 3.1233529932328303 1.7954923860970726 12.908397451326936 0 0 0
167 1 1 0.5897 2.9623192092022013 1.732093927642978 11.966956327020489 0 0 0
762 1 1 0.5897 5.629279053712224 5.146889197474736 13.316498510435759 0 0 0
459 1 1 0.5897 4.566719262710784 2.8749874921198533 13.449950127111832 0 0 0
168 1 1 0.5897 2.3516756519288826 2.2439421544489453 13.25423183808115 0 0 0
593 1 1 0.5897 7.594226669101092 1.0301311337913868 13.605526159751044 0 0 0
468 1 1 0.5897 0.8842803304346163 3.454998446186515 15.138678272261739 0 0 0
592 1 2 -1.1794 7.528709160015033 1.811978279937271 13.057164315453862 0 0 0
458 1 1 0.5897 6.076700955991116 2.7770921244750215 13.49523978821277 0 0 0
594 1 1 0.5897 8.224272519200486 2.3873701560213236 13.37548476192799 0 0 0
457 1 2 -1.1794 5.344125460791604 3.3183945395586707 13.789389771334317 0 0 0
466 1 2 -1.1794 1.0052324485126367 3.3547075310864627 14.194445833076237 0 0 0
71 1 1 0.5897 5.525186174191352 3.325770677564926 15.775388608236184 0 0 0
113 1 1 0.5897 0.5869553283044798 5.864353976706582 11.34890709287494 0 0 0
365 1 1 0.5897 0.8791348860405918 5.133495274718887 13.564795189966643 0 0 0
761 1 1 0.5897 5.064231059143807 5.703179832968486 12.026849040739814 0 0 0
760 1 2 -1.1794 5.382596393784403 5.9675693227159465 12.889980791414592 0 0 0
357 1 1 0.5897 7.475013631286495 1.989818252196383 11.297255180850236 0 0 0
467 1 1 0.5897 0.22376492894487082 2.8864668422431277 13.900772771779067 0 0 0
134 1 1 0.5897 0.42826056229715775 4.159579019616207 17.349017139615714 0 0 0
278 1 1 0.5897 5.096633574880111 5.268442755746465 17.058673382832822 0 0 0
599 1 1 0.5897 8.951628377889262 2.9728877019927227 16.8657361028142 0 0 0
291 1 1 0.5897 2.267541507245695 2.77881326366748 17.190867160681115 0 0 0
41 1 1 0.5897 6.881711691110894 2.323795894286251 20.37804952353529 0 0 0
569 1 1 0.5897 2.5435093484011073 2.0152371739743278 20.488527340851906 0 0 0
570 1 1 0.5897 3.4634967748043866 1.8505872844483142 19.297558118561135 0 0 0
568 1 2 -1.1794 3.3160406302264263 1.5357414538294258 20.189412563956008 0 0 0
360 1 1 0.5897 8.949206502719408 2.882544693545577 21.196167542649565 0 0 0
143 1 1 0.5897 5.261866040552421 4.802507728323082 20.665908985714193 0 0 0
19 1 2 -1.1794 1.2356825443163706 3.0870096224716264 21.03813102549193 0 0 0
669 1 1 0.5897 4.543893313014932 2.549319387672598 21.00912100862838 0 0 0
289 1 2 -1.1794 3.063441159479537 2.2762738734939862 17.36463477981549 0 0 0
290 1 1 0.5897 2.9305191694263355 1.448692345342436 16.902311825351298 0 0 0
667 1 2 -1.1794 5.300967181349804 3.076858445195309 21.26354230365924 0 0 0
646 1 2 -1.1794 0.8037548684718471 5.734014055543143 20.55512826754343 0 0 0
756 1 1 0.5897 6.87598999511417 2.4737574032737095 17.3314943595795 0 0 0
42 1 1 0.5897 7.622735395372982 1.0225056407796624 20.60045466476852 0 0 0
754 1 2 -1.1794 7.6612922838450235 1.9331412989357706 17.416505022290533 0 0 0
40 1 2 -1.1794 7.680831255047423 1.856621845904891 20.134456997985332 0 0 0
755 1 1 0.5897 7.771077535242176 1.8160663255662786 18.36018658840965 0 0 0
133 1 2 -1.1794 0.5874889799310179 3.3001886615915557 16.95867118850522 0 0 0
21 1 1 0.5897 1.1203517560160465 4.023357312223404 20.87614600131153 0 0 0
72 1 1 0.5897 4.6928010960799975 3.002832979018339 16.997978042091916 0 0 0
144 1 1 0.5897 5.238839994445837 5.635551372208115 19.40198077681039 0 0 0
142 1 2 -1.1794 5.21257148461062 5.70690552330724 20.356171668850248 0 0 0
571 1 2 -1.1794 0.47374827358187144 5.924225233423801 17.765037768465838 0 0 0
648 1 1 0.5897 0.7712571524959979 5.824831240582639 19.602773390679328 0 0 0
20 1 1 0.5897 1.2650493373820684 3.010264796623763 21.991815589876193 0 0 -1
70 1 2 -1.1794 5.478588343875939 3.4734176140449455 16.72000325076378 0 0 0
253 1 2 -1.1794 3.1589766607904437 7.014138179679412 2.1718449099708175 0 0 0
123 1 1 0.5897 3.3975138718936226 8.790955112866133 2.7829821715657035 0 0 0
121 1 2 -1.1794 3.3213283708345847 9.73186746618671 2.9416705626566357 0 0 0
122 1 1 0.5897 3.246523235085602 9.809563817026575 3.892793813712338 0 0 0
417 1 1 0.5897 8.324121818938552 6.23052715361752 2.6078833803965553 0 0 0
255 1 1 0.5897 2.42692138261251 6.430281447601181 2.3703424345805924 0 0 0
415 1 2 -1.1794 7.5989214321778435 6.7422880012448845 2.2495818281945756 0 0 0
44 1 1 0.5897 1.7446072203186103 10.514415827905523 2.1682988406205417 0 0 0
219 1 1 0.5897 4.7356180836115085 10.68769596839743 2.256122283586871 0 0 0
773 1 1 0.5897 8.686692075340554 10.217686104476105 2.531818578539677 0 0 0
218 1 1 0.5897 6.239322526873658 10.539575819043908 2.163408938126486 0 0 0
217 1 2 -1.1794 5.520308547860433 11.124939781496849 1.9255728168326798 0 0 0
66 1 1 0.5897 7.386231890447552 9.463105535738924 4.134167039081156 0 0 0
65 1 1 0.5897 7.474710208004359 8.475715004101179 2.9899484305573574 0 0 0
64 1 2 -1.1794 7.202961746793944 9.369345316534885 3.199347719695459 0 0 0
416 1 1 0.5897 6.814375062846816 6.340529549389474 2.622761277845927 0 0 0
254 1 1 0.5897 3.1371705594291184 7.111277998408462 1.219819662253415 0 0 0
43 1 2 -1.1794 0.8829235011693076 10.876541764305811 1.962060283495535 0 0 0
596 1 1 0.5897 0.2864154652367782 6.3024758508976175 2.564397935471629 1 0 0
162 1 1 0.5897 7.464291923590286 6.706465827232272 0.39083631914061656 0 0 1
138 1 1 0.5897 4.582245603678517 6.165916270659966 2.782737978770856 0 0 0
396 1 1 0.5897 0.6976411022437261 10.810267780111364 0.22483764550802257 0 0 0
45 1 1 0.5897 0.8880783763404686 11.748321367471453 2.3573526981659163 0 0 0
550 1 2 -1.1794 0.8610590864990728 11.06529247092832 6.8310534934421785 0 0 0
577 1 2 -1.1794 5.412712227871252 10.638836350406736 6.946588325721713 0 0 0
649 1 2 -1.1794 2.6199441876542298 7.032021941928083 9.369098915999594 0 0 0
15 1 1 0.5897 1.610756897163626 10.649101219718819 9.90297970970798 0 0 0
256 1 2 -1.1794 2.921810339941421 9.486368651531594 10.379702275589349 0 0 0
795 1 1 0.5897 3.9142004366470595 10.335891335109768 6.074298631002328 0 0 0
147 1 1 0.5897 7.3217050080675605 7.007203618477828 7.977519836331168 0 0 0
114 1 1 0.5897 1.174128192442042 6.134105344916508 9.97982467594727 0 0 0
257 1 1 0.5897 2.8011202517071987 8.681641609117092 9.875576609954027 0 0 0
145 1 2 -1.1794 7.589513006693138 6.987397464724005 7.058745775579258 0 0 0
526 1 2 -1.1794 7.111619977014789 6.858943649438739 9.756352401547861 0 0 0
650 1 1 0.5897 2.7014744699048996 7.181409763533719 8.427124862553374 0 0 0
712 1 2 -1.1794 7.552613831488423 9.332011972871221 5.900981840142751 0 0 0
12 1 1 0.5897 2.8640309366023264 8.047658910407849 6.19839343284724 0 0 0
581 1 1 0.5897 6.075502330266255 10.643086010669071 10.009077552906119 0 0 0
13 1 2 -1.1794 0.8239649689028146 11.101286758558935 9.59851880753773 0 0 0
528 1 1 0.5897 7.978584448062547 6.4847899177875545 9.913011993516161 0 0 0
713 1 1 0.5897 8.170142541560462 9.890758446583877 6.372873665745303 0 0 0
820 1 2 -1.1794 7.570817804707698 9.646922224303735 10.370110221155796 0 0 0
146 1 1 0.5897 6.939374298270848 6.429954790192909 6.631200394871674 0 0 0
822 1 1 0.5897 8.408042768291585 10.060297856140338 10.15948429589797 0 0 0
258 1 1 0.5897 3.7899945339145176 9.80014492464998 10.126659875255422 0 0 0
580 1 2 -1.1794 5.3749173909445895 11.115544356203424 9.559443299908255 0 0 0
582 1 1 0.5897 5.4080605258916705 10.79359831451282 8.658598662541953 0 0 0
10 1 2 -1.1794 2.770298313416215 7.233036835647715 6.692242879011566 0 0 0
651 1 1 0.5897 3.402365333024517 6.5319597718555125 9.601404115377639 0 0 0
527 1 1 0.5897 7.203504130506258 7.783052367972765 9.988427407990494 0 0 0
578 1 1 0.5897 6.185317097765478 10.22204512209134 6.565067302107192 0 0 0
714 1 1 0.5897 7.601967183282882 8.487684038563811 6.349285420685346 0 0 0
794 1 1 0.5897 2.4058545680171157 10.375122893872518 6.196982987696614 0 0 0
551 1 1 0.5897 0.8124953011480166 11.18765735403858 7.779178199238393 0 0 0
11 1 1 0.5897 2.1062593819161726 6.737115774187703 6.21334147400009 0 0 0
579 1 1 0.5897 5.487024416331475 11.55911092027397 6.693894461915854 0 0 0
687 1 1 0.5897 4.37717089293727 6.320632515994053 6.379948921670275 0 0 0
793 1 2 -1.1794 3.1153053858811584 9.949429224799553 5.715665233891406 0 0 0
165 1 1 0.5897 9.048767173654834 6.116876740884365 6.402698360528786 0 0 0
677 1 1 0.5897 5.602458809431186 5.994801532696108 10.002447602033422 0 0 0
476 1 1 0.5897 7.02944763706906 10.321865307285073 13.550370767118457 0 0 0
332 1 1 0.5897 3.1660401422029953 7.948841497920702 13.565054437939871 0 0 0
797 1 1 0.5897 3.007298500856769 9.553158302383586 12.091056057842833 0 0 0
796 1 2 -1.1794 3.086137718951429 9.622018247655662 13.04253464064686 0 0 0
798 1 1 0.5897 2.241765733105473 9.97028766728162 13.328737558590003 0 0 0
827 1 1 0.5897 6.684955021413786 7.131055508843968 13.384878919639345 0 0 0
721 1 2 -1.1794 5.186269153610227 11.121228406412673 13.910783332640065 0 0 0
331 1 2 -1.1794 3.158738200538683 7.033565779119327 13.845231362527322 0 0 0
477 1 1 0.5897 7.765737675764174 9.028014257315997 13.275084058275748 0 0 0
723 1 1 0.5897 5.00008421487565 11.159440781545175 14.848939138304146 0 0 0
826 1 2 -1.1794 7.563066316466988 7.380592674405342 13.672662231704415 0 0 0
259 1 2 -1.1794 0.9061234735193664 10.970165403387591 13.779248905207124 0 0 0
722 1 1 0.5897 4.464524465441271 10.610984094819106 13.543448024446882 0 0 0
828 1 1 0.5897 7.49734814718633 7.432795300841861 14.626195176509318 0 0 0
261 1 1 0.5897 0.8996375922245555 10.918595499830172 14.735065412433947 0 0 0
333 1 1 0.5897 3.9260607205434646 6.647237506635872 13.423143637184822 0 0 0
475 1 2 -1.1794 7.82561316457337 9.974884905030214 13.14799474000136 0 0 0
225 1 1 0.5897 2.7552489094071357 7.109739223825144 15.75439624197956 0 0 0
821 1 1 0.5897 7.46414817839577 9.786716801134316 11.311037175005321 0 0 0
366 1 1 0.5897 1.5911613980376842 6.461975448975778 13.422896000415186 0 0 0
520 1 2 -1.1794 7.4518549696747725 7.098111942933806 16.348421203629407 0 0 0
851 1 1 0.5897 9.00210706816179 6.306110202891403 13.263839767884768 0 0 0
364 1 2 -1.1794 0.762799168637523 6.022775971847355 13.230227541647894 0 0 0
689 1 1 0.5897 3.5783478681890224 9.950357296012912 20.55178812090851 0 0 0
279 1 1 0.5897 4.192860054626215 6.454513323588138 17.32013644544934 0 0 0
626 1 1 0.5897 2.924655446186281 9.692526140005048 18.45900378670852 0 0 0
6 1 1 0.5897 2.920103487918203 7.9336351405725205 20.931604342179604 0 0 0
522 1 1 0.5897 7.598620902096863 7.908375688701539 16.836512217070414 0 0 0
361 1 2 -1.1794 5.103176465491793 10.710160191833687 21.08690367929486 0 0 0
9 1 1 0.5897 6.870196074552197 10.16192005328474 17.21035353953215 0 0 0
690 1 1 0.5897 2.0652008492926415 9.995537478324001 20.550638548913415 0 0 0
223 1 2 -1.1794 2.6443940381275106 7.175148304266263 16.702926614027774 0 0 0
688 1 2 -1.1794 2.8087340349665606 9.526518769091973 20.17199653779468 0 0 0
7 1 2 -1.1794 7.6710564568582225 9.724474750815062 17.49926982507785 0 0 0
8 1 1 0.5897 7.481562914636585 9.443621644001723 18.394529502667734 0 0 0
287 1 1 0.5897 8.797758968314083 10.17884585646629 21.114076099155902 0 0 0
140 1 1 0.5897 6.589171694142995 9.895485802109864 20.544370776693736 0 0 0
627 1 1 0.5897 2.266315524747351 10.248405191777458 17.21421260378297 0 0 0
4 1 2 -1.1794 2.9999777071871083 7.07505824223233 21.34722867065184 0 0 0
5 1 1 0.5897 3.7083666265945086 6.642581669531941 20.87041918740995 0 0 0
679 1 2 -1.1794 5.281171547409274 11.021627188106311 16.88180251752643 0 0 0
647 1 1 0.5897 1.5928686297789683 6.20949851873914 20.814763655986187 0 0 0
625 1 2 -1.1794 3.0532132597451165 9.794615093495546 17.51596525117577 0 0 0
139 1 2 -1.1794 7.401692895816526 9.437483629282958 20.329371576742737 0 0 0
160 1 2 -1.1794 7.540287480704341 6.753806832230483 21.34956293271281 0 0 0
141 1 1 0.5897 7.253226794782634 8.536972817897993 20.618021731821226 0 0 0
224 1 1 0.5897 2.8306816714366456 8.092378132917347 16.903648992312345 0 0 0
161 1 1 0.5897 6.773108172717524 6.283063884337485 21.02394789780258 0 0 0
394 1 2 -1.1794 0.686612637373633 10.879073685677065 21.181905290744048 0 0 0
680 1 1 0.5897 4.508410867741716 10.491142108502537 17.075779913758524 0 0 0
572 1 1 0.5897 1.3110537470843293 6.31142182338872 17.509724632880484 0 0 0
521 1 1 0.5897 6.653100134707362 6.73109960995454 16.72720257066483 0 0 0
711 1 1 0.5897 8.860687618048862 6.359238220198219 17.055983970536573 0 0 0
277 1 2 -1.1794 5.066548783850129 6.11241769979853 17.50934954992106 0 0 0
362 1 1 0.5897 4.923252820917554 11.601330335384437 20.787363077424565 0 0 0
363 1 1 0.5897 5.143637025671149 10.781112942984421 22.04063670566885 0 0 0
445 1 2 -1.1794 0.7882822367747219 10.986070309538615 16.616503354319317 0 0 0
557 1 1 0.5897 2.2758262367010547 14.51347887880099 2.3775965080189887 0 0 0
449 1 1 0.5897 7.640153819835873 16.411835803236468 2.729897718752687 0 0 0
293 1 1 0.5897 3.1023815584433025 16.531358657032747 2.7928586833539937 0 0 0
558 1 1 0.5897 3.224596045333318 14.880795573273556 1.2565329481365841 0 0 0
556 1 2 -1.1794 3.1795152615525852 14.779042503252908 2.207258332445164 0 0 0
373 1 2 -1.1794 0.654461282675047 13.762166157329768 2.599959142679031 0 0 0
173 1 1 0.5897 4.5973337064389534 13.819279901328168 2.9440935781836455 0 0 0
174 1 1 0.5897 5.503607555050995 12.60982190163966 2.8559582467076443 0 0 0
200 1 1 0.5897 5.4500273350953625 13.184681989076376 5.11370123985277 0 0 0
480 1 1 0.5897 6.879277598737845 14.33700945871062 2.6091167684193377 0 0 0
172 1 2 -1.1794 5.352833877725286 13.407387642183979 3.3633357249843683 0 0 0
478 1 2 -1.1794 7.691173102696263 14.734009739293175 2.2938425463721943 0 0 0
479 1 1 0.5897 8.385081722565399 14.195895325947614 2.674798301355999 0 0 0
308 1 1 0.5897 7.675193776435754 17.06573463355897 4.845305778822462 0 0 0
374 1 1 0.5897 0.597283623948718 13.764311845131514 3.555467182355917 0 0 0
448 1 2 -1.1794 7.745833115901924 17.32286999600685 3.0040121128063917 0 0 0
292 1 2 -1.1794 3.1298761695511894 17.461995291027982 3.015220979098612 0 0 0
655 1 2 -1.1794 0.7426323567851715 13.299404281026398 5.323618535295845 0 0 0
294 1 1 0.5897 2.8303724520610682 17.500658392727463 3.9235496096900775 0 0 0
317 1 1 0.5897 7.433759407826697 14.160236588504953 0.5656095199441871 0 0 0
456 1 1 0.5897 5.065189301491381 12.709458744866694 10.206413481682024 0 0 0
811 1 2 -1.1794 2.8496271231807104 15.156838092211679 9.399633468058667 0 0 0
812 1 1 0.5897 3.6195040415831956 14.712665888793653 9.754858434013613 0 0 0
813 1 1 0.5897 2.1063390744322925 14.704684167964558 9.798721190526996 0 0 0
17 1 1 0.5897 3.0947473021678715 14.686866251701245 7.491819394559584 0 0 0
14 1 1 0.5897 0.8920135069507351 11.979721059126296 9.972700964749679 0 0 0
186 1 1 0.5897 7.177859154620064 16.509890749642057 9.96365206281422 0 0 0
518 1 1 0.5897 7.470272409943444 15.430571498731963 6.517143842629446 0 0 0
16 1 2 -1.1794 3.000932750830695 14.467680370252552 6.564768868066561 0 0 0
656 1 1 0.5897 1.5665019636347606 13.630063243430136 5.681492371043765 0 0 0
201 1 1 0.5897 6.008437162773337 13.683083074414082 6.42966238952956 0 0 0
766 1 2 -1.1794 0.9243352540309814 13.691051845019103 10.46511078211559 0 0 0
384 1 1 0.5897 2.88357304805719 16.780437751178596 10.110264774472753 0 0 0
239 1 1 0.5897 2.773297426912623 16.15460370827441 5.965023563363101 0 0 0
199 1 2 -1.1794 5.289098700359981 13.173117911327356 6.057222641731124 0 0 0
376 1 2 -1.1794 7.463103180858932 14.723048542548156 9.668170135052865 0 0 0
378 1 1 0.5897 7.316756058776347 14.591848988803738 8.731349630188562 0 0 0
377 1 1 0.5897 6.69707799672811 14.331603742041889 10.08788873815605 0 0 0
517 1 2 -1.1794 7.4685818400420505 14.582097234381203 6.960286945566377 0 0 0
519 1 1 0.5897 8.247919258238182 14.136411608235514 6.6283449237621825 0 0 0
454 1 2 -1.1794 5.092889205668371 13.64017339020162 10.428450725046874 0 0 0
382 1 2 -1.1794 3.087290541913242 17.61855500231249 10.525419095922079 0 0 0
18 1 1 0.5897 3.835652375723217 14.063474531519912 6.32805505578658 0 0 0
184 1 2 -1.1794 6.995987713671092 17.448473441756946 10.011950810062146 0 0 0
59 1 1 0.5897 8.95451275848812 13.986831496477494 10.320783769086846 0 0 0
240 1 1 0.5897 3.6203342508240404 17.408137196310623 5.908972474033081 0 0 0
309 1 1 0.5897 8.362526227871744 17.49165258439714 6.125180552533344 0 0 0
552 1 1 0.5897 0.6412805871263692 11.922804624632526 6.466833575136077 0 0 0
238 1 2 -1.1794 2.750307126816414 17.07224656718923 5.693540597221977 0 0 0
768 1 1 0.5897 0.1731234384981022 14.069772834941684 10.008555220225679 0 0 0
307 1 2 -1.1794 7.6356090638591025 16.962940722862818 5.796162703734787 0 0 0
232 1 2 -1.1794 2.6681973402842383 15.018689984850209 14.030562305382372 0 0 0
234 1 1 0.5897 2.760652737888466 15.012243356797416 14.983290920059035 0 0 0
606 1 1 0.5897 2.8270825078497737 16.729057753655667 13.425366406063228 0 0 0
296 1 1 0.5897 7.005303843928871 14.959761536661672 14.773153016046027 0 0 0
639 1 1 0.5897 1.2032994592147472 14.081476141873573 13.523117694803682 0 0 0
233 1 1 0.5897 3.5146579547614305 14.71239243806216 13.705201837370437 0 0 0
427 1 2 -1.1794 4.915865925992876 13.798818042062807 13.127576629899139 0 0 0
297 1 1 0.5897 8.005131001493261 14.669729664409132 13.674011108666175 0 0 0
429 1 1 0.5897 5.769384872447031 14.17196143235745 13.347675152499283 0 0 0
428 1 1 0.5897 5.000053168901005 12.868139456727205 13.335070405132036 0 0 0
295 1 2 -1.1794 7.122969500622225 15.00933417842193 13.824489578970308 0 0 0
270 1 1 0.5897 7.2753878467156206 16.672458383252028 12.992958289094904 0 0 0
269 1 1 0.5897 7.122048477690653 17.59579043474706 11.803027244031858 0 0 0
637 1 2 -1.1794 0.3836210274676398 13.703207478062097 13.204955391591291 0 0 0
638 1 1 0.5897 0.4715398651464567 12.76478965335558 13.37212325077048 0 0 0
767 1 1 0.5897 0.6851868872249809 13.72658550113241 11.39129074276045 0 0 0
455 1 1 0.5897 4.906025294231567 13.668699263912842 11.366819962973384 0 0 0
268 1 2 -1.1794 7.2110260141734726 17.59768449598453 12.756097846700612 0 0 0
681 1 1 0.5897 5.074086666130786 11.886159961049428 17.23674103696834 0 0 0
683 1 1 0.5897 5.708190060101862 13.526977463920636 20.818075552984244 0 0 0
126 1 1 0.5897 5.6462243490353154 13.967062076400842 17.240709545782842 0 0 0
451 1 2 -1.1794 0.8279102267887626 13.58310551644866 20.31202192247258 0 0 0
53 1 1 0.5897 0.7643429579919722 13.668691252029879 18.54155497443552 0 0 0
452 1 1 0.5897 0.7879802767260098 12.647374750377699 20.509845469721743 0 0 0
666 1 1 0.5897 2.884607399197869 15.750924181195877 20.943596417042883 0 0 0
52 1 2 -1.1794 0.9080837649530137 13.753118017228328 17.59893470938625 0 0 0
665 1 1 0.5897 2.214684216082301 14.395790930521338 21.025876943357012 0 0 0
610 1 2 -1.1794 7.2784171257637515 17.251397365956194 18.175380287160074 0 0 0
318 1 1 0.5897 7.238788878931656 15.074103379961421 21.28621673269441 0 0 0
824 1 1 0.5897 3.6388960259226346 14.8196895371344 16.977499253957497 0 0 0
50 1 1 0.5897 7.03872444351662 15.840341519149682 17.101723134777313 0 0 0
51 1 1 0.5897 7.711880583474499 14.503123210055822 16.876522070120938 0 0 0
825 1 1 0.5897 2.1430154709706475 15.020639562114201 17.09442694711149 0 0 0
684 1 1 0.5897 4.263334470411382 13.951823545806569 20.664475509913327 0 0 0
316 1 2 -1.1794 7.243731280663684 14.150932002334303 21.53924495764869 0 0 0
124 1 2 -1.1794 4.853248288350295 13.560133579308328 17.589685244070605 0 0 0
125 1 1 0.5897 5.007723822515903 13.503214289103154 18.53264364904311 0 0 0
682 1 2 -1.1794 4.921973705414204 13.362036772305707 20.297654080219 0 0 0
446 1 1 0.5897 0.8108503246211901 11.882587774338102 16.951274100199612 0 0 0
664 1 2 -1.1794 2.958441213940251 14.894283826324997 21.364301146056757 0 0 0
584 1 1 0.5897 2.9190348647602744 17.2986795432081 17.213306132470336 0 0 0
823 1 2 -1.1794 2.9321108000640623 15.411115099755643 16.718863506168425 0 0 0
117 1 1 0.5897 8.779325828945765 13.376804251488041 20.618027265532028 0 0 0
49 1 2 -1.1794 6.964833319383765 15.03139381372999 16.595331410284686 0 0 0
157 1 2 -1.1794 7.204356316408052 16.831329183095754 20.77933682083273 0 0 0
159 1 1 0.5897 7.23777894067246 16.70621663078405 19.830920099226816 0 0 0
715 1 2 -1.1794 2.812831763963385 17.335154105026817 20.169826355287018 0 0 0
158 1 1 0.5897 7.995290249521499 17.33020577084077 20.98362557850778 0 0 0
716 1 1 0.5897 2.868306042680926 17.447224936345563 19.22075086964273 0 0 0
612 1 1 0.5897 8.121094890526997 17.597002479171305 17.881049422282725 0 0 0
696 1 1 0.5897 1.224371295309635 21.638370610765186 2.6334401121231257 0 0 0
345 1 1 0.5897 0.5220780582230872 18.61168222246173 1.2504100817855504 0 0 0
695 1 1 0.5897 0.4519156302436078 20.34275114422919 2.7623522310729713 0 0 0
413 1 1 0.5897 0.7769258390410384 21.39576027347568 4.801189286518582 0 0 0
343 1 2 -1.1794 0.6605299133520512 18.550515472307577 2.1955830711901374 0 0 0
266 1 1 0.5897 4.6473595660410565 21.847114883314934 2.285341874287983 0 0 0
226 1 2 -1.1794 5.424442991215085 18.681363122760448 1.9003275867865972 0 0 0
249 1 1 0.5897 5.438233768148172 20.98301927309351 4.577906071480307 0 0 0
228 1 1 0.5897 5.269656874234884 19.610242779495643 2.0721788770008676 0 0 0
344 1 1 0.5897 1.488039037903502 18.078205121386702 2.2868351545928816 0 0 0
694 1 2 -1.1794 0.4107855244270808 21.27362325934739 2.981598452778641 0 0 0
817 1 2 -1.1794 7.6380968463176835 22.47331298210479 2.0932999685512543 0 0 0
189 1 1 0.5897 2.691918731523246 22.287507158470323 0.9871850701102703 0 0 0
265 1 2 -1.1794 5.257239534070368 21.186378030691586 2.613511703539148 0 0 0
267 1 1 0.5897 6.119538717344306 21.498647643761494 2.339486891982483 0 0 0
818 1 1 0.5897 8.478149356952608 22.10349770179765 2.364820318804475 0 0 0
450 1 1 0.5897 6.963962301144144 17.765186627541386 2.673531922197434 0 0 0
187 1 2 -1.1794 2.706335809397894 22.294497220391396 1.9442735151938144 0 0 0
227 1 1 0.5897 4.646746986861296 18.241021065011868 2.243065710163011 0 0 0
321 1 1 0.5897 9.042575785910678 18.354951987920636 2.4131483124263733 0 0 0
819 1 1 0.5897 7.497555114493193 23.21100776769833 2.6868760919988413 0 -1 0
188 1 1 0.5897 2.7647652224825263 23.221249666928856 2.176648682956093 0 0 0
247 1 2 -1.1794 5.520620670771402 21.072856514881142 5.5273347647683355 0 0 0
39 1 1 0.5897 4.0691094671188655 22.508852594965504 9.716452040677872 0 0 0
405 1 1 0.5897 0.9120892901624168 19.8109218892418 9.486893436900104 0 0 0
554 1 1 0.5897 5.928629581021893 21.60320403678408 10.196880454770389 0 0 0
702 1 1 0.5897 2.372418318769554 22.182062820525818 6.236883488474277 0 0 0
404 1 1 0.5897 1.734735864948119 18.544786842142038 9.5969695677504 0 0 0
341 1 1 0.5897 1.526864597359081 18.29925189655009 6.409260500233614 0 0 0
385 1 2 -1.1794 5.124328152420638 18.37491010491512 6.213521870017158 0 0 0
86 1 1 0.5897 7.474762823168071 22.61813482101034 8.984327090148469 0 0 0
87 1 1 0.5897 8.217329823305311 22.080730034450426 10.189192744454141 0 0 0
38 1 1 0.5897 2.623580758600285 22.24374302933856 9.353234568111388 0 0 0
31 1 2 -1.1794 7.361651942817394 22.367643900824387 7.193217089528078 0 0 0
553 1 2 -1.1794 5.112245075630213 21.188122964440208 10.475120090896628 0 0 0
96 1 1 0.5897 1.0603527588432828 21.51960514950997 10.830125667351055 0 0 0
342 1 1 0.5897 0.6310734970138383 18.885861031557997 7.479459834337798 0 0 0
700 1 2 -1.1794 3.2767403518575917 22.47408906082767 6.351219268919176 0 0 0
33 1 1 0.5897 6.703011284327074 21.930957233841326 6.653097747088159 0 0 0
101 1 1 0.5897 5.660852392172751 18.42891270330439 9.297336257094344 0 0 0
386 1 1 0.5897 5.920647206617549 17.927508380226914 5.927319428481349 0 0 0
85 1 2 -1.1794 7.46675696634644 22.620626457577327 9.941510489616215 0 0 0
403 1 2 -1.1794 0.910437567141452 18.88394586997246 9.248125417762013 0 0 0
248 1 1 0.5897 4.705155580210022 21.493193535422964 5.800297755807962 0 0 0
383 1 1 0.5897 3.8669977908315674 17.930567085087088 10.06618561473665 0 0 0
555 1 1 0.5897 5.016822633730058 20.433137743168924 9.89444769060239 0 0 0
102 1 1 0.5897 4.862160776018635 18.526919926334934 8.014994161266046 0 0 0
37 1 2 -1.1794 3.3744269805907012 22.790127276929436 9.121028016662589 0 0 0
100 1 2 -1.1794 4.9116100521188075 18.876800956336908 8.904613254977527 0 0 0
32 1 1 0.5897 8.198625432210363 22.04842342239909 6.855898846563913 0 0 0
94 1 2 -1.1794 0.95693932152621 21.60347348185082 9.882209596413766 0 0 0
185 1 1 0.5897 7.831877974971567 17.865944205885036 9.8041046826514 0 0 0
340 1 2 -1.1794 0.797624818773844 18.90595368590164 6.53706047672018 0 0 0
701 1 1 0.5897 3.3783047703662374 22.5756542752728 7.2975964506419295 0 0 0
412 1 2 -1.1794 0.7873290373522944 21.506004706059002 5.751979605939142 0 0 0
414 1 1 0.5897 0.7709849450433226 20.613375330957034 6.097270077027825 0 0 0
387 1 1 0.5897 5.256351285311428 19.28760497727751 5.956889900515287 0 0 0
788 1 1 0.5897 7.7704838481376655 22.555673915972257 15.226643929811516 0 0 0
381 1 1 0.5897 1.5547669072971233 21.884568642753074 13.118649785343772 0 0 0
474 1 1 0.5897 5.494635630212402 18.880867529768793 16.205531041803997 0 0 0
764 1 1 0.5897 4.5813541978913115 18.439323441312087 14.102522798624266 0 0 0
738 1 1 0.5897 3.9400878223048674 22.023393541018336 13.754363988723227 0 0 0
504 1 1 0.5897 0.6349277724737881 18.96145958851994 14.1594331292568 0 0 0
502 1 2 -1.1794 0.5568415768835453 18.84211436315135 13.212896723686791 0 0 0
380 1 1 0.5897 0.7219957073550476 20.647297484254455 12.858708261536792 0 0 0
88 1 2 -1.1794 5.594545521691706 21.497745565717455 13.16454006632591 0 0 0
736 1 2 -1.1794 3.0834051594897693 22.444387846572234 13.825339676869445 0 0 0
763 1 2 -1.1794 5.370862553177603 18.953309050954328 14.271871827634063 0 0 0
89 1 1 0.5897 5.462195879947161 21.25792327550228 12.247353373722566 0 0 0
787 1 2 -1.1794 7.861119020352871 22.737120455489872 14.291161091944604 0 0 0
503 1 1 0.5897 1.3516905054957287 18.370415153542865 12.964096559949843 0 0 0
789 1 1 0.5897 7.069119067914458 22.370782390302526 13.897796028738496 0 0 0
90 1 1 0.5897 5.510119038267639 20.672907279606118 13.642863793211044 0 0 0
350 1 1 0.5897 2.8232573413056636 22.839174173534555 15.55764603588619 0 0 0
765 1 1 0.5897 6.063453661465498 18.49212345432977 13.798767050463638 0 0 0