LAMMPS data file via write_data, version 30 Jul 2021, timestep = 2250000

1008 atoms
2 atom types
672 bonds
1 bond types
336 angles
1 angle types

-3.2965479518245786 14.906546951378608 xlo xhi
-0.19445202612534906 22.774451026132958 ylo yhi
-0.050530863489937516 19.280528863487383 zlo zhi
-0.05306424662104742 -6.756322435503409 -0.0068836034716561875 xy xz yz

Masses

1 1.008
2 15.999

Pair Coeffs # lj/cut/tip4p/long/omp

1 0 0
2 0.21084 3.1668

Bond Coeffs # harmonic/omp

1 450 0.9572

Angle Coeffs # harmonic/omp

1 55 104.52

Atoms # full

19 7 2 -1.1794 0.9831876547647553 2.613446261799598 0.1191405179464528 0 0 0
55 19 2 -1.1794 -0.57518317779257 4.006266557254026 3.466142261408028 0 0 0
56 19 1 0.5897 -1.3294387538927646 3.735003759444343 2.9429184514031665 0 0 0
122 41 1 0.5897 -2.6712653311594305 2.077366872731623 1.534545425518674 1 0 0
86 29 1 0.5897 -2.2342866685569183 1.6908386280860481 3.8522441382025527 1 0 0
85 29 2 -1.1794 -2.324813391100811 1.231246175262017 4.686981822258298 1 0 0
121 41 2 -1.1794 -2.711461946959193 2.6278417840623303 2.3165316208668902 1 0 0
123 41 1 0.5897 -3.63119053797877 2.8846435980853444 2.382222764339643 1 0 0
57 19 1 0.5897 0.08095409211324256 4.271540979285726 2.821771837797149 0 0 0
602 201 1 0.5897 -0.8446759270833866 5.180304596918867 0.6765972208306062 1 0 1
158 53 1 0.5897 -4.797268135139388 4.3344455024736375 4.257357433911665 1 0 0
87 29 1 0.5897 -3.2055519941418167 0.8573395376866142 4.660715350592781 1 0 0
101 34 1 0.5897 -2.7541533495203967 4.678808547637094 0.020470387777996077 1 0 0
603 201 1 0.5897 -0.3819273535422747 3.830939969084806 0.16950061960309995 1 0 1
482 161 1 0.5897 -1.1637574485816984 -0.031217324015441195 0.6680684378065174 1 1 0
157 53 2 -1.1794 -4.349227293078988 5.02252022577016 4.749398978181418 1 0 0
163 55 2 -1.1794 -2.7261422825553634 1.11250653347161 -0.02773656123117676 1 0 0
601 201 2 -1.1794 -1.0413898518211724 4.509149211822996 0.02305346770590698 1 0 1
159 53 1 0.5897 -3.6293058242965825 4.5718455956772575 5.190909432646356 1 0 0
133 45 2 -1.1794 -2.7810641144775126 3.2554321205971006 6.33684325352108 1 0 0
69 23 1 0.5897 -2.9082416728531237 0.8894441238878061 8.927227404007231 0 0 0
134 45 1 0.5897 -2.5875478269473353 2.580076779311939 5.686709752003958 1 0 0
97 33 2 -1.1794 -4.404150905667464 4.769391919292039 9.436063208959768 1 0 0
124 42 2 -1.1794 -5.2667595500364905 2.1751228321083484 7.285679428942252 1 0 0
126 42 1 0.5897 -4.453960767550842 2.6794249660459166 7.250751504833552 1 0 0
98 33 1 0.5897 -4.658830496892342 5.0532571943676645 8.558104486387903 1 0 0
135 45 1 0.5897 -1.9230306384692186 3.588566675258544 6.599607157644537 1 0 0
669 223 1 0.5897 -5.2091532219906185 1.5049881382468695 8.891289919532628 1 0 0
67 23 2 -1.1794 -2.6378018666284295 0.29466589645469365 8.227750091290023 0 0 0
667 223 2 -1.1794 -5.451979527070277 0.8846406360114272 9.578619761398476 1 0 0
68 23 1 0.5897 -3.45811854569532 0.004709338257804396 7.8286650077980795 0 0 0
90 30 1 0.5897 -5.241307501894278 1.4767812860968117 5.6604546533826205 1 0 0
561 187 1 0.5897 -3.8533510985401014 3.9688025133035625 13.597152485119144 0 0 0
626 209 1 0.5897 -5.704830044570535 1.7766026609670473 12.555750247682395 1 0 0
593 198 1 0.5897 -7.668398393516973 0.7401630241020565 14.080118282759946 1 0 0
627 209 1 0.5897 -6.73739781513525 2.798107563612389 12.128567673293077 1 0 0
559 187 2 -1.1794 -4.460221697500357 4.289055342228425 12.929742909980957 0 0 0
560 187 1 0.5897 -4.811792221119891 3.496139520014279 12.524787683178195 0 0 0
668 223 1 0.5897 -5.893712077167621 1.4188142470792222 10.238682947336146 1 0 0
625 209 2 -1.1794 -5.929337643981604 2.372941913077101 11.84141104078434 1 0 0
986 329 1 0.5897 -4.399425085699231 0.004760658823970837 10.764824380478636 1 1 0
662 221 1 0.5897 -7.4875421221141805 4.498020292404964 14.315705420768673 1 0 0
987 329 1 0.5897 -3.320758120985287 -0.1598050586073413 11.814321020929256 1 1 0
524 175 1 0.5897 -3.1353647075736455 3.3731569946347437 9.789846169539931 0 0 0
523 175 2 -1.1794 -2.6425103679983786 2.6260909903118743 10.129478819510144 0 0 0
589 197 2 -1.1794 -5.7765671324866785 0.9486707631624631 14.340897354857896 1 0 0
606 202 1 0.5897 -6.226216938545408 4.5825030911042175 10.002360486160162 1 0 0
591 197 1 0.5897 -5.037924272716703 0.36089396387385675 14.499716935913511 1 0 0
572 191 1 0.5897 -6.589477671204296 -0.10272479281964789 17.49342590813621 0 0 0
637 213 2 -1.1794 -5.685506692514817 3.139868829466548 16.02002870885076 1 0 0
571 191 2 -1.1794 -5.925214742434986 0.4071435192720455 17.95716444063674 0 0 0
20 7 1 0.5897 -6.116901002399924 1.9537826933249005 18.84032257608436 0 0 -1
639 213 1 0.5897 -6.5210629546152745 2.9178194105313806 16.430633096582866 1 0 0
638 213 1 0.5897 -5.902787692259382 3.8273686541758813 15.390384663346941 1 0 0
164 55 1 0.5897 -9.136283536400121 1.6338876167680356 18.584137292943957 1 0 -1
628 210 2 -1.1794 -8.247819794389166 2.471547991347712 16.82771154091202 1 0 0
630 210 1 0.5897 -8.40146111522678 1.8792737333049616 16.09160688357904 1 0 0
614 205 1 0.5897 -7.65756677034028 5.391046243361432 17.603201650988645 1 0 0
590 197 1 0.5897 -5.721683323628809 1.597942294008657 15.042093358896903 1 0 0
661 221 2 -1.1794 -6.966770639400528 5.192141512674111 14.719788218176726 1 0 0
629 210 1 0.5897 -8.756483703881287 3.254385616947441 16.61610767603456 1 0 0
187 63 2 -1.1794 0.396449133349817 10.216163458267003 0.001666796111657702 0 0 0
112 38 2 -1.1794 -3.328562898755204 6.2201950759493725 2.5026494840030873 1 0 0
289 97 2 -1.1794 -2.68893552499935 10.242275117182215 2.5531759123821223 1 0 0
291 97 1 0.5897 -3.563510734690685 10.627292975723647 2.497440229920816 1 0 0
145 49 2 -1.1794 -0.8384736090961753 6.83202980443845 1.4672556714979663 1 0 0
146 49 1 0.5897 -1.5623920863135372 6.413958725489844 1.9333677376643448 1 0 0
147 49 1 0.5897 -1.2630584544818078 7.417640024960068 0.8402568644954771 1 0 0
255 85 1 0.5897 -2.4433935064702643 8.87875397667121 3.9018060377716797 1 0 0
332 111 1 0.5897 -2.3380830007228077 9.504179603516029 0.8856773969417394 1 0 0
290 97 1 0.5897 -2.111102799092154 10.984164002889777 2.732030689260581 1 0 0
188 63 1 0.5897 0.4614736099858252 9.709534796968654 0.8112069222735736 0 0 0
331 111 2 -1.1794 -2.274713164382809 8.975368169663808 0.09035208922393895 1 0 0
113 38 1 0.5897 -3.602351910633702 5.731963161308167 3.2790675638421916 1 0 0
254 85 1 0.5897 -1.7155880217682424 7.843268190500432 4.732631376102163 1 0 0
114 38 1 0.5897 -3.5715538430595553 5.6575546588262515 1.7673901990457217 1 0 0
257 86 1 0.5897 -4.336464645694082 8.288322438599453 4.584156100764624 1 0 0
224 75 1 0.5897 -0.5484731011020756 11.271430354972205 4.146210630578318 0 0 0
9 3 1 0.5897 -0.6468880420329617 5.639901112944084 4.279952750676041 0 0 0
292 98 2 -1.1794 -4.827652170123086 10.08321144029345 7.234833674789042 1 0 0
301 101 2 -1.1794 -2.3999694513557266 10.710070302623452 6.2527071468470385 1 0 0
109 37 2 -1.1794 -4.70982240468118 6.333433136475669 7.219634836637587 1 0 0
302 101 1 0.5897 -2.165330913860796 9.924854126881002 5.758094404384706 1 0 0
7 3 2 -1.1794 -0.5610412820601924 6.44529277253003 4.790115675777886 0 0 0
236 79 1 0.5897 -3.319514131125778 7.558883556926936 7.871522353574921 0 0 0
294 98 1 0.5897 -4.842270277643567 9.86229254041671 8.166051550944172 1 0 0
293 98 1 0.5897 -3.901200037696958 10.215862672796096 7.034288105227989 1 0 0
110 37 1 0.5897 -4.656736546571183 6.095956042601335 6.29392726563286 1 0 0
235 79 2 -1.1794 -2.4628570157905743 7.8841370260206585 8.14827240600829 0 0 0
111 37 1 0.5897 -5.55133107343115 6.781661690683076 7.3044574806001386 1 0 0
237 79 1 0.5897 -2.6408251632217357 8.75308975831549 8.508164116039548 0 0 0
837 279 1 0.5897 -5.6344348049734965 8.204398501822817 9.033693641676214 1 0 0
835 279 2 -1.1794 -5.019253270402237 8.704478569608469 9.570107676269036 1 0 0
258 86 1 0.5897 -5.122223593725661 9.023029192239235 5.649250684161308 1 0 0
303 101 1 0.5897 -1.5634647501877703 11.058197088970976 6.561393528281163 1 0 0
253 85 2 -1.1794 -2.3930992925445267 8.517301173174445 4.786693537192649 1 0 0
793 265 2 -1.1794 -6.061939954474271 9.672909377326103 12.197863080992208 1 0 0
616 206 2 -1.1794 -6.871097180215489 6.461254043428148 12.27223889188389 1 0 0
794 265 1 0.5897 -5.524193192808852 10.4598551435552 12.286219635963114 1 0 0
650 217 1 0.5897 -3.129332419511096 7.644360231029154 11.458149851530052 1 0 0
649 217 2 -1.1794 -3.643104647732296 6.916364584413269 11.10835649267388 1 0 0
759 253 1 0.5897 -6.093208028683058 8.489825465597418 13.853771513063604 1 0 0
651 217 1 0.5897 -4.295334358863862 6.73590286265249 11.785204175444841 1 0 0
795 265 1 0.5897 -5.888475317457694 9.362153912602684 11.309329784080253 1 0 0
691 231 2 -1.1794 -2.2901519901347895 10.287450531083755 9.622390319249046 0 0 0
663 221 1 0.5897 -6.941518386174863 5.887119072710678 14.06202297351885 1 0 0
836 279 1 0.5897 -4.585571019604643 8.046905619216608 10.114036681859863 1 0 0
618 206 1 0.5897 -6.900176102009188 5.684068647538099 11.714195549604542 1 0 0
513 171 1 0.5897 -4.432072936924886 5.863138989077108 14.26554522561746 0 0 0
99 33 1 0.5897 -4.051958748230799 5.557248944007745 9.850245077153595 1 0 0
613 205 2 -1.1794 -7.819936340821395 6.2564687256655604 17.227684580990932 1 0 0
797 266 1 0.5897 -7.494654873592873 10.523333325281628 16.93976942412882 1 0 0
796 266 2 -1.1794 -8.418164282351373 10.395500497689039 17.156429623389172 1 0 0
758 253 1 0.5897 -5.932442222732111 9.074789087678322 15.240775378505656 1 0 0
805 269 2 -1.1794 -5.787318915208621 10.673724377895233 16.09404771549508 1 0 0
798 266 1 0.5897 -8.701014825239191 9.678816872982864 16.58841934278712 1 0 0
333 111 1 0.5897 -8.507111073662703 9.499324285648605 18.821508931847575 1 0 -1
740 247 1 0.5897 -6.652163540828971 7.622950435501992 17.49961201215011 0 0 0
807 269 1 0.5897 -5.162579871237032 11.194075522614325 16.599231413005853 1 0 0
741 247 1 0.5897 -6.125557929081234 8.875273211584867 18.16775721911217 0 0 0
739 247 2 -1.1794 -5.8432816991891645 8.038536865896278 17.798353618237 0 0 0
615 205 1 0.5897 -7.804528606409785 6.114127878849221 16.28129526159052 1 0 0
512 171 1 0.5897 -4.550918643640303 7.203815375986195 14.958700098047903 0 0 0
762 254 1 0.5897 -7.764193982646933 8.534348662143445 14.905469038705132 1 0 0
757 253 2 -1.1794 -6.168585399886165 8.268558009789354 14.781957602037751 1 0 0
806 269 1 0.5897 -6.061290515425428 11.252214034586864 15.382287366380558 1 0 0
280 94 2 -1.1794 -3.652394752035067 13.990956740256872 2.446514058601624 1 0 0
225 75 1 0.5897 -0.844149536614661 12.755851038930997 4.110587924874864 0 0 0
315 105 1 0.5897 -0.6974466556780743 14.080033197085593 1.3921697132023954 1 0 0
423 141 1 0.5897 -2.661505588888004 16.438401840858475 3.827155453350064 1 0 0
281 94 1 0.5897 -3.6962280987880805 13.756124797208818 3.3734002596000843 1 0 0
282 94 1 0.5897 -2.7558779592195837 14.301408571136959 2.319831695386613 1 0 0
313 105 2 -1.1794 -1.040789437460906 14.87629878780515 1.79756494772252 1 0 0
314 105 1 0.5897 -0.2830194399896655 15.272609492289133 2.227665203631791 1 0 0
223 75 2 -1.1794 -0.726784503690606 11.99354269080496 3.5436926877794908 0 0 0
500 167 1 0.5897 -1.481321807755489 16.037184490029034 0.19012664267929064 1 0 0
769 257 2 -1.1794 -0.8995488737828623 12.769846133408567 0.12239798023448711 1 0 1
771 257 1 0.5897 -0.4383451730132424 11.969948756088124 0.3749647500483951 1 0 1
421 141 2 -1.1794 -2.477070120148083 16.3261272308946 4.759669112535925 1 0 0
770 257 1 0.5897 -1.817895955819593 12.507528861189153 0.05895677015952838 1 0 1
405 135 1 0.5897 -2.215785564496995 16.504330406113652 8.492152660771815 0 0 0
462 154 1 0.5897 -4.936817016648673 16.91520262219489 6.562722468622042 1 0 0
404 135 1 0.5897 -1.6685625424810482 15.662737595320282 7.359010930691961 0 0 0
279 93 1 0.5897 -5.416145708587675 14.579166959274303 7.940332564872457 1 0 0
277 93 2 -1.1794 -4.65652852932724 14.158303843564195 7.537904308064829 1 0 0
278 93 1 0.5897 -3.9875882696566163 14.842564636181562 7.5143996583087045 1 0 0
403 135 2 -1.1794 -2.4345189040048716 15.765977610609543 7.923593308624367 0 0 0
326 109 1 0.5897 -3.38774332782742 11.988218486318592 5.182145691595497 1 0 0
267 89 1 0.5897 -4.410475112393762 13.014130179199071 8.867422244074993 1 0 0
327 109 1 0.5897 -4.207748770030781 13.154441292286519 5.691518092814121 1 0 0
176 59 1 0.5897 -1.3646967705518518 14.90853560552761 5.1071928027256375 0 0 0
325 109 2 -1.1794 -4.024782366013686 12.64544386195078 4.9018565031633115 1 0 0
175 59 2 -1.1794 -0.9404160944453279 14.073434848672829 5.304556963650094 0 0 0
1004 335 1 0.5897 -5.478947720805193 17.017572907124958 9.04019739723013 1 0 0
266 89 1 0.5897 -3.4509201369621474 11.936480844720561 9.32568446289138 1 0 0
265 89 2 -1.1794 -4.288936115521066 12.345506883077999 9.541519033571776 1 0 0
425 142 1 0.5897 -4.351403396766491 15.957842811625975 4.840690224899744 1 0 0
727 243 2 -1.1794 -4.214039979795306 11.747563619118935 12.602764905996919 0 0 0
1005 335 1 0.5897 -4.907014954869862 15.928999641628126 9.923422334257417 1 0 0
728 243 1 0.5897 -3.328865997474722 11.847407462169034 12.252597435082738 0 0 0
1003 335 2 -1.1794 -5.733491827751875 16.333178011285682 9.659099016110144 1 0 0
819 273 1 0.5897 -4.1802326786296495 13.79189487322915 10.750755568810186 1 0 0
784 262 2 -1.1794 -6.883954440440371 14.06433538635794 12.041557338059643 1 0 0
729 243 1 0.5897 -4.358384562477513 12.540173821212619 13.11968082092126 0 0 0
786 262 1 0.5897 -7.050524650872886 13.325496683308039 12.626906517312044 1 0 0
817 273 2 -1.1794 -4.108783223449889 14.654734378319693 11.15905611234581 1 0 0
818 273 1 0.5897 -4.848247983719512 14.695236158703166 11.765388087698971 1 0 0
962 321 1 0.5897 -5.694003259455343 16.971194039544905 12.614313492968513 1 0 0
774 258 1 0.5897 -6.0619941346250155 11.87445801409721 9.901822327787562 1 0 0
773 258 1 0.5897 -6.873619831870622 12.669906308040801 10.901941535027031 1 0 0
831 277 1 0.5897 -7.731454506359893 11.548707115165092 14.229037931400773 1 0 0
926 309 1 0.5897 -5.008597865933009 15.327106171162484 14.289493162988563 1 0 0
925 309 2 -1.1794 -5.583242350159214 16.06425011012299 14.082748975218474 1 0 0
930 310 1 0.5897 -7.285473872199631 15.845398906345169 14.405379863851389 1 0 0
829 277 2 -1.1794 -7.08071097992145 12.218016913280659 14.440670169450305 1 0 0
830 277 1 0.5897 -7.470656597134206 12.712579006254158 15.161441280747367 1 0 0
783 261 1 0.5897 -8.9443573449973 13.840560421385462 16.938928509985146 1 0 0
907 303 2 -1.1794 -6.158100155302908 15.317648413197091 18.066670063784258 0 0 0
908 303 1 0.5897 -6.849551081608345 15.036512562930797 17.467392774765102 0 0 0
781 261 2 -1.1794 -8.06247793260254 13.50520325161553 16.77760310395081 1 0 0
782 261 1 0.5897 -7.749215254990048 13.229303659048485 17.63900349647004 1 0 0
681 227 1 0.5897 -4.192554847127595 13.525047269988004 15.438042500554479 0 0 0
679 227 2 -1.1794 -4.09135075244152 13.82018982888297 14.533166812991459 0 0 0
909 303 1 0.5897 -5.395683605669645 15.456831507531618 17.50502646308805 0 0 0
927 309 1 0.5897 -5.45304460013286 16.67973687343843 14.80416901798199 1 0 0
965 322 1 0.5897 -8.15867590940992 16.76927914951679 16.090467243695393 1 0 0
501 167 1 0.5897 -8.700104722056519 16.923215723305475 18.389397995510095 1 0 -1
499 167 2 -1.1794 -9.021363197868038 16.430684027696024 19.144636713945964 1 0 -1
357 119 1 0.5897 -6.072359908782921 16.98944197726034 19.08063751961958 0 0 -1
928 310 2 -1.1794 -8.230560786120122 15.978260476733018 14.478545225413395 1 0 0
481 161 2 -1.1794 -0.967549586082189 22.431220336439914 1.4411460601253703 1 0 0
391 131 2 -1.1794 -1.153314236490882 19.56606325188168 3.391418605779525 0 0 0
355 119 2 -1.1794 0.8972983024613024 17.778334944033944 0.25870201447324326 0 0 0
393 131 1 0.5897 -1.360832837636342 20.30578193006823 3.962328766874908 0 0 0
495 165 1 0.5897 -3.760724894022256 21.145222838129577 4.441620674699414 1 0 0
459 153 1 0.5897 -2.52344831072103 18.334624737349458 2.4545290629673664 1 0 0
448 150 2 -1.1794 -3.443091650196185 21.618513094807135 2.352191154388251 1 0 0
938 313 1 0.5897 -1.0372838772858737 20.515917728984512 0.4254221099434234 1 0 1
457 153 2 -1.1794 -2.9828878930266622 17.524151780154106 2.2346807539189286 1 0 0
939 313 1 0.5897 -0.536562133956282 19.095220928552116 0.2735194628815047 1 0 1
483 161 1 0.5897 -1.7943031885779963 22.08833164439187 1.780202553072639 1 0 0
458 153 1 0.5897 -2.6799568577262747 17.308142545568067 1.3528263657530402 1 0 0
437 146 1 0.5897 -3.1387440293121722 19.567278989761625 0.14927691982982833 1 0 0
449 150 1 0.5897 -3.860627402290782 20.97374224318248 1.781036432059684 1 0 0
450 150 1 0.5897 -3.9645301106843425 22.413198898803586 2.2385361511195256 1 0 0
392 131 1 0.5897 -0.36080354819475957 19.836003994844894 2.9275481867453483 0 0 0
937 313 2 -1.1794 -1.2371088759752102 19.684871762354668 -0.005546200706813352 1 0 1
447 149 1 0.5897 -5.649166874884749 21.716565136440053 7.4708914068767 1 0 0
469 157 2 -1.1794 -2.537566184960231 18.852672424014024 6.410875581654399 1 0 0
494 165 1 0.5897 -4.400301224997323 20.875332535382178 5.7868695038513955 1 0 0
471 157 1 0.5897 -3.262279722877646 18.31137249693498 6.723859071232126 1 0 0
445 149 2 -1.1794 -4.694738650337229 21.654320751121553 7.43370211838799 1 0 0
446 149 1 0.5897 -4.469705515205019 21.011169679289367 8.106037082987404 1 0 0
344 115 1 0.5897 -1.3342776856364753 21.721352587653236 6.111961827246931 0 0 0
470 157 1 0.5897 -2.9011142932544107 19.334071030923944 5.667658570655408 1 0 0
460 154 2 -1.1794 -4.8388452158782105 17.544121000703463 7.277620690668418 1 0 0
345 115 1 0.5897 -1.542422937444713 22.71406364783614 4.988009897249423 0 0 0
461 154 1 0.5897 -5.452432508534395 18.247269992323403 7.0644757203913295 1 0 0
422 141 1 0.5897 -2.1783522012257412 17.187737838004587 5.05065510588885 1 0 0
343 115 2 -1.1794 -1.238171587179841 21.82390145325177 5.165178648724562 0 0 0
860 287 1 0.5897 -3.2003417420798663 18.5091311083525 9.413386062674029 0 0 0
493 165 2 -1.1794 -4.172969517766468 20.453058923202043 4.958518573556485 1 0 0
434 145 1 0.5897 -3.9272624034100105 20.733805264705886 10.315811670351604 1 0 0
953 318 1 0.5897 -7.30277834893028 21.864340269480522 12.062266135145913 1 0 0
954 318 1 0.5897 -5.790188950156568 21.80707726301148 12.03782938063935 1 0 0
961 321 2 -1.1794 -5.853870469299812 17.690923147705135 12.003776401317037 1 0 0
985 329 2 -1.1794 -4.115255007763375 22.35554795909524 11.41330303141808 1 0 0
896 299 1 0.5897 -4.741131879718692 18.87346760256076 12.88806499448627 0 0 0
895 299 2 -1.1794 -3.997015194267518 19.283777401663464 13.3287312848632 0 0 0
977 326 1 0.5897 -7.617859765743344 18.344743525094003 12.385865467776911 1 0 0
952 318 2 -1.1794 -6.561636009781262 21.31760076968444 12.323235029429652 1 0 0
859 287 2 -1.1794 -2.5511749297566273 17.902241804979205 9.769205712061082 0 0 0
998 333 1 0.5897 -7.093208478195265 20.574412434191217 13.992774137128826 1 0 0
848 283 1 0.5897 -4.312490019786314 21.255998504626824 14.032253056939764 0 0 0
963 321 1 0.5897 -5.973102546122613 17.26396905989808 11.155467603283567 1 0 0
941 314 1 0.5897 -7.015607349040909 20.16399510639718 10.6456996649732 1 0 0
433 145 2 -1.1794 -4.247176753013056 20.12999364608259 9.64549101647132 1 0 0
435 145 1 0.5897 -5.133951782174922 19.90605763483338 9.927648865240062 1 0 0
975 325 1 0.5897 -5.244478498125428 18.666787824202174 16.389208036683215 1 0 0
974 325 1 0.5897 -6.516584249344557 17.861125830213965 16.232512495222487 1 0 0
997 333 2 -1.1794 -7.511972321379567 20.146090801664158 14.739319134623315 1 0 0
966 322 1 0.5897 -8.843313227940861 18.066164787905116 16.466547501628597 1 0 0
973 325 2 -1.1794 -5.780502279352609 18.21783716886683 15.735457341155005 1 0 0
949 317 2 -1.1794 -7.915374839306158 21.473216377549953 17.120890264140613 1 0 0
950 317 1 0.5897 -7.695488243887049 21.120334802621862 16.258776152394134 1 0 0
951 317 1 0.5897 -7.694856507157997 20.769735893068905 17.731480009803988 1 0 0
999 333 1 0.5897 -6.870002254883731 19.501658708861875 15.037504090773897 1 0 0
964 322 2 -1.1794 -8.222478089705476 17.415239283360947 16.793947315395407 1 0 0
989 330 1 0.5897 -9.505848992563543 21.793692364475163 17.62050322064041 1 0 0
573 191 1 0.5897 -5.539231599091005 22.740417230742928 18.522455237785508 0 -1 0
847 283 2 -1.1794 -4.0994769321793 21.71443664415576 14.845082489460982 0 0 0
53 18 1 0.5897 4.74444137636533 2.686710175817818 2.9474361916493943 0 0 0
54 18 1 0.5897 3.3750768508039783 3.3283976631196914 2.876581525718757 0 0 0
47 16 1 0.5897 2.073183296169627 5.21753023737567 1.6469926739002538 0 0 0
527 176 1 0.5897 3.814552885212282 1.8548968976074112 0.49148741010408037 0 0 1
52 18 2 -1.1794 3.883999765857313 2.6824751576771777 3.3666181765018344 0 0 0
32 11 1 0.5897 1.2002340022766296 0.9726311166327588 3.0715737206725127 0 0 0
31 11 2 -1.1794 1.2701693799904987 0.8485987291876713 2.125084168750629 0 0 0
46 16 2 -1.1794 1.9925146491982293 4.720938246982739 2.461306587475238 0 0 0
78 26 1 0.5897 0.45564157879373024 2.682492867891614 4.318097809736599 0 0 0
528 176 1 0.5897 2.7082953055152448 2.7506300616536667 -0.024247329793381345 0 0 1
70 24 2 -1.1794 4.022913413552642 0.354156410232332 1.4902337148005955 0 0 0
71 24 1 0.5897 3.3108952045528985 0.6109038460429034 2.0760405319853024 0 0 0
48 16 1 0.5897 2.2272079601873607 5.345644341470003 3.1475441906555917 0 0 0
33 11 1 0.5897 0.5748422282930612 0.2260285395356405 1.9125137822232285 0 0 0
16 6 2 -1.1794 5.443117262396342 4.776638822383714 0.5457358512326932 0 0 0
21 7 1 0.5897 1.0878113864852779 2.1394220795105525 0.944132252549301 0 0 0
18 6 1 0.5897 4.728608922370164 4.24854192537317 0.18956177113763253 0 0 0
6 2 1 0.5897 3.8739011366564915 1.2797122607043894 4.406806451640479 0 0 0
526 176 2 -1.1794 3.660843504711891 2.6585428828898574 -0.005379247292472689 0 0 1
59 20 1 0.5897 2.0727370155109535 3.0910130519791155 5.878713024080979 0 0 0
43 15 2 -1.1794 -0.42540504466096474 4.62852358290507 7.126398330857042 0 0 0
44 15 1 0.5897 -0.5287971359899135 5.090491910062943 7.958296760881645 0 0 0
34 12 2 -1.1794 -0.23641009858357487 1.2424241013026855 7.248164996824952 0 0 0
35 12 1 0.5897 -0.046550678446859006 1.9805351242777682 7.827319989777905 0 0 0
77 26 1 0.5897 0.38606509507801023 1.838651998538003 5.573060084428302 0 0 0
402 134 1 0.5897 1.2072657113262686 0.16656298429648536 8.134475669153629 0 1 0
45 15 1 0.5897 0.5113020486825279 4.439335382594895 7.0718045902826505 0 0 0
60 20 1 0.5897 3.143162012391814 3.286272836171218 6.931362813689985 0 0 0
58 20 2 -1.1794 2.388907381553098 3.7175775174718706 6.52962592448633 0 0 0
36 12 1 0.5897 -1.0556763952691544 0.8785802161821772 7.583680752132656 0 0 0
401 134 1 0.5897 2.365392851919408 0.1756274360283112 9.109497426279543 0 1 0
522 174 1 0.5897 2.0461810576213324 5.182057152377959 9.399612056455085 0 0 0
5 2 1 0.5897 3.1478310686680055 0.10857573900921808 5.033806553691531 0 0 0
4 2 2 -1.1794 3.9551589703520227 0.6191702779547368 5.094796321177462 0 0 0
22 8 2 -1.1794 0.25908641907132246 2.752457229499738 9.467460105596066 0 0 0
11 4 1 0.5897 2.53397375375269 5.44220995061685 5.565757379663943 0 0 0
76 26 2 -1.1794 0.9453538602612088 2.031382215015926 4.820684686362439 0 0 0
574 192 2 -1.1794 0.12689795759008726 0.45036492475299017 11.27164966824347 0 0 0
576 192 1 0.5897 -0.5918492433790368 0.6316407870952666 11.877155207527135 0 0 0
535 179 2 -1.1794 -2.134965583379496 1.3785813219741274 12.573470076624126 0 0 0
556 186 2 -1.1794 0.3746983172642482 3.3204789428160257 12.857562236707722 0 0 0
552 184 1 0.5897 -2.567638328699794 4.675632580694177 12.062971737776637 0 0 0
536 179 1 0.5897 -2.514717983189829 1.7509793999751484 13.369233166817413 0 0 0
575 192 1 0.5897 0.7347508161396501 -0.09066524072137462 11.775750149886317 0 0 0
550 184 2 -1.1794 -1.620288293122302 4.782657079087745 11.977833544386465 0 0 0
557 186 1 0.5897 0.09247273845881665 2.529035846335248 13.316066295266388 0 0 0
558 186 1 0.5897 -0.4289406428934468 3.6793941084968873 12.481223961784014 0 0 0
23 8 1 0.5897 0.2994979799284163 1.9903874440909246 10.045333838192624 0 0 0
537 179 1 0.5897 -2.4162506436182243 1.9688944946910238 11.874388031529174 0 0 0
525 175 1 0.5897 -1.7451430360312896 2.7752730313813645 9.83181449566585 0 0 0
551 184 1 0.5897 -1.4049507807383703 5.498745568306603 12.57543210192345 0 0 0
587 196 1 0.5897 -0.9439787139759779 5.396214929390095 10.38001109772616 0 0 0
24 8 1 0.5897 0.8706693724286572 3.3793371096342484 9.853816787982904 0 0 0
520 174 2 -1.1794 2.0323507350367667 4.653129782652604 10.197287102192886 0 0 0
564 188 1 0.5897 -2.1108326111641027 4.510742047264147 16.6902452676564 0 0 0
508 170 2 -1.1794 0.519910299946349 1.0901574266566405 14.519839198675255 0 0 0
547 183 2 -1.1794 -3.7960344119332765 4.86688723231483 17.263532010873384 0 0 0
563 188 1 0.5897 -1.2337179854415208 5.053807174474886 15.582376692706546 0 0 0
562 188 2 -1.1794 -1.3145325797084428 4.321839807933428 16.193918298543004 0 0 0
538 180 2 -1.1794 -3.3368450565805796 1.1445624925274311 16.94035513088687 0 0 0
539 180 1 0.5897 -3.1182602789918157 1.748780000868428 17.649844565473437 0 0 0
582 194 1 0.5897 -2.4391147539522073 3.2782287393341862 15.25460351715041 0 0 0
581 194 1 0.5897 -3.361071070110194 2.0863455699927083 15.400877370849155 0 0 0
540 180 1 0.5897 -4.193769557172731 0.7922503112930557 17.180551388765018 0 0 0
510 170 1 0.5897 0.412930552765836 1.5749862875716532 15.338173113771958 0 0 0
905 302 1 0.5897 -2.0077322724676234 -0.054492263849026 17.233139621452217 0 1 0
549 183 1 0.5897 -4.359808674868027 4.116019254517201 17.07742438514559 0 0 0
580 194 2 -1.1794 -2.956916368827593 2.654721597025898 14.745288566916296 0 0 0
199 67 2 -1.1794 1.0033672189382656 8.816111908066267 2.247138774208915 0 0 0
245 82 1 0.5897 0.5605799760884493 9.596744734363364 4.302855355505203 0 0 0
240 80 1 0.5897 3.343273913943708 7.545482259099577 0.9966283597397232 0 0 0
238 80 2 -1.1794 3.8044396408956347 8.190095003227402 1.5333494943939459 0 0 0
82 28 2 -1.1794 2.3825358880710095 6.4062534744721615 0.20316225153941103 0 0 0
221 74 1 0.5897 4.174726963827255 10.307788404636588 2.8226974457723055 0 0 0
239 80 1 0.5897 3.6058022014306754 9.031269506427318 1.1218495277337692 0 0 0
201 67 1 0.5897 1.9303343871891068 8.578390038424397 2.226210471835744 0 0 0
696 232 1 0.5897 3.6746759197154857 11.104229802206476 0.21743570525453598 0 0 1
220 74 2 -1.1794 3.4362295380853976 10.363625298723145 3.428954187378233 0 0 0
694 232 2 -1.1794 3.1224892482561692 10.331278495184907 0.09952288763978209 0 0 1
222 74 1 0.5897 2.8903082881639666 11.067328909853561 3.0781101018039956 0 0 0
200 67 1 0.5897 0.5409695205372347 7.9932143360074654 2.0879933961066808 0 0 0
174 58 1 0.5897 3.6311001957231808 9.157969026126594 4.662127058547967 0 0 0
191 64 1 0.5897 0.30703016895966906 9.667018934745748 8.679766676669127 0 0 0
203 68 1 0.5897 -0.6569390846111882 7.995163373702276 7.669740913019061 0 0 0
64 22 2 -1.1794 2.1376708084488047 6.774135634575486 8.457108448586276 0 0 0
204 68 1 0.5897 0.8071663073290827 7.615440490455882 7.606124540487836 0 0 0
66 22 1 0.5897 2.8849314740266916 6.622388409523608 7.878598075746412 0 0 0
246 82 1 0.5897 0.5167665314930612 9.400552112879335 5.803296890070555 0 0 0
202 68 2 -1.1794 0.14233943304224406 8.144078708927752 7.164688047166215 0 0 0
172 58 2 -1.1794 3.8377368001412897 8.548976417251067 5.371163336196973 0 0 0
228 76 1 0.5897 1.7790154978377597 11.157014969055176 5.87291895583173 0 0 0
588 196 1 0.5897 -1.5503140468078365 6.372285275210197 9.39420938108562 0 0 0
8 3 1 0.5897 -0.6304566534146958 6.160626374589535 5.701334564287016 0 0 0
244 82 2 -1.1794 0.5034107022365228 10.078705081812904 5.127861938453185 0 0 0
173 58 1 0.5897 3.282219291436136 7.787737090433689 5.203260563667943 0 0 0
65 22 1 0.5897 2.417140393837732 7.490427051975646 9.027256365846245 0 0 0
12 4 1 0.5897 1.4733544650324113 6.413001296238872 5.091604573083918 0 0 0
692 231 1 0.5897 -1.3444690350926165 10.372286097699199 9.501316013099485 0 0 0
192 64 1 0.5897 0.9809463161951868 10.701380665791676 9.556103546958138 0 0 0
190 64 2 -1.1794 0.42463739751294405 9.923352729286995 9.594458989453539 0 0 0
10 4 2 -1.1794 2.3083050548065067 6.020317598464664 4.83694396470463 0 0 0
744 248 1 0.5897 0.06778464349027447 7.007236536718372 10.968095893266419 0 0 0
743 248 1 0.5897 0.4939118455251976 8.446481346631554 10.77035636235006 0 0 0
724 242 2 -1.1794 0.46131494979007126 10.825208769988112 13.226267925875495 0 0 0
705 235 1 0.5897 -2.368602616388685 9.540023921860755 12.986130251144264 0 0 0
514 172 2 -1.1794 -1.3225622246156572 6.3370003505068455 14.164738595055175 0 0 0
742 248 2 -1.1794 0.28950552883014513 7.804093958481951 11.449908580767765 0 0 0
703 235 2 -1.1794 -2.194301970039617 9.041726770209156 12.18770759025248 0 0 0
704 235 1 0.5897 -1.3679664051868947 8.59098300721477 12.361744028639748 0 0 0
750 250 1 0.5897 -3.5248404075868507 10.672328049205955 14.08112320494213 0 0 0
678 226 1 0.5897 0.25825554532704587 9.305493944736371 13.991379558211344 0 0 0
693 231 1 0.5897 -2.3927662821790268 10.03384403243892 10.539626839740356 0 0 0
515 172 1 0.5897 -2.221141208324493 6.527996867907912 14.433449334780242 0 0 0
516 172 1 0.5897 -0.8277864368873891 7.1193849473621995 14.408399331142725 0 0 0
586 196 2 -1.1794 -0.7260005561079854 5.944615671838096 9.626386145130615 0 0 0
749 250 1 0.5897 -3.4830120134524556 9.704830931541894 15.244828842734181 0 0 0
706 236 2 -1.1794 -3.2565233119002004 8.687088977118586 17.089996790719283 0 0 0
708 236 1 0.5897 -2.5472927197715824 8.127569538727423 17.40664248015753 0 0 0
568 190 2 -1.1794 -1.3073943155746486 6.882831714101374 18.01839498241152 0 0 0
695 232 1 0.5897 -3.296769801044662 9.90722059499214 18.637812952304827 0 0 0
707 236 1 0.5897 -4.055962560566474 8.209559657089933 17.311464777871286 0 0 0