LAMMPS (30 Jul 2021)
  using 1 OpenMP thread(s) per MPI task
package omp 0
using multi-threaded neighbor list subroutines
echo both

include		in.partitions
variable        pid world 0
include		in.temp
variable        temperature equal 245.09
variable	tempDamp equal 100.0
include		in.pressure
variable        pressure equal 4500.0
variable        pressureDamp equal 1000.0 # This is 1 ps
include		in.seed
variable        seed world 745823

units		real
atom_style	full
read_restart    restart.lmp.${pid}
read_restart    restart.lmp.0
Reading restart file ...
  restart file = 30 Jul 2021, LAMMPS = 30 Jul 2021
  restoring atom style full from restart
  triclinic box = (-3.3173907 -0.10862099 -0.059937436) to (14.927390 22.688620 19.289935) with tilt (-0.13920528 -6.4610538 0.30785521)
  4 by 4 by 4 MPI processor grid
  restoring pair style lj/cut/tip4p/long/omp from restart
  restoring bond style harmonic/omp from restart
  restoring angle style harmonic/omp from restart
  1008 atoms
  672 bonds
  336 angles
Finding 1-2 1-3 1-4 neighbors ...
  special bond factors lj:    0        0        0       
  special bond factors coul:  0        0        0       
     2 = max # of 1-2 neighbors
     1 = max # of 1-3 neighbors
     1 = max # of 1-4 neighbors
     2 = max # of special neighbors
  special bonds CPU = 0.181 seconds
  read_restart CPU = 0.269 seconds

include 	in.setup
variable	out_freq equal 1000
variable	out_freq2 equal 10000
variable	out_freq3 equal 1000

timestep	2.0

neigh_modify    delay 7 every 1

include		in.tip4p
# This is TIP4P/Ice

# create groups ###
group ox type 2
336 atoms in group ox
group hy type 1
672 atoms in group hy

# set charges - beside manually ###
set group ox charge -1.1794
Setting atom values ...
  336 settings made for charge
set group hy charge 0.5897
Setting atom values ...
  672 settings made for charge

# ### TIP3P Potential Parameters ###
pair_style lj/cut/tip4p/long/omp 2 1 1 1 0.1577 8.5
pair_coeff 1 1*2 0.000 0.000
pair_coeff 2 2 0.21084 3.1668
bond_style  harmonic
bond_coeff  1 450 0.9572
angle_style harmonic
angle_coeff 1 55 104.52
kspace_style pppm/tip4p/omp 1.0e-5
pair_modify tail yes

thermo          ${out_freq}
thermo          1000
thermo_style    custom step temp pe etotal epair emol press lx ly lz vol pxx pyy pzz pxy pxz pyz enthalpy

restart 	${out_freq3} restart.lmp.${pid} restart2.lmp.${pid}
restart 	1000 restart.lmp.${pid} restart2.lmp.${pid}
restart 	1000 restart.lmp.0 restart2.lmp.${pid}
restart 	1000 restart.lmp.0 restart2.lmp.0


include         in.dump
dump            myDump all atom ${out_freq2} dump.water.${pid}
dump            myDump all atom 10000 dump.water.${pid}
dump            myDump all atom 10000 dump.water.0
dump            myDump2 all dcd ${out_freq2} dump.dcd
dump            myDump2 all dcd 10000 dump.dcd
dump_modify     myDump append yes
dump_modify     myDump2 append yes


variable natoms 	equal  "count(all)"                        # NUMBER ATOMS
variable H      	equal  "enthalpy/v_natoms"                 # ENTHALPY-per-atom
variable Vol      	equal  "vol/v_natoms"                 # volume-per-atom
fix AVG all 		ave/time ${out_freq} 1 ${out_freq} v_Vol v_H file vol_enthalpy.dat
fix AVG all 		ave/time 1000 1 ${out_freq} v_Vol v_H file vol_enthalpy.dat
fix AVG all 		ave/time 1000 1 1000 v_Vol v_H file vol_enthalpy.dat



fix 		1 all shake 1e-6 200 0 b 1 a 1
       0 = # of size 2 clusters
       0 = # of size 3 clusters
       0 = # of size 4 clusters
     336 = # of frozen angles
  find clusters CPU = 0.027 seconds
fix             2 all nph tri ${pressure} ${pressure} ${pressureDamp}
fix             2 all nph tri 4500 ${pressure} ${pressureDamp}
fix             2 all nph tri 4500 4500 ${pressureDamp}
fix             2 all nph tri 4500 4500 1000
fix             3 all temp/csvr ${temperature} ${temperature} ${tempDamp} ${seed}
fix             3 all temp/csvr 245.09 ${temperature} ${tempDamp} ${seed}
fix             3 all temp/csvr 245.09 245.09 ${tempDamp} ${seed}
fix             3 all temp/csvr 245.09 245.09 100 ${seed}
fix             3 all temp/csvr 245.09 245.09 100 745823


run             250000
PPPM initialization ...
  extracting TIP4P info from pair style
  using 12-bit tables for long-range coulomb (../kspace.cpp:340)
  G vector (1/distance) = 0.37887
  grid = 24 27 32
  stencil order = 5
  estimated absolute RMS force accuracy = 0.0024846693
  estimated relative force accuracy = 7.4825079e-06
  using double precision FFTW3
  3d grid and FFT values/proc = 3825 384
Last active /omp style is kspace_style pppm/tip4p/omp
Neighbor list info ...
  update every 1 steps, delay 7 steps, check yes
  max neighbors/atom: 2000, page size: 100000
  master list distance cutoff = 10.8154
  ghost atom cutoff = 10.8154
  binsize = 5.4077, bins = 5 5 4
  1 neighbor lists, perpetual/occasional/extra = 1 0 0
  (1) pair lj/cut/tip4p/long/omp, perpetual
      attributes: half, newton on, omp
      pair build: half/bin/newton/tri/omp
      stencil: half/bin/3d/tri
      bin: standard
Per MPI rank memory allocation (min/avg/max) = 9.312 | 9.325 | 9.337 Mbytes
Step Temp PotEng TotEng E_pair E_mol Press Lx Ly Lz Volume Pxx Pyy Pzz Pxy Pxz Pyz Enthalpy 
 2000000    253.43797   -4835.4372     -4328.53   -4835.4372            0      5261.96     18.24478    22.797241    19.349873    8048.2053    4979.4641    5816.3258    4990.0902    725.66287   -427.67047   -388.29208   -3710.9084 
 2001000    247.44874   -4866.5812   -4371.6531   -4866.5812            0    4660.2601    18.107502    22.731133     19.63182    8080.5362    4861.0923    5518.0444    3601.6435    1049.7324    36.423552   -158.71564   -3822.4586 
 2002000    243.54253   -4848.0034   -4360.8882   -4848.0034            0    5119.9474    18.166082    22.991333    19.346536    8080.3214    4711.4001    4403.8279    6244.6143    890.45895   -182.03299   -221.09774   -3757.5373 
 2003000     253.9171   -4870.0917   -4362.2261   -4870.0917            0    5409.3327    17.973629    23.040336    19.386965    8028.4999    5165.4366    5412.2019    5650.3597    832.07995    487.20067    214.43756   -3728.8612 
 2004000    241.13612   -4884.6494   -4402.3474   -4884.6494            0     2775.907    17.976215    23.417774    19.292528    8121.4394    4134.2496    351.83755    3841.6338   -476.60009   -261.71625   -1663.3942    -4073.561 
 2005000    234.38487    -4823.364   -4354.5653    -4823.364            0    3682.5509    18.084945    23.247317    19.309166     8118.084     1821.935    4649.7489     4575.969    697.96844   -273.13061      229.616   -3918.5736 
 2006000    249.53556   -4846.7769    -4347.675   -4846.7769            0    5174.1907    17.896366     23.21558    19.439662    8076.6841     5781.532    4688.5896    5052.4506   -268.61721    1524.4809   -1101.4447   -3738.2063 
 2007000    247.63736   -4859.6556   -4364.3503   -4859.6556            0    4738.4886    17.973977    23.312621    19.222164    8054.4811    5199.9919     3236.278    5779.1958    457.37691   -1004.3361   -554.07022   -3807.7374 
 2008000    245.44484   -4850.6078   -4359.6878   -4850.6078            0    4389.0151    18.093518    23.053298    19.412386    8097.2026    4017.7326    4081.4609    5067.8517   -854.83489   -72.361727    238.92467   -3841.3917 
 2009000    254.00176   -4837.7054   -4329.6705   -4837.7054            0    4407.9792    18.136573    22.924531    19.445393    8084.8583    4377.1559    4579.2994    4267.4824    565.10624   -167.31903   -798.82532   -3809.9285 
 2010000    249.98517   -4845.9107   -4345.9095   -4845.9107            0    5366.2804    18.240555    22.816498    19.390716    8070.1363    6416.9151    4416.3729    5265.5531   -1492.3361   -1444.9093   -1463.0737   -3714.3269 
 2011000    239.89534   -4842.3217   -4362.5014   -4842.3217            0    7182.8464    18.006479    22.699448    19.568206    7998.2527    8665.1903    7266.5845    5616.7643    1097.1257    233.79059   -713.85019   -3524.6489 
 2012000    246.41227   -4806.6933   -4313.8383   -4806.6933            0    3948.7178    18.321219    22.829408    19.363647     8099.089    2154.0391    3948.2504    5743.8638    297.57976   -270.78594   -1133.4795    -3847.428 
 2013000    255.89653   -4840.9666   -4329.1419   -4840.9666            0    3605.2384    17.988572    22.997568     19.56944    8095.7478    4544.3387    3720.0711    2551.3052   -604.71862    36.407839   -1810.0703    -3903.478 
 2014000    245.69589   -4851.0091    -4359.587   -4851.0091            0    4807.6827    18.195513    22.975279    19.342649    8086.1364    5725.5894    4060.0973    4637.3614    -186.3431    581.14468    -546.2617   -3792.6266 
 2015000     250.0561   -4858.1699   -4358.0268   -4858.1699            0    4849.2244    18.083982    23.005102    19.433193    8084.6716    4766.7862    4454.5967    5326.2904    556.90176    854.46416   -947.36759    -3786.271 
 2016000    245.57833   -4841.3897   -4350.2027   -4841.3897            0    5281.2243    18.020077    23.073374     19.36333    8050.9625    5957.7292    4444.7984    5441.1454   -922.35673     633.8337    1161.3873   -3730.1076 
 2017000    249.79941   -4859.6489   -4360.0192   -4859.6489            0    5170.3159    18.011468    23.035899     19.45823    8073.4208    5402.2106    3045.9655    7062.7715   -1055.8945   -1187.6062    1584.1688    -3751.253 
 2018000    236.35542   -4849.1073   -4376.3673   -4849.1073            0    4556.1542     18.14557    22.976063    19.354876    8069.3142    4997.3425     4380.242    4290.8783     -356.535   -111.11624    1222.5425   -3840.1869 
 2019000    246.98519   -4852.1679    -4358.167   -4852.1679            0    4595.7182    18.072195     22.95787    19.474044    8079.7634    3460.2537    5158.1254    5168.7755    1280.8508   -882.53467    332.32762   -3816.6303 
 2020000    249.17529   -4860.2877   -4361.9064   -4860.2877            0    4193.3363    18.247831    22.821288     19.42235    8088.2244     1955.513    4768.1505    5856.3453    334.39858   -761.85645    747.50527   -3867.2669 
 2021000    230.55535   -4850.9998   -4389.8606   -4850.9998            0    4625.9991    18.172242    22.854766    19.455218    8080.1866    4258.9895    5245.5153    4373.4925   -1008.0593    327.99759   -31.875755   -3844.7272 
 2022000    247.10008   -4854.3506   -4360.1199   -4854.3506            0    5298.0292    18.088475    23.057456    19.369038    8078.3265     5502.064    4205.3047    6186.7189    611.89009    911.14519    258.56962   -3735.9374 
 2023000    246.34344   -4877.7225   -4385.0052   -4877.7225            0    5191.7257    18.047758    23.068581    19.233273    8007.5072    3904.0394    6220.6927    5450.4449    1478.9334    14.455557   -2.8095904   -3778.7088 
 2024000    255.37504   -4810.2574   -4299.4757   -4810.2574            0    6180.3445     17.73585    23.389773    19.303582    8007.8498     6898.162    6281.0918    5361.7799    1688.0714   -282.03662    656.45708   -3577.6963 
 2025000    260.44532   -4853.1758    -4332.253   -4853.1758            0    4492.7498     18.11294    23.099678    19.327693    8086.7664    4157.9528    5259.8569    4060.4398   -395.55504   -369.76175   -1352.6027   -3802.3907 
 2026000     244.9288     -4825.21   -4335.3221     -4825.21            0    5693.7146    18.088731    23.042195    19.330034    8056.8368    5048.2076    4709.9391     7322.997    1360.5694    -79.71719   -55.689011   -3666.3067 
 2027000     255.5106   -4837.1667   -4326.1139   -4837.1667            0    4854.7063    17.992072    23.034537    19.497365    8080.4695    6847.8971    4512.6907     3203.531   -648.03726    1625.6523    82.201591   -3754.0093 
 2028000    248.26439   -4876.1244    -4379.565   -4876.1244            0    3030.7512    18.256781    23.055104    19.234216    8095.9121    2007.6762    2159.3752    4925.2022     1723.979    108.38719   -399.48077   -4021.7224 
 2029000    258.68956   -4872.9984   -4355.5874   -4872.9984            0    5207.2507    18.050955     22.96011    19.407719    8043.5663    5308.4166    4709.5478    5603.7876   -747.13561   -1671.2596   -430.51239   -3744.7395 
 2030000    235.08503   -4810.8352   -4340.6361   -4810.8352            0     3775.613    18.077486    22.879674      19.6274      8118.03    4673.5768    4294.1653    2359.0968   -78.257476    812.43136    229.35349   -3893.6295 
 2031000    259.73011   -4844.6226   -4325.1303   -4844.6226            0    4284.9317    18.371511    22.946826     19.12302    8061.6504    3265.9394    3952.3248    5636.5308   -623.47936   -367.87638   -323.52377    -3821.347 
 2032000    251.78108   -4852.2359   -4348.6426   -4852.2359            0    2200.9778    18.039234    22.917906    19.646941    8122.4673    2180.5111    2538.6147    1883.8077   -367.53652     679.8383   -2264.6273   -4087.9195 
 2033000    251.75536   -4858.2427   -4354.7008   -4858.2427            0    5526.6488    18.177802    22.848592    19.388777    8052.8796    4829.2582    6075.7267    5674.9616    1494.1469   -358.77682    444.66895   -3705.6347 
 2034000    247.43123   -4875.3955   -4380.5025   -4875.3955            0    6195.0987    17.915796    23.037207    19.361692    7991.1493    6255.2391    4783.0955    7546.9614    930.02302   -1980.2987     18.11007   -3658.5089 
 2035000    243.86492   -4880.2797   -4392.5197   -4880.2797            0     4598.846    18.005012     23.00389     19.46595    8062.5106    5594.1603    3517.0348    4685.3428    1063.8523   -208.20323   -1630.9465   -3851.7715 
 2036000    244.26072   -4875.7922   -4387.2406   -4875.7922            0    5603.5755    18.192581    22.924756    19.300884    8049.6361      2826.13    6587.6155     7396.981    1963.3909    1238.9818    39.923011    -3729.405 
 2037000    250.16661   -4849.3553   -4348.9912   -4849.3553            0    5686.4097    18.232571    22.665672    19.469846    8045.9818     6510.023    6312.2284    4236.9777   -162.69002    500.42371    148.45303   -3681.7343 
 2038000    242.33882   -4844.5799   -4359.8723   -4844.5799            0    3576.1452     18.17338    22.784305    19.599665    8115.5907    3407.0095    3627.7179    3693.7081    25.120747    54.509172   -85.401627   -3936.6085 
 2039000    243.20248   -4855.6059   -4369.1709   -4855.6059            0    5973.3334    18.179451    22.768498     19.42901    8042.0324    5998.1543    6275.1382    5646.7078    309.69962   -778.44973    1013.4121   -3668.5897 
 2040000    238.85866   -4838.1655   -4360.4187   -4838.1655            0    3207.4037    18.305352    22.837011    19.510574    8156.1913    1622.6013    3987.6154    4011.9943    339.09994   -573.49613   -381.71245    -3978.899 
 2041000    248.40004   -4849.5524   -4352.7217   -4849.5524            0    5960.8215    18.086726     22.88308    19.443718    8047.3661    5680.1162    5254.7821     6947.566    380.53736    198.49149    -1604.531   -3653.1443 
 2042000     242.3281   -4843.4957   -4358.8095   -4843.4957            0    4973.7368     18.30307    22.898656    19.294502    8086.6292    2106.4805    5798.6661    7016.0639    25.508574    422.99044      219.978   -3772.2309 
 2043000    245.72053   -4832.6388   -4341.1674   -4832.6388            0    2673.1948     18.02918    23.026277    19.570866    8124.7452    3747.5417    3355.6474    916.39511   -671.80978    217.66819    941.91611   -4024.4177 
 2044000    247.62621   -4884.0848   -4388.8017   -4884.0848            0    5515.1179    18.060096    22.925333    19.423662    8042.0511    3460.7146    6076.6917    7007.9475    -54.24554   -1183.4712     1401.463   -3741.9608 
 2045000    232.13592   -4854.1936    -4389.893   -4854.1936            0    6387.7751    18.030643    22.745355    19.539362    8013.3536    7464.2153    6296.7889    5402.3213   -52.993376    -175.0523   -359.65979   -3643.3759 
 2046000    247.98452   -4881.2028   -4385.2031   -4881.2028            0    3337.3483     18.23869    22.713901    19.561014    8103.5766    3406.3758    3920.3047    2685.3646    186.78804   -441.13088    672.92987   -3990.7874 
 2047000    239.81895   -4841.8375     -4362.17   -4841.8375            0    4633.4432    18.257712    22.755601    19.476845    8091.9518     3249.453    4883.4042    5767.4723   -1123.9984    73.491621   -580.07464   -3815.3643 
 2048000    244.22274   -4866.8015   -4378.3258   -4866.8015            0    4982.5713    18.018706    22.838706    19.496384    8023.2285    7508.9231    4668.6776    2770.1133    1096.9069    383.26016    1616.1439   -3795.3124 
 2049000    247.47642   -4838.8729   -4343.8895   -4838.8729            0    3785.2782    18.124101    23.124747    19.438227    8146.8569    3481.0193    3592.4673    4282.3481    167.13806    556.36905    901.46929   -3894.1471 
 2050000    249.77988   -4882.4516    -4382.861   -4882.4516            0    5881.6148     18.09074    22.852314    19.390418    8016.2946     5060.792    6070.0141    6514.0384    655.27307   -427.96691    2261.0059   -3695.2447 
 2051000    268.37151    -4841.139   -4304.3629    -4841.139            0    2771.3159    18.201028    23.003954    19.533566    8178.6183    2220.2349    3152.7865    2940.9261   -1180.7665    -138.4813    273.52363   -3973.8093 
 2052000    244.28417   -4866.5488   -4377.9503   -4866.5488            0    5501.2729    18.103622    23.060033      19.1935    8012.7129    4791.9776    4082.8487    7628.9924   -444.34148    402.94858   -328.50086   -3735.0869 
 2053000    235.56549   -4871.4364   -4400.2763   -4871.4364            0    4418.1208    17.951933    23.038018    19.523459     8074.453     4748.106    3863.7662    4642.4902      -407.62    116.88259   -290.04199   -3880.0089 
 2054000    260.57126   -4851.9103   -4330.7356   -4851.9103            0    3410.6649    18.262359    23.052426    19.323364    8134.9755    2851.4623    2331.9223    5048.6101    1022.4582    151.82256    2589.8171   -3926.0934 
 2055000     246.9083   -4833.8865   -4340.0394   -4833.8865            0     5414.479     18.15101    22.878328    19.434358    8070.4039    4394.4093    5527.5435    6321.4843   -1039.9497   -260.12447    665.33951    -3702.763 
 2056000    259.52426   -4841.8815   -4322.8009   -4841.8815            0    5763.7687    18.070294    22.880726    19.582639     8096.666    4809.5279    5954.4541     6527.324   -1262.1789    1225.0096   -1844.7454   -3642.2061 
 2057000    241.54055   -4875.5661   -4392.4551   -4875.5661            0    3014.7623     18.39106    22.557854    19.576546    8121.5816    1197.0627    3933.8373    3913.3867   -703.46738    309.48425    -361.4589   -4035.3718 
 2058000    247.34677   -4854.0893   -4359.3652   -4854.0893            0    5566.0402    18.090934    22.720773    19.569066    8043.6689    5402.8058    6018.3425    5276.9724   -1520.3404   -212.33003   -217.49332   -3706.4205 
 2059000    255.69811   -4879.6403   -4368.2125   -4879.6403            0    3573.7095    18.292473    22.854688    19.387568    8105.3367    2260.5238    2655.7767    5804.8279   -1066.6596   -1066.9152   -99.749192   -3945.7713 
 2060000    239.90815   -4842.7897   -4362.9437   -4842.7897            0    3268.9276    18.114018    22.720179    19.741647    8124.7482    2471.5357    4917.6468    2417.6001   -321.01919    881.30586   -187.50926   -3975.6048 
 2061000    240.25764   -4820.9965   -4340.4515   -4820.9965            0    6077.2173    18.213859     22.76491    19.374712    8033.4696    3163.5321    6848.8275    8219.2922    821.27911   -553.68429    748.63057   -3628.4452 
 2062000    250.16757   -4813.0922   -4312.7261   -4813.0922            0    4282.4573    18.224616    22.666695    19.599064    8096.2126    4027.8284    5549.9691    3269.5744    -476.1485    442.55588   -1259.1771   -3807.0751 
 2063000    255.10916   -4847.8407   -4337.5909   -4847.8407            0    1687.6992    18.228531    22.904071    19.620402     8191.666    1090.1805    2789.4234    1183.4938   -56.825659    178.28683    1460.2363   -4135.9665 
 2064000    250.15389   -4869.7355   -4369.3968   -4869.7355            0    5419.0736    18.068475    22.939718    19.355038    8022.3867    5292.3672    5522.1682    5442.6855    117.52804    485.13476   -76.220196   -3735.3745 
 2065000    242.48745   -4868.0611   -4383.0563   -4868.0611            0    4744.7153    18.055626    22.808056    19.561653    8055.7572    5540.0881    6096.8179    2597.2397   -684.36084    512.51725    1184.7086   -3825.6236 
 2066000    250.92134   -4828.5275   -4326.6538   -4828.5275            0    3688.9524    18.291578    22.823098    19.438309    8114.9202    2737.1074    4212.0164    4117.7335    170.71894   -116.90908   -570.53055   -3890.0745 
 2067000    234.61802   -4847.5544   -4378.2893   -4847.5544            0    2795.1442    18.333659    22.541629    19.746185    8160.5165    1522.1943    3204.6844     3658.554    1865.2582    299.14282    -514.7108   -4045.6315 
 2068000    240.40895   -4840.5442   -4359.6966   -4840.5442            0    4651.4126    18.340186    22.701606    19.399906    8077.1832     4220.828    4704.0432    5029.3668   -478.08301    41.711983   -1358.2759   -3811.7722 
 2069000    247.32391   -4888.7184   -4394.0401   -4888.7184            0    5082.0106    18.163951    22.860289    19.419487     8063.615    5450.5934    4698.0714     5097.367    740.56452   -1104.9481   -226.00695   -3796.3979 
 2070000    244.09894   -4839.2371    -4351.009   -4839.2371            0    4048.0436    18.039813    22.970865    19.522541     8089.948    4403.7735     3884.516    3855.8412   -485.07945    -539.0849    20.765588   -3873.4063 
 2071000    247.59533   -4845.3762    -4350.155   -4845.3762            0    4749.3342    18.074298    22.863001    19.427347    8028.0149    4496.8313    4410.9729    5340.1984    1288.1939   -823.15424    2302.2234   -3794.1012 
 2072000    252.18921   -4815.8203   -4311.4107   -4815.8203            0    2755.4528    18.127776    23.064551    19.636859    8210.3479     2771.822    3311.5021    2183.0341   -1068.8785    2087.5806   -206.78201   -3981.4742 
 2073000    238.12866   -4878.1048    -4401.818   -4878.1048            0    4641.9171    18.117971    23.009027    19.328792    8057.7269    4831.3843    5032.6949     4061.672   -259.66002    79.724615    1108.8548   -3856.3293 
 2074000    242.88529    -4889.765   -4403.9644    -4889.765            0    3547.0377     18.06788    23.015803    19.469239    8096.2199    4474.5264    3107.7232    3058.8635   -330.50579    635.23018   -22.875298   -3985.1477 
 2075000     242.9752   -4851.8808   -4365.9004   -4851.8808            0     5673.084    17.866772    23.262804    19.291526    8018.1605    6830.3636    4612.1763    5576.7121    309.10802   -1055.0714    -1328.646    -3702.509 
 2076000    247.20931    -4846.791   -4352.3419    -4846.791            0     2719.983    18.032924    23.149389    19.391836    8095.1444     2997.604    2156.9129    3005.4321   -109.59536   -498.31675   -563.30114   -4031.2224 
 2077000    236.58932   -4873.2485   -4400.0406   -4873.2485            0    4688.8259    17.981508     23.09373     19.38385    8049.3394    4787.3234    4721.5102    4557.6441   -136.84764   -60.154604    1345.1194    -3849.613 
 2078000    265.20715   -4847.1821    -4316.735   -4847.1821            0    5711.4641    18.061929     22.98842     19.33755     8029.245    5667.9234    4835.8413    6630.6275   -1790.1612    76.784315   -156.56252   -3647.9323 
 2079000    239.80896   -4854.3864   -4374.7389   -4854.3864            0    6117.1229    18.095226    23.071285    19.273041    8046.1114    5226.4316    5689.3477    7435.5893   -511.18484    13.575252    870.44686   -3656.9295 
 2080000    255.07445   -4841.9519   -4331.7715   -4841.9519            0    5373.0323    17.990442    23.114165    19.393023     8064.279    7158.3866    3908.2789    5052.4313    -683.3398   -873.36868    293.74267   -3699.8533 
 2081000    250.72334   -4858.4946    -4357.017   -4858.4946            0     3680.062    18.115554    23.016803    19.433263    8102.9349    4040.1248    3539.2791     3460.782   -458.85184    534.71485    923.25872    -3922.133 
 2082000    246.30987   -4888.0803   -4395.4301   -4888.0803            0    2851.4391    18.173786    22.970572    19.421305    8107.6618    1982.3678     2749.955    3821.9946   -334.44268   -946.27691    512.21879   -4058.2704 
 2083000    239.31391    -4822.576   -4343.9186    -4822.576            0    5465.2701    18.328986     22.59908    19.485009     8071.046    5779.3434    4394.3681    6222.0988   -1438.2579    667.40436   -1147.4951    -3700.613 
 2084000    252.59213   -4830.4148   -4325.1993   -4830.4148            0    4437.5245    18.084443    22.820623    19.600973    8089.2874    4393.3194    5628.4938    3290.7604    119.90364    515.81127    569.39907    -3801.687 
 2085000    246.18236   -4868.6672   -4376.2721   -4868.6672            0    5493.9649    18.224626     22.70224    19.430943    8039.3551    5166.2303    5838.6778    5476.9865   -48.348188   -510.64198    47.727793   -3732.1281 
 2086000    244.37153   -4849.6113   -4360.8381   -4849.6113            0    3531.4436      18.0266    22.845968    19.654066    8094.2347    4002.7221    3625.6184    2965.9904     -601.989   -1146.6125   -809.44934   -3943.9649 
 2087000    232.68334   -4844.9376   -4379.5422   -4844.9376            0     2537.682    18.239984    22.936003    19.480289    8149.6245    1455.9909    1910.0311    4247.0239   -185.31164    -994.4042   -1218.3885   -4077.9287 
 2088000    243.71445   -4845.9676   -4358.5085   -4845.9676            0    6900.6961    18.111574    22.861442    19.378463    8023.7823    7586.9235    6805.1415    6310.0234   -24.566383    1381.0588     502.4538   -3550.9985 
 2089000    234.15988   -4882.3373   -4413.9886   -4882.3373            0    4566.5306    18.103172    22.957347    19.444981    8081.3497    4658.0402    4641.0316    4400.5199    -332.8165      635.454   -1023.3968   -3875.7855 
 2090000    238.46757   -4843.0776    -4366.113   -4843.0776            0    4978.1776    18.207112    23.006293     19.29049    8080.3649    5327.1693    4953.7845     4653.579   -680.56569   -47.599514   -1432.1854   -3779.4655 
 2091000    235.95534   -4843.3238    -4371.384   -4843.3238            0    5311.2286    17.990332    22.998261    19.425282    8037.1392    6483.8796    4940.0647    4509.7414    724.11028    374.24364    1123.3251   -3748.8367 
 2092000    232.90371   -4840.1877   -4374.3516   -4840.1877            0    2995.9395    18.146304    23.121708    19.320768    8106.4833    3160.2719       2999.9    2827.6467     143.6733    24.948938    1154.5111   -4020.1574 
 2093000    254.67275   -4848.6055   -4339.2286   -4848.6055            0    4539.7755     17.83687      23.0561    19.605205    8062.6143    5203.3834    4990.7873    3425.1557    1306.0366    437.91163   -23.401398   -3805.4193 
 2094000    246.22725   -4861.2718   -4368.7868   -4861.2718            0    4982.7194    18.161422    22.965587    19.402288    8092.4559    3810.3367    4232.6163    6905.2053   -316.33998    62.939556   -1595.8304   -3780.7254 
 2095000    232.66041   -4868.9771   -4403.6275   -4868.9771            0    5351.5258    18.129254    22.863505    19.378152    8032.2109    5384.6656    5790.4269    4879.4849   -810.54523    630.18324    160.65921   -3776.7414 
 2096000    247.61549   -4838.6902   -4343.4287   -4838.6902            0    5673.3611    17.966319    22.822573    19.606938    8039.5823    5425.9365    5647.6516     5946.495    -156.8001    322.57577   -1067.9538   -3678.2324 
 2097000    251.91467   -4865.8615    -4362.001   -4865.8615            0    4419.2816    18.313143    22.889503    19.298974    8089.7197    2832.9889    5418.2067    5006.6493    1454.1251    600.28867    460.97499    -3840.613 
 2098000    243.91831   -4853.8153   -4365.9485   -4853.8153            0    3806.0163    18.022558    22.886504    19.573333    8073.4778     3262.665    4357.3903    3797.9937    878.45687   -62.732512    493.67522   -3917.8152 
 2099000    238.88233   -4845.6958   -4367.9016   -4845.6958            0    3858.2829    18.110934    23.047926    19.421211    8106.7915    4143.9575    3888.3788    3542.5123     -615.137    386.36746   -877.89338   -3911.7398 
 2100000    248.96802   -4858.9771   -4361.0103   -4858.9771            0    5124.5773    18.103787    23.011126    19.235384    8013.2401     5435.024    3646.2798    6292.4281   -227.98743   -867.68754   -1157.0656   -3762.1272 
 2101000    228.82849   -4864.7756   -4407.0904   -4864.7756            0    2797.1936    17.926362    23.196795    19.563376    8135.1197    4711.5662    2572.4425    1107.5721   -478.95398    804.88811   -425.73377   -4075.2247 
 2102000    243.58175   -4849.7951   -4362.6015   -4849.7951            0    5089.9118    18.031584    23.099384    19.304513    8040.6864    5335.4873    5114.0692    4820.1788   -167.83005    499.86349    161.63621   -3765.7322 
 2103000    249.53073   -4842.8433    -4343.751   -4842.8433            0    6251.3996    17.918419     23.34516    19.185045    8025.2645    5865.6947    4640.2836    8248.2204   -264.37832    142.64607   -874.92326   -3612.0856 
 2104000    248.24202   -4830.9401   -4334.4254   -4830.9401            0    5029.0492    18.032045    23.111474    19.400935     8085.284    6989.6549    4180.9645    3916.5283    217.32192   -484.88363    306.29726   -3741.4221 
 2105000    253.99123    -4829.599   -4321.5851    -4829.599            0    4055.1181     18.03804    22.962933      19.5121    8082.0348    4678.7447    4133.7276    3352.8819   -247.75007   -291.96532   -535.30115   -3843.6157 
 2106000    237.01155   -4864.3786   -4390.3262   -4864.3786            0    3346.8012    18.209774     22.90764    19.494668     8132.063    4641.2077    2930.5209    2468.6751    112.87026    505.09215   -1035.8964   -3993.4029 
 2107000    244.35323   -4841.2061   -4352.4694   -4841.2061            0    4136.1162    18.286592    22.791471    19.326444    8054.8429    3735.1156     4739.201    3934.0321    276.13702   -304.96852   -663.58876   -3866.5931 
 2108000    244.47409   -4831.2406   -4342.2622   -4831.2406            0    3891.1279    18.118804    22.714491     19.78217    8141.5382    3422.7796    5146.1334    3104.4706   -101.91603    485.02823   -10.023884   -3880.2454 
 2109000    242.20894   -4853.8199   -4369.3721   -4853.8199            0    5684.8612    18.196726    22.663677    19.518549    8049.5417    4459.4153    7201.8263    5393.3419   -1005.8196    -624.3119   -782.08195   -3702.0017 
 2110000    252.95132   -4845.0401   -4339.1062   -4845.0401            0    3721.0141    18.083444    22.811808    19.610087    8089.4758    2603.9194    4802.3666    3756.7563    921.58089    1113.4464    1370.5232   -3900.1132 
 2111000    255.32228   -4840.5441    -4329.868   -4840.5441            0    3235.4212    18.023714    23.039005    19.581499     8131.187    2946.5793    3848.0574    2911.6269   -408.42248    680.83536   -1045.2318   -3946.1955 
 2112000    240.77038   -4833.5761   -4352.0056   -4833.5761            0    3563.5695    18.066893    23.067717    19.502682    8127.9762    1875.8416    4875.0413    3939.8257   -724.19413    1681.4469    432.76704   -3929.5865 
 2113000    247.32664    -4875.914   -4381.2301    -4875.914            0    5720.6515    18.062479    22.992376    19.347321     8034.929    4112.8723    5749.7788    7299.3035    -45.86282   -561.70638   -269.44268   -3710.8773 
 2114000    243.11942   -4836.8327   -4350.5639   -4836.8327            0    4364.0457    18.077925    23.101742    19.425519    8112.7099    6640.5452    3461.7737     2989.818    2366.7762   -411.14867    898.05115   -3834.2294 
 2115000    241.58252   -4846.4917   -4363.2968   -4846.4917            0     3147.903    18.184491    22.908464    19.497765     8122.355    3628.9115    3345.4913    2469.3061   -543.82725   -1181.4271    607.16404   -3990.4081 
 2116000    236.50271   -4861.2399   -4388.2052   -4861.2399            0    3471.4623    18.085874    23.046007     19.46182    8111.8264    5177.4342    2705.4354    2531.5174   -163.69115   -149.73083    358.93492    -3977.522 
 2117000    241.60763   -4882.2464   -4399.0013   -4882.2464            0    5975.4248    18.031603    22.822259    19.454137    8005.8036    5757.6769    6263.4137    5905.1839   -226.41373   -175.02047    319.78389    -3701.332 
 2118000    238.26217   -4860.7799   -4384.2261   -4860.7799            0    6010.6591    18.179055    22.841132    19.335752    8028.7882     6070.867    5363.6555    6597.4549    1314.5277     273.7505    1841.5325   -3680.4282 
 2119000    239.69609   -4867.7561   -4388.3343   -4867.7561            0    3863.9756    18.145067    22.853724    19.469388    8073.6116    3593.7837     3991.003    4007.1402    1486.2003    1070.4212    673.41846   -3933.3692 
 2120000    237.29012   -4847.3798   -4372.7702   -4847.3798            0    4397.9449    18.193711    22.921858    19.421681    8099.4944    4377.4147    4636.9598    4179.4601    86.044988    265.02728    116.61189   -3853.2726 
 2121000    243.69499   -4866.4912   -4379.0711   -4866.4912            0    5322.9347    18.167899    22.785744    19.349433    8010.0671    4519.0245    5188.3776     6261.402   -393.89941   -910.11166   -1731.1422   -3757.2533 
 2122000    250.93097   -4836.8908   -4334.9978   -4836.8908            0    4948.8995    18.023648    22.855594    19.670164    8102.9508    5021.8083    5616.5972    4208.2928    1649.7794   -142.45801    -168.4073   -3750.1704 
 2123000    235.40053   -4835.7978   -4364.9677   -4835.7978            0    4451.0048     18.28415     22.84315    19.331394    8074.0967     4171.629    4468.5797    4712.8057   -118.21342   -216.07241   -89.935622   -3840.8511 
 2124000    253.72899   -4866.9827   -4359.4933   -4866.9827            0    4839.7768    18.156478    22.678497    19.598956     8070.098    3544.3158    7012.1992    3962.8154     714.1218    1317.6738    1725.7844   -3789.8801 
 2125000    265.09144   -4860.2558   -4330.0402   -4860.2558            0     4709.315    18.005749    22.897292    19.624053    8090.6615    4753.7386    5406.9535    3967.2529    589.51469    1171.6494    -971.7744   -3774.3693 
 2126000    237.44746    -4856.743   -4381.8187    -4856.743            0    3916.2218    18.269034     22.95464    19.304163    8095.3762     3880.218    2920.8208    4947.6266   -82.798209     -291.471   -298.66922   -3919.4588 
 2127000    239.09087   -4854.9967   -4376.7854   -4854.9967            0    4368.5315     18.09598    22.875888    19.510885    8076.7576    4037.2178    4572.8075    4495.5692    258.57814    78.869163   -1677.4247   -3862.2107 
 2128000    239.70591    -4853.257   -4373.8155    -4853.257            0    4439.8435    18.163745    22.968648    19.360013    8076.9326    3148.8024    5843.6762    4327.0518    2353.5822    947.11679   -829.12632   -3850.8296 
 2129000    250.91464    -4820.568   -4318.7077    -4820.568            0    3683.2687    18.053823      23.1201    19.452485    8119.5881    5415.8912    2417.5902    3216.3248   -509.91374   -902.15895   -1608.6362   -3882.5503 
 2130000    241.76966   -4881.0262   -4397.4571   -4881.0262            0    2881.9795    18.014764    23.265325    19.292388    8085.8128    3121.3627    1904.7051    3619.8708    89.809355   -1000.4107    670.15859   -4057.6046 
 2131000     235.9227   -4874.7977   -4402.9231   -4874.7977            0    5080.1599    17.941418    23.108848    19.329049    8013.9303    5267.5904     4936.826    5036.0631   -1484.3259    -458.2327   -2973.4805   -3809.1797 
 2132000    254.16095   -4837.3169   -4328.9636   -4837.3169            0    5335.0811    17.979846    23.183098    19.333535    8058.7688    4120.2275    6354.1448    5530.8709    536.48952    1357.7682    1484.1524   -3701.9375 
 2133000    244.53685   -4829.0424   -4339.9385   -4829.0424            0    4108.8468    18.086318     22.83028    19.580706    8085.1806    3619.2375     4933.731    3773.5719   -1184.3642   -396.30676   -200.72935   -3855.4477 
 2134000    230.51311    -4850.397   -4389.3423    -4850.397            0      4380.81    18.147399    22.826957    19.449412    8056.9168    3600.0428    5145.1993    4397.1877    750.80618    212.68921    716.32202   -3874.5889 
 2135000    237.37048   -4859.5091   -4384.7388   -4859.5091            0    3244.3366    18.226049    22.931473    19.437761    8124.0153    1890.4036    4555.1442    3287.4621    668.26069  -0.14502677   -1737.1894   -4000.3484 
 2136000    242.20354   -4820.9431   -4336.5061   -4820.9431            0    6396.1276    17.992993    22.841557    19.501212    8014.7635    7736.3821    6580.9381    4871.0625    921.35763   -12.374204   -155.83115   -3588.8813 
 2137000    243.30142   -4854.1381   -4367.5052   -4854.1381            0    5042.0674    18.127322    23.138803    19.162766    8037.7175    4125.4554    5017.8444    5982.9025   -1477.3244    247.38967   -1699.0628   -3776.4647 
 2138000    249.82432     -4871.28   -4371.6005     -4871.28            0     4627.266    17.953328     23.05924     19.49205    8069.5158    6656.6684    3332.6711    3892.4584    1242.1891    -198.9687   -215.84388   -3827.0379 
 2139000    238.62175   -4871.9762   -4394.7033   -4871.9762            0    5251.6303    18.104411    23.095341    19.258771    8052.6227      3426.68    6049.0665    6279.1443   -641.32972    1113.7787   -813.99483   -3777.9558 
 2140000    244.22531   -4831.2332   -4342.7524   -4831.2332            0    6702.5403     17.88049    23.135334    19.406161    8027.7683    7379.8494    6688.6408    6039.1308    947.38392   -95.113345     1456.087   -3558.0407 
 2141000    246.60846   -4869.4883   -4376.2409   -4869.4883            0    5518.7484    18.176766    23.052067    19.186322    8039.2996    8465.5112    3064.9787    5025.7553    -1238.672   -1086.2096    5.5717656   -3729.1956 
 2142000    244.07854   -4851.1021   -4362.9149   -4851.1021            0    5120.9573    18.028484    22.982522    19.367362    8024.6735    4669.1683     5274.829    5418.8746    2002.3804   -90.525602    3012.0393   -3763.6009 
 2143000     235.5719   -4848.4654   -4377.2925   -4848.4654            0     4795.606    18.152776     22.92175    19.388945     8067.612    4016.4109    4915.6301    5454.7771    56.295453   -1012.4244    -405.7394   -3813.0518 
 2144000    251.89498   -4858.6942   -4354.8731   -4858.6942            0    5568.2756    17.844636       22.968     19.64139    8050.1336    5696.8221    6083.3271    4924.6776    1589.5302    112.43085    1244.3336   -3701.1412 
 2145000    250.87425   -4863.2058   -4361.4263   -4863.2058            0    3588.9336    18.243486      23.0173    19.256972    8086.3066    2882.4045    3740.2222    4144.1742   -725.57495   -657.21574   -2312.1096   -3938.1816 
 2146000    244.20306   -4862.8676   -4374.4313   -4862.8676            0    5212.9247    18.128527    22.748894    19.511546    8046.6388    5365.6371    5062.8575    5210.2796    136.62457   -829.37958    88.335173   -3762.6843 
 2147000     232.7688    -4861.979   -4396.4126    -4861.979            0    3291.5386    18.191074    22.681518    19.664207    8113.4751    3403.8194    4908.0542    1562.7424    410.30466    -578.1438   -405.12341   -4006.9357 
 2148000    242.94076   -4862.1416   -4376.2301   -4862.1416            0     4655.423     18.23583      22.6222    19.582348    8078.3963    3136.5611    5698.9258    5130.7822    1177.3014    93.710189    1960.2421   -3827.7509 
 2149000    248.89154   -4834.1823   -4336.3685   -4834.1823            0    4828.1466    18.220128     22.68455    19.546875    8079.0247    5326.5765    5423.7943    3734.0689    -682.4499   -57.983819   -812.35982   -3767.4956 
 2150000    242.16774   -4858.1886   -4373.8232   -4858.1886            0    3949.9501    18.349586    22.961461    19.238609    8105.8664    3875.8983    3716.0128    4257.9392     890.9525   -147.78596    424.35606   -3906.8769 
 2151000    258.01661   -4834.9652   -4318.9001   -4834.9652            0    4223.4697    18.041716    23.105217    19.447942    8107.0258    5978.0127    3468.1799    3224.2165   -272.79663   -1573.1648   -698.58967    -3819.548 
 2152000    239.25095   -4827.1819   -4348.6505   -4827.1819            0    5032.3804    17.945696    23.031296    19.455536    8041.2189    5180.2813    5733.1302    4183.7296   -58.563432    390.93409   -1179.7045   -3758.4885 
 2153000    248.01014   -4841.4256   -4345.3747   -4841.4256            0    5006.9366    18.095208    23.195321    19.229375    8071.0334    5546.0424    3639.9787    5834.7886   -1323.6872    898.08001   -1181.6777   -3756.0195 
 2154000    252.76328   -4871.2162   -4365.6584   -4871.2162            0    5249.8376    17.973257     23.23461    19.289162    8055.1857    4866.9963    5337.6756    5544.8409   -702.54922    1119.1011    129.46195   -3748.9253 
 2155000    236.94047   -4839.3824   -4365.4721   -4839.3824            0    5070.3098    17.948357    22.971132    19.513769    8045.4112    5571.4922    5069.6465    4569.7906   -518.14005    73.611504   -908.20678   -3770.5521 
 2156000    244.00866   -4887.1348   -4399.0873   -4887.1348            0    2613.8739     18.20503    23.048648    19.414293    8146.2636     1943.659    2240.7742    3657.1886    623.97633    581.65026   -681.19586   -4088.5463 
 2157000    246.60737   -4862.7952     -4369.55   -4862.7952            0    4940.7319    18.014538    22.717442    19.721518     8070.917    7868.9479    5601.5646    1351.6833   -2374.1392    968.64723   -2362.0744    -3787.996 
 2158000    244.59072   -4874.3117      -4385.1   -4874.3117            0    5972.4389    18.137064    22.716614    19.470662    8022.1597    6499.0731    6205.5673    5212.6764   -232.45514    674.26685   -318.62728   -3686.3547 
 2159000     238.2463   -4867.5841    -4391.062   -4867.5841            0     3618.081    18.308891    22.753592    19.494978    8121.4718    2633.2555    4138.6215    4082.3659   -1192.3377    189.98793   -2052.7987   -3962.5245 
 2160000    254.11218   -4868.2542   -4359.9985   -4868.2542            0    3462.5228    18.112614    22.957029    19.451452    8088.1437     2172.578    3672.7176    4542.2728   -79.847096    1115.4896    431.33902   -3951.5687 
 2161000    231.36405     -4851.81   -4389.0533     -4851.81            0    3886.6071    17.977413     23.25644    19.368673    8097.8604    5156.0944    2513.9234    3989.8035    -99.74481   -598.79364    287.79838    -3930.049 
 2162000    252.35003   -4860.4067   -4355.6755   -4860.4067            0     2819.021    17.985403    23.158129    19.466525     8107.969    3374.9878    1595.3198    3486.7553    388.21784    80.272054    893.81565   -4022.3364 
 2163000    247.81846   -4866.1219   -4370.4544   -4866.1219            0    4852.1849    18.035214    23.042806    19.334356     8035.009    5663.3278    4912.5115    3980.7153   -1187.4985    335.69699    23.040352   -3801.8639 
 2164000    238.62662   -4851.9115   -4374.6288   -4851.9115            0    4421.7329    18.010615    23.022607    19.418634     8051.962    4423.7017    4445.0156    4396.4813   -978.45547    550.52426   -453.89213   -3855.3864 
 2165000    240.06985   -4850.8126   -4370.6432   -4850.8126            0    3618.5447    18.092196    22.749901    19.687882    8103.4469    3089.4844    5714.3867    2051.7629   -525.16241    1577.5992    223.15316   -3943.0019 
 2166000     255.1894   -4829.8162   -4319.4059   -4829.8162            0    3578.0736    18.329286    22.695584    19.475687    8101.7659    3272.5765     3740.453    3721.1914    2009.1985    120.12978    51.200988   -3896.6352 
 2167000     243.0471   -4864.8001   -4378.6759   -4864.8001            0    5445.0567    18.195128     22.68113    19.580027    8080.4041    6424.3479    5704.5702     4206.252    137.80241    1746.2201    830.82584   -3737.0064 
 2168000    242.39234   -4824.7859   -4339.9713   -4824.7859            0    5909.9337    18.162512    22.846165    19.475097    8081.0696    5820.9696    6124.5789    5784.2525   -300.69356    1577.7555    870.41512   -3643.4613 
 2169000    256.02551   -4841.5004   -4329.4178   -4841.5004            0    2613.8382    18.265801    22.968231    19.390096    8134.7877    1125.7556    3874.0892      2841.67    204.50237    236.67722     1296.148   -4019.3185 
 2170000    256.23911   -4868.4108   -4355.9009   -4868.4108            0    5726.1862    17.941427    22.914723    19.562173    8042.4562    7518.7319    5131.8108    4528.0159   -377.46107   -1619.1241    1074.7836   -3684.2709 
 2171000    250.99012    -4855.167   -4353.1557    -4855.167            0     2920.443    18.153746    23.057623    19.402068     8121.361    2670.6983    3076.1862    3014.4445   -1390.6656   -1252.1925   -738.95352   -4007.2534 
 2172000    241.60466   -4863.8879   -4380.6488   -4863.8879            0    5608.6574    18.018965    23.015506    19.329807    8016.3728     4046.655    4892.8076    7886.5096    141.99937    67.011389    2470.5937   -3724.9374 
 2173000    237.89908    -4863.309   -4387.4814    -4863.309            0    5137.1453    18.053914    23.012926    19.361508    8044.1912     6564.767    3979.7866    4866.8823   -1173.2168    392.07434    813.76145   -3784.8107 
 2174000    241.03698   -4857.4116   -4375.3079   -4857.4116            0    3723.6285    18.135399    22.997211    19.416219    8097.7984    3013.9363    4070.3569    4086.5922    32.821898   -1236.9771     2011.997   -3935.5545 
 2175000    231.84018   -4840.5987   -4376.8897   -4840.5987            0    4404.1144    18.019006     23.15641    19.399614    8094.5955    6267.2064    3834.3105    3110.8262   -1007.8108   -237.04235   -1561.3698    -3856.978 
 2176000    246.63174   -4860.1706   -4366.8767   -4860.1706            0    5658.5224     17.96753    23.122403    19.328335    8030.0048    6290.4165    4861.9892    5823.1616    1251.1097   -21.524365    1417.3829   -3704.2106 
 2177000     244.4854   -4833.7568   -4344.7558   -4833.7568            0    3686.4044    18.149911    23.221137    19.250435    8113.3189     2312.623    4119.9809    4626.6091   -678.46351    541.02221    251.57488   -3908.5641 
 2178000    247.16205   -4841.0964   -4346.7418   -4841.0964            0    4925.4239    18.226463    22.729698    19.450801    8058.1172    4372.4159    5503.8652    4899.9905    417.39331    -242.7102   -556.09478   -3767.9091 
 2179000     256.2616   -4854.3957   -4341.8408   -4854.3957            0     4126.009    18.150687    22.598079    19.728956    8092.2389     4721.842    4367.9267    3288.2583   -1682.4779    266.99967   -1207.2205   -3854.9016 
 2180000    244.99852   -4841.7662   -4351.7389   -4841.7662            0     3094.143    18.301156    22.768235     19.57274     8155.668     3554.311    2985.4846    2742.6333    552.39069    -389.6397    1187.6697   -3983.7152 
 2181000    242.90349   -4868.5086   -4382.6716   -4868.5086            0    3548.0903    18.319706    22.711923    19.521124    8122.2666    2569.7352    3765.8522    4308.6835     301.7601   -810.81316     19.68564   -3962.3828 
 2182000    255.31929   -4859.1429   -4348.4728   -4859.1429            0    5970.0241    18.193785    22.571849    19.555899    8030.9696    5831.0194    7974.0918    4104.9611   -525.55127    562.05871   -1430.2024   -3649.2429 
 2183000    249.13035    -4884.951   -4386.6595    -4884.951            0    4198.2578    18.247885    22.615773    19.620798    8097.3079    3527.8654    4617.2842    4449.6237    1373.0619    -785.4486    583.38464   -3890.8833 
 2184000    233.93002    -4862.432    -4394.543    -4862.432            0    3381.4397    18.211322    22.746229     19.57644    8109.3231    2892.3074    4293.7691    2958.2427   -177.03581   -556.29392   -1779.2755   -3994.6332 
 2185000     261.0178   -4866.3325   -4344.2647   -4866.3325            0    6188.7898    18.078234     22.86242    19.481786    8052.0597    7360.9529    5091.0262    6114.3903    227.92165    650.18316    525.39975   -3617.5087 
 2186000    259.80196   -4859.8023   -4340.1662   -4859.8023            0    5149.8714    18.136099    22.947525    19.342467    8049.9202    4535.3475    4623.9076    6290.3592   -583.46799   -568.23137    1132.5442   -3735.5722 
 2187000    248.75098   -4880.1751   -4382.6424   -4880.1751            0    3116.4551    18.126172    22.947983    19.467742    8097.7843    4982.8168    3369.2352    997.31319   -427.41068   -847.66365    1407.9712   -4014.5956 
 2188000      255.476   -4848.9323   -4337.9487   -4848.9323            0    7392.3468    17.977358    22.825413    19.412207    7965.6172    7311.5579    7408.0599    7457.4224   -254.77591    304.71575   -135.48163   -3479.1772 
 2189000    238.63999   -4873.9327   -4396.6233   -4873.9327            0    3569.1227    18.265162     22.88082    19.389305     8103.215    3226.1829    3564.1359    3917.0493   -66.108929      1156.71    107.94206   -3974.8348 
 2190000    261.93179   -4842.7205   -4318.8246   -4842.7205            0     6539.482    17.935199    23.044562    19.369071    8005.4073    8936.0045    4967.8427    5714.5986    799.10924   -99.672134    899.17054   -3555.3358 
 2191000    248.67692   -4851.3928   -4354.0083   -4851.3928            0    5072.1709     18.14094    22.996061    19.330337    8064.0393     5866.547      4674.29    4675.6756   -1100.0341   -1001.1246    -669.0156   -3757.4919 
 2192000    255.02255   -4863.8329   -4353.7563   -4863.8329            0    2897.2654    18.117484    23.050432    19.455023    8124.7256    3619.5934    2118.6548    2953.5481    1534.1082    593.71605    2073.4063    -4010.457 
 2193000    234.61673   -4838.6621   -4369.3996   -4838.6621            0    4687.9374    18.187746    22.886176    19.410057    8079.3967    4467.1218    4139.3132    5457.3772   -1021.0028    114.32325   -1213.9066   -3817.0213 
 2194000    249.38845   -4859.1636   -4360.3559   -4859.1636            0    3237.0497    18.129851    22.896226    19.550361    8115.4559    4512.9688     3130.288    2067.8923    1281.7768    176.77861    1906.4728    -3977.233 
 2195000    247.47811    -4853.894   -4358.9072    -4853.894            0    5748.7256    18.186579    22.762009    19.411917    8035.8168    6369.9404    5396.1154    5480.1211   -180.37923    97.580337   -185.78604   -3685.1903 
 2196000    249.52549   -4866.3984   -4367.3166   -4866.3984            0    2051.6838    18.215015    22.786953    19.614227    8141.1732    1670.3632    2772.6891    1711.9991    819.30406   -96.676122    1618.4002   -4123.7188 
 2197000    243.05831   -4848.9198   -4362.7731   -4848.9198            0    4046.2065    18.231493    22.864319    19.339263    8061.5843    4913.6653    3952.1686    3272.7856   -1195.0489   -179.97416    658.60152   -3887.0609 
 2198000    251.40353   -4870.0849   -4367.2468   -4870.0849            0    2635.0016     18.07978    22.997877    19.540096    8124.7043    3755.8446    3028.0759    1121.0841   -10.132445   -228.62004    1182.8166   -4055.0242 
 2199000    261.20629    -4866.191   -4343.7461    -4866.191            0    4403.0566    18.192361    22.938813    19.287067    8048.7084    2303.5017     5887.423    5018.2452   -2333.6496     110.2991    507.78468   -3826.9058 
 2200000    240.30927   -4848.2409   -4367.5927   -4848.2409            0    3038.7742    18.176895    22.879542     19.52263    8119.0525    3303.7257    3158.2098     2654.387   -1027.9146   -10.088886    457.16675   -4007.7773 
 2201000    251.64223   -4872.5771   -4369.2615   -4872.5771            0    3113.9064    18.164626    22.824775    19.511894    8089.6997    3347.6048    3542.0614     2452.053   -596.97672   -1245.4734     1281.186   -4001.8829 
 2202000     239.9883   -4846.4764   -4366.4701   -4846.4764            0    3867.7453     18.30762    22.892429    19.342433     8106.528    3199.2151    3379.8763    5024.1445    833.55093    202.08764    1800.6799   -3909.2044 
 2203000    236.80757   -4868.9236   -4395.2792   -4868.9236            0    4411.4623    18.119368     22.71862    19.600643     8068.547    5752.7102    5106.0835     2375.593   -2193.8197    327.21227     493.5384   -3876.1759 
 2204000    235.11591   -4864.6755   -4394.4146   -4864.6755            0    2838.8137     18.29485    22.748456    19.497365    8114.4056    3491.9576    2863.2783    2161.2051     69.62143   -198.29501    1668.7608   -4058.4686 
 2205000    246.29299    -4887.277   -4394.6606    -4887.277            0    3766.6155    18.151972    22.828399    19.531195    8093.3458    3864.6033    3767.4058    3667.8374   -821.37548   -765.05988    169.83914   -3950.0751 
 2206000    239.29989   -4856.7876   -4378.1582   -4856.7876            0    6610.2851    18.037532    22.832424    19.404358    7991.5018    6328.5903    7246.9473    6255.3178    1870.7841    104.27878   -206.79109   -3607.7437 
 2207000    248.21099   -4858.6351   -4362.1824   -4858.6351            0    5368.7382    18.030069    22.998755    19.360266    8028.1049    6907.3545    5351.9548    3846.9054   -496.29046   -321.71746   -99.551607   -3733.6015 
 2208000    251.50834   -4844.3696   -4341.3218   -4844.3696            0     5385.506    17.959601    23.199034    19.343522    8059.3895    5346.6368    4855.0205    5954.8608    393.15007   -55.174761    1582.8888   -3708.3206 
 2209000    248.24576   -4858.3461   -4361.8239   -4858.3461            0    3163.3437     18.13428    23.027325    19.373357    8090.0029    2585.8766    2695.3682    4208.7864    273.49874    -148.5247    669.69744   -3988.5987 
 2210000    241.54188   -4831.7034   -4348.5898   -4831.7034            0    3769.1138    18.165022    22.867934    19.488706    8095.5408    4159.4824    4501.0295    2646.8296   -322.40771    556.00209   -587.40775   -3903.5887 
 2211000    256.66815   -4867.0463   -4353.6783   -4867.0463            0    7122.5207    18.311355    22.729186    19.186249    7985.3592    6844.0886    6210.6888    8312.7848   -691.72134     324.3174   -2442.5698   -3524.2018 
 2212000     239.2319   -4834.6179   -4356.1246   -4834.6179            0    5103.3896     18.10884    22.885965    19.528921    8093.5323    6018.0856    4815.6992    4476.3841    145.05809   -228.58359   -307.07255   -3753.7416 
 2213000    241.91484   -4849.3963   -4365.5367   -4849.3963            0    4626.8719    18.066743    22.841891    19.503228    8048.5645    1771.3098    5311.3891    6797.9166   -1211.2697   -479.95739   -1507.7115   -3822.4342 
 2214000    236.42405   -4835.2232   -4362.3459   -4835.2232            0    4876.8934    18.148612    23.009867    19.372523    8089.9104    5569.5872      4328.57     4732.523   -612.49515   -1003.3157    1144.7219   -3786.9552 
 2215000    235.87732   -4885.6391   -4413.8553   -4885.6391            0     4970.193    17.940886    22.953188    19.570993    8059.3456    6244.8627    4422.9767    4242.7396   -1126.2605   -84.969387   -135.17027   -3829.6723 
 2216000    248.00878   -4868.4806   -4372.4324   -4868.4806            0    5200.2802    18.301578    22.869199    19.235354    8050.8118    4538.8404     4794.621    6267.3793    1630.7524    949.45473   -678.30968   -3761.8527 
 2217000    235.53592   -4871.7649    -4400.664   -4871.7649            0    4879.1726    18.109182    22.745132    19.575452     8063.045     4821.544    6073.2052    3742.7687   -724.79154    467.25332   -60.772073    -3826.916 
 2218000     254.1683    -4850.303    -4341.935    -4850.303            0    5659.8588    18.131288      23.0066    19.363374    8077.2243    4041.0259    5453.6207    7484.9297    23.993336   -14.133473   -1575.6332   -3675.2148 
 2219000    236.86355   -4838.5908   -4364.8345   -4838.5908            0    5604.1058    18.087737    22.977247    19.403089    8064.0477    6390.3366    6015.5989     4406.382     306.3039    168.88806   -381.10164   -3705.7588 
 2220000    235.27555   -4871.4901   -4400.9099   -4871.4901            0    5267.3757    18.021263    22.946012    19.391871    8018.8513     6737.726    4768.6705    4295.7307    679.64017   -1331.4252    1313.7926   -3784.9076 
 2221000    234.74663   -4842.3352   -4372.8129   -4842.3352            0    5698.6587    18.006338    23.055069    19.416206    8060.3929    5502.1542      5218.37     6375.452    597.88603    -64.99012   -888.05231    -3702.921 
 2222000    229.67597   -4865.5037   -4406.1234   -4865.5037            0    2063.5598    18.224932     22.95916    19.468724    8146.2809     459.2268    3263.0387    2468.4137   -376.79132   -834.65715   -2181.5522   -4160.9619 
 2223000    233.72089   -4863.7374   -4396.2668   -4863.7374            0    5299.0183    18.069528    22.828238    19.405738    8004.7791    5490.7793    5555.4939    4850.7818   -26.492541   -81.885436    -38.12219   -3777.6515 
 2224000    247.87918   -4850.1218   -4354.3328   -4850.1218            0     5408.796    17.902921    23.088719    19.499897      8060.39    4659.5996    5486.2248    6080.5635    709.37205    417.44001   -716.63071   -3718.5152 
 2225000    242.07083   -4870.3524   -4386.1808   -4870.3524            0    3972.2683    18.206171    23.018715    19.310305    8092.6142    2986.0996    3570.7367    5359.9687    542.24662   -1167.0368   -248.23217   -3917.3639 
 2226000    241.02349   -4848.6382   -4366.5614   -4848.6382            0    5236.2805    17.905373    23.004215     19.54503    8050.5793    6328.8646    3960.8813    5419.0955   -423.87188    51.650392    1533.2941   -3751.7726 
 2227000    257.95051   -4823.6328   -4307.6999   -4823.6328            0    3009.8434    18.096838    23.125105    19.426676    8129.8944    2510.2752     2648.513    3870.7418   -327.87724   -101.13226   -1244.5983   -3950.8343 
 2228000    254.25723   -4847.3992   -4338.8534   -4847.3992            0    3732.6429    18.142762    22.963698    19.485159    8118.0028    3435.4863    4426.6369    3335.8056   -228.26935    693.32426   -97.485881   -3896.9355 
 2229000    250.51846   -4852.0006   -4350.9328   -4852.0006            0    3998.6606    18.124557    22.983367    19.496034     8121.333     5805.505    3842.4161    2348.0605    -19.47302    808.72203    193.50886   -3877.3262 
 2230000    261.31274   -4853.5451   -4330.8873   -4853.5451            0     3460.608    18.225899    22.914403    19.446385    8121.5028    3582.2677    2956.7217    3842.8345    -308.6982    -165.2375   -294.87674   -3920.9998 
 2231000     253.7411   -4835.6983   -4328.1848   -4835.6983            0     6234.376    18.022779     22.78706     19.53776    8023.8869    6580.8781     6508.147    5614.1028    169.12716   -612.12329   -404.04657   -3598.6371 
 2232000     237.2383   -4837.4938   -4362.9879   -4837.4938            0    4122.3351    18.138348    22.941069    19.477997    8105.0499    3458.2974    5554.2425    3354.4654    1217.0717    787.53396    583.91709   -3875.7121 
 2233000    248.25452   -4873.1047    -4376.565   -4873.1047            0    5599.4696    18.106563    22.888811    19.398545    8039.4883     5680.416    6065.1049    5052.8878   -450.59882    -520.2533     707.3869   -3720.0402 
 2234000    248.09216   -4839.7112   -4343.4962   -4839.7112            0    5029.1163    18.166077    22.879605    19.487347    8099.5778    4362.1759    6504.1174    4221.0558    967.81978    1436.9979    1987.6801   -3749.4367 
 2235000    238.55736   -4866.1682    -4389.024   -4866.1682            0    4920.4507    18.224797     22.89593    19.266799    8039.5281    4424.7745     4715.029    5621.5486    1752.8974     2525.909    877.13464   -3812.1096 
 2236000     250.2725   -4879.9657   -4379.3898   -4879.9657            0    4378.0611    18.018792    22.991481    19.479179    8069.8091    4816.9131    3353.2402      4964.03    1753.2475   -154.07834    482.27202   -3864.1362 
 2237000    239.32749   -4851.1742   -4372.4897   -4851.1742            0    4466.5415    18.008343    22.954831    19.511321    8065.5603    4873.9416    4888.9708    3636.7122    1112.6372   -796.85329    369.65369   -3847.0997 
 2238000     250.9762   -4851.9104    -4349.927   -4851.9104            0    3633.9377    18.087107    23.199743    19.354535     8121.477     3558.532    3838.5032    3504.7778    1041.3619   -627.80201    1511.8353    -3919.511 
 2239000     241.6027   -4846.5932   -4363.3579   -4846.5932            0     5578.425    18.044886     22.91125    19.447137    8040.0472    5646.4906     4552.515    6536.2696   -6.8933036   -735.20717   -1441.0701    -3709.255 
 2240000    253.35347   -4856.2375   -4349.4992   -4856.2375            0    4913.4538    18.193477    22.978815    19.287034     8063.225    4942.5101    5698.6135    4099.2378   -177.17293   -91.693489   -877.53669   -3771.7072 
 2241000     240.7169   -4864.4128   -4382.9492   -4864.4128            0    4844.2959    17.916631    23.119011    19.483286    8070.2651    5162.1546    4052.9483    5317.7849    706.65537   -1276.6163   -582.66037   -3812.7924 
 2242000    243.04118   -4852.8308   -4366.7184   -4852.8308            0    3788.8653    18.024724     23.06381    19.454978       8087.8    4096.3576    4475.7844    2794.4538    1247.1554   -78.002068    947.51795   -3919.8131 
 2243000    257.66192   -4847.4328   -4332.0771   -4847.4328            0     3802.623    18.115946    23.093265    19.394126    8113.6554    5485.5064    3322.4996     2599.863   -366.93967   -353.64783   -897.81321   -3882.1152 
 2244000    256.47896   -4859.0964   -4346.1068   -4859.0964            0    6331.6997    18.054093    22.986427     19.36353    8035.8472    6619.6627    6605.9085    5769.5279    587.53105   -50.220256     770.9305   -3604.0658 
 2245000    254.94106   -4837.9116    -4327.998   -4837.9116            0    5152.4971    18.115645    22.990935    19.371908    8068.3147    4772.3186    5003.8692    5681.3034    542.52197    248.61687    537.92866   -3721.7135 
 2246000    238.51685   -4846.9045   -4369.8413   -4846.9045            0    5617.4422    18.218635    22.621504    19.612086    8082.7867    5570.3707    5897.4011    5384.5548   -1935.9586    -326.2133   -1411.4341    -3707.662 
 2247000    243.98938   -4855.4501   -4367.4412   -4855.4501            0    3160.7118    18.236952    22.770564    19.528352    8109.4544    3180.1627    3761.2549    2540.7178   -366.01525    47.641885    1216.3653   -3993.6299 
 2248000    236.50299   -4810.6414   -4337.6062   -4810.6414            0    5438.2208    18.226102    22.609317      19.5943    8074.4137    5060.1695    6263.0288     4991.464   -76.395557    554.17605    1016.1259   -3697.2174 
 2249000    239.82299   -4859.0344   -4379.3588   -4859.0344            0    4331.7815    18.140939    22.746089    19.613768    8093.3349    3945.2475      5156.33    3893.7672   -74.448494   -432.33998   -1607.4438   -3868.0657 
 2250000    249.77602   -4834.5427   -4334.9598   -4834.5427            0    4687.0973    18.203095    22.968903     19.33106    8082.4151    5098.1191    4445.3424    4517.8305   -1655.0825    399.61136   -40.640508   -3782.4742 
Loop time of 486.638 on 64 procs for 250000 steps with 1008 atoms

Performance: 88.772 ns/day, 0.270 hours/ns, 513.728 timesteps/s
99.2% CPU use with 64 MPI tasks x 1 OpenMP threads

MPI task timing breakdown:
Section |  min time  |  avg time  |  max time  |%varavg| %total
---------------------------------------------------------------
Pair    | 28.657     | 32.159     | 35.95      |  33.2 |  6.61
Bond    | 0.27676    | 0.28607    | 0.30595    |   1.1 |  0.06
Kspace  | 218.05     | 230.31     | 241.8      |  37.1 | 47.33
Neigh   | 3.8041     | 4.5458     | 5.3736     |  20.2 |  0.93
Comm    | 90.343     | 102.29     | 114.72     |  56.8 | 21.02
Output  | 0.94203    | 0.94366    | 0.94514    |   0.0 |  0.19
Modify  | 104.84     | 108.8      | 113.3      |  20.6 | 22.36
Other   |            | 7.302      |            |       |  1.50

Nlocal:        15.7500 ave          19 max          11 min
Histogram: 1 2 4 11 0 11 10 11 11 3
Nghost:        2481.83 ave        2503 max        2455 min
Histogram: 1 2 5 9 8 12 7 8 7 5
Neighs:        5180.56 ave        6270 max        3602 min
Histogram: 1 2 4 9 10 3 10 11 10 4

Total # of neighbors = 331556
Ave neighs/atom = 328.92460
Ave special neighs/atom = 2.0000000
Neighbor list builds = 8571
Dangerous builds = 0

unfix		3
unfix		2
unfix		1

write_data	data.final.${pid}
write_data	data.final.0
System init for write_data ...
PPPM initialization ...
  extracting TIP4P info from pair style
  using 12-bit tables for long-range coulomb (../kspace.cpp:340)
  G vector (1/distance) = 0.37837984
  grid = 24 27 32
  stencil order = 5
  estimated absolute RMS force accuracy = 0.0025467747
  estimated relative force accuracy = 7.6695363e-06
  using double precision FFTW3
  3d grid and FFT values/proc = 3825 384
Last active /omp style is kspace_style pppm/tip4p/omp
WARNING: Not all mixed pair coeffs generated from mixing. Use write_data with 'pair ij' option to store all pair coeffs. (../write_data.cpp:312)

write_restart   restart.lmp.${pid}
write_restart   restart.lmp.0
System init for write_restart ...
PPPM initialization ...
  extracting TIP4P info from pair style
  using 12-bit tables for long-range coulomb (../kspace.cpp:340)
  G vector (1/distance) = 0.37837984
  grid = 24 27 32
  stencil order = 5
  estimated absolute RMS force accuracy = 0.0025467747
  estimated relative force accuracy = 7.6695363e-06
  using double precision FFTW3
  3d grid and FFT values/proc = 3825 384
Last active /omp style is kspace_style pppm/tip4p/omp
Total wall time: 0:08:07
