LAMMPS (30 Jul 2021)
  using 1 OpenMP thread(s) per MPI task
package omp 0
using multi-threaded neighbor list subroutines
echo both

include		in.partitions
variable        pid world 0
include		in.temp
variable        temperature equal 258.87
variable	tempDamp equal 100.0
include		in.pressure
variable        pressure equal 7125.0
variable        pressureDamp equal 1000.0 # This is 1 ps
include		in.seed
variable        seed world 745823

units		real
atom_style	full
read_restart	restart.lmp.${pid}
read_restart	restart.lmp.0
Reading restart file ...
  restart file = 30 Jul 2021, LAMMPS = 30 Jul 2021
  restoring atom style full from restart
  orthogonal box = (0.56873986 1.7614317 0.69386131) to (17.638833 21.867746 21.519334)
  4 by 4 by 4 MPI processor grid
  restoring pair style lj/cut/tip4p/long/omp from restart
  restoring bond style harmonic/omp from restart
  restoring angle style harmonic/omp from restart
  864 atoms
  576 bonds
  288 angles
Finding 1-2 1-3 1-4 neighbors ...
  special bond factors lj:    0        0        0       
  special bond factors coul:  0        0        0       
     2 = max # of 1-2 neighbors
     1 = max # of 1-3 neighbors
     1 = max # of 1-4 neighbors
     2 = max # of special neighbors
  special bonds CPU = 1.232 seconds
  read_restart CPU = 1.530 seconds
include 	in.setup
variable	out_freq equal 1000
variable	out_freq2 equal 10000
variable	out_freq3 equal 1000

timestep	2.0

neigh_modify    delay 7 every 1

include		in.tip4p
# This is TIP4P/Ice

# create groups ###
group ox type 2
288 atoms in group ox
group hy type 1
576 atoms in group hy

# set charges - beside manually ###
set group ox charge -1.1794
Setting atom values ...
  288 settings made for charge
set group hy charge 0.5897
Setting atom values ...
  576 settings made for charge

# ### TIP3P Potential Parameters ###
pair_style lj/cut/tip4p/long/omp 2 1 1 1 0.1577 8.5
pair_coeff 1 1*2 0.000 0.000
pair_coeff 2 2 0.21084 3.1668
bond_style  harmonic
bond_coeff  1 450 0.9572
angle_style harmonic
angle_coeff 1 55 104.52
kspace_style pppm/tip4p/omp 1.0e-5
pair_modify tail yes

thermo          ${out_freq}
thermo          1000
thermo_style    custom step temp pe etotal epair emol press lx ly lz vol pxx pyy pzz pxy pxz pyz enthalpy

restart 	${out_freq3} restart.lmp.${pid} restart2.lmp.${pid}
restart 	1000 restart.lmp.${pid} restart2.lmp.${pid}
restart 	1000 restart.lmp.0 restart2.lmp.${pid}
restart 	1000 restart.lmp.0 restart2.lmp.0


include         in.dump
dump            myDump all atom ${out_freq2} dump.water.${pid}
dump            myDump all atom 10000 dump.water.${pid}
dump            myDump all atom 10000 dump.water.0
dump            myDump2 all dcd ${out_freq2} dump.dcd
dump            myDump2 all dcd 10000 dump.dcd
dump_modify     myDump append yes
dump_modify     myDump2 append yes


variable natoms 	equal  "count(all)"                        # NUMBER ATOMS
variable H      	equal  "enthalpy/v_natoms"                 # ENTHALPY-per-atom
variable Vol      	equal  "vol/v_natoms"                 # volume-per-atom
fix AVG all 		ave/time ${out_freq} 1 ${out_freq} v_Vol v_H file vol_enthalpy.dat
fix AVG all 		ave/time 1000 1 ${out_freq} v_Vol v_H file vol_enthalpy.dat
fix AVG all 		ave/time 1000 1 1000 v_Vol v_H file vol_enthalpy.dat


timer           timeout 23:50:00 every 1000
New timer settings: style=normal  mode=nosync  timeout=23:50:00

fix 		1 all shake 1e-6 200 0 b 1 a 1
       0 = # of size 2 clusters
       0 = # of size 3 clusters
       0 = # of size 4 clusters
     288 = # of frozen angles
  find clusters CPU = 0.011 seconds
fix             2 all nph iso ${pressure} ${pressure} ${pressureDamp}
fix             2 all nph iso 7125 ${pressure} ${pressureDamp}
fix             2 all nph iso 7125 7125 ${pressureDamp}
fix             2 all nph iso 7125 7125 1000
fix             3 all temp/csvr ${temperature} ${temperature} ${tempDamp} ${seed}
fix             3 all temp/csvr 258.87 ${temperature} ${tempDamp} ${seed}
fix             3 all temp/csvr 258.87 258.87 ${tempDamp} ${seed}
fix             3 all temp/csvr 258.87 258.87 100 ${seed}
fix             3 all temp/csvr 258.87 258.87 100 745823

run             250000
PPPM initialization ...
  extracting TIP4P info from pair style
  using 12-bit tables for long-range coulomb (../kspace.cpp:340)
  G vector (1/distance) = 0.37380028
  grid = 24 24 24
  stencil order = 5
  estimated absolute RMS force accuracy = 0.0032140395
  estimated relative force accuracy = 9.6789845e-06
  using double precision FFTW3
  3d grid and FFT values/proc = 2535 216
Last active /omp style is kspace_style pppm/tip4p/omp
Neighbor list info ...
  update every 1 steps, delay 7 steps, check yes
  max neighbors/atom: 2000, page size: 100000
  master list distance cutoff = 10.8154
  ghost atom cutoff = 10.8154
  binsize = 5.4077, bins = 4 4 4
  1 neighbor lists, perpetual/occasional/extra = 1 0 0
  (1) pair lj/cut/tip4p/long/omp, perpetual
      attributes: half, newton on, omp
      pair build: half/bin/newton/omp
      stencil: half/bin/3d
      bin: standard
Per MPI rank memory allocation (min/avg/max) = 9.233 | 9.239 | 9.244 Mbytes
Step Temp PotEng TotEng E_pair E_mol Press Lx Ly Lz Volume Pxx Pyy Pzz Pxy Pxz Pyz Enthalpy 
12750000    270.05756   -3848.0476   -3385.1782   -3848.0476            0    6594.9805    17.070093    20.106314    20.825473    7147.6491    8045.3892    6346.7171    5392.8352    1069.0347    139.22821   -1513.1664     -2697.71 
12751000    266.89306   -3864.5759   -3407.1303   -3864.5759            0    7494.0555     17.02341    20.051329    20.768521    7089.1685    6647.2586     7963.674    7871.2341    141.70295   -1469.3959    722.01933    -2632.333 
12752000    253.41123   -3866.3732    -3432.035   -3866.3732            0    7195.8541    17.061017    20.095625    20.814401    7136.2548    7719.7995    6720.3044    7147.4583      855.806    856.88879   -1481.1899   -2683.1268 
12753000    262.31355   -3884.4878   -3434.8914   -3884.4878            0    6672.8828    17.054492    20.087939     20.80644    7128.0699    6339.3661    5618.6482     8060.634   -39.378997   -2098.6835    17.483021   -2741.2079 
12754000    245.19826   -3892.8889   -3472.6275   -3892.8889            0    6214.2311    17.031002     20.06027    20.777782    7098.6564    5030.6091    6375.4477    7236.6365    3641.9309    639.28519   -376.29497   -2829.2891 
12755000     258.2151   -3883.2698    -3440.698   -3883.2698            0     7774.507    17.082464    20.120886    20.840566    7163.2012    7865.5434    7533.9584    7924.0192    1503.6982    642.41659    -905.7024   -2628.5112 
12756000    270.61397   -3877.6408   -3413.8177   -3877.6408            0    8203.8274     17.05214    20.085168    20.803571    7125.1211    10106.505     8251.376    6253.6011    1144.9994    338.81362   -708.17732   -2561.3369 
12757000    257.31691   -3868.0095   -3426.9771   -3868.0095            0    6885.1318    17.026473    20.054936    20.772258    7092.9956    7536.1136    8041.7823    5077.4995    198.79111    522.79873    1037.0362   -2714.7511 
12758000    269.23264   -3891.0063   -3429.5507   -3891.0063            0     5244.003    17.158979    20.211011    20.933914    7259.8877    3805.7422    4464.0706    7462.1963   -921.86022    2498.8099   -16.056861   -2874.3261 
12759000    278.76298   -3880.9524   -3403.1621   -3880.9524            0    9678.3591    17.074079     20.11101    20.830337    7152.6583    9139.7035    9456.3903    10438.983   -187.94295    650.75057   -771.71782    -2393.572 
12760000    266.99014   -3868.8784   -3411.2664   -3868.8784            0    9993.9125     16.97262    19.991504    20.706557    7025.9045    9541.1396    11488.115    8952.4826   -1048.3954   -106.40535   -939.70699   -2387.2341 
12761000    259.46589    -3882.675   -3437.9594    -3882.675            0    5262.1096    17.134159    20.181776    20.903634    7228.4296    5961.6069    5934.2788    3890.4431   -252.14755   -645.13632   -180.61861   -2883.2318 
12762000    265.38287    -3847.459   -3392.6018    -3847.459            0    5986.9502    17.092139    20.132282     20.85237    7175.3789    4748.9273    7389.6695    5822.2538   -62.257483    116.72111   -144.96233   -2766.0942 
12763000     263.4294   -3840.9205   -3389.4116   -3840.9205            0    7926.0753     17.04412    20.075722    20.793786    7115.0722    8102.8477    8770.5144    6904.8639   -206.00008    1372.4844    1538.9297   -2566.9542 
12764000    248.66546   -3879.2764   -3453.0723   -3879.2764            0    6468.2983    17.131946     20.17917    20.900935    7225.6298    7998.4254    3456.2481    7950.2215    198.09703   -547.94375   -2312.5075   -2771.4534 
12765000    258.44031   -3887.8939    -3444.936   -3887.8939            0    6810.8712    17.116711    20.161224    20.882347    7206.3696    6353.2621    4667.7306    9411.6211    1199.6148    1275.3197    574.34594   -2729.1304 
12766000     261.0904   -3873.1477   -3425.6477   -3873.1477            0    8191.9208    17.021306     20.04885    20.765953    7086.5394    8079.5465    7193.3013    9302.9146    373.79424    574.27145   -1247.3393   -2579.0134 
12767000    254.73312   -3860.7118    -3424.108   -3860.7118            0    7139.2521    17.034547    20.064446    20.782107    7103.0902    8707.4186    6715.0801    5995.2577   -537.92217    -33.28875   -9.1067809   -2684.5437 
12768000    248.84312   -3897.5971   -3471.0885   -3897.5971            0    6694.9252    17.084471    20.123251    20.843015    7165.7266    7382.8431    8216.8121    4485.1204    1161.9534    1175.0824   -454.78588   -2771.4369 
12769000    253.96789   -3861.7568   -3426.4645   -3861.7568            0    7730.9212    17.104443    20.146775    20.867381    7190.8864     7435.639    7687.5596     8069.565   -605.88519    1061.5157    -770.8546   -2615.7096 
12770000    254.01654   -3912.2857     -3476.91   -3912.2857            0    6601.5044     17.07828    20.115958    20.835462    7157.9392    5572.9003    6224.3115    8007.3015    257.19497    226.67645   -184.94191    -2787.771 
12771000    259.20192   -3892.3092    -3448.046   -3892.3092            0    8812.5494    17.038884    20.069554    20.787398    7108.5169    8194.4586    8755.9447    9487.2449    82.644546   -1583.2268   -2167.2282   -2534.4452 
12772000     265.5706   -3868.2623   -3413.0834   -3868.2623            0    7474.1449    17.081741    20.120034    20.839684     7162.291     7299.435    5433.9012    9689.0984    1369.4116   -25.473957    219.57565    -2632.374 
12773000    260.04921    -3910.594   -3464.8786    -3910.594            0     6312.667    17.082921    20.121425    20.841124    7163.7762    7189.9742     5959.159    5788.8679     385.4196    348.92547    48.839601   -2805.3543 
12774000    268.75295    -3837.271   -3376.6376    -3837.271            0    6336.7323    17.156008    20.207511     20.93029    7256.1178    6638.0554    6304.8146    6067.3267   -176.50715    698.41146    402.70401   -2706.0654 
12775000    250.03659    -3859.404   -3430.8498    -3859.404            0     6193.442    17.193912    20.252157    20.976532    7304.3182    8610.8177    5790.1845    4179.3237   -551.31849   -1482.7488   -552.20428   -2771.0873 
12776000     273.3012   -3865.0649    -3396.636   -3865.0649            0    6443.0519    17.167136    20.220618    20.943865     7270.246    7716.0613    6303.8562    5309.2382   -409.52747   -1073.1982    895.54281   -2713.4851 
12777000    265.71562   -3866.3826   -3410.9551   -3866.3826            0    7723.9748    17.093004    20.133301    20.853425    7176.4684    8749.4914    7561.8039    6860.6292   -307.72494   -904.50672   -727.60772   -2602.5529 
12778000    271.18404   -3937.6721   -3472.8719   -3937.6721            0    6860.0397    17.102827    20.144872    20.865409    7188.8484    6811.3707    8236.9662    5531.7823   -499.47849   -1860.8873    153.33411   -2753.6518 
12779000    251.32743   -3902.2873   -3471.5207   -3902.2873            0      6279.74    17.080034    20.118024    20.837601    7160.1441    6803.7167    7686.5491    4348.9542   -1386.7972    264.26646   -631.27207   -2815.7691 
12780000    262.99574   -3880.8985   -3430.1328   -3880.8985            0    7297.5846    17.151725    20.202466    20.925064    7250.6841     7288.964    7545.3174    7058.4725   -62.675521   -61.696926    311.75197   -2658.4585 
12781000    261.25695   -3855.7232   -3407.9377   -3855.7232            0     7790.204    17.114474     20.15859    20.879619    7203.5452     6957.783    8193.8247    8219.0044    601.69476   -213.66608   -1060.7109   -2589.5276 
12782000    257.74778   -3846.2256   -3404.4548   -3846.2256            0    7621.4688     17.10086    20.142554    20.863009    7186.3679    6501.2216    8295.8063    8067.3784   -774.79637   -2224.7172   -497.40693   -2605.6806 
12783000    264.60703   -3861.7251   -3408.1977   -3861.7251            0    6846.7877    17.145603    20.195256    20.917596    7242.9237    6390.2505    7873.4688    6276.6439    2515.5551   -370.20626   -394.43619   -2684.9674 
12784000    248.42959   -3877.1614   -3451.3616   -3877.1614            0    6815.9832    17.073765     20.11064    20.829953    7152.2628    7581.8739    6111.6325    6754.4433    312.05217   -952.38971   -250.48304   -2740.3972 
12785000    251.97971   -3885.4706    -3453.586   -3885.4706            0    6972.3249    17.018383    20.045407    20.762387    7082.8893    7092.9152    6931.4067    6892.6527   -1167.9724    234.66629   -467.15345   -2733.3681 
12786000    250.94302   -3881.3584   -3451.2506   -3881.3584            0    6738.8906    16.984211    20.005157    20.720698    7040.3088    6108.5714    8808.7505    5299.3499    1539.1639   -116.80872   -552.82373   -2759.3305 
12787000    261.05649   -3861.8858   -3414.4439   -3861.8858            0    5926.3955    17.080833    20.118965    20.838576     7161.149    5820.9617    6435.9277    5522.2971    1498.9481    66.044601    1880.4784   -2795.5029 
12788000    255.92348    -3855.581   -3416.9369    -3855.581            0     6011.218    16.985559    20.006745    20.722342    7041.9855    5227.3125    5276.4887    7529.8529   -1404.4324    1631.5124    349.23211    -2799.584 
12789000    255.38908    -3865.864   -3428.1358    -3865.864            0    6753.4543    17.023479     20.05141    20.768604     7089.254     5099.148     5765.786     9395.429   -81.345166   -1080.9074   -387.68025   -2729.8996 
12790000    251.60945   -3881.0797   -3449.8298   -3881.0797            0    7555.2187     16.98862     20.01035    20.726077    7045.7933    8035.3423    5868.2825    8762.0313   -1545.5476    1482.7703    2430.1567   -2673.4882 
12791000    245.38425   -3865.7158   -3445.1355   -3865.7158            0    4922.5919    17.091926    20.132031    20.852109    7175.1101    4814.4395     4716.983    5236.3533   -387.03153    -161.4192     164.6117   -2930.0275 
12792000    262.87941   -3889.6253    -3439.059   -3889.6253            0    7713.2298    16.990746    20.012855     20.72867    7048.4388    9050.4626    7609.3611    6479.8656    641.41744   -366.11974   -1040.0271   -2646.1834 
12793000    254.55035   -3854.2801   -3417.9895   -3854.2801            0    6398.9558    17.066191    20.101719    20.820714    7142.7497    5412.0407    5125.6307    8659.1959   -220.00276    605.70451   -976.84558   -2751.4124 
12794000    272.28485   -3893.4872   -3426.8003   -3893.4872            0    6991.6965     17.05246    20.085546    20.803961    7125.5224    5114.5749    8707.8852    7152.6295    401.84169   -801.18062    278.03701   -2700.2342 
12795000    248.76248   -3900.5632   -3474.1928   -3900.5632            0    5740.3421    17.104779    20.147171    20.867791    7191.3101    4355.2963    5013.5612    7852.1689   -152.40185   -580.63465   -1198.6736   -2872.1579 
12796000    262.80159   -3852.5336   -3402.1007   -3852.5336            0    7266.2824    17.042718    20.074071    20.792076    7113.3172    8120.8987    9076.7291    4601.2195    576.98227    151.04374    386.77421   -2648.2934 
12797000    264.23423   -3916.0296   -3463.1412   -3916.0296            0    6321.6907    17.075314    20.112464    20.831843    7154.2095    5714.0051    7276.9642    5974.1029   -422.36865     336.0989   -511.18878   -2803.5562 
12798000    261.39924   -3899.5298   -3451.5004   -3899.5298            0    6602.4502    17.149593    20.199955    20.922463    7247.9805    6408.6218    5260.4007    8138.3281   -258.13307    135.33999   -281.45896   -2753.5926 
12799000    261.42391   -3857.8438   -3409.7721   -3857.8438            0    6761.1366    17.138633    20.187045    20.909092    7234.0931     5818.524    7198.8283    7266.0576   -180.61531    858.66622   -480.83425   -2696.4598 
12800000    255.55611   -3864.0144        -3426   -3864.0144            0    6750.5974    17.074476    20.111478    20.830821    7153.1573    6273.3582    6886.4934    7091.9406    749.77355    73.096295   -795.10356   -2721.7678 
12801000    264.60846   -3852.4191   -3398.8892   -3852.4191            0    6205.3637    17.148473    20.198637    20.921098    7246.5616    7431.9747    7021.3741    4162.7422    415.18695   -688.00428   -136.42952   -2743.0836 
12802000    255.49789   -3883.9977    -3446.083   -3883.9977            0    8117.2514    17.017132    20.043934    20.760861    7081.3278    8007.0407    7365.4562    8979.2571   -497.22484   -117.93715   -1438.0589   -2607.7828 
12803000    256.31357   -3894.4279   -3455.1152   -3894.4279            0    7711.5114    17.035474    20.065538    20.783238    7104.2503    8875.0739    6701.5517    7557.9085    -70.43157    400.14934     22.95122   -2656.1394 
12804000    265.94039   -3859.2151   -3403.4023   -3859.2151            0    6355.4907    17.098593    20.139884    20.860243    7183.5097    6155.6317    6789.6395    6121.2008    146.26967    517.45164    474.35598   -2737.5749 
12805000    260.85236   -3872.2189   -3425.1269   -3872.2189            0    8408.9546    17.056141    20.089881    20.808452    7130.1378    9316.5543    8139.5877    7770.7218    620.32108    798.88979    109.93569   -2550.7155 
12806000    270.72877   -3872.8137   -3408.7939   -3872.8137            0    8317.8338    17.068214    20.104101    20.823181    7145.2889    6773.0044    9891.2052    8289.2917   -833.70808   -775.18545      859.695   -2542.0198 
12807000    268.62861   -3920.4643    -3460.044   -3920.4643            0    6656.0794    17.062398    20.097251    20.816086    7137.9878    8095.5517    6851.9874    5020.6993    976.42214   -624.81012   -486.80517   -2767.1446 
12808000    252.86999     -3878.84   -3445.4295     -3878.84            0    6641.5561    17.073706     20.11057    20.829881    7152.1887    5442.7506    5910.4118    8571.5057    327.26221    -1221.068   -385.91284   -2752.6665 
12809000    267.94318   -3901.2963   -3442.0509   -3901.2963            0    6066.0531    17.041901    20.073109     20.79108    7112.2944     5212.407    7752.8502    5232.9023   -1828.1373   -348.17646   -257.68739   -2812.8464 
12810000    238.33125   -3883.5583   -3475.0666   -3883.5583            0    6870.0352    17.060256    20.094729    20.813473    7135.3002    7472.7511    5328.5499    7808.8046   -1614.4256   -921.63009    878.95639   -2760.1637 
12811000    246.64653   -3860.1359   -3437.3922   -3860.1359            0    5940.5102    17.082752    20.121225    20.840917    7163.5627    4498.8075     6898.512     6424.211   -324.36431     547.3841   -369.16436    -2816.768 
12812000    267.87164   -3860.7855   -3401.6626   -3860.7855            0    6449.6995    17.072625    20.109297    20.828562    7150.8301    6594.4398    5505.7721    7248.8866    534.28153   -264.86147    661.53108   -2729.0394 
12813000    267.50297   -3867.2571   -3408.7661   -3867.2571            0    6503.5343    17.146727    20.196579    20.918967    7244.3476    6505.0525    5713.0063    7292.5441   -222.89884    -439.0902    185.45429   -2721.6588 
12814000    268.00267   -3897.5112   -3438.1638   -3897.5112            0    7760.7738    17.033441    20.063144    20.780758    7101.7072     6077.041    8135.9933     9069.287    116.59014   -369.97211     395.5259   -2634.3718 
12815000    248.24064   -3909.9665   -3484.4906   -3909.9665            0    6648.7773    17.103922    20.146161    20.866745    7190.2291    6603.8734    6770.6903    6571.7683    -266.9907   -891.76818   -1085.5136   -2787.2857 
12816000    273.63858   -3893.1573   -3424.1501   -3893.1573            0    4874.5929    17.109435    20.152655    20.873471    7197.1839    4038.6249    6396.9305    4188.2233     1142.964    -992.3417   -207.85343   -2912.4956 
12817000     250.3539   -3889.9763   -3460.8783   -3889.9763            0    6866.0104    17.103122    20.145219    20.865769    7189.2203    5683.5299    7400.7771     7513.724   -963.98579   -1642.8076    610.31921   -2740.9949 
12818000     263.4179   -3884.1741   -3432.6849   -3884.1741            0    8745.7467    17.048753    20.081179    20.799438    7120.8759    9888.8941    7937.0244    8411.3215    1693.4364    897.00362    -692.5037   -2524.4332 
12819000    254.00284   -3890.2627   -3454.9105   -3890.2627            0    8176.3456    17.039579    20.070374    20.788247    7109.3875    7511.4051    8587.0996    8430.5322   -709.39738   -806.48784   -121.40317   -2607.1614 
12820000    275.40426   -3909.7208   -3437.6873   -3909.7208            0    6731.3121    17.106693    20.149425    20.870126    7193.7243    7299.3714    7146.1131    5748.4518    1267.1416   -665.08391    906.68439   -2731.4846 
12821000    254.93068   -3880.6537   -3443.7112   -3880.6537            0    5412.5586    17.114598    20.158736     20.87977    7203.7014    6531.4004    4733.2788    4972.9965    1404.0552   -392.37327    1052.5173   -2875.0754 
12822000    273.08932   -3855.4011   -3387.3353   -3855.4011            0    7390.8867    17.140309     20.18902    20.911137    7236.2167    6815.5385    7016.6153    8340.5063    641.17406   -221.51639   -446.95855   -2607.3544 
12823000    242.81781   -3895.3216   -3479.1402   -3895.3216            0    8938.0125     17.04333    20.074792    20.792823    7114.0837    10236.746    6386.0702    10191.221    1478.1178    63.219416   -435.67785    -2551.807 
12824000    257.52811   -3899.3316   -3457.9372   -3899.3316            0    7552.9392    17.035086    20.065081    20.782765    7103.7649    8221.8348    6189.5292    8247.4535    473.86863   -460.91981    367.27794   -2675.4442 
12825000    267.12194   -3899.8555   -3442.0176   -3899.8555            0    7765.8476     17.05841    20.092553     20.81122    7132.9834    7898.4146    7799.9797    7599.1485    604.78817     -709.815    1433.4855   -2634.1579 
12826000    255.92487   -3877.1884    -3438.542   -3877.1884            0    8013.1168    17.030621    20.059822    20.777318     7098.181    7679.5137    8176.4346    8183.4019   -2575.2612   -1195.0473   -428.63288   -2609.0266 
12827000    255.91705   -3894.5108   -3455.8777   -3894.5108            0    7312.8831    17.076232    20.113546    20.832963    7155.3641    7199.2299     7988.455    6750.9645   -1795.2557   -947.99876   -75.062797   -2692.7517 
12828000    269.10811   -3838.6809   -3377.4388   -3838.6809            0    6567.7136    17.037928    20.068428    20.786232    7107.3204    6385.5203     6479.733    6837.8875   -819.98354   -756.03368   -1198.8206   -2696.6757 
12829000    263.36485   -3897.9787   -3446.5803   -3897.9787            0    6121.6593    17.040086     20.07097    20.788865    7110.0213    7167.2364    6284.0932    4913.6484    234.99621   -707.28782    8.6648944    -2811.811 
12830000    266.61995   -3839.4828   -3382.5054   -3839.4828            0    7087.9121     17.07771    20.115287    20.834766    7157.2221    6996.5424    7578.4157    6688.7781    883.79576   -516.50183   -526.68052   -2642.6638 
12831000    260.67553   -3874.2353   -3427.4463   -3874.2353            0     7699.724    17.093735    20.134162    20.854317    7177.3893    6775.2563    7181.8705    9142.0454   -177.05204     1392.316    697.17906   -2621.4788 
12832000    251.69885   -3882.8362    -3451.433   -3882.8362            0    7020.5776    17.111933    20.155597    20.876518    7200.3367    6445.4778    7291.3809    7324.8742   -969.58807    1635.0615   -416.13303   -2714.2055 
12833000    247.63465   -3848.8048   -3424.3675   -3848.8048            0    8242.6214    17.018558    20.045613    20.762601     7083.108    6816.0884    9428.4684    8483.3074   -107.80916   -1049.1283    805.82682   -2572.9058 
12834000    262.21985   -3824.0549    -3374.619   -3824.0549            0    6884.3699     17.08706    20.126299    20.846173    7168.9836    6432.4621    7697.1456     6523.502   -161.51626    1110.2505   -103.86762   -2654.8425 
12835000    268.32862   -3868.6238   -3408.7178   -3868.6238            0    9766.5595     17.04757    20.079786    20.797996    7119.3943    10402.331    8796.2384    10101.109    288.69517   -6.2353505    68.668374    -2394.665 
12836000    254.27043   -3865.5752   -3429.7644   -3865.5752            0    6597.9481    17.132491    20.179811    20.901599    7226.3184    6208.1011    5761.1014     7824.642   -516.77872     27.37102    1706.3473   -2734.4169 
12837000    249.79572   -3853.1554   -3425.0141   -3853.1554            0    6206.5677    17.134885    20.182631    20.904519    7229.3485    6924.0527    7001.9663     4693.684   -463.28653   -202.17128     898.1216   -2770.6393 
12838000    260.76865   -3836.4609   -3389.5124   -3836.4609            0    7493.7828    17.158138     20.21002    20.932888      7258.82    6737.5552    9315.0833      6428.71   -582.59908    2.7295159   -1230.2844   -2596.2022 
12839000    252.33586     -3891.13    -3458.635     -3891.13            0    7402.0648    17.108227    20.151231    20.871997    7195.6591    7048.6353    8321.7907    6835.7685     765.2359    608.71603   -454.11936   -2681.8526 
12840000    262.35757   -3882.8092   -3433.1373   -3882.8092            0    7562.7334    17.077446    20.114975    20.834444      7156.89    7333.6629    7921.2244    7433.3129   -1552.8451   -567.49963   -486.57807   -2643.7702 
12841000    256.89266    -3901.971   -3461.6658    -3901.971            0     6696.005    17.113385    20.157307    20.878289    7202.1692    4879.2057    7686.0026    7522.8069    -278.0336    352.67848    1324.4427   -2758.3425 
12842000    263.01354   -3852.7803   -3401.9841   -3852.7803            0    6206.7761    17.103667     20.14586    20.866433    7189.9069    4589.3244    6370.7034    7660.3007    82.844907   -477.04576    61.883706   -2751.1576 
12843000    246.10425   -3858.6627   -3436.8485   -3858.6627            0    6273.1726    17.067491     20.10325    20.822299    7144.3814    4718.2649    8548.1776    5553.0753   -974.11064   -359.41712   -364.44339   -2783.2248 
12844000    257.95915   -3877.7812    -3435.648   -3877.7812            0    6734.5596    17.049375    20.081912    20.800198    7121.6564    5997.0499    6386.4893    7820.1398   -284.48288    1024.8064    871.72048   -2736.1828 
12845000    268.99533   -3919.3986   -3458.3498   -3919.3986            0    7786.7522    17.024963    20.053158    20.770416    7091.1088    6596.0996     7443.082    9321.0751    1657.6878    506.52621    156.28057   -2653.0708 
12846000    256.38677   -3860.9911    -3421.553   -3860.9911            0    7339.7352    17.084481    20.123262    20.843027    7165.7391    9238.1603    6263.6488    6517.3965   -687.39972    904.04737   -217.47334   -2654.5143 
12847000    263.40609   -3884.6569   -3433.1879   -3884.6569            0    7530.8417    17.016455    20.043137    20.760036     7080.483    7644.7431    7761.1874    7186.5946    443.67905   -1229.8117   -1974.0601   -2655.5412 
12848000    254.59271   -3904.4386   -3468.0754   -3904.4386            0    7046.4647     17.00157    20.025604    20.741876    7061.9186    8194.5542    6759.0366    6185.8033    468.71619     587.9735    1412.1407   -2742.3541 
12849000    255.39551   -3881.6028   -3443.8636   -3881.6028            0    5446.5543    17.088194    20.127635    20.847557    7170.4116    5682.2301    5338.3276    5319.1051    206.30621   -898.89878    124.30039   -2874.3006 
12850000    251.17635   -3896.0476     -3465.54   -3896.0476            0    6262.6207    17.008059    20.033247    20.749792    7070.0067    6085.9129    6974.4154     5727.534   -123.18635   -190.51708   -221.44244   -2819.8087 
12851000    249.97063   -3911.9266   -3483.4855   -3911.9266            0    6187.1912    17.005649    20.030409    20.746853    7067.0027    6732.0062    4575.8247    7253.7428   -1269.7035     1639.027   -1307.8482   -2845.8028 
12852000    259.80506   -3880.7067   -3435.4097   -3880.7067            0    5579.3687    17.086288    20.125391    20.845232    7168.0131    6105.6286    5104.4043    5528.0733    206.50869   -1542.0192    128.76506    -2852.153 
12853000      258.641   -3874.6389    -3431.337   -3874.6389            0     7194.709    17.091534    20.131569    20.851632     7174.617    8128.6264    6707.0221    6748.4785     76.69881    262.38628   -378.27029   -2678.5228 
12854000    252.24363   -3881.5489   -3449.2119   -3881.5489            0    7870.1973    17.064992    20.100306     20.81925    7141.2434    7439.6956    6678.3553     9492.541    581.90321    1200.7373    -813.2763   -2629.5489 
12855000    275.83517   -3888.6312   -3415.8591   -3888.6312            0    8101.6841    17.049385    20.081924     20.80021    7121.6684    6603.7856    8662.3591    9038.9076   -262.57006    1290.2026   -486.56589   -2574.4002 
12856000    255.66496   -3895.3075   -3457.1065   -3895.3075            0    7463.0318    17.072879    20.109596    20.828872    7151.1495    6463.3874    8180.4657    7745.2424    -451.2314   -303.79294   -568.38806   -2678.7706 
12857000    260.57456   -3893.2762   -3446.6603   -3893.2762            0    7256.5904    17.050186    20.082866    20.801187    7122.6715    8339.1344     7030.699    6399.9378   -42.901206   -194.50946     668.4674   -2692.8685 
12858000     249.7181   -3848.5907   -3420.5824   -3848.5907            0    6941.3039    17.132284    20.179567    20.901346    7226.0569    6340.8753    8526.4098    5956.6268    538.99505    642.86711   -116.12011   -2689.0757 
12859000    249.23474    -3866.084   -3438.9042    -3866.084            0    5698.5178    17.093568    20.133965    20.854113    7177.1785    4167.1599    7565.2675    5363.1261    190.20002    1325.5806    581.79008   -2842.4302 
12860000    256.04817   -3874.5752   -3435.7174   -3874.5752            0    7164.0954    17.066733    20.102357    20.821374    7143.4292    6464.1277    8328.2254    6699.9331     65.65644    817.47023   -377.08787   -2689.3649 
12861000    269.36849   -3871.5826   -3409.8942   -3871.5826            0    6916.4374    17.079693    20.117622    20.837186    7159.7156    6339.8055    6271.4053    8138.1013    95.625602    277.17854   -824.99588   -2687.6998 
12862000     250.4459   -3854.8907    -3425.635   -3854.8907            0    7173.0398    17.063613    20.098682    20.817568    7139.5127     5975.587    6892.0305    8651.5019    744.90449   -2185.8328    1948.0426   -2678.7604 
12863000    256.72817   -3890.2935   -3450.2702   -3890.2935            0    5882.7089     17.09284    20.133107    20.853224    7176.2613    5799.0326    5692.5932    6156.5009    1225.7677   -382.03607   -48.681766   -2834.5953 
12864000    274.04468   -3859.1971   -3389.4939   -3859.1971            0     7579.743     17.03884    20.069503    20.787345    7108.4624    8952.6202    6641.2663    7145.3426    99.889687   -964.90985   -410.63701   -2603.7047 
12865000    273.94605   -3871.5628   -3402.0286   -3871.5628            0    7134.7901    17.051149    20.084001    20.802362    7123.8791    9319.0152    7468.5442    4616.8108   -963.82156   -683.13775    782.97739   -2660.7634 
12866000    239.30819   -3847.4599   -3437.2938   -3847.4599            0    6848.4638    17.029563    20.058576    20.776027     7096.858    5555.0048    7604.4757     7385.911   -1413.3231   -1781.8082   -994.28779   -2728.4751 
12867000    241.03326   -3878.0336   -3464.9109   -3878.0336            0    7208.7807    17.036804    20.067105    20.784861    7105.9144     7957.354    6985.6411    6683.3469   -489.55158   -910.29796    1127.3038   -2717.8471 
12868000    260.50783   -3888.7504   -3442.2489   -3888.7504            0    8597.3813    17.031543    20.060908    20.778442    7099.3331    6570.0897    9112.0947    10109.959   -303.76329    178.77265   -135.85524   -2552.1062 
12869000    253.11787   -3857.6593   -3423.8239   -3857.6593            0    5895.0814    17.143414    20.192677    20.914925    7240.1493    6626.9883    5056.7077    6001.5483     1443.769    971.81577   -320.95336   -2801.3614 
12870000    248.76507    -3872.599   -3446.2242    -3872.599            0    9019.1287    16.955558    19.971408    20.685742    7004.7378    8113.5194    10820.905    8122.9621    223.47875    -666.5175    1448.6139   -2524.8578 
12871000    253.49762    -3897.322   -3462.8358    -3897.322            0    7314.7222    17.051978    20.084977    20.803373    7124.9178    8010.4384    6430.7785    7502.9496    377.72147   -2022.5916   -573.53285   -2702.7658 
12872000    275.91387    -3884.425   -3411.5181    -3884.425            0    6402.8673    17.066673    20.102286    20.821301    7143.3543    5191.6912    7309.7398    6707.1709   -275.81996    140.86643    226.93649    -2744.477 
12873000    260.05992   -3898.7177   -3452.9839   -3898.7177            0    8053.6621     17.00339    20.027747    20.744096    7064.1859     9736.892    6544.5797    7879.5146   -330.76634   -227.32198    1121.4336   -2623.2642 
12874000    253.22962   -3844.1544   -3410.1275   -3844.1544            0    7160.9018    16.998763    20.022297    20.738451    7058.4208    8531.9558    6044.7711    6905.9786    487.30582   -713.00353   -874.46067   -2672.9855 
12875000    281.47197   -3898.0342   -3415.6008   -3898.0342            0     7092.676    17.052313    20.085373    20.803782    7125.3384    5698.0948    8856.9566    6722.9767   -252.72275    287.40054    1567.8015   -2678.5601 
12876000    269.97281   -3893.6784   -3430.9542   -3893.6784            0    7457.9645    16.996632    20.019787    20.735851    7055.7661    5816.1136    6951.4545    9606.3252   -65.739125   -317.12548   -1481.9561   -2663.5214 
12877000    262.56709   -3897.8145   -3447.7835   -3897.8145            0    5109.9065    17.099156    20.140547    20.860931    7184.2201    5523.6884    5815.4229    3990.6081   -21.046752    2440.1263   -395.22465   -2912.3957 
12878000     260.1577   -3892.6697   -3446.7683   -3892.6697            0    5959.4991    17.089345    20.128991    20.848961    7171.8605    7076.2692    3681.7047    7120.5234   -907.95352    892.64691    796.65208   -2823.4391 
12879000    255.93719   -3862.5086    -3423.841   -3862.5086            0    6311.8214    17.102362    20.144324    20.864842    7188.2618    8120.8258    5932.4626    4882.1758    188.99683    365.97636   -1552.2566   -2762.1511 
12880000    253.18261   -3913.0105   -3479.0642   -3913.0105            0    9114.2869    16.983602     20.00444    20.719955    7039.5516    9309.2166    9114.3253     8919.319   -193.54876   -731.62796   -698.21498   -2543.3492 
12881000    236.67955   -3881.2216   -3475.5609   -3881.2216            0    8516.8509    16.938629    19.951468    20.665088    6983.7773    11972.328    6683.8355    6894.3894   -125.68066   -581.30634    129.57453   -2608.1092 
12882000    256.23346   -3828.6959   -3389.5205   -3828.6959            0    5984.0769    17.065596    20.101017    20.819987    7142.0015    5433.0074    5664.6205    6854.6029   -2211.5227   -2565.1307   -41.497173   -2766.2265 
12883000    255.16853   -3890.0396   -3452.6895   -3890.0396            0    6773.1209    17.056646    20.090476    20.809069    7130.7715    6059.7243    7233.8877    7025.7508   -157.17645    818.58695    256.48472   -2748.3188 
12884000    256.80065   -3913.7986    -3473.651   -3913.7986            0    6165.9277    17.041718    20.072892    20.790856    7112.0644    6655.9001    6583.0887    5258.7942   -948.70532    301.11591   -374.01328   -2834.1077 
12885000    252.46142   -3899.3444   -3466.6341   -3899.3444            0    6801.1963    17.007609    20.032717    20.749244    7069.4466    7663.9627    5274.9611     7464.665    163.69867     33.90576    649.84251   -2765.4265 
12886000    249.15008   -3870.1143   -3443.0795   -3870.1143            0    5262.8053    17.132041    20.179281     20.90105    7225.7495    5087.2583     4407.705    6293.4528   -996.99556    92.118919     8.046242   -2888.4843 
12887000    247.90357    -3893.143   -3468.2448    -3893.143            0    6595.2232    17.086266    20.125364    20.845204    7167.9845    7880.3348    6170.9911    5734.3437    639.04513   -1606.6986    770.05378   -2778.7953 
12888000    260.86899   -3872.8792   -3425.7587   -3872.8792            0    7880.8876    17.033267    20.062938    20.780546    7101.4891    8738.9253    7084.2898    7819.4477   -263.68201   -685.50525   -373.27984   -2609.5514 
12889000    227.17257    -3860.752   -3471.3859    -3860.752            0     7496.604    17.076071    20.113356    20.832767    7155.1614    7052.5893    6863.7795    8573.4432   -919.53318   -514.67042    -30.89903   -2689.1102 
12890000    253.77078   -3861.7916   -3426.8372   -3861.7916            0    7957.9339    17.041025    20.072077    20.790011    7111.1974    9466.4794    6997.2194    7410.1027   -1278.8344   -841.79363   -49.288808   -2601.5237 
12891000     242.3789   -3871.3776   -3455.9484   -3871.3776            0    5714.5455    17.150611    20.201154    20.923705    7249.2717    7885.1484    4960.2198    4298.2683   -254.91114    2275.7366    173.75953   -2851.7885 
12892000    258.34641   -3889.5485   -3446.7516   -3889.5485            0    6493.0041    17.065969    20.101458    20.820443    7142.4707    5326.8308    6897.4521    7254.7293   -1211.8148    392.81695    902.94299   -2770.4038 
12893000    245.98337   -3862.8923   -3441.2852   -3862.8923            0    7336.4331    17.028523    20.057351    20.774758    7095.5578     9276.776    7730.4424    5002.0809    171.86175   -1391.1942   -335.68914   -2682.1006 
12894000     255.1435   -3871.0897   -3433.7825   -3871.0897            0    7286.1881    17.044895    20.076635    20.794733    7116.0438    6289.6918    9729.3806    5839.4918    1365.0208   -475.96539    1188.3286   -2677.6204 
12895000    265.45271   -3839.0975   -3384.1206   -3839.0975            0    6690.8811    17.038458    20.069053     20.78688    7107.9848     6948.105    6020.1516    7104.3868    760.44521   -321.34973   -81.355454    -2690.526 
12896000    264.26923   -3884.5819   -3431.6335   -3884.5819            0    6675.5679    17.112121    20.155818    20.876748    7200.5742    5734.1154    7745.7288    6546.8596   -207.59498    971.99147    308.45028   -2730.6122 
12897000    255.80433   -3928.4702   -3490.0303   -3928.4702            0    7647.5515    17.047189    20.079337    20.797531    7118.9173    5997.8694    8158.8415    8785.9437    -36.27929    334.48446    1116.6863   -2696.0454 
12898000    253.50013   -3925.4008   -3490.9103   -3925.4008            0    5946.5445    17.058847    20.093069    20.811754    7133.5324    6783.2608    7244.8738    3811.4989   -563.17149   -260.06643   -92.515509     -2872.26 
12899000    286.57843   -3910.0214   -3418.8357   -3910.0214            0    7666.0636    17.083851     20.12252    20.842258    7164.9455    7760.2332    7954.2452    7283.7125    865.43725    49.067512    -920.4106   -2617.7828 
12900000    253.57226   -3874.5107   -3439.8965   -3874.5107            0    6825.1582    17.072284    20.108896    20.828147    7150.4023    7493.8318    5275.4649    7706.1779   -1122.5489   -1334.4095   -921.66896   -2728.1602 
12901000    266.67301   -3868.8893   -3411.8208   -3868.8893            0    7290.7077    17.061844    20.096599     20.81541    7137.2928    7308.6676    7758.9252    6804.5303    682.88619   -1832.4835   -1222.5756   -2652.9304 
12902000    232.65287   -3873.8788   -3475.1198   -3873.8788            0    5985.5301     17.09299    20.133284    20.853407    7176.4502    5421.7066    6853.7386    5681.1452    949.81542   -236.33294   -509.93436   -2848.6672 
12903000    262.25572   -3870.9963    -3421.499   -3870.9963            0    8386.8326     17.01819     20.04518    20.762152     7082.649    6702.2207    9475.7849    8982.4921    622.03683    -530.7998    335.33525   -2555.1965 
12904000    252.50502   -3895.4985   -3462.7135   -3895.4985            0    7290.7113    17.011027    20.036743    20.753413    7073.7091    6083.3624     7917.896    7870.8756   -360.37527    528.11456    1120.7309   -2710.5834 
12905000    247.69659   -3879.4377   -3454.8942   -3879.4377            0    6572.1285     17.01913    20.046287    20.763299    7083.8221    7908.4803    7023.9476    4783.9577    579.87791   -431.11625    712.09425   -2775.9258 
12906000    245.03936   -3918.3326   -3498.3436   -3918.3326            0       8110.8    17.000046    20.023809    20.740016    7060.0191    7724.1562    9645.1639    6963.0801    13.803213    164.12729    46.518685   -2663.2302 
12907000    257.09004    -3880.316   -3439.6724    -3880.316            0    7258.1206     17.05225    20.085299    20.803706    7125.2596    7367.6039    8561.7419    5845.0161    189.47952   -25.428101   -83.372151   -2685.4477 
12908000    255.55155   -3885.5185   -3447.5119   -3885.5185            0    4716.9521    17.126066    20.172243     20.89376    7218.1915    4734.9409    3757.2624     5658.653   -181.43244   -779.49744    442.95553   -2950.9587 
12909000    246.13837   -3868.6921   -3446.8193   -3868.6921            0    7165.0616    17.093504     20.13389    20.854035    7177.0986    7290.6496    7624.6463    6579.8887   -327.75663    207.88808    1814.4385   -2696.8479 
12910000    271.35198   -3871.5634   -3406.4753   -3871.5634            0    8269.8103    17.028419    20.057229    20.774632    7095.4278    6878.4789    10138.482    7792.4706    256.03928   -203.60211   -1090.5683   -2550.7192 
12911000    258.34416   -3908.2551    -3465.462   -3908.2551            0    10097.825    17.017639    20.044531     20.76148    7081.9608    10857.109    10486.414    8949.9524   -1398.9458    -161.9941    1088.6133    -2422.527 
12912000    245.54933   -3865.8968   -3445.0337   -3865.8968            0    6026.1702    17.074634    20.111663    20.831013    7153.3551    6693.2263    7515.8479    3869.4365   -1815.2412   -126.55313   -2217.9601   -2816.3574 
12913000     260.2229   -3878.5634   -3432.5503   -3878.5634            0    6893.6128    17.112458    20.156215    20.877159    7200.9996    6104.1041    6909.8823     7666.852    200.48992   -2153.4166    34.795034   -2708.5886 
12914000    263.09311   -3891.4825   -3440.5499   -3891.4825            0    6096.6241    17.120067    20.165177    20.886442    7210.6093    5427.7331    7211.5141    5650.6251   -1281.7537     845.6455   -1222.8711   -2799.4329 
12915000    243.16389   -3847.7488   -3430.9743   -3847.7488            0    6358.8871    17.086942     20.12616    20.846029    7168.8354    6707.4115    6812.8185    5556.4313   -34.027941   -1037.0444    505.85599   -2766.1519 
12916000    260.00181   -3860.1604   -3414.5262   -3860.1604            0    7011.3256    17.073252    20.110036    20.829328     7151.619    5994.5152    7859.1628    7180.2987   -806.67381    -378.4338   -707.30301   -2683.2517 
12917000    254.52899   -3903.0061   -3466.7521   -3903.0061            0    7156.2591    17.049077     20.08156    20.799834    7121.2818    6516.6405    6842.3008    8109.8359   -307.29922    156.48371     890.6059   -2723.5275 
12918000    273.03046   -3878.9047   -3410.9398   -3878.9047            0    7766.8931    17.091381    20.131389    20.851445    7174.4241    9222.2537    6008.9696    8069.4561    321.65141    1244.7707   -35.404863   -2598.2772 
12919000    270.49138   -3874.1343   -3410.5213   -3874.1343            0    6980.2054    17.140906    20.189723    20.911865    7236.9723    6303.8486    4945.6381    9691.1297    1269.9932    270.74724    361.60214   -2673.8038 
12920000    253.72076   -3846.4965   -3411.6278   -3846.4965            0    5880.0181    17.074069    20.110998    20.830325    7152.6455    5021.7219    4776.8011    7841.5313   -754.00481   -20.600936   -1032.3477   -2798.2596 
12921000    260.96669    -3904.899    -3457.611    -3904.899            0    6075.7599    17.146788    20.196651    20.919041    7244.4248    4051.9153    6530.6481    7644.7163    471.06654   -625.74203    228.06529   -2815.6918 
12922000    250.84018    -3874.986   -3445.0545    -3874.986            0     5849.923    17.151594    20.202312    20.924904     7250.518    4902.6926    7013.1516    5633.9248    961.48708    475.69198    563.11481   -2826.4757 
12923000    255.81136   -3885.4044   -3446.9525   -3885.4044            0    6569.5819    17.074714    20.111758    20.831112    7153.4562    7740.3324    6803.8078    5164.6053    576.76585   -572.24796   -650.99314   -2761.5754 
12924000      254.327   -3895.7608   -3459.8531   -3895.7608            0    6068.4449    17.114308    20.158395    20.879416    7203.3357    5464.0658    6390.5153    6350.7537     263.0152   -1123.1577    1145.8055   -2822.3431 
12925000    253.07998   -3867.1533   -3433.3828   -3867.1533            0     7880.532    16.984903    20.005972    20.721542    7041.1696    6518.0688    10028.641    7094.8859    171.87952   -1587.8369    -761.0058   -2624.1449 
12926000    260.72699   -3892.8827   -3446.0056   -3892.8827            0    6877.4693    17.038326    20.068898    20.786718    7107.8192    7068.1577     7670.145    5894.1054   -830.93449    551.35556    1401.6773   -2733.0854 
12927000    265.41753   -3845.3734   -3390.4569   -3845.3734            0    6939.3827    17.039459    20.070232      20.7881    7109.2367    7134.4303    8947.4909    4736.2269    13.995922    288.17685    1124.4239   -2670.9753 
12928000    262.37447   -3845.4753   -3395.7745   -3845.4753            0    6906.6973    17.015697    20.042244    20.759111    7079.5368    5848.9765    7544.4135    7326.7019     161.6606    216.20823   -1095.5448   -2682.6733 
12929000    258.99961   -3868.4555    -3424.539   -3868.4555            0    6469.3568    17.035887    20.066024    20.783742    7104.7668    9423.4465    6246.6178    3738.0059     853.5403    1693.6813    731.44954   -2754.2118 
12930000    253.64997    -3881.626   -3446.8787    -3881.626            0    5216.4294    17.140769    20.189561    20.911698    7236.7983    6446.2899     4141.152    5061.8464    683.64908   -547.09222   -1428.8377     -2896.33 
12931000    262.29559   -3857.1074   -3407.5417   -3857.1074            0    9019.7462    17.000873    20.024783    20.741026    7061.0497    11301.986    9064.0057     6693.247    -499.1693   -484.32064   -489.03382   -2478.7048 
12932000    278.63395   -3864.6672   -3387.0981   -3864.6672            0    6275.3287    17.051094    20.083937    20.802295    7123.8105    6007.1103    5791.7303    7027.1454    158.07209   -718.78384    56.603708   -2735.1324 
12933000    248.92347   -3878.1026   -3451.4563   -3878.1026            0    8007.8637    17.060997    20.095601    20.814377    7136.2301    8347.4618     5669.265    10006.865   -265.35372   -1350.0362   -155.30291   -2618.0411 
12934000    254.92869    -3904.547   -3467.6079    -3904.547            0     5596.825    17.072163    20.108753    20.827999    7150.2499    5927.6347    6220.2667    4642.5736    210.34102   -1876.8706   -108.89139   -2883.9763 
12935000    256.83765    -3857.295   -3417.0841    -3857.295            0    6896.0684     17.14456    20.194028    20.916324     7241.602    8052.6022    6212.2821    6423.3209   -774.02897   -865.88961   -1226.4193   -2688.7811 
12936000    275.33807   -3883.2818   -3411.3618   -3883.2818            0    7801.3438    17.082746    20.121219     20.84091    7163.5559    8516.4513     5801.026    9086.5543    916.06568   -1602.9412    186.39052   -2596.3311 
12937000    254.51282   -3878.9661   -3442.7398   -3878.9661            0    6806.8382    17.032263    20.061755     20.77932    7100.2333    7408.5251    6663.8263    6348.1632    767.88216    106.55471   -581.99083   -2737.8943 
12938000    263.51361   -3872.7673    -3421.114   -3872.7673            0    8368.1811    17.055526    20.089157    20.807702    7129.3668     8387.888     7213.315    9503.3402    353.77884   -385.81995    292.51897   -2551.0365 
12939000    247.82027    -3910.163   -3485.4075    -3910.163            0    7102.3493    17.043957    20.075531    20.793588    7114.8691    7381.4816    8696.0505    5229.5158    708.05324   -766.24559     445.1609    -2748.446 
12940000    277.46567   -3882.1946    -3406.628   -3882.1946            0    8329.3113    17.058558    20.092728    20.811401    7133.1697    10325.513     6762.107     7900.314   -954.29334   -793.70288   -1921.9715     -2540.13 
12941000    260.23654   -3900.4254   -3454.3889   -3900.4254            0    10301.622    16.962601    19.979704    20.694334      7013.47    9480.0767    11135.951    10288.837    777.49744     831.2541    602.21875   -2400.6951 
12942000    253.76586   -3890.4586   -3455.5126   -3890.4586            0    7430.2193    17.018639    20.045709      20.7627     7083.209    7234.3284    7732.8802    7323.4495   -1115.8483    1108.2096   -1106.2442    -2687.961 
12943000    258.84697   -3876.2836   -3432.6287   -3876.2836            0    7639.7933    17.006069    20.030903    20.747364    7067.5254    6453.6618    9000.4619    7465.2561    -82.51066   -104.90115   -456.29176   -2645.1753 
12944000    273.78441   -3897.0761    -3427.819   -3897.0761            0    8991.0373    17.040184    20.071086    20.788984    7110.1441     10057.15    9689.4347    7226.5276    452.47184     708.8798    172.97069    -2495.501 
12945000     263.6516   -3897.0582   -3445.1684   -3897.0582            0    7388.1025    17.107387    20.150242    20.870972    7194.5995    8378.1187    7559.3341    6226.8545   -88.951955    1663.7594   -584.71834   -2669.9654 
12946000    252.65164    -3884.856   -3451.8197    -3884.856            0    5478.2291    17.211703    20.273113    20.998238    7327.0159     4708.424    5811.4002    5914.8631    675.83001   -368.26004   -331.43506   -2866.4325 
12947000    250.50795   -3861.9746   -3432.6125   -3861.9746            0    7706.8391    17.072922    20.109647    20.828925    7151.2037     8077.151    7451.1219    7592.2443    129.83889       336.47     695.2599   -2628.8434 
12948000    256.31331   -3857.5214   -3418.2091   -3857.5214            0    5907.1944    17.095171    20.135853    20.856068    7179.1976    7406.0178    6419.4596    3896.1059    151.30071     490.6717   -620.85984   -2799.7186 
12949000    264.32019   -3843.5291   -3390.4933   -3843.5291            0    7824.5187    17.063219    20.098219    20.817088    7139.0186    8574.8123    6016.1445    8882.5994     443.3104    1011.4479    824.28638   -2575.8415 
12950000    258.79207   -3879.0288   -3435.4681   -3879.0288            0    7517.0988    17.140015    20.188674    20.910779     7235.844    6839.5097    6651.6276    9060.1593   -316.68663    1193.3954   -400.44134   -2642.2085 
12951000    250.50681   -3865.3384   -3435.9783   -3865.3384            0      7823.15    17.093787    20.134223     20.85438    7177.4545    8200.2062    7790.9648     7478.279    153.78383   -957.28915    163.25754   -2617.0837 
12952000     271.6114   -3893.0835   -3427.5508   -3893.0835            0    7566.3787    17.109401    20.152614    20.873429    7197.1409    7257.9321    9220.2591    6220.9449   -799.99309   -141.24122   -1278.5371   -2633.3616 
12953000     261.5289   -3909.4813   -3461.2298   -3909.4813            0    7333.1763    17.047511    20.079716    20.797923      7119.32    8578.5582    6550.0105    6870.9602   -78.904973     119.7295   -338.39044   -2699.8409 
12954000    254.55942   -3884.7126   -3448.4065   -3884.7126            0    5857.5284    17.067758    20.103564    20.822624    7144.7163    4851.9877    6248.2767    6472.3208    1066.6821   -298.79941   -403.98877   -2838.0616 
12955000    264.77082   -3924.2901    -3470.482   -3924.2901            0    7254.0969    17.010626     20.03627    20.752923    7073.2082    7481.4629    8120.6002    6160.2276    1753.0026   -511.58194   -653.28533   -2722.1821 
12956000     254.3978   -3897.0153   -3460.9862   -3897.0153            0    4521.9026    17.075534    20.112724    20.832112    7154.4872    4800.4472     3082.762    5682.4985     144.9532   -820.72827    -1071.951    -2989.167 
12957000    246.90265   -3869.9523   -3446.7697   -3869.9523            0    5623.9939    17.096965    20.137967    20.858258    7181.4591     5236.206    5340.6451    6295.1307    -89.10332    338.03298   -2079.4067   -2857.7451 
12958000    254.86468   -3902.6323    -3465.803   -3902.6323            0    7595.8672    17.105008     20.14744     20.86807    7191.5985    7784.4605    7029.0036    7974.1375    2515.0761    374.92687   -176.08135   -2669.1326 
12959000     252.8898   -3917.0781   -3483.6337   -3917.0781            0    7802.0284    17.082147    20.120513     20.84018    7162.8026     7584.914    6344.7609    9476.4104    -463.2253   -678.81261   -963.75367   -2668.6172 
12960000    264.78902    -3881.205   -3427.3656    -3881.205            0    5944.4183    17.090184     20.12998    20.849985    7172.9174    6708.5926    5289.1029    5835.5595    815.10051    904.50053    875.20421   -2805.5222 
12961000     264.8794   -3907.8533   -3453.8591   -3907.8533            0    5885.8902    17.152026    20.202822    20.925432    7251.0667    5814.6043    6389.4506    5453.6156    -658.1532   -314.48081   -82.244236   -2831.4299 
12962000     258.4559   -3889.7957   -3446.8112   -3889.7957            0    6268.5992    17.090799    20.130703    20.850734    7173.6909     4538.593    7693.7064    6573.4982   -761.49909   -684.28121    768.72831   -2790.9845 
12963000    274.26187   -3895.3708   -3425.2954   -3895.3708            0    7285.3435     17.03843     20.06902    20.786845    7107.9491    7353.1458    6100.1958    8402.6888    846.13383    225.33508   -23.588111    -2670.081 
12964000    260.10458    -3915.769   -3469.9587    -3915.769            0    6345.4185    17.040086     20.07097    20.788865    7110.0213    4736.4313    7981.3963    6318.4281   -1042.6389    364.89454    645.50694   -2811.9872 
12965000    246.09544   -3917.2745   -3495.4754   -3917.2745            0    9060.0987    16.965848    19.983528    20.698295     7017.498    9222.0771    8890.4227    9067.7962    391.51814   -943.80488   -1561.5372   -2568.2376 
12966000    253.98147   -3878.0663   -3442.7507   -3878.0663            0    7703.5342    17.049415    20.081959    20.800246    7121.7059    7788.7271    8193.4213    7128.4542     1159.908    -654.4889   -1096.6801   -2642.6403 
12967000    259.22912   -3889.0669   -3444.7571   -3889.0669            0     7445.374    16.998906    20.022466    20.738625    7058.5988    9897.2965    6290.8718    6147.9536   -324.14251    536.72776    425.09371   -2678.3122 
12968000    267.77599   -3891.0904   -3432.1315   -3891.0904            0    5475.9371    17.053445    20.086705    20.805162    7126.7566    5621.7097    4635.1949    6170.9068    694.23149    757.53312   -1089.2418   -2862.9822 
12969000    264.39731   -3870.8969   -3417.7289   -3870.8969            0     7221.083    17.016412    20.043085    20.759982    7080.4283    7414.1907    6281.9771    7967.0813    1831.1571    63.533551   -757.50188   -2672.0742 
12970000    251.98108    -3891.447     -3459.56    -3891.447            0    7247.0075    17.009317    20.034728    20.751327    7071.5758    7281.9185    8002.7319    6456.3722    232.17564    903.54296    -186.4989    -2712.164 
12971000    258.45469   -3873.1615    -3430.179   -3873.1615            0    7158.4059     17.03481    20.064757    20.782429    7103.4202    8722.6074    7311.3269    5441.2832   -40.659067   -331.00361    1800.1506   -2688.5961 
12972000    256.23197    -3907.929   -3468.7562    -3907.929            0    6720.7831    17.071013    20.107398    20.826596     7148.805    5666.6515    6753.6002    7742.0977   -332.70064    1411.1921   -1021.9638   -2768.0609 
12973000    248.62004   -3902.8919   -3476.7657   -3902.8919            0    7156.4618    17.055851    20.089539    20.808098    7129.7736    7733.4338    6067.4143    7668.5375    444.28805   -1322.8597   -630.57506   -2732.6337 
12974000      250.286   -3877.1243   -3448.1427   -3877.1243            0    7326.0806    17.128252    20.174818    20.896427     7220.956    6178.2504    6578.6673    9221.3242   -779.44967   -356.92287    798.99412   -2676.6314 
12975000    251.92832   -3889.0393   -3457.2428   -3889.0393            0     7166.837    17.088065    20.127484      20.8474    7170.2496    8364.3836    7041.0747    6095.0526    -1351.907    777.38337   -415.77538   -2707.8014 
12976000    258.56198   -3889.5264     -3446.36   -3889.5264            0    7342.8167    17.075552    20.112745    20.832134    7154.5093    9278.5304    7419.2666    5330.6532   -1360.3671    9.9165968    492.32894   -2680.2019 
12977000     258.3221   -3816.4155   -3373.6603   -3816.4155            0    7509.8889    17.125005    20.170994    20.892466    7216.8506    7519.4039    7648.4732    7361.7895   -1304.7671   -1787.4905   -638.42051   -2583.2417 
12978000    256.60844    -3846.827   -3407.0089    -3846.827            0    7227.3012    17.092872    20.133146    20.853264    7176.3024    7887.2779    7346.8609    6447.7647   -536.93472    305.92383    1378.5957   -2650.6067 
12979000    268.88334   -3872.4405   -3411.5837   -3872.4405            0    6275.7316    17.119223    20.164183    20.885412    7209.5426    5399.3752    6147.9383    7279.8813    627.00844    912.09948    1133.2627   -2751.7295 
12980000    266.10051   -3860.0537   -3403.9666   -3860.0537            0    8127.0285    17.099316    20.140736    20.861126    7184.4221    7560.9137    9256.3985    7563.7733   -320.83283   -484.76004    916.02372   -2552.4374 
12981000    264.40821   -3864.8047   -3411.6181   -3864.8047            0    8904.7915    17.066003    20.101497    20.820483    7142.5126    7024.6645    11300.491    8389.2191    195.01387   -326.63893    -670.5968   -2484.0396 
12982000      254.412   -3844.7362   -3408.6827   -3844.7362            0    3973.7203    17.176615    20.231784    20.955431    7282.2965    2301.5748    5683.9039    3935.6822    1050.4014    924.70529   -2109.8087   -2986.6545 
12983000    253.94108   -3878.1188   -3442.8725   -3878.1188            0    9473.0147    17.056876    20.090747    20.809349    7131.0596    9365.1672    10793.318    8260.5587   -841.67465    573.27499    111.19993   -2457.6866 
12984000    264.50048   -3873.5825   -3420.2377   -3873.5825            0    6153.5884    17.097057    20.138075     20.85837    7181.5746    7178.1331    3692.0257    7590.6064    -1502.112    519.90472   -136.72323   -2775.7361 
12985000    258.04453   -3871.9212   -3429.6417   -3871.9212            0    8080.4222     17.02545    20.053731    20.771009    7091.7162    9107.9665    7719.3373    7413.9629    1384.8892   -863.89206    429.79671   -2593.9208 
12986000    257.26714   -3877.2331    -3436.286   -3877.2331            0    6142.3925    17.073748     20.11062    20.829933    7152.2422    7871.2794    5888.0762     4667.822   -40.801943    1186.4652   -660.06045   -2795.5846 
12987000    264.88369   -3893.4793   -3439.4778   -3893.4793            0    6262.6773    17.091942     20.13205    20.852129    7175.1305    5745.4582    7058.3666    5984.2072    1863.9702     927.0873    332.91396   -2784.1392 
12988000    252.52968   -3859.0963   -3426.2691   -3859.0963            0    8404.0155    17.091072    20.131025    20.851068     7174.035    9178.8497    7308.8796    8724.3173    1968.5334   -25.758948    234.65282    -2546.991 
12989000    271.03224   -3902.3991   -3437.8591   -3902.3991            0    5551.4384    17.133309    20.180775    20.902597    7227.3546    5180.8885    5590.0357    5883.3911   -78.387279   -435.75467   -997.94399   -2852.7178 
12990000    247.08138   -3850.9458   -3427.4567   -3850.9458            0    6051.0749    17.154036    20.205188    20.927884    7253.6155    7093.4045     5312.187    5747.6332   -476.62457   -118.93437   -175.15507   -2787.3344 
12991000    262.16283   -3891.0999   -3441.7617   -3891.0999            0    8064.0949    17.082589    20.121033    20.840718    7163.3579    8462.6222    6972.3836     8757.279   -322.46436     205.7883   -474.40476   -2599.3039 
12992000    242.04379    -3841.325   -3426.4702    -3841.325            0    5400.2562    17.161599    20.214097    20.937111    7263.2146      5978.89     5381.309    4840.5697    1464.1775    1078.2323   -1121.9883   -2854.4398 
12993000    260.51694   -3860.8232   -3414.3061   -3860.8232            0    7932.1368    17.135754    20.183655     20.90558    7230.4492    8051.8029    7105.6523    8638.9551    875.51134    204.54978    1542.0283   -2577.8727 
12994000    258.84048     -3870.06   -3426.4163     -3870.06            0     7040.301     17.13942    20.187973    20.910052    7235.0902    8394.4073    6507.3562    6219.1394    1532.5181   -381.49208    1346.9386   -2683.5493 
12995000    265.51933   -3860.2023   -3405.1113   -3860.2023            0    8406.5971    17.126381    20.172615    20.894145    7218.5904    7743.2501    10215.289    7261.2519    515.95225    155.55914    1530.2498   -2520.1006 
12996000    255.88636   -3871.3891   -3432.8086   -3871.3891            0    6832.4989    17.112932    20.156774    20.877737     7201.598     6830.389    7621.6773    6045.4304    1001.9548   -133.86028    153.85763   -2715.2055 
12997000    246.55138   -3848.7572   -3426.1765   -3848.7572            0    6830.4327    17.105486    20.148004    20.868654     7192.202    7159.9838    7504.5405    5826.7738    770.12987   -1708.9845    1372.9147   -2709.7264 
12998000    262.64746   -3849.7492   -3399.5804   -3849.7492            0    4990.2914    17.105053    20.147494    20.868125    7191.6558    5050.3781    3691.8004    6228.6957   -878.03449   -363.64023    631.50794   -2876.1841 
12999000    257.52017   -3887.3768    -3445.996   -3887.3768            0     7944.681    17.087476     20.12679    20.846681    7169.5079    6916.7406    8434.3865     8482.916    1462.6924    1579.6128    901.03149   -2615.3008 
13000000    260.80001   -3838.9946   -3391.9923   -3838.9946            0    6924.8649    17.071429    20.107889    20.827104    7149.3284    7494.3108    6411.8296    6868.4543    1249.0554    1385.0287   -445.18928   -2669.9669 
Loop time of 522.542 on 64 procs for 250000 steps with 864 atoms

Performance: 82.673 ns/day, 0.290 hours/ns, 478.430 timesteps/s
99.0% CPU use with 64 MPI tasks x 1 OpenMP threads

MPI task timing breakdown:
Section |  min time  |  avg time  |  max time  |%varavg| %total
---------------------------------------------------------------
Pair    | 20.617     | 26.797     | 31.34      |  49.5 |  5.13
Bond    | 0.27343    | 0.28668    | 0.30775    |   1.3 |  0.05
Kspace  | 218.62     | 233.57     | 251.64     |  52.2 | 44.70
Neigh   | 5.7508     | 7.0964     | 9.4266     |  36.4 |  1.36
Comm    | 102.39     | 121.8      | 136.86     |  75.1 | 23.31
Output  | 1.2344     | 1.2355     | 1.2434     |   0.1 |  0.24
Modify  | 124.12     | 126.36     | 128.1      |   9.8 | 24.18
Other   |            | 5.39       |            |       |  1.03

Nlocal:        13.5000 ave          17 max           9 min
Histogram: 2 3 7 6 0 12 13 10 8 3
Nghost:        2219.67 ave        2252 max        2180 min
Histogram: 2 4 3 6 10 9 11 11 6 2
Neighs:        4313.66 ave        5731 max        2675 min
Histogram: 3 3 5 9 13 4 6 11 6 4

Total # of neighbors = 276074
Ave neighs/atom = 319.53009
Ave special neighs/atom = 2.0000000
Neighbor list builds = 13766
Dangerous builds = 0

unfix		3
unfix		2
unfix		1

write_data	data.final.${pid}
write_data	data.final.0
System init for write_data ...
PPPM initialization ...
  extracting TIP4P info from pair style
  using 12-bit tables for long-range coulomb (../kspace.cpp:340)
  G vector (1/distance) = 0.37379381
  grid = 24 24 24
  stencil order = 5
  estimated absolute RMS force accuracy = 0.0032147894
  estimated relative force accuracy = 9.6812427e-06
  using double precision FFTW3
  3d grid and FFT values/proc = 2535 216
Last active /omp style is kspace_style pppm/tip4p/omp
WARNING: Not all mixed pair coeffs generated from mixing. Use write_data with 'pair ij' option to store all pair coeffs. (../write_data.cpp:312)

write_restart   restart.lmp.${pid}
write_restart   restart.lmp.0
System init for write_restart ...
PPPM initialization ...
  extracting TIP4P info from pair style
  using 12-bit tables for long-range coulomb (../kspace.cpp:340)
  G vector (1/distance) = 0.37379381
  grid = 24 24 24
  stencil order = 5
  estimated absolute RMS force accuracy = 0.0032147894
  estimated relative force accuracy = 9.6812427e-06
  using double precision FFTW3
  3d grid and FFT values/proc = 2535 216
Last active /omp style is kspace_style pppm/tip4p/omp
Total wall time: 0:08:45
