LAMMPS data file via write_data, version 30 Jul 2021, timestep = 39750000

864 atoms
2 atom types
576 bonds
1 bond types
288 angles
1 angle types

0.1939307046712937 18.013641695312764 xlo xhi
0.08816994690160662 23.541007853112696 ylo yhi
0.17267994868986136 22.040515851300157 zlo zhi

Masses

1 1.00794
2 15.9994

Atoms # full

707 1 1 0.5897 3.407627842982619 1.7294136741208963 3.790882736815064 0 0 0
706 1 2 -1.1794 3.4299245462076344 1.776640369088237 2.835115816006567 0 0 0
30 1 1 0.5897 5.410638929084665 3.9818125830110573 2.2389556527635532 0 0 0
708 1 1 0.5897 2.651761799734099 2.282690096519886 2.601623500245 0 0 0
29 1 1 0.5897 4.807583721905099 2.5937666323139315 2.2004554509435423 0 0 0
28 1 2 -1.1794 5.562984432273894 3.0994170038047457 1.900737470491686 0 0 0
3 1 1 0.5897 1.054943585915129 3.9419642523612404 2.399445436405927 0 0 0
597 1 1 0.5897 0.9005291820617972 5.702382132253891 3.8837170166423305 0 0 0
495 1 1 0.5897 8.43068834310225 2.18677253777441 3.0252126325169644 0 0 0
494 1 1 0.5897 6.932169003489421 2.2064135584748574 2.811637098918598 0 0 0
493 1 2 -1.1794 7.615642151398118 1.7987856265871929 3.3434838133668943 0 0 0
1 1 2 -1.1794 1.1587784161105412 3.027748166057121 2.135530160808277 0 0 0
846 1 1 0.5897 7.523469421305766 2.0030051065589465 5.080441612025533 0 0 0
595 1 2 -1.1794 0.9442513903218576 5.742975651740438 2.9283829541271422 0 0 0
136 1 2 -1.1794 5.293459992568546 5.58562203451518 2.9343259671638156 0 0 0
137 1 1 0.5897 5.277767866771848 5.665595503348147 3.8880424752422047 0 0 0
20 1 1 0.5897 0.7147955303850396 2.942190356699439 0.4210930561474014 0 0 0
819 1 1 0.5897 7.603812350875561 0.12594487345801425 2.5968756869918024 0 0 0
2 1 1 0.5897 0.36644498659963887 2.594781663429159 2.4531538117832765 0 0 0
668 1 1 0.5897 5.286304274764181 3.2186948117778518 0.18567325494517206 0 0 0
83 1 1 0.5897 4.5794764204270955 2.8139767375720814 6.431708682630239 0 0 0
183 1 1 0.5897 0.8209397476832602 4.700230673161577 5.93359065855257 0 0 0
82 1 2 -1.1794 5.269819278285425 3.342712116375246 6.831753289617952 0 0 0
785 1 1 0.5897 0.9276683474899801 2.9770886328316473 7.47271102425289 0 0 0
674 1 1 0.5897 3.772104293229534 2.4443499317514137 10.164154498909312 0 0 0
356 1 1 0.5897 7.470585675509781 1.1577133650894396 10.124556987792417 0 0 0
487 1 2 -1.1794 3.365829320083988 1.8056920279511264 5.748950192006342 0 0 0
845 1 1 0.5897 7.497705224506328 1.1128409500719354 6.30470108971362 0 0 0
419 1 1 0.5897 9.084246847378932 2.7559289388927826 6.553984266756176 0 0 0
673 1 2 -1.1794 3.034895120943235 1.9314009211813434 10.49514791257815 0 0 0
34 1 2 -1.1794 0.7433408222917552 3.0369581652610207 9.35790169574647 0 0 0
274 1 2 -1.1794 5.1923397893095515 3.3540704571034596 9.584051113251196 0 0 0
678 1 1 0.5897 5.254520583556369 5.017227929373573 10.205134046294136 0 0 0
35 1 1 0.5897 0.7702479671838797 3.957412657970426 9.61918858275175 0 0 0
36 1 1 0.5897 1.5363848200764967 2.656936558189189 9.73579120657098 0 0 0
355 1 2 -1.1794 7.490896748039221 2.07536293792319 10.396100328837022 0 0 0
676 1 2 -1.1794 5.248445202732466 5.883194145877031 10.612927340609282 0 0 0
84 1 1 0.5897 6.081910620052845 2.892573679229759 6.599337721580165 0 0 0
276 1 1 0.5897 6.014506537536327 2.9274300544124507 9.825195954698291 0 0 0
675 1 1 0.5897 3.1607705745132497 1.0601212802424616 10.119313440040639 0 0 0
275 1 1 0.5897 5.205979713312392 3.377974700233547 8.627251908806821 0 0 0
686 1 1 0.5897 5.268960222456612 4.953308120781699 6.173457704628845 0 0 0
784 1 2 -1.1794 1.010706734513359 2.934845273997105 6.52006388392688 0 0 0
489 1 1 0.5897 3.3404327753729173 0.8963154712828227 6.046635235687431 0 0 0
488 1 1 0.5897 2.5254587735313097 2.171894929740117 6.024263017861319 0 0 0
844 1 2 -1.1794 7.521193917714173 2.0316008007973414 6.0372050068143395 0 0 0
181 1 2 -1.1794 0.8523607217112578 5.61859871011725 5.665560001382477 0 0 0
112 1 2 -1.1794 0.8466240938599867 5.704696982309158 10.101768490536168 0 0 0
176 1 1 0.5897 9.054596211926006 2.851573940881074 9.73257530016835 0 0 0
685 1 2 -1.1794 5.2705340264784 5.803891949044191 5.73444568286401 0 0 0
786 1 1 0.5897 0.195150418362374 2.5293631813868607 6.22581566831123 0 0 0
113 1 1 0.5897 0.7837361438215834 5.771657452459505 11.05454639767263 0 0 0
166 1 2 -1.1794 3.0401947783565206 1.7405725599984687 13.233842740231974 0 0 0
167 1 1 0.5897 3.07825183967133 1.796138688157255 12.279019946034436 0 0 0
457 1 2 -1.1794 5.060989661053081 3.298578839918044 14.244880023815904 0 0 0
458 1 1 0.5897 5.884862869799913 2.905588117658414 13.956894185029947 0 0 0
459 1 1 0.5897 4.386562693826275 2.689995687349763 13.943311421908449 0 0 0
762 1 1 0.5897 5.013784274248597 4.979420919817428 13.629728745833154 0 0 0
594 1 1 0.5897 8.160779659208266 2.5142139490733784 13.324485941512837 0 0 0
168 1 1 0.5897 2.2330336289896655 2.1981554008547675 13.468879178599597 0 0 0
468 1 1 0.5897 0.5377440154385091 3.1577104958114517 14.81710224824686 0 0 0
466 1 2 -1.1794 0.7144744643252253 3.1313783362401035 13.876737059825018 0 0 0
593 1 1 0.5897 7.3671184515401285 1.2265073729445126 13.385431241660106 0 0 0
592 1 2 -1.1794 7.295563105996282 2.1489081385655444 13.139894400470945 0 0 0
365 1 1 0.5897 0.6946365872878831 4.812313561758399 13.167875875221378 0 0 0
71 1 1 0.5897 5.034760009963638 3.2114800755240447 16.02514631310227 0 0 0
760 1 2 -1.1794 5.060122704136182 5.889353020122217 13.33627871554574 0 0 0
364 1 2 -1.1794 0.6104944439508853 5.722868164601853 12.884971357611807 0 0 0
357 1 1 0.5897 7.376437943412684 2.0471368519626862 11.346004875221462 0 0 0
761 1 1 0.5897 5.092310570273988 5.8321935813870445 12.381336480452447 0 0 0
754 1 2 -1.1794 7.499579300141503 1.9233133685135 17.75131260027334 0 0 0
21 1 1 0.5897 0.7387207828022408 3.935278842965871 21.146531868269673 0 0 0
646 1 2 -1.1794 0.8447612499705309 5.675941416124253 20.51677930064643 0 0 0
755 1 1 0.5897 7.552596915517803 2.010498960178223 18.70305189419582 0 0 0
290 1 1 0.5897 2.7719744045540056 1.0020972476173262 17.318715443328056 0 0 0
42 1 1 0.5897 7.529805044146705 1.0954713524452206 20.818613880321774 0 0 0
289 1 2 -1.1794 2.805619613074532 1.8708892370267052 17.719085507417173 0 0 0
41 1 1 0.5897 6.737885853724863 2.381854527977298 20.719118009043925 0 0 0
143 1 1 0.5897 5.301549214511258 4.957498264719994 20.63593514670194 0 0 0
569 1 1 0.5897 2.094643863307342 2.1074984348203993 20.719371372413654 0 0 0
291 1 1 0.5897 2.018082427943506 2.312308103034847 17.40116176714827 0 0 0
570 1 1 0.5897 2.9162148945572914 1.7800427724620882 19.490720841858252 0 0 0
40 1 2 -1.1794 7.578812015153525 1.99051709964754 20.48284409716288 0 0 0
571 1 2 -1.1794 0.7568020089173157 5.727782392012141 17.784876950807817 0 0 0
667 1 2 -1.1794 5.163096612324598 3.300188213835486 21.10778432571718 0 0 0
134 1 1 0.5897 0.7532903845564348 4.060659460259604 17.10338509942011 0 0 0
568 1 2 -1.1794 2.940536572940842 1.7518159737010974 20.447190479269228 0 0 0
756 1 1 0.5897 6.674144032070244 2.3474866993258785 17.517081414489017 0 0 0
669 1 1 0.5897 4.3644955630861535 2.804789686733473 20.926255568561153 0 0 0
278 1 1 0.5897 5.218901133237516 4.92871161112704 17.336357006831758 0 0 0
19 1 2 -1.1794 0.6453284741423362 3.00170518972996 21.336117932939086 0 0 0
323 1 1 0.5897 7.401308236160069 0.21855512733827256 17.02458432374686 0 1 0
72 1 1 0.5897 4.372550223731497 2.660577264623941 17.270050781187763 0 0 0
70 1 2 -1.1794 5.125624650807987 3.17370600712354 16.977266616955156 0 0 0
144 1 1 0.5897 5.414450451099388 5.837719591314121 19.40942365313887 0 0 0
648 1 1 0.5897 0.8402654397499946 5.730704827998028 19.56115943240015 0 0 0
277 1 2 -1.1794 5.3029405311988755 5.854530476032127 17.56444295173441 0 0 0
142 1 2 -1.1794 5.450198442396117 5.863613988433102 20.365597651781673 0 0 0
81 1 1 0.5897 3.0800565663949175 0.09661182444778027 21.13430948045787 0 1 0
360 1 1 0.5897 9.084308491263727 2.776700824043636 21.104980452050935 0 0 0
599 1 1 0.5897 9.004892476488378 2.6933071558925086 17.04753355032942 0 0 0
133 1 2 -1.1794 0.683839647691818 3.201983481798218 16.686159654534347 0 0 0
253 1 2 -1.1794 3.1833511855631493 7.105996460154798 2.0883799798332023 0 0 0
123 1 1 0.5897 3.0868887719247153 8.769369427725861 2.6590042257966062 0 0 0
121 1 2 -1.1794 3.0569515957441564 9.674995648051791 2.9675038544092267 0 0 0
122 1 1 0.5897 3.0091437001441186 9.60234794809768 3.9207378530806984 0 0 0
44 1 1 0.5897 1.6454349371587964 10.542664937684249 2.454422871844667 0 0 0
218 1 1 0.5897 5.9311563128561735 10.6418357513892 2.388928180703358 0 0 0
255 1 1 0.5897 2.435714666605487 6.586544193792172 2.3839498751867234 0 0 0
219 1 1 0.5897 4.41939035283035 10.665667564955458 2.463448732709533 0 0 0
43 1 2 -1.1794 0.8916273147496898 11.010788641586856 2.095539875869471 0 0 0
415 1 2 -1.1794 7.62940303894754 6.967884425431158 2.334075766428457 0 0 0
417 1 1 0.5897 8.392045751889682 6.430601130812773 2.5481920712342303 0 0 0
254 1 1 0.5897 3.1322201948396144 7.078186350843301 1.1329530552090556 0 0 0
217 1 2 -1.1794 5.168787335067435 11.160649727936864 2.1324740165506713 0 0 0
66 1 1 0.5897 7.414176683805972 9.607471711212025 3.941357543755277 0 0 0
65 1 1 0.5897 7.424267106202144 8.727815408275566 2.70929740431085 0 0 0
64 1 2 -1.1794 7.341212307159535 9.639917270863464 2.98750172966361 0 0 0
416 1 1 0.5897 6.883152112562773 6.467542549468515 2.664097991407965 0 0 0
138 1 1 0.5897 4.5155136266958875 6.059807032177648 2.640901389963879 0 0 0
162 1 1 0.5897 7.573833506476537 7.164192095642278 0.46997564932630276 0 0 1
773 1 1 0.5897 8.833448379746955 10.543893394606753 2.525546262915856 0 0 0
396 1 1 0.5897 0.9403263763509992 10.885078479275062 0.2816190512600358 0 0 0
363 1 1 0.5897 5.116507635492291 10.981861125675168 0.3490344850174145 0 0 1
256 1 2 -1.1794 3.1393000191063027 9.79130314997306 10.482649965095964 0 0 0
12 1 1 0.5897 2.9095894402483964 7.791880008054232 6.422608408873696 0 0 0
10 1 2 -1.1794 2.9704820020806446 6.922521508090108 6.8185091023416575 0 0 0
794 1 1 0.5897 2.175754348495756 9.878828027606108 5.991697551879217 0 0 0
526 1 2 -1.1794 7.395474000859392 7.099672159646192 9.35947222864002 0 0 0
577 1 2 -1.1794 5.139152128629732 10.757325990392552 6.703718746514005 0 0 0
145 1 2 -1.1794 7.5799213375027366 6.875884461104623 6.6444533708121565 0 0 0
551 1 1 0.5897 0.8396548885009203 10.798113094266705 7.664572574988444 0 0 0
713 1 1 0.5897 8.176957315103973 9.978314846605686 6.113810423477797 0 0 0
580 1 2 -1.1794 5.340002768886649 11.156992279118903 9.490907690235437 0 0 0
650 1 1 0.5897 3.1512532325188696 7.148434849737136 8.55233345348841 0 0 0
822 1 1 0.5897 8.284943587302191 10.212436563901031 10.026030007808743 0 0 0
527 1 1 0.5897 7.474904314796089 8.038711270443992 9.527167362652355 0 0 0
15 1 1 0.5897 1.6141924097625926 10.514223834066552 9.880467125867645 0 0 0
582 1 1 0.5897 5.3295053681929 11.07423566132566 8.537356392268041 0 0 0
820 1 2 -1.1794 7.535546111207725 9.670413447115184 10.27253625168816 0 0 0
581 1 1 0.5897 6.133162764293527 10.69554607596538 9.763125682306724 0 0 0
147 1 1 0.5897 7.479091655632596 6.944827355681434 7.59382280574318 0 0 0
649 1 2 -1.1794 3.112152040790721 7.22449930538597 9.505698658299945 0 0 0
528 1 1 0.5897 8.21312730051608 6.726996695491094 9.689149863836695 0 0 0
13 1 2 -1.1794 0.8736820947562911 10.947750404771346 9.456382959951913 0 0 0
258 1 1 0.5897 3.8740811566534124 10.295691184129002 10.133591626853233 0 0 0
714 1 1 0.5897 7.522406740254265 8.613752211864872 6.07694891620684 0 0 0
257 1 1 0.5897 3.2609950086590933 8.911528818664292 10.125698741216905 0 0 0
146 1 1 0.5897 6.77077300146544 6.46022157154249 6.346723445703761 0 0 0
578 1 1 0.5897 5.973256104311034 10.398992131580814 6.400413896681024 0 0 0
550 1 2 -1.1794 0.8329392042054967 10.802183136177696 6.707411578957275 0 0 0
687 1 1 0.5897 4.475417482980744 6.236205653987881 6.045942001928108 0 0 0
651 1 1 0.5897 3.85956957205113 6.714609291673458 9.817988680966199 0 0 0
11 1 1 0.5897 2.2264096364930515 6.441348361816702 6.456594476468464 0 0 0
795 1 1 0.5897 3.6880615150958223 9.877578246655368 6.058640224881817 0 0 0
165 1 1 0.5897 9.064168828460996 6.053863525212218 6.147635430432767 0 0 0
114 1 1 0.5897 1.601310155427316 6.246899560587199 9.872389232027489 0 0 0
677 1 1 0.5897 6.007781883319556 6.329959596047713 10.238824472739203 0 0 0
552 1 1 0.5897 0.9125788956543753 11.726245986128788 6.470787783747311 0 0 0
579 1 1 0.5897 5.117120438400271 11.64649765114164 6.3500034772224545 0 0 0
793 1 2 -1.1794 2.946792425139872 9.404995350978503 5.680048712772935 0 0 0
712 1 2 -1.1794 7.450477379330492 9.497775240808634 5.716998211893318 0 0 0
826 1 2 -1.1794 7.467786383696216 7.019995060255191 13.978883525672623 0 0 0
827 1 1 0.5897 6.617105864862104 6.62504796273054 13.78787444445778 0 0 0
332 1 1 0.5897 2.7593002090708407 8.037042040167876 13.719865487273848 0 0 0
797 1 1 0.5897 2.9774258811667837 9.750557229118174 12.185034669104855 0 0 0
796 1 2 -1.1794 3.0029308214722215 9.673175536073753 13.138753399267785 0 0 0
798 1 1 0.5897 2.2710456709473967 10.20991594741171 13.442735666535789 0 0 0
722 1 1 0.5897 4.548518510884438 10.413744311837066 13.619241795480136 0 0 0
261 1 1 0.5897 0.7913412181612332 10.831822811072186 14.913886082687391 0 0 0
723 1 1 0.5897 5.416516040839983 10.81618535516144 14.792434633640442 0 0 0
828 1 1 0.5897 7.555231043942991 6.9533846416606355 14.929742468711284 0 0 0
259 1 2 -1.1794 0.7714093184476599 10.96379294779889 13.966042425949041 0 0 0
331 1 2 -1.1794 2.709025365363149 7.143986641958862 14.060677934249906 0 0 0
225 1 1 0.5897 2.816392577412855 7.133560392204505 15.837311565121704 0 0 0
721 1 2 -1.1794 5.388097386774887 10.819199210665591 13.83566869044905 0 0 0
475 1 2 -1.1794 7.60719583001754 9.634913360619606 12.968159762262996 0 0 0
476 1 1 0.5897 6.78707319993551 10.002154434699873 13.297806618503564 0 0 0
477 1 1 0.5897 7.580418933330437 8.714595354847004 13.229952874932595 0 0 0
333 1 1 0.5897 3.5591250925595688 6.758248746581859 13.849347418248021 0 0 0
366 1 1 0.5897 1.3023727927741668 6.185848032315909 13.357316716540344 0 0 0
821 1 1 0.5897 7.532891511629917 9.685555617455023 11.229609540590406 0 0 0
104 1 1 0.5897 8.915033621133809 10.777226059050397 13.41797275807504 0 0 0
851 1 1 0.5897 8.93430430844543 6.2568703611918295 13.401385569189785 0 0 0
647 1 1 0.5897 1.603225407365965 6.195378959722659 20.78335287073976 0 0 0
141 1 1 0.5897 7.547444281252936 8.804246830953536 20.643729974333603 0 0 0
361 1 2 -1.1794 5.242900540620431 10.89796232926367 21.271776520822684 0 0 0
9 1 1 0.5897 7.06368202011783 9.919953143517871 17.117341989930104 0 0 0
4 1 2 -1.1794 3.0856076808067097 7.008995506747016 21.25205816175044 0 0 0
627 1 1 0.5897 2.4665907272232777 10.21034787761124 17.102200718830776 0 0 0
394 1 2 -1.1794 1.0626577044401473 10.779331096230216 21.206018271677326 0 0 0
395 1 1 0.5897 0.2869791107646549 10.299550841484113 20.91571512666086 0 0 0
140 1 1 0.5897 6.714901536692374 10.068449912662643 20.665061572650455 0 0 0
161 1 1 0.5897 6.960267559893295 6.681685778020191 21.040675432014883 0 0 0
690 1 1 0.5897 2.453948856645679 9.986040030805302 20.482025361145848 0 0 0
625 1 2 -1.1794 3.2844541377140577 9.817525584242668 17.407035506466755 0 0 0
688 1 2 -1.1794 3.209266441841578 9.503161401692168 20.14666098215092 0 0 0
445 1 2 -1.1794 0.8686918515370611 10.814457647336688 16.637996879733613 0 0 0
224 1 1 0.5897 3.0314719615944212 7.996065106362977 17.062745252664516 0 0 0
689 1 1 0.5897 3.9672434728553645 9.96024974359053 20.510921916413988 0 0 0
287 1 1 0.5897 8.888888325959106 10.476932660742317 20.928995926093684 0 0 0
626 1 1 0.5897 3.190180905225603 9.77488689684895 18.358620843439567 0 0 0
139 1 2 -1.1794 7.482334660479841 9.674458470070094 20.25038330560321 0 0 0
6 1 1 0.5897 3.207318671930255 7.845302805580546 20.802615567717666 0 0 0
521 1 1 0.5897 6.831474934956393 6.5236910004931286 17.011566773993778 0 0 0
8 1 1 0.5897 7.6359035291983215 9.541774462422254 18.466921321918246 0 0 0
7 1 2 -1.1794 7.7945260620112 9.456948373917996 17.526783833564696 0 0 0
160 1 2 -1.1794 7.717594226601712 7.150168048382402 21.391568092629093 0 0 0
5 1 1 0.5897 3.8665243071981035 6.501717516883549 21.030750746492703 0 0 0
522 1 1 0.5897 7.679519212764703 7.773732256599103 17.111547236333028 0 0 0
223 1 2 -1.1794 2.9115071802026216 7.086840974768067 16.788620026269243 0 0 0
680 1 1 0.5897 4.801179140280663 10.578547452207221 16.789890307973494 0 0 0
679 1 2 -1.1794 5.617387324901287 11.029872825788903 16.5748095432797 0 0 0
279 1 1 0.5897 4.451176058921005 6.233426686255501 17.347508569720233 0 0 0
572 1 1 0.5897 1.4614807348910688 6.288754285084402 17.460998675072116 0 0 0
520 1 2 -1.1794 7.680180457966452 6.884994202512891 16.756062173100403 0 0 0
711 1 1 0.5897 8.980734999005293 5.983285280058528 17.572331484222786 0 0 0
362 1 1 0.5897 5.363558083296092 11.796630490345912 20.965078542786454 0 0 0
446 1 1 0.5897 0.708937769138888 11.681700710318017 17.010274505690667 0 0 0
200 1 1 0.5897 5.204145553040001 13.48509014456991 4.937854486790225 0 0 0
173 1 1 0.5897 4.495690885416706 14.140907730741477 2.86135410601549 0 0 0
172 1 2 -1.1794 5.310656789848379 13.720137868043297 3.1350670019636744 0 0 0
374 1 1 0.5897 0.881081936862583 13.582701373648908 4.0469402550138796 0 0 0
558 1 1 0.5897 3.0291642994914403 14.961968272657446 1.2842586504648597 0 0 0
556 1 2 -1.1794 3.1077115842335115 15.065514768411164 2.2325875545393705 0 0 0
557 1 1 0.5897 2.3753310805640813 14.56368715629598 2.590281363541274 0 0 0
478 1 2 -1.1794 7.592998186617838 14.903833130789081 2.1706832192983376 0 0 0
174 1 1 0.5897 5.244916719172647 12.827007905656936 2.7970968221797525 0 0 0
293 1 1 0.5897 3.1075900766435702 16.73013685520837 2.873048187866303 0 0 0
479 1 1 0.5897 8.28244077666327 14.397112558748221 2.599707325516373 0 0 0
449 1 1 0.5897 7.62598916555236 16.615613702716757 2.608200071688557 0 0 0
480 1 1 0.5897 6.77777235135706 14.502628810451046 2.471650943795312 0 0 0
373 1 2 -1.1794 1.0381414931927364 13.562334796409855 3.1029412718183664 0 0 0
448 1 2 -1.1794 7.592916468721824 17.522298818676568 2.913274368850187 0 0 0
308 1 1 0.5897 7.497713714990601 17.402566604178283 4.6553205683448375 0 0 0
292 1 2 -1.1794 3.119038645078466 17.657322009720822 3.1105828987497746 0 0 0
294 1 1 0.5897 3.043323401412218 17.661557816281466 4.064766312805059 0 0 0
317 1 1 0.5897 7.602456367141868 14.899458306358321 0.36031975155389284 0 0 0
375 1 1 0.5897 0.2488711349945376 13.945184576180205 2.7200155968394997 0 0 0
45 1 1 0.5897 0.9279904409687427 11.874757341028824 2.5059988838037417 0 0 0
307 1 2 -1.1794 7.4318339010646355 17.297247769558098 5.604417592195158 0 0 0
384 1 1 0.5897 3.2233972747089528 16.52009133399396 10.011334088101952 0 0 0
656 1 1 0.5897 1.4918019299064889 14.029601283393422 6.164027648042907 0 0 0
454 1 2 -1.1794 5.517426179026513 13.703714741181589 10.430315331766447 0 0 0
14 1 1 0.5897 0.9412984511338938 11.862109105629658 9.731350516260095 0 0 0
811 1 2 -1.1794 3.2714161266806467 14.917887236374883 9.337533791615465 0 0 0
456 1 1 0.5897 5.4712370440642255 12.807078779162696 10.098444525078028 0 0 0
813 1 1 0.5897 2.534606110204175 14.44834419005498 9.728418120395865 0 0 0
17 1 1 0.5897 2.957766751756605 14.915559717653771 7.591195455477646 0 0 0
766 1 2 -1.1794 1.1786196617836429 13.557754074224063 10.328621842959048 0 0 0
239 1 1 0.5897 3.013489351135467 16.651699024999097 6.115632082827342 0 0 0
377 1 1 0.5897 6.90395684797161 14.566187396442455 9.898949653777443 0 0 0
382 1 2 -1.1794 3.10091131012179 17.403123663270897 10.359869075795588 0 0 0
519 1 1 0.5897 8.222421958639854 14.416049719612138 6.534102309291006 0 0 0
812 1 1 0.5897 4.04654821306471 14.453933744727514 9.653856202885265 0 0 0
18 1 1 0.5897 3.685908835823644 14.412223083474505 6.363086128951275 0 0 0
376 1 2 -1.1794 7.613140505305758 15.14055971471265 9.610317581703939 0 0 0
16 1 2 -1.1794 2.9164636039240253 14.912441300130524 6.6348991622065565 0 0 0
517 1 2 -1.1794 7.399467791672367 14.812984841383116 6.819273983459919 0 0 0
186 1 1 0.5897 7.531209732410694 16.81115293212462 10.18216128572627 0 0 0
378 1 1 0.5897 7.608207599495413 15.067009031809981 8.655967645026353 0 0 0
518 1 1 0.5897 7.364411716710055 15.650735063731252 6.35756644137963 0 0 0
201 1 1 0.5897 5.854461077039114 13.949583084593195 6.223601930754206 0 0 0
199 1 2 -1.1794 5.104979916860507 13.456849760287813 5.889477456088393 0 0 0
238 1 2 -1.1794 3.016892577605101 17.561286813988225 5.8175277061881046 0 0 0
59 1 1 0.5897 9.026805828145811 14.209473252579732 10.004371284412295 0 0 0
768 1 1 0.5897 0.3964711744182018 14.02943292392955 10.04243670451303 0 0 0
655 1 2 -1.1794 0.7572385221018278 13.498648037107253 5.856367565213169 0 0 0
296 1 1 0.5897 7.270704313973439 14.892663074200312 14.992357210315289 0 0 0
232 1 2 -1.1794 2.9805302571383194 14.995377086607478 14.001993702785658 0 0 0
234 1 1 0.5897 3.019925382031348 14.946754233829735 14.95714056759442 0 0 0
606 1 1 0.5897 3.0429656032232617 16.70420764728796 13.48043142905917 0 0 0
427 1 2 -1.1794 5.03772922127546 13.513776193312154 13.158159632628617 0 0 0
233 1 1 0.5897 3.740625369877264 14.495367547412158 13.704685417359615 0 0 0
639 1 1 0.5897 1.5259387622200151 14.039907011198746 13.425194430607926 0 0 0
429 1 1 0.5897 5.8065472210642195 13.951411289521603 13.523584642057617 0 0 0
428 1 1 0.5897 5.09803468768734 12.614283524192514 13.479878482503773 0 0 0
637 1 2 -1.1794 0.7905082233859858 13.539377890455407 13.071980450325631 0 0 0
638 1 1 0.5897 0.866193253258617 12.67861150191789 13.483779358867023 0 0 0
295 1 2 -1.1794 7.243777213826939 14.877606804990425 14.035659308037996 0 0 0
270 1 1 0.5897 7.285925425608075 16.67666230644444 13.455914118745977 0 0 0
297 1 1 0.5897 8.088820114385076 14.50962402031449 13.777551472236684 0 0 0
268 1 2 -1.1794 7.307129667071962 17.612442003514474 13.255675609270904 0 0 0
455 1 1 0.5897 5.307168094227184 13.626299623500161 11.360911691944597 0 0 0
767 1 1 0.5897 1.0756589006489823 13.475208211313259 11.27667303175873 0 0 0
269 1 1 0.5897 7.188931738871525 17.65757378154192 12.306882077318733 0 0 0
604 1 2 -1.1794 3.062657262815184 17.621633653525357 13.208094055950948 0 0 0
605 1 1 0.5897 3.0463830868636745 17.58843997046435 12.251615432463389 0 0 0
824 1 1 0.5897 3.6328190011093056 14.398576350921122 17.21226574810238 0 0 0
664 1 2 -1.1794 3.1690909683887587 14.771480178061932 21.371770244329724 0 0 0
50 1 1 0.5897 7.388382769192011 15.750747140467196 17.118774957380666 0 0 0
716 1 1 0.5897 3.036168919471758 17.346345482729348 19.47425167553944 0 0 0
51 1 1 0.5897 8.126655437799647 14.434665035254973 16.997543096344874 0 0 0
452 1 1 0.5897 1.090423280105758 12.461170072354518 20.606399616108558 0 0 0
125 1 1 0.5897 5.147325186137317 13.48943416891385 18.614282220703664 0 0 0
124 1 2 -1.1794 5.0716291797394675 13.495645166398479 17.660107934677313 0 0 0
684 1 1 0.5897 4.6057928115958005 13.904159443824673 20.808985110709145 0 0 0
823 1 2 -1.1794 2.8890486610294497 14.921486558883302 16.913063147809986 0 0 0
666 1 1 0.5897 3.1664947058872035 15.66643203951654 21.032226762264074 0 0 0
316 1 2 -1.1794 7.5553664384560575 14.853191937158108 21.273239951894627 0 0 0
52 1 2 -1.1794 0.6019810973519076 13.405362107718378 17.587763788027328 0 0 0
318 1 1 0.5897 7.491743759712042 15.765802577688877 20.991603676794195 0 0 0
665 1 1 0.5897 2.4363395284284004 14.344365435718458 20.92814895016515 0 0 0
584 1 1 0.5897 2.814154198855258 16.652269062986065 17.318413770608934 0 0 0
683 1 1 0.5897 6.118627723225903 13.905893794756354 20.75521198828291 0 0 0
126 1 1 0.5897 5.812762449759538 14.02402811911953 17.363999826064173 0 0 0
682 1 2 -1.1794 5.349602173141048 13.450464163817406 20.412681648614583 0 0 0
159 1 1 0.5897 7.570189982037279 17.494818169589713 19.574815657653268 0 0 0
53 1 1 0.5897 0.6117443241284641 13.41443973083769 18.544864721102524 0 0 0
451 1 2 -1.1794 1.0379508407333227 13.35536558262229 20.268928506904583 0 0 0
825 1 1 0.5897 2.122092470024536 14.386311225991989 17.116802645059995 0 0 0
715 1 2 -1.1794 3.1032142360715738 17.250166811442917 20.42423651240798 0 0 0
157 1 2 -1.1794 7.578920020084569 17.42683387779916 20.529550801991633 0 0 0
610 1 2 -1.1794 7.394189785850258 17.500415317122183 17.7239592457472 0 0 0
49 1 2 -1.1794 7.313598322448522 14.87243393887062 16.745681667334473 0 0 0
117 1 1 0.5897 8.940778872743678 13.919005939617332 20.62034660897962 0 0 0
583 1 2 -1.1794 2.8126990093489486 17.550732021327697 17.64854847049136 0 0 0
453 1 1 0.5897 0.23666813043608073 13.710430740701225 20.65364927847819 0 0 0
681 1 1 0.5897 5.504449737977937 11.911921313529234 16.929010973945942 0 0 0
267 1 1 0.5897 6.23268895376873 21.87177874789903 2.8849773289228366 0 0 0
696 1 1 0.5897 1.5478289389982973 21.737613118206532 2.8339052143025816 0 0 0
266 1 1 0.5897 4.720596013244223 21.800700325904288 2.8755378062570465 0 0 0
265 1 2 -1.1794 5.495064043257984 21.39331421069575 3.2633233421666414 0 0 0
344 1 1 0.5897 1.6023196746577901 18.33409430442461 2.24099996758963 0 0 0
228 1 1 0.5897 5.432163297216932 19.66900515249167 2.5383201728430143 0 0 0
343 1 2 -1.1794 0.8240788749426391 18.807724368260743 1.9474730759692616 0 0 0
817 1 2 -1.1794 7.608218155381252 22.72054079243697 2.1730486022463404 0 0 0
249 1 1 0.5897 5.393269571829129 21.26889100954798 5.01845758385571 0 0 0
226 1 2 -1.1794 5.354613132698906 18.841848280236775 2.0629037153585177 0 0 0
187 1 2 -1.1794 3.079655751936135 22.591993595259773 2.3906911627437104 0 0 0
695 1 1 0.5897 0.8055556439361942 20.428735416294103 2.667549236294092 0 0 0
694 1 2 -1.1794 0.7350281994012063 21.29263523708302 3.073661459791271 0 0 0
818 1 1 0.5897 8.401054722219934 22.295502621054695 2.4999875608735658 0 0 0
498 1 1 0.5897 7.632445874656052 22.705129196781662 0.3953559975669356 0 0 0
189 1 1 0.5897 3.1627806773532523 22.528078337400324 1.4392576051107993 0 0 0
413 1 1 0.5897 0.8835135314778476 21.387505468079375 4.872883259674175 0 0 0
227 1 1 0.5897 4.5774070919860055 18.42393114600867 2.4336264718838714 0 0 0
345 1 1 0.5897 0.8851573605464934 18.80111362828221 0.9922474316995253 0 0 0
321 1 1 0.5897 8.983182989403026 18.414331481444933 2.3566232852966937 0 0 0
450 1 1 0.5897 6.74963108158401 17.850012388073964 2.600867200253219 0 0 0
602 1 1 0.5897 5.320023095337902 18.672271135741568 0.3219740005101241 0 0 0
188 1 1 0.5897 3.1494090377569472 23.528626929404645 2.575305132486321 0 0 0
555 1 1 0.5897 5.274283780293481 20.626616211539165 10.075841348844602 0 0 0
342 1 1 0.5897 0.6350285171350147 18.698975351743904 7.560732597805046 0 0 0
87 1 1 0.5897 8.120048336646473 22.460821258767687 9.846506037550553 0 0 0
37 1 2 -1.1794 3.1129384127774764 22.793346560607063 9.356713351438326 0 0 0
86 1 1 0.5897 7.420149597737927 22.94694599753266 8.595256031011678 0 0 0
248 1 1 0.5897 4.573099278013437 21.653890057068608 6.23125130538143 0 0 0
32 1 1 0.5897 8.140422192886165 22.357755392545542 6.4348569411293415 0 0 0
404 1 1 0.5897 1.5488691990447876 18.123459829654905 9.680088227456611 0 0 0
39 1 1 0.5897 3.847164257558547 22.326435911227662 9.755530022891582 0 0 0
553 1 2 -1.1794 5.202111395841773 21.497995807305834 10.465355542140278 0 0 0
701 1 1 0.5897 3.136749684756516 22.671741956862824 7.624498537177481 0 0 0
414 1 1 0.5897 0.7164533590253479 20.51585280050967 6.099332484362895 0 0 0
387 1 1 0.5897 5.376500666569423 19.49156798283945 6.44251413716034 0 0 0
102 1 1 0.5897 5.211914089011022 18.861971460421103 8.540612074395995 0 0 0
700 1 2 -1.1794 3.15186902300456 22.67230992034778 6.66742462402573 0 0 0
385 1 2 -1.1794 5.2939734945799914 18.614892215370226 6.817824521031733 0 0 0
702 1 1 0.5897 2.380811071744269 22.164500324829007 6.41493196362973 0 0 0
38 1 1 0.5897 2.335948177421045 22.32865403089368 9.667337012297239 0 0 0
101 1 1 0.5897 5.881243054391401 18.386966843980076 9.812687797670607 0 0 0
341 1 1 0.5897 1.43783971576524 18.37308903534492 6.3193359746673625 0 0 0
33 1 1 0.5897 6.629421145899008 22.32938491116792 6.522195358435647 0 0 0
383 1 1 0.5897 3.860623412133504 17.892912768780448 10.045080415581662 0 0 0
85 1 2 -1.1794 7.357274099038876 22.957410764914464 9.550323375093281 0 0 0
554 1 1 0.5897 5.949022661729157 21.981326151488602 10.112277832962235 0 0 0
340 1 2 -1.1794 0.6330962409982537 18.80264221293087 6.609171703003767 0 0 0
386 1 1 0.5897 5.998479467859957 18.11175300198719 6.409533304757537 0 0 0
31 1 2 -1.1794 7.391963835705401 22.853946912153354 6.766140556343164 0 0 0
100 1 2 -1.1794 5.14648509041141 18.911279940857625 9.494292777304913 0 0 0
412 1 2 -1.1794 0.8611985131430308 21.422652030578604 5.829170303837416 0 0 0
403 1 2 -1.1794 0.7476407853460695 18.564090894727407 9.397220568469741 0 0 0
94 1 2 -1.1794 0.8780263336798984 21.25227278299257 9.988795896086819 0 0 0
405 1 1 0.5897 0.8668260152845223 19.474922741563738 9.666303552112518 0 0 0
240 1 1 0.5897 3.8319408237074497 17.9243324174396 6.163977674394455 0 0 0
309 1 1 0.5897 8.161225389075904 17.809125982586238 5.9538879999173435 0 0 0
185 1 1 0.5897 8.102240859051843 18.211079356754432 10.104833083486378 0 0 0
247 1 2 -1.1794 5.336152120598857 21.14087594129424 5.965329797562562 0 0 0
184 1 2 -1.1794 7.371586136240024 17.710637865360574 10.467949038173398 0 0 0
96 1 1 0.5897 0.8757513990257635 21.312915717489354 10.944064069681827 0 0 0
380 1 1 0.5897 0.759379620270581 20.493916141488484 13.086460729643898 0 0 0
88 1 2 -1.1794 5.142191231281262 21.54998399025009 13.171735284635965 0 0 0
381 1 1 0.5897 1.475314943907743 21.825624076372165 13.162620421062785 0 0 0
90 1 1 0.5897 5.205961188881821 20.619367403181933 13.38647247304219 0 0 0
763 1 2 -1.1794 5.186668963980455 19.013265746860668 14.186475150244666 0 0 0
738 1 1 0.5897 3.6587462172092655 22.206850752862977 13.74774691972937 0 0 0
89 1 1 0.5897 5.13107987054859 21.575281759673437 12.214938970936391 0 0 0
764 1 1 0.5897 4.413898169040879 18.620522360118187 13.780621749846658 0 0 0