LAMMPS data file via write_data, version 30 Jul 2021, timestep = 6000000

1920 atoms
2 atom types
1280 bonds
1 bond types
640 angles
1 angle types

-0.103856372631002 24.833857372625097 xlo xhi
-0.17051915675649454 24.9005201567573 ylo yhi
-0.03697456739894456 22.846974567398394 zlo zhi

Masses

1 1.008
2 15.999

Pair Coeffs # lj/cut/tip4p/long/omp

1 0 0
2 0.21084 3.1668

Bond Coeffs # harmonic/omp

1 450 0.9572

Angle Coeffs # harmonic/omp

1 55 104.52

Atoms # full

1 1 2 -1.1794 4.756642997478824 1.2314146503385128 4.41780891244589 0 0 0
2 1 1 0.5897 4.916015408532698 2.066071650912806 4.8583401108323665 0 0 0
3 1 1 0.5897 5.410951905945656 1.1995803864672063 3.719973856008987 0 0 0
4 2 2 -1.1794 2.9484946270145915 1.3993848296637772 2.043041892842392 0 0 0
5 2 1 0.5897 3.307607140273734 1.5795229819099055 2.911793925101501 0 0 0
6 2 1 0.5897 1.9996364726274058 1.4309503911085673 2.164367049719124 0 0 0
13 5 2 -1.1794 1.0811848871943812 2.8709566045214414 4.9813812649231926 0 0 0
9 3 1 0.5897 4.9697145554889826 4.1067955487936345 3.5660625054474098 0 0 0
10 4 2 -1.1794 3.139072040160296 4.31667743831127 3.549416947805543 0 0 0
11 4 1 0.5897 3.037468043715271 5.167887267655115 3.975133678137854 0 0 0
12 4 1 0.5897 2.8158382897420644 4.453582261380316 2.65895828017274 0 0 0
20 7 1 0.5897 3.807460848601159 2.615312843613677 0.9969527187904008 0 0 0
28 10 2 -1.1794 1.6067039268851604 -0.05015591138909757 4.68076853285688 0 0 0
24 8 1 0.5897 1.2854816833968825 5.297057037111702 0.7371746963808132 0 0 0
21 7 1 0.5897 5.317248714870972 2.5322757298719085 1.068229168223543 0 0 0
27 9 1 0.5897 4.625748973435493 4.817978505996312 0.7593637454825463 0 0 0
19 7 2 -1.1794 4.604657043319302 2.9986822328057614 0.6314642880100803 0 0 0
47 16 1 0.5897 5.899159001191046 0.5763725541385876 1.588245091988213 0 0 0
22 8 2 -1.1794 1.4620544644429325 4.658406123996204 1.4278823779219507 0 0 0
150 50 1 0.5897 1.9083424947550176 6.044517495908016 5.505967368112187 0 0 0
14 5 1 0.5897 1.711954261108477 3.2917743716729784 4.397298503892146 0 0 0
23 8 1 0.5897 0.7468308474878446 4.776830050690961 2.05280045725184 0 0 0
16 6 2 -1.1794 0.10895127756699874 1.373662895047987 1.7658940789478133 0 0 0
15 5 1 0.5897 1.2985658972508336 1.9398206654916543 4.938527730843652 0 0 0
7 3 2 -1.1794 5.917729436353707 4.09542822494804 3.6971608513296643 0 0 0
387 129 1 0.5897 3.9764637016023485 0.21512803795303537 1.0409893705618087 0 1 0
98 33 1 0.5897 0.35518557417602414 5.546289341506779 3.7684609253808676 1 0 0
1455 485 1 0.5897 1.4550809287130086 3.531277049071738 0.05262965594387707 0 0 1
1470 490 1 0.5897 1.3377156490368656 0.03302431174560741 0.1293511835776414 0 0 1
25 9 2 -1.1794 4.522426939531109 5.762720172027624 0.6457676571810086 0 0 0
629 210 1 0.5897 1.2743649003154736 6.050966036300571 10.110789985995819 0 0 0
481 161 2 -1.1794 4.897292125145076 1.231651512705044 9.957990324716407 0 0 0
579 193 1 0.5897 0.32903700383616863 4.138090100254359 9.55402528605857 1 0 0
500 167 1 0.5897 4.141938185589062 2.77365142629516 6.811314715967457 0 0 0
484 162 2 -1.1794 2.9646071147408812 1.4716316534704095 7.687986744024925 0 0 0
485 162 1 0.5897 2.911470799811115 1.2552384509016026 8.618851041699916 0 0 0
486 162 1 0.5897 3.4076580648318315 0.7212504972572901 7.292079140999852 0 0 0
501 167 1 0.5897 4.738072731244022 4.058544592510318 6.277230897002867 0 0 0
489 163 1 0.5897 5.156047939537857 4.185918754733094 8.799977566596647 0 0 0
490 164 2 -1.1794 3.493390827973487 4.4507725914942515 8.790802282955065 0 0 0
491 164 1 0.5897 3.5574801829949942 5.3128900580476195 9.20160995926217 0 0 0
492 164 1 0.5897 2.968791515591917 3.9325882638376424 9.40104231715912 0 0 0
493 165 2 -1.1794 1.8318828647396277 3.011519042893327 10.411046134748021 0 0 0
503 168 1 0.5897 1.2408483172071683 4.0899034139736035 6.414092037128404 0 0 0
482 161 1 0.5897 5.257623914961701 1.356142210792233 9.08003796684831 0 0 0
498 166 1 0.5897 1.1335138125133724 1.5593520096526772 7.797143038158317 0 0 0
496 166 2 -1.1794 0.18270788877575356 1.5432190153929672 7.905584031837626 0 0 0
483 161 1 0.5897 4.879701402945345 2.110378133063588 10.33700227411395 0 0 0
1347 449 1 0.5897 4.733149762806744 0.19421942452938956 11.376218898966547 0 1 0
502 168 2 -1.1794 1.5638481470033443 4.858566757906247 6.884147203496825 0 0 0
495 165 1 0.5897 1.7663442932127333 3.431385673801702 11.268697590872796 0 0 0
504 168 1 0.5897 2.2848685092635233 4.527150472784406 7.419300949138605 0 0 0
499 167 2 -1.1794 4.928020311931587 3.1279798694499767 6.395863109467441 0 0 0
494 165 1 0.5897 1.5996667054242306 2.0972277237547923 10.573100772237334 0 0 0
508 170 2 -1.1794 1.620306434383322 0.19897331392322104 10.73015561350427 0 0 0
528 176 1 0.5897 5.7892516176573805 1.8686726522527288 7.173509068995344 0 0 0
505 169 2 -1.1794 4.653899580987936 5.750406823039601 6.253755491038539 0 0 0
578 193 1 0.5897 0.24875182443376453 5.116693798857394 8.401836738383674 1 0 0
487 163 2 -1.1794 6.065198710698635 4.429431705926922 8.97375572373787 0 0 0
506 169 1 0.5897 3.893980246311041 6.03890799961801 6.759097011790613 0 0 0
867 289 1 0.5897 4.488754933290006 -0.12777841091530612 5.739791439176463 0 1 0
988 330 2 -1.1794 1.5952919751154624 0.2611940774581642 16.264463992208505 0 0 0
961 321 2 -1.1794 4.470728918424261 1.466733814606806 15.460574072240654 0 0 0
962 321 1 0.5897 5.290461304356287 1.4013126541814929 14.970837921807012 0 0 0
963 321 1 0.5897 4.629037476919413 0.9669511160332034 16.26138321932011 0 0 0
964 322 2 -1.1794 2.7960988164431493 1.6329998999326008 13.35284545609006 0 0 0
965 322 1 0.5897 3.1510297635030047 1.4974550139534637 14.231361870883973 0 0 0
966 322 1 0.5897 1.848331960138687 1.6720423611833393 13.480363208868905 0 0 0
980 327 1 0.5897 3.9047841604752005 2.75902315765309 12.540997143315895 0 0 0
970 324 2 -1.1794 3.434265656411534 4.548288289226425 14.862383309005212 0 0 0
971 324 1 0.5897 4.33053374823226 4.287055583820002 14.651369436482614 0 0 0
972 324 1 0.5897 2.9848141952046063 3.726473142072522 15.059125135159109 0 0 0
974 325 1 0.5897 1.636993402053784 3.608426528398007 16.933525357653167 0 0 0
975 325 1 0.5897 0.6458255661397269 3.475377125242861 15.797098026720155 0 0 0
984 328 1 0.5897 2.171308819423254 4.6750830401474675 13.457575906203314 0 0 0
981 327 1 0.5897 5.405963814810241 2.6430869044373297 12.384631542755224 0 0 0
985 329 2 -1.1794 4.856112923748778 5.874600091585566 11.96117858093585 0 0 0
973 325 2 -1.1794 1.2903821462311253 2.978947476492436 16.301277844296322 0 0 0
982 328 2 -1.1794 1.4916727392277578 4.640662858543662 12.784507402235114 0 0 0
990 330 1 0.5897 1.4436835687615979 1.1849323905890847 16.46404366622484 0 0 0
983 328 1 0.5897 1.4544499049683044 5.531046803100903 12.435301711811631 0 0 0
979 327 2 -1.1794 4.656715826687883 3.1777356499774045 12.122239564978429 0 0 0
1345 449 2 -1.1794 4.477385450795704 -0.16230544339372885 12.226876831158119 0 1 0
976 326 2 -1.1794 0.24453846006201257 1.4081011812375515 13.600560480543106 0 0 0
987 329 1 0.5897 4.825488587191058 4.927294957280968 12.09455777219958 0 0 0
1058 353 1 0.5897 0.13199239001401608 4.6942163181371015 13.990819470540476 1 0 0
1346 449 1 0.5897 3.7661166898636917 0.40641579141628303 12.521388176687397 0 1 0
977 326 1 0.5897 0.08773141857989575 2.3217691265910685 13.362356049043152 0 0 0
1008 336 1 0.5897 5.820708313098849 0.7723251083551318 13.162578076103696 0 0 0
1460 487 1 0.5897 4.51503180355911 3.1294652520931026 16.933386329300646 0 0 0
1109 370 1 0.5897 0.5642607889977539 6.0946593841168015 15.896732322972905 0 0 0
1110 370 1 0.5897 2.0490566990497645 6.071456060346472 15.60298233717909 0 0 0
1590 530 1 0.5897 1.9088922781517295 5.8802162538743366 21.813740474445055 0 0 0
1463 488 1 0.5897 1.7903437104678417 5.460011053514908 17.737636648795096 0 0 0
1441 481 2 -1.1794 4.771596716175735 1.4406167776100232 21.25990656325292 0 0 0
1442 481 1 0.5897 3.951713864647682 1.38983080636975 20.768694583057652 0 0 0
1443 481 1 0.5897 4.616203415003387 2.1192641530994094 21.91673620433035 0 0 0
1444 482 2 -1.1794 2.6193109623689415 1.5540815345739505 19.336830641016803 0 0 0
1461 487 1 0.5897 5.23287317215276 2.993693795898231 18.259248031617396 0 0 0
1446 482 1 0.5897 2.770791067397263 2.3547031996655376 18.834648627120437 0 0 0
386 129 1 0.5897 4.7313847446405 0.1779293257902641 22.61332154262294 0 1 -1
1450 484 2 -1.1794 3.3544687913410343 4.706617649934404 20.85644635546568 0 0 0
1451 484 1 0.5897 4.3065009320587295 4.622192060696654 20.907018832700615 0 0 0
1452 484 1 0.5897 3.137804272427271 4.447370414825546 19.960906822872936 0 0 0
1453 485 2 -1.1794 1.6769298725238677 2.9240642838810555 22.230740925798443 0 0 0
1469 490 1 0.5897 1.1944292551092068 0.993684206819011 21.85215920664215 0 0 0
1539 513 1 0.5897 0.24442896498422312 5.010036968506683 21.00309199362495 1 0 0
1466 489 1 0.5897 4.604708867761116 5.26894951462217 17.858001215196836 0 0 0
1459 487 2 -1.1794 4.517532165218967 3.4632671316441663 17.830446854714516 0 0 0
1462 488 2 -1.1794 1.849485138590023 4.729312659341276 18.353028705193772 0 0 0
1448 483 1 0.5897 6.018292924693702 5.165867310492662 21.325047553671503 0 0 0
1464 488 1 0.5897 1.153911852067055 4.894594066446057 18.989392654732917 0 0 0
1454 485 1 0.5897 2.3817354040217853 3.3599665136732026 21.751850667755974 0 0 0
1538 513 1 0.5897 0.008139224275466275 3.543130279655837 20.71336866687311 1 0 0
1445 482 1 0.5897 1.678437060313171 1.3965634765432036 19.259226775306367 0 0 0
1447 483 2 -1.1794 6.043902763165514 4.347930302696098 20.828618071290627 0 0 0
1826 609 1 0.5897 4.036118044576379 0.08433334561574901 18.652130398691718 0 1 0
1468 490 2 -1.1794 1.2033798887550977 0.060790753538166264 22.066023695496412 0 0 0
1825 609 2 -1.1794 4.764036837963349 -0.08292363362985689 18.053587133035286 0 1 0
1487 496 1 0.5897 6.051273351675235 1.587298657789932 19.83079319906731 0 0 0
125 42 1 0.5897 3.5589613587481406 7.118067565271768 1.5399948490551434 0 0 0
121 41 2 -1.1794 4.421628925531999 7.793194110163454 4.257763844691646 0 0 0
122 41 1 0.5897 3.7285183669677573 7.806792675758807 3.5978328525362278 0 0 0
123 41 1 0.5897 5.225253731023536 7.647606049414173 3.758694830351089 0 0 0
124 42 2 -1.1794 2.91042166264455 7.7279300355411165 1.8914945263828638 0 0 0
140 47 1 0.5897 4.78458790310013 10.510209491337903 0.8351300642674596 0 0 0
126 42 1 0.5897 3.189829454043897 8.585819659641341 1.5720192416266796 0 0 0
144 48 1 0.5897 1.8439615269006284 11.228081807429076 1.0013007527046374 0 0 0
143 48 1 0.5897 0.9235558638281014 10.384697677413032 1.857523436165009 0 0 0
130 44 2 -1.1794 3.2140512048096777 10.47236883668683 3.7179545861664702 0 0 0
135 45 1 0.5897 2.0266691532744843 9.293378210236941 4.644694224365497 0 0 0
132 44 1 0.5897 2.8216706310906723 10.500734669218666 2.8453912800195433 0 0 0
133 45 2 -1.1794 1.207746951909371 8.951530764350634 5.003282368062694 0 0 0
270 90 1 0.5897 1.0604149193738739 11.864440530392816 4.332432720088923 0 0 0
131 44 1 0.5897 3.118294976293274 11.363730673737898 4.053240847457391 0 0 0
137 46 1 0.5897 1.2092025069546244 7.740455627890876 1.9052376471825534 0 0 0
139 47 2 -1.1794 4.680424141223816 9.558952403555237 0.8543887339168841 0 0 0
149 50 1 0.5897 1.4928151461817487 7.299291762062694 4.768076177696578 0 0 0
142 48 2 -1.1794 1.7954557410130183 10.390948143598433 1.4627893615542205 0 0 0
129 43 1 0.5897 5.079745954554348 10.501748828269026 3.5299672021826494 0 0 0
1574 525 1 0.5897 1.6086493344067867 9.378025519659682 0.02804668072534275 0 0 1
145 49 2 -1.1794 4.641109452991365 12.318862078509412 0.6805248996355567 0 0 0
148 50 2 -1.1794 1.7573913689202327 6.390431946107895 4.626364394053443 0 0 0
507 169 1 0.5897 4.559754847323471 6.1880773801709665 5.40775114704671 0 0 0
167 56 1 0.5897 5.798394834025512 8.207084106472049 1.580727434022699 0 0 0
127 43 2 -1.1794 6.024897230806014 10.455679355371872 3.3863757570965896 0 0 0
136 46 2 -1.1794 0.2576309583139352 7.729512711300554 2.0074013203591123 0 0 0
268 90 2 -1.1794 1.6903944596708755 12.286817113613624 4.9162331527138905 0 0 0
26 9 1 0.5897 5.293277380051077 6.14098676637091 1.068592433460021 0 0 0
138 46 1 0.5897 -0.02059485176321374 6.920960779317788 1.5773499439804972 0 0 0
219 73 1 0.5897 0.08350778328647124 10.048959022461274 3.9485982953829746 1 0 0
620 207 1 0.5897 5.401612738724141 9.44364621789535 7.030403714625562 0 0 0
602 201 1 0.5897 4.70822805342336 7.248097654147104 10.602627587982257 0 0 0
601 201 2 -1.1794 4.7578431143578666 7.999326340119204 10.011596794200592 0 0 0
619 207 2 -1.1794 4.642778002445055 9.853589241808033 6.615441890604591 0 0 0
603 201 1 0.5897 3.895417149070575 8.036826078248815 9.598220917044937 0 0 0
604 202 2 -1.1794 2.873223617493353 7.508856789561163 7.72631285756717 0 0 0
605 202 1 0.5897 3.1291464417118693 8.239307911804694 7.163221397579195 0 0 0
606 202 1 0.5897 1.9195038788917698 7.569382914284178 7.779234736855567 0 0 0
630 210 1 0.5897 1.6290556151565312 7.436554119219417 10.606697548806377 0 0 0
610 204 2 -1.1794 3.0323215718973233 10.978764598117277 9.2115006507877 0 0 0
611 204 1 0.5897 3.9619068404426674 11.089248338510398 9.012213769273906 0 0 0
621 207 1 0.5897 4.6729331502632085 9.551045553383732 5.707858253258208 0 0 0
628 210 2 -1.1794 1.9140457762667293 6.523568224732483 10.643282691689597 0 0 0
615 205 1 0.5897 2.170428732610467 9.749845417382463 10.195098360956832 0 0 0
612 204 1 0.5897 2.746768039694657 11.841979602715941 9.510540507773332 0 0 0
616 206 2 -1.1794 0.00020535315666780907 7.836067350834135 7.986528771408837 0 0 0
613 205 2 -1.1794 1.5163629178677278 9.237328482360295 10.670092121237106 0 0 0
626 209 1 0.5897 4.332494953555877 11.564773177512714 6.670001405132311 0 0 0
622 208 2 -1.1794 1.085625075289578 10.71680689653541 7.209287773519458 0 0 0
623 208 1 0.5897 1.7867579943076597 10.744553168277985 7.8602392389006095 0 0 0
624 208 1 0.5897 1.3087302689273783 11.408626355088106 6.586602360599699 0 0 0
607 203 2 -1.1794 5.787540317396389 10.840397758230418 9.246056347326666 0 0 0
134 45 1 0.5897 1.1076370607377555 9.400120363075567 5.842865451737489 0 0 0
648 216 1 0.5897 5.604541228492243 7.355161407313893 7.055467631215982 0 0 0
698 233 1 0.5897 0.0575731006077618 10.353251062079446 9.902304539502001 1 0 0
647 216 1 0.5897 5.846073736087848 8.014117969140823 8.396775442275276 0 0 0
699 233 1 0.5897 0.03465416510648822 11.013186117725516 8.54008331553607 1 0 0
609 203 1 0.5897 6.102169531780184 9.969135326219869 9.486914755942013 0 0 0
1087 363 2 -1.1794 5.932326677678653 10.947492437231974 15.237215592527843 0 0 0
1107 369 1 0.5897 4.2583261495629605 11.188175783805729 12.69180332039535 0 0 0
1081 361 2 -1.1794 4.53714464284288 8.021323787904779 15.756391368139685 0 0 0
1082 361 1 0.5897 4.801292972827759 8.810947627538619 16.22844606045937 0 0 0
1083 361 1 0.5897 4.548780267565466 7.330549967308832 16.418832872259635 0 0 0
1084 362 2 -1.1794 3.006478653583626 7.512439194527177 13.506412936082185 0 0 0
1093 365 2 -1.1794 1.5028346834164228 9.08478307687056 17.008035169211695 0 0 0
1086 362 1 0.5897 3.407335034488385 8.23743904521359 13.027032242161553 0 0 0
1100 367 1 0.5897 5.2331822324659365 8.947941002017753 12.767920182222776 0 0 0
1089 363 1 0.5897 5.006730613067647 11.17475330018661 15.149585989634643 0 0 0
1090 364 2 -1.1794 3.125187311690766 10.86067756139785 15.19429436199408 0 0 0
1091 364 1 0.5897 2.6669307604186514 11.521679197346328 15.713124246341748 0 0 0
1092 364 1 0.5897 2.862762180897412 10.02626373888647 15.582877020325187 0 0 0
1085 362 1 0.5897 3.383194665672187 7.567935832708098 14.384563256313065 0 0 0
1099 367 2 -1.1794 4.52366519798298 9.47180619250352 12.396124172575366 0 0 0
1094 365 1 0.5897 1.560363419427437 8.197279955403543 16.65426125429166 0 0 0
1095 365 1 0.5897 0.7376433792530699 9.465649594327143 16.577339495445585 0 0 0
1097 366 1 0.5897 1.267459993796696 7.819219943415842 13.19234820280918 0 0 0
1105 369 2 -1.1794 4.241135952164147 12.142584523950296 12.761911550925161 0 0 0
986 329 1 0.5897 3.9682209219473954 6.1733709354784025 12.157236133594823 0 0 0
1102 368 2 -1.1794 1.4577206674539271 10.582513165045288 13.039177498245042 0 0 0
1103 368 1 0.5897 1.5382974789771957 11.449067481349045 12.64079882337349 0 0 0
1104 368 1 0.5897 2.1634787118958183 10.548631346070104 13.684819873354192 0 0 0
1096 366 2 -1.1794 0.32593275932418625 7.84000957252743 13.021629089294906 0 0 0
1178 393 1 0.5897 0.19019433762912052 11.51746919331318 15.799258091191373 1 0 0
614 205 1 0.5897 1.4276827707319828 9.683037632214676 11.51248225934701 0 0 0
1179 393 1 0.5897 0.3217043556088725 10.809156935321768 14.467837987157608 1 0 0
1101 367 1 0.5897 4.491043283183755 9.212580113279174 11.475312569998636 0 0 0
1108 370 2 -1.1794 1.3983898942379425 6.466398608400519 16.183283262137678 0 0 0
1098 366 1 0.5897 -0.07359374197532276 7.911047364780725 13.888506607318421 0 0 0
1128 376 1 0.5897 6.128677445314846 6.881213348001474 13.006005564524314 0 0 0
1658 553 1 0.5897 0.33911473104297857 9.90058326240205 21.156959943761166 1 0 0
1587 529 1 0.5897 4.862553382009558 11.412463561389693 17.861531124634517 0 0 0
1579 527 2 -1.1794 4.916699463848794 9.604376473313259 18.058558235838994 0 0 0
1561 521 2 -1.1794 4.70733010505667 7.9240035628639 21.453677781351487 0 0 0
1562 521 1 0.5897 4.626154758024529 7.109705813741984 21.950125768655987 0 0 0
1563 521 1 0.5897 3.989359784187137 7.8922706496937245 20.821532310565182 0 0 0
1564 522 2 -1.1794 3.108624805965504 7.860173767446858 19.270123020194248 0 0 0
1565 522 1 0.5897 2.2125146358819765 7.52619139123918 19.308929734497006 0 0 0
1566 522 1 0.5897 3.5962076346144607 7.184791306644435 18.798708309784026 0 0 0
1589 530 1 0.5897 1.0563085492357085 7.092575341842408 22.121701520448454 0 0 0
1570 524 2 -1.1794 3.452039099228309 10.809954268117028 20.98898129872078 0 0 0
1571 524 1 0.5897 3.1683579093180163 10.945995082105725 20.08501201903023 0 0 0
1572 524 1 0.5897 4.406199771175664 10.75722273119273 20.9356750762027 0 0 0
1584 528 1 0.5897 2.0434289093666638 10.400263169349957 18.134332227113845 0 0 0
1573 525 2 -1.1794 1.666543298096296 8.777546028130534 22.168881589202137 0 0 0
1467 489 1 0.5897 5.508490401438277 6.377737766485462 18.35328353486188 0 0 0
1588 530 2 -1.1794 1.0669062534900347 6.137860261798382 22.18890933593849 0 0 0
1575 525 1 0.5897 2.3127168319876654 9.17745350966479 21.586962912777054 0 0 0
1581 527 1 0.5897 5.698795786736616 9.124517998187606 18.330826322092 0 0 0
1582 528 2 -1.1794 2.073088228414471 11.185692135796383 18.68054597656674 0 0 0
1583 528 1 0.5897 1.218204151240648 11.211658073185193 19.110156436596938 0 0 0
1580 527 1 0.5897 4.191634856039428 9.135460271721023 18.47144794004089 0 0 0
1657 553 2 -1.1794 -0.030173422756365767 10.550791857706008 20.559489847517185 1 0 0
1709 570 1 0.5897 0.7086390762952003 11.911553515040605 22.156013211212162 0 0 0
1576 526 2 -1.1794 0.38783392789961574 7.384546439145862 19.072371251983533 0 0 0
1465 489 2 -1.1794 4.672096009532187 6.222019705826804 17.914798017516205 0 0 0
1710 570 1 0.5897 2.167576138898067 11.97569211267127 21.757446704281108 0 0 0
1577 526 1 0.5897 0.1924762625834442 8.244042691094432 18.69924804582333 0 0 0
1585 529 2 -1.1794 4.704325813762183 12.356323702609624 17.847163566121722 0 0 0
1708 570 2 -1.1794 1.547881579611152 12.29212558847387 22.414680161062172 0 0 0
141 47 1 0.5897 4.681256626592232 9.298762505161681 22.817216643367676 0 0 -1
389 130 1 0.5897 1.8165229538364176 18.429250714559725 4.66482999245313 0 0 0
147 49 1 0.5897 5.456940982260964 12.634087385870991 1.069279574108104 0 0 0
241 81 2 -1.1794 4.672112119952416 14.119774585938021 4.526991365782798 0 0 0
260 87 1 0.5897 4.650061610998717 16.692094615599284 0.8934204498763579 0 0 0
243 81 1 0.5897 3.9370901035165202 14.070027791041474 3.9159624359684058 0 0 0
244 82 2 -1.1794 2.8498146705048764 13.859893383721223 2.3342360983533847 0 0 0
245 82 1 0.5897 1.9409623544083812 14.15979365596579 2.3243385117508457 0 0 0
246 82 1 0.5897 3.348545010884374 14.593692095569123 1.9751981498623654 0 0 0
254 85 1 0.5897 0.7512465503674693 15.540906729702481 4.4023806768887415 0 0 0
250 84 2 -1.1794 3.095083941833988 17.285933145124847 3.6725333478982263 0 0 0
251 84 1 0.5897 2.5318639662671822 17.154487032150087 2.909892666964698 0 0 0
252 84 1 0.5897 3.982156030347002 17.141506219236582 3.3434261817178594 0 0 0
247 83 2 -1.1794 5.993015132181223 17.177746302820164 3.675225809101367 0 0 0
253 85 2 -1.1794 1.5530918890569814 15.317562773645491 4.874869347445951 0 0 0
256 86 2 -1.1794 0.19099399200149292 13.969963103280085 2.358496650399492 0 0 0
261 87 1 0.5897 4.6733452961072075 15.37127038121182 0.15417041218688335 0 0 0
259 87 2 -1.1794 4.440917399481871 15.763703620173226 0.9956641142583875 0 0 0
255 85 1 0.5897 2.2295228812349013 15.85976148852054 4.469223955655072 0 0 0
262 88 2 -1.1794 1.339340609963108 16.922468324542383 1.5212964491207923 0 0 0
263 88 1 0.5897 1.5069188472120467 16.36115945935481 0.7643372096288531 0 0 0
264 88 1 0.5897 1.1847586268659596 17.78984458864041 1.1472947195323404 0 0 0
242 81 1 0.5897 4.445723066054839 13.505548854669684 5.225278419402102 0 0 0
269 90 1 0.5897 1.685329935972437 13.206163563335657 4.649974302929679 0 0 0
288 96 1 0.5897 5.630455936566571 14.552762567512634 1.8459201985154667 0 0 0
146 49 1 0.5897 3.9526934877348285 12.772696617536225 1.1665380136840515 0 0 0
265 89 2 -1.1794 4.6756655532007025 18.52142948501081 0.8872603256856575 0 0 0
339 113 1 0.5897 -0.04634139460206212 17.54862960397266 4.041691896355469 1 0 0
287 96 1 0.5897 5.756337364396723 13.947170909013169 3.2276201852591146 0 0 0
258 86 1 0.5897 -0.08688271444083952 13.13129139229337 1.9903599498042452 0 0 0
338 113 1 0.5897 0.01745986939955463 16.767074329473434 2.7467883241426896 1 0 0
627 209 1 0.5897 5.090316245112614 12.753188703229048 7.222215501498441 0 0 0
721 241 2 -1.1794 4.534023080094022 13.857544310328045 10.535434092715915 0 0 0
722 241 1 0.5897 3.727761496066059 13.964891063400898 10.03095591797705 0 0 0
733 245 2 -1.1794 1.496282271893025 15.444932597622595 10.78713654205166 0 0 0
724 242 2 -1.1794 2.638866272757798 14.407539039943398 8.148043138545955 0 0 0
725 242 1 0.5897 3.2320082744960223 15.028688077596817 7.7256033192609666 0 0 0
726 242 1 0.5897 2.901454950841235 13.553539265219639 7.804752161950599 0 0 0
727 243 2 -1.1794 5.856450932712915 16.702548465803297 9.63774644173526 0 0 0
728 243 1 0.5897 4.935798309306207 16.886671467429622 9.451855423047936 0 0 0
730 244 2 -1.1794 3.0869442454916407 17.108565673483607 9.394587517123123 0 0 0
731 244 1 0.5897 2.4781232170252423 17.314962378721418 8.685472865122419 0 0 0
732 244 1 0.5897 2.684631265412971 16.368104345389114 9.84842759287717 0 0 0
743 248 1 0.5897 1.1823015395413352 17.7361121263 6.465497966594369 0 0 0
749 250 1 0.5897 1.3475311657249818 13.653234259644904 10.698549312006481 0 0 0
735 245 1 0.5897 0.8473239565454128 16.067248209752236 10.459020353240506 0 0 0
737 246 1 0.5897 0.9019594578157055 14.311373225755998 7.8826335680660575 0 0 0
739 247 2 -1.1794 4.742611058847973 15.811427043006768 6.8470228750940585 0 0 0
740 247 1 0.5897 4.553578748404158 15.369295729130933 6.01942006523382 0 0 0
742 248 2 -1.1794 1.2303752492611408 17.09059307907615 7.170581535266197 0 0 0
723 241 1 0.5897 5.228291880110826 13.837991731332384 9.876871671878662 0 0 0
744 248 1 0.5897 1.4654171153126725 16.273064197989076 6.731816718263076 0 0 0
741 247 1 0.5897 4.481063368884983 16.720128285050333 6.698833934237591 0 0 0
736 246 2 -1.1794 -0.03404491768069601 14.135081056151476 7.78846017597558 0 0 0
750 250 1 0.5897 0.7958013483817068 12.375463554046986 10.103166456190262 0 0 0
748 250 2 -1.1794 1.5017713157081514 12.709549007034024 10.656414456783926 0 0 0
768 256 1 0.5897 5.954708731696773 14.804887905486492 7.901124183229144 0 0 0
818 273 1 0.5897 -0.037720946961080415 17.099003672669486 8.640809360898995 1 0 0
745 249 2 -1.1794 4.359410846786096 18.423353922000462 6.546319481777757 0 0 0
625 209 2 -1.1794 4.2550066362218315 12.50598608027317 6.825698723925255 0 0 0
870 290 1 0.5897 2.5172153126477905 18.255891244489913 10.570098698709165 0 0 0
1211 404 1 0.5897 2.885483162341503 18.035995265626074 15.703364456016686 0 0 0
1201 401 2 -1.1794 4.218485632582741 14.081533654626412 15.880417195297623 0 0 0
1227 409 1 0.5897 4.717310207176241 17.609749257731536 12.563112089404335 0 0 0
1203 401 1 0.5897 4.48034111519416 13.434140275761838 16.534971253118968 0 0 0
1204 402 2 -1.1794 2.7609575570928038 14.189202968774765 13.467059016717 0 0 0
1205 402 1 0.5897 3.0740961568952443 14.305262255528842 14.364065786097408 0 0 0
1206 402 1 0.5897 3.148570554905636 13.3615370500582 13.182756869371467 0 0 0
1213 405 2 -1.1794 1.7520905319866271 15.389782707569104 16.754452675906656 0 0 0
1210 404 2 -1.1794 3.3081324411471567 17.223477340860025 15.425355594462205 0 0 0
1229 410 1 0.5897 1.6499307856458134 13.62027355175009 16.465869273657106 0 0 0
1212 404 1 0.5897 4.223413307238887 17.465183467034276 15.284313001215297 0 0 0
1221 407 1 0.5897 4.907247081387192 15.525633065994382 11.744323641739175 0 0 0
1220 407 1 0.5897 3.821669307771785 15.368374865553923 12.787564737107848 0 0 0
1219 407 2 -1.1794 4.631574728394013 15.844139732377513 12.603801744236641 0 0 0
1215 405 1 0.5897 2.4770358491448867 15.78628056155543 16.271414327733112 0 0 0
1218 406 1 0.5897 1.065317965985218 13.85628352490574 13.50266659395416 0 0 0
1216 406 2 -1.1794 0.10984949815880354 13.80098979366723 13.510881051708278 0 0 0
1247 416 1 0.5897 5.717802402993268 14.682684563252257 13.537922636295791 0 0 0
1222 408 2 -1.1794 1.6177353294470413 17.15327455895121 13.223486859329713 0 0 0
1223 408 1 0.5897 1.7205402871852058 17.867200162356575 12.594306686047634 0 0 0
1224 408 1 0.5897 2.424124034249405 17.169560206161943 13.738818079562844 0 0 0
1214 405 1 0.5897 0.9666280669772152 15.780505868454538 16.371750174568994 0 0 0
1202 401 1 0.5897 4.9534820871425564 14.114692022978021 15.26822902621718 0 0 0
1246 416 2 -1.1794 6.1115483985947785 13.927722161448756 13.975074860481659 0 0 0
1248 416 1 0.5897 5.799132645773016 13.172291292868573 13.477244794774416 0 0 0
1207 403 2 -1.1794 6.072042860778611 17.413996852368694 14.9979534853625 0 0 0
1106 369 1 0.5897 4.238497132222638 12.449780719326878 11.85539380542687 0 0 0
1298 433 1 0.5897 0.34634405947931296 16.906478240492316 14.461208693483577 1 0 0
734 245 1 0.5897 1.6842070295603928 15.741324748948385 11.67763100794481 0 0 0
1225 409 2 -1.1794 4.512404971217637 18.510916927212627 12.31407106110798 0 0 0
1228 410 2 -1.1794 1.5120650518963636 12.673121255965846 16.466690297064623 0 0 0
1700 567 1 0.5897 4.321948715509636 15.589896697086232 17.117202987204628 0 0 0
1230 410 1 0.5897 1.79953587693036 12.389526615427817 17.3344882201863 0 0 0
1707 569 1 0.5897 4.533821278559881 17.881616359249197 17.635100994096163 0 0 0
1681 561 2 -1.1794 4.487709060172504 14.051569530520304 21.46953639377236 0 0 0
1682 561 1 0.5897 5.359107403998589 13.947800184161714 21.08748824426175 0 0 0
1586 529 1 0.5897 5.475456912590318 12.735367957283326 18.268777298813994 0 0 0
1684 562 2 -1.1794 3.058903662993991 13.969379713397768 19.38732513811872 0 0 0
1685 562 1 0.5897 3.4537936639670046 13.359890885709572 18.763859269440765 0 0 0
1686 562 1 0.5897 3.6187532533753894 13.916726538189145 20.161867228758823 0 0 0
1699 567 2 -1.1794 4.44061844739842 15.919970903511572 18.00777352560008 0 0 0
1689 563 1 0.5897 4.8020721935408694 17.233866244573857 20.67624923468935 0 0 0
1690 564 2 -1.1794 3.0957452209623018 17.06878468430409 20.931823841977945 0 0 0
1691 564 1 0.5897 2.910868618631432 16.264274414888252 21.41629179636149 0 0 0
1692 564 1 0.5897 2.512487637114084 17.031890110094913 20.173817527695988 0 0 0
1693 565 2 -1.1794 1.2271520934316187 15.113444412347995 22.197580697170665 0 0 0
1695 565 1 0.5897 1.2424368387342943 14.156782714971381 22.171616899497707 0 0 0
1697 566 1 0.5897 1.2719219403431652 13.717605397255788 19.627308482931696 0 0 0
1694 565 1 0.5897 0.5476108359407306 15.359703877079792 21.570143394783194 0 0 0
1687 563 2 -1.1794 5.759027256854393 17.250203129831448 20.671909829280892 0 0 0
1703 568 1 0.5897 1.552868086052759 16.62349755904035 17.92090001010822 0 0 0
1701 567 1 0.5897 3.9264970110883137 15.325859628092633 18.554421910046095 0 0 0
1702 568 2 -1.1794 1.444211119512743 17.263565848002404 18.624206925212206 0 0 0
1683 561 1 0.5897 4.394314161661621 13.304562575169882 22.06063379988848 0 0 0
1704 568 1 0.5897 1.4002369858220496 18.107896611013828 18.175554439276198 0 0 0
1728 576 1 0.5897 6.022713916417484 14.825559391346903 18.683833529902202 0 0 0
1696 566 2 -1.1794 0.330958146846214 13.603516216570558 19.494557358354804 0 0 0
1828 610 2 -1.1794 0.91644763809083 18.49210805891382 21.8690820844855 0 0 0
1830 610 1 0.5897 1.6333068265099806 18.002817442025954 21.465610380563234 0 0 0
1688 563 1 0.5897 5.995753996628744 17.195836482301598 19.74608460457317 0 0 0
1698 566 1 0.5897 0.08501223013668799 14.311507559510737 18.89925164739936 0 0 0
1778 593 1 0.5897 -0.07769822624862144 16.607380157616124 19.98755066756157 1 0 0
367 123 2 -1.1794 6.076864834634022 23.396368310559566 3.7617089909585504 0 0 0
381 127 1 0.5897 5.073334514386647 21.653620160945604 1.1333988989297912 0 0 0
361 121 2 -1.1794 4.376864218421869 19.942851153979422 4.1287633746697425 0 0 0
362 121 1 0.5897 3.75552988981545 19.745910666781036 3.4278563290395985 0 0 0
458 153 1 0.5897 0.16220809235170397 23.796163079522245 4.0554307525111515 1 0 0
364 122 2 -1.1794 2.6769220044951796 19.88787061608377 1.9175179916112342 0 0 0
365 122 1 0.5897 2.8458614552238513 20.586724727217064 1.285696650978546 0 0 0
366 122 1 0.5897 1.7253489143407044 19.785124871284072 1.9129252454042533 0 0 0
407 136 1 0.5897 5.935523608001391 19.727471501540073 1.6018279873958936 0 0 0
370 124 2 -1.1794 3.4474645640233845 23.051125263113267 3.2928913611906903 0 0 0