LAMMPS data file via write_data, version 30 Jul 2021, timestep = 20750000

864 atoms
2 atom types
576 bonds
1 bond types
288 angles
1 angle types

0.5564841460730197 17.65108825392964 xlo xhi
1.7469960885664886 21.882181711437795 ylo yhi
0.6789093584117172 21.53428644158052 zlo zhi

Masses

1 1.00794
2 15.9994

Pair Coeffs # lj/cut/tip4p/long/omp

1 0 0
2 0.21084 3.1668

Bond Coeffs # harmonic/omp

1 450 0.9572

Angle Coeffs # harmonic/omp

1 55 104.52

Atoms # full

71 1 1 0.5897 8.51914809429207 4.790260754616104 1.6579883540522307 14 -3 0
699 1 1 0.5897 3.9564658470174314 4.4837105302368565 5.547023802230229 -2 6 -3
697 1 2 -1.1794 4.139851812101264 3.560886387262881 5.370730114151993 -2 6 -3
846 1 1 0.5897 2.0199568440848257 4.092682322163771 3.2050346714179523 -6 -3 5
844 1 2 -1.1794 2.628444313618941 3.396556082476036 2.9570522567559356 -6 -3 5
322 1 2 -1.1794 4.191601166711509 6.304427757022821 5.602989031088628 7 2 0
810 1 1 0.5897 6.345175833735576 3.588973264993277 3.497936836249855 -1 -3 1
476 1 1 0.5897 5.194165167836262 6.4302903116966466 2.8494133662893883 5 -4 -4
44 1 1 0.5897 8.65113907382081 3.4210456353155596 3.8408847434087847 -3 7 0
160 1 2 -1.1794 2.7875923270346177 6.367315508857222 1.0291747576577683 2 5 2
845 1 1 0.5897 3.167478830210388 3.2600991063854554 3.736253841513294 -6 -3 5
809 1 1 0.5897 6.295578045328092 2.0933999262966116 3.727927419249382 -1 -3 1
611 1 1 0.5897 2.3539919979871673 2.9383748993881724 1.241032720180466 4 -1 -2
103 1 2 -1.1794 5.210736012716213 4.621900953338279 2.505280758435253 3 -3 2
70 1 2 -1.1794 8.679520846777837 3.8860064894551662 1.3879495295101687 14 -3 0
104 1 1 0.5897 5.464429249363855 4.224140558486548 1.6723687428126743 3 -3 2
105 1 1 0.5897 4.283288715698628 4.405503021523322 2.601969420480536 3 -3 2
808 1 2 -1.1794 6.8329610001353815 2.8676406494983873 3.8955098955207625 -1 -3 1
161 1 1 0.5897 2.336787225544792 5.99997193531944 1.7895373703137945 2 5 2
313 1 2 -1.1794 8.226129211230694 6.460634824075626 2.0337852442346116 0 -5 -1
381 1 1 0.5897 1.1234913455139615 5.929128185687624 4.2895181759747 4 -3 -1
379 1 2 -1.1794 0.9698207734240452 5.453052263580108 3.473394653011414 4 -3 -1
698 1 1 0.5897 5.081524499135912 3.531429940895623 5.201319128093608 -2 6 -3
324 1 1 0.5897 4.562919506751754 6.714287819778093 4.821676750875495 7 2 0
377 1 1 0.5897 8.38948489762819 1.8586120966842952 1.5049655952603367 9 8 0
121 1 2 -1.1794 1.4773029432216807 6.439125271166375 5.832141895019348 3 -3 2
122 1 1 0.5897 2.4240674488438985 6.5278301649825705 5.7221596935616335 3 -3 2
755 1 1 0.5897 1.070322880235699 4.906166527226676 8.442992876235913 -7 -5 -3
338 1 1 0.5897 8.496433598904954 3.3433820975441053 8.1351448425334 -5 -5 -3
819 1 1 0.5897 1.4380552989693296 2.769741875464063 8.529786727844325 -2 -2 1
745 1 2 -1.1794 6.7551223265753375 6.171364307167217 9.71874341960553 0 7 -8
769 1 2 -1.1794 7.284580628272156 3.6604644569975298 6.678608472940245 4 1 0
586 1 2 -1.1794 4.863333653056554 4.478057340446612 8.06632265151758 2 5 4
588 1 1 0.5897 5.473136824443268 4.365829813764421 7.337007383832266 2 5 4
165 1 1 0.5897 9.080189052539332 3.9442976361203135 10.796127204367558 -9 2 -4
702 1 1 0.5897 4.062297282911885 2.4969241713196233 6.935382219292036 8 -2 0
773 1 1 0.5897 3.495139053999227 5.899619793526942 9.006216769085652 2 1 3
818 1 1 0.5897 2.3799806002358475 2.3761912424938423 9.647816834347354 -2 -1 1
756 1 1 0.5897 1.4867278677776015 5.30093534463609 7.041963019450611 -7 -5 -3
746 1 1 0.5897 7.272068276991868 5.571399784845731 10.25644336811681 0 7 -8
805 1 2 -1.1794 8.594680413125621 6.012346718783038 6.276949406132385 5 -3 -5
817 1 2 -1.1794 1.4789036112904541 2.2673751999687757 9.34358949482108 -2 -1 1
587 1 1 0.5897 5.335984249969147 5.027100012026205 8.692017198645706 2 5 4
356 1 1 0.5897 1.4310792818171623 3.297927772640556 6.262135646482663 8 1 1
771 1 1 0.5897 7.592241600515078 4.5429270425551245 6.471365704104438 4 1 0
754 1 2 -1.1794 1.7385337825794178 4.74234568339569 7.777425474676822 -7 -5 -3
770 1 1 0.5897 7.53887310101906 3.1335276109030694 5.9209751693266925 4 1 0
154 1 2 -1.1794 3.9084012370261036 2.965560474699252 10.164795494514356 5 6 -6
339 1 1 0.5897 8.784285945252437 2.256330306852708 9.148857188945142 -5 -5 -3
155 1 1 0.5897 4.184123619991237 3.326947036631 9.322359853744166 5 6 -6
156 1 1 0.5897 4.123047868717258 2.0343765547364905 10.108307080686059 5 6 -6
774 1 1 0.5897 2.998936885164264 6.266019172069376 10.38883337966111 2 1 3
355 1 2 -1.1794 0.7683562746826317 2.638655746611653 6.0560468762095425 8 1 1
772 1 2 -1.1794 3.3178354462725514 6.6508175932439215 9.572412106970253 2 1 3
747 1 1 0.5897 7.403223262040976 6.646497337875548 9.198543738708047 0 7 -8
807 1 1 0.5897 8.61737434883855 6.599998749541458 7.032255328545647 5 -3 -5
323 1 1 0.5897 4.616055300029354 6.75328940602208 6.334206832762071 7 2 0
491 1 1 0.5897 2.369088084262316 4.098657011767603 11.018063796316762 0 3 1
388 1 2 -1.1794 4.212969305614775 3.818895190701456 15.003491783411608 1 4 8
661 1 2 -1.1794 6.84328062964022 1.9387443393047754 12.912444741433672 -8 -6 4
695 1 1 0.5897 7.852156840234988 4.002097691888743 15.89039958611617 -2 -3 -3
171 1 1 0.5897 3.155054767647728 6.612975338000402 15.331546658295183 0 5 -3
389 1 1 0.5897 4.3537322941122865 3.9191967950775526 15.945015418805125 1 4 7
237 1 1 0.5897 4.92792191544051 4.170727956567046 11.704534325283564 -4 -6 -2
235 1 2 -1.1794 4.973888146079614 4.796119708037847 12.427784469035194 -4 -6 -2
134 1 1 0.5897 6.4016279088840315 6.047837685790351 13.26026473898483 -2 -7 -1
169 1 2 -1.1794 2.828520018149145 6.2980323985962565 16.174460759868353 0 5 -3
236 1 1 0.5897 4.714969277486121 4.291052656757445 13.198622932254153 -4 -6 -2
694 1 2 -1.1794 7.751976825530269 3.8529990283374422 14.950159299989737 -2 -3 -3
390 1 1 0.5897 3.8803333387137506 2.9268018607244435 14.90425011830132 1 4 8
478 1 2 -1.1794 1.5359155789384888 3.4494496064031033 14.260048218409015 -3 7 -5
164 1 1 0.5897 7.953517755677987 3.97579403064622 11.806933050802893 -9 2 -4
163 1 2 -1.1794 8.475811741871478 4.54101765170885 11.237684150124348 -9 2 -4
133 1 2 -1.1794 7.216725065772745 6.350149298292376 13.660934704311993 -2 -7 -1
480 1 1 0.5897 2.073152177829753 3.8958046522105176 14.914615566768633 -3 7 -5
490 1 2 -1.1794 2.0752678466296617 4.954619549369751 11.330059683624759 0 3 1
662 1 1 0.5897 5.901781150720505 1.7678072695704012 12.886471709758313 -8 -6 4
479 1 1 0.5897 2.1512466848911007 2.890993502733931 13.784853755362587 -3 7 -5
663 1 1 0.5897 6.981133269198393 2.3973970950573036 13.74130370086961 -8 -6 4
696 1 1 0.5897 7.230743764883838 4.595108436011998 14.643691921236318 -2 -3 -3
135 1 1 0.5897 7.868314905917482 6.277692363143418 12.963420998140933 -2 -7 -1
513 1 1 0.5897 7.767999159696887 6.6982167640181105 15.663228489847667 3 1 3
302 1 1 0.5897 3.5424701287150517 6.077219722587221 12.929136516967569 -2 6 4
492 1 1 0.5897 1.1403481030635747 4.839938745282404 11.500628204527063 0 3 1
303 1 1 0.5897 2.1542182283212465 6.679679793286234 12.885533459516983 -2 6 4
301 1 2 -1.1794 3.004568109497171 6.768025630941094 13.316130805510973 -2 6 4
612 1 1 0.5897 3.2806257828520673 3.013786092953805 20.901518947458236 4 -1 -3
150 1 1 0.5897 7.761357262948976 3.949979903224398 18.376812322604977 -2 3 3
297 1 1 0.5897 4.933135818873634 4.818704992319099 17.75673549128976 4 3 -2
286 1 2 -1.1794 7.409030351963966 4.674847128886794 19.99380528566502 3 0 1
656 1 1 0.5897 3.77443056127624 2.782249654986378 18.23806080857637 -7 6 3
797 1 1 0.5897 8.512673935012518 5.794831649585623 19.45214973208487 -2 -2 -6
512 1 1 0.5897 7.128585946578722 6.141585117476746 16.91758241889145 3 1 3
657 1 1 0.5897 2.6800840645927795 3.6440624152901795 17.64495221090059 -6 6 3
28 1 2 -1.1794 5.0135856136569075 3.3812097976070326 21.036115938265766 -7 5 7
820 1 2 -1.1794 1.4184019027960526 5.108940794284251 19.918760920714455 -2 2 6
30 1 1 0.5897 5.626166586812273 3.5841402708980077 20.32907071251808 -7 5 7
288 1 1 0.5897 6.722402716412745 5.229700903124542 20.3639266398051 3 0 1
149 1 1 0.5897 8.507757628663917 2.6953687879553367 17.97564053629909 -2 3 3
610 1 2 -1.1794 2.3756573254231905 2.820765120916044 21.146664648711003 4 -1 -3
655 1 2 -1.1794 3.5647659930821636 3.6874574322232965 18.007947659342648 -7 6 3
822 1 1 0.5897 1.5261843506915493 4.216565321110783 20.24803194379288 -2 2 6
287 1 1 0.5897 7.873811096626214 4.327963522366149 20.755358973315076 3 0 1
148 1 2 -1.1794 8.352317437368722 3.601554684526893 17.709221515881914 -2 3 3
821 1 1 0.5897 1.038118361795751 4.998886295958707 19.047210927656394 -2 2 6
295 1 2 -1.1794 5.465851273758336 5.602560825940454 17.622210198623534 4 3 -2
162 1 1 0.5897 2.4534071633278134 5.8648085096265525 21.141497086359074 2 5 1
296 1 1 0.5897 5.567890721905651 5.97649928495453 18.497531362815906 4 3 -2
29 1 1 0.5897 5.163602582785349 2.4548783052663232 21.22516672641671 -7 5 7
511 1 2 -1.1794 7.932881766459696 6.547469019675765 16.594038410498335 3 1 3
643 1 2 -1.1794 1.1297069128050152 4.335364947976101 17.01008625157904 4 -4 -2
796 1 2 -1.1794 8.95329882139047 6.627766804801887 19.283644858967186 -2 -2 -6
645 1 1 0.5897 1.662021676032093 5.036269409200398 16.63366930325552 4 -4 -2
170 1 1 0.5897 3.613093540981397 6.019467966057644 16.64686512266121 0 5 -3
314 1 1 0.5897 7.7673334966642695 7.116613642169045 1.5088670361634862 0 -5 -1
570 1 1 0.5897 2.909900070338207 9.156425417416667 5.009074001069199 4 5 1
330 1 1 0.5897 3.0838349357427752 9.630155106524331 2.5365739423487215 1 4 0
252 1 1 0.5897 5.063536574442322 10.41290846479379 1.657301603232367 -2 -12 4
569 1 1 0.5897 3.7973090684668116 10.292982539967978 5.470441105944049 4 5 1
315 1 1 0.5897 9.071825077454715 6.8619979307445815 2.2338456415805643 0 -5 -1
307 1 2 -1.1794 6.811879096091297 10.453416216548879 4.407538832391145 1 1 -7
425 1 1 0.5897 1.7535016926616287 8.05648271351772 3.1828760912476994 15 0 2
749 1 1 0.5897 8.977941706352503 8.49796530367501 4.932172534493904 -2 6 0
328 1 2 -1.1794 3.2745111524529054 10.223936319085235 1.810360547626588 1 4 0
309 1 1 0.5897 7.109391821810772 9.590927539946097 4.697215506121425 1 1 -7
123 1 1 0.5897 1.1442912087672892 7.334874540890108 5.776747553161957 3 -3 2
568 1 2 -1.1794 3.1655603925298847 9.648410166307897 5.7893992196328545 4 5 1
308 1 1 0.5897 6.25200970068354 10.765446996269091 5.118522273172365 1 1 -7
251 1 1 0.5897 6.206177815499896 10.728640334801309 2.5989972550740217 -2 -12 4
370 1 2 -1.1794 0.6369995618962311 11.004156386807264 4.324527666499776 8 2 -4
424 1 2 -1.1794 2.535071249436078 8.355776792733865 3.647522464485736 15 0 2
250 1 2 -1.1794 5.955716327358419 10.75932231743963 1.6756020611733407 -2 -12 4
426 1 1 0.5897 3.2577482958262456 7.890641421288995 3.2259768377423717 15 -1 2
687 1 1 0.5897 8.272792679931666 11.486974491171738 3.2211271650207665 5 -10 -8
291 1 1 0.5897 7.760174580989275 6.912707653822274 4.990968491183583 -12 -3 -3
372 1 1 0.5897 0.9485983341526867 10.28976961858502 4.880319721451854 8 2 -4
329 1 1 0.5897 2.897152223851307 9.793597808305774 1.0430710721208363 1 4 0
477 1 1 0.5897 5.8468837734686785 7.638854351176861 3.4862164739140344 5 -4 -4
289 1 2 -1.1794 7.458709730938058 7.5477925941069355 4.341279205522932 -12 -3 -3
475 1 2 -1.1794 5.053288874149768 7.359870383592918 3.029375921674512 5 -4 -4
42 1 1 0.5897 1.0327899183431715 8.376852725503067 1.1703569155529754 -5 -1 5
290 1 1 0.5897 7.7945481397148075 7.216761608848653 3.508245334411228 -12 -3 -3
176 1 1 0.5897 3.865244788764436 10.11985480334059 8.96165739073485 -4 -6 6
653 1 1 0.5897 1.4987923595115378 8.925560648119152 8.460290204365586 -4 -2 5
676 1 2 -1.1794 7.162749518858963 9.784944355790476 7.513160082131216 10 6 -2
279 1 1 0.5897 4.115321619369848 8.476055599893298 7.144914800170841 2 -1 1
654 1 1 0.5897 2.326862256593352 9.618892018968163 7.399302413977556 -4 -2 5
675 1 1 0.5897 2.1620200921765265 9.99766803757654 10.43097155456046 -2 -2 -5
177 1 1 0.5897 5.046697447353747 9.656384344700596 9.787226157222134 -4 -6 6
652 1 2 -1.1794 2.0422948531983147 9.699030971028115 8.309748862614287 -4 -2 5
142 1 2 -1.1794 8.63052549922453 7.604217619734212 8.433670574807644 6 3 6
91 1 2 -1.1794 7.586493716054675 11.095475700735872 9.809384230175384 0 -6 -4
277 1 2 -1.1794 4.8185318162546205 8.1458085730507 7.704168298207579 2 -1 1
143 1 1 0.5897 8.219482701792833 8.396073794050292 8.08679431467262 6 3 6
678 1 1 0.5897 7.357802181637121 10.277501139477069 8.310438626424393 10 6 -2
278 1 1 0.5897 4.369156892205863 7.797061850748827 8.474087211211149 2 -1 1
677 1 1 0.5897 6.277837444620568 9.446726730126162 7.650454253218865 10 6 -2
175 1 2 -1.1794 4.4577231604817875 10.400103715649998 9.659374362711324 -4 -6 6
205 1 2 -1.1794 0.744742794197769 7.519025485598521 9.10343461275277 -7 7 -3
835 1 2 -1.1794 5.003329851100057 11.746906758960067 6.299138978320712 0 2 -5
501 1 1 0.5897 6.146629134063086 7.863275404017879 10.768857344561402 0 -6 -2
92 1 1 0.5897 7.915172737456065 11.125181806327214 10.707943635910988 0 -6 -4
575 1 1 0.5897 1.5395684863440433 11.301661520558119 7.930668325897431 1 4 -1
207 1 1 0.5897 1.5948360408592046 7.115668966716381 9.279581044864504 -7 7 -3
673 1 2 -1.1794 1.7690654345533021 10.143865724141245 11.291526591169001 -2 -2 -5
56 1 1 0.5897 8.965158287849547 8.51341819092162 11.776254572699123 -2 0 -4
257 1 1 0.5897 0.6771789627034818 9.000070679076751 15.796144579485249 5 -1 3
183 1 1 0.5897 6.545852645205145 7.9443822799856605 14.313547381990638 -5 2 -3
637 1 2 -1.1794 4.009498031483196 9.340212172927409 12.88793540729266 -7 -7 4
639 1 1 0.5897 4.762720914071377 9.10412686019225 12.346428729216901 -7 -7 4
439 1 2 -1.1794 7.968521834481001 10.936752230741108 16.023564109981454 -4 3 -3
84 1 1 0.5897 0.8174509750808617 11.30746713357159 14.67617892224346 -5 3 -6
182 1 1 0.5897 5.498882578699499 9.03743260698882 14.277721644265288 -4 2 -3
284 1 1 0.5897 2.7030491831033028 10.760261350551653 15.209342912562086 9 -5 -3
181 1 2 -1.1794 6.249756159722483 8.724610531101787 14.782462937688726 -5 2 -3
283 1 2 -1.1794 3.4963713208081444 10.893180269574808 15.728276621304785 9 -5 -3
82 1 2 -1.1794 0.7855287614906972 10.360085485825167 14.54265748573894 -5 3 -6
499 1 2 -1.1794 6.0347515627653365 8.668984618609736 11.273470884993296 0 -6 -2
55 1 2 -1.1794 8.47958627884573 9.19658352481175 12.23866692684101 -2 0 -4
441 1 1 0.5897 8.06192487797908 10.077221864039604 15.612680881659644 -4 3 -3
500 1 1 0.5897 6.853866432424253 8.763277658562373 11.75977107222674 0 -6 -2
638 1 1 0.5897 3.589791576028714 8.504606739105963 13.092693589870555 -7 -7 4
674 1 1 0.5897 2.5069769081105897 10.113771549292675 11.900540771388377 -2 -2 -5
245 1 1 0.5897 0.9701115161487774 8.805702020458963 11.784116409893729 -6 6 2
833 1 1 0.5897 4.801452872832908 11.69784637788066 12.79189514203037 7 -3 -1
440 1 1 0.5897 7.1941899440003985 11.317842509885631 15.60936805965626 -4 3 -3
129 1 1 0.5897 4.927020635592925 11.472266059084367 15.063130528769468 -3 0 -9
57 1 1 0.5897 8.786834150420122 9.138832361616476 13.143436998093145 -2 0 -4
285 1 1 0.5897 3.384357310108899 11.759217194921414 16.120424017160467 9 -5 -3
834 1 1 0.5897 4.340425942816518 11.402803085541558 11.380312916313931 7 -3 -1
194 1 1 0.5897 3.860016440954811 8.23542946848404 18.23828868081379 0 -7 -3
800 1 1 0.5897 5.968361705718822 7.484549769899119 20.659296362443293 1 0 5
812 1 1 0.5897 5.5194412013051375 11.329358637774543 19.15801684349799 -4 9 2
193 1 2 -1.1794 2.965480916975781 8.035628148453169 18.514350996995645 0 -7 -3
615 1 1 0.5897 8.235650852710513 8.202788781199818 18.72284384198538 -10 4 6
522 1 1 0.5897 2.10554406307295 8.856527539807871 19.98734362647003 -5 -5 -4
740 1 1 0.5897 1.015405207041745 11.193608197012365 17.91636519778362 5 2 2
813 1 1 0.5897 4.826941299333779 10.024102369021433 19.48803856634416 -4 9 2
520 1 2 -1.1794 1.6088143136344992 9.292452971829377 20.679846146569027 -5 -5 -4
605 1 1 0.5897 5.662542931497495 8.650515170100553 16.513419677517177 -4 0 -3
811 1 2 -1.1794 4.685601519151848 10.970489678116175 19.461787105061944 -4 9 2
416 1 1 0.5897 7.571587903608537 8.778811458012722 20.398436225819324 4 -2 -1
613 1 2 -1.1794 7.918186390109546 9.103967370530869 18.78138413026295 -10 4 6
614 1 1 0.5897 7.166217391338247 9.132443651284413 18.189729259057046 -10 4 5
521 1 1 0.5897 1.0605470943186053 9.927316780202226 20.218680611410683 -5 -5 -4
604 1 2 -1.1794 5.326224006945085 8.88474988835231 17.378482917653912 -4 0 -3
195 1 1 0.5897 2.8783299013352295 7.09172104903621 18.38103796537004 0 -7 -3
606 1 1 0.5897 4.883374327707259 9.72283213861039 17.24495616423941 -4 0 -3
258 1 1 0.5897 1.6348805259411598 8.477180753680358 16.845672578537638 5 -1 3
801 1 1 0.5897 4.7318201229510155 6.785490288716682 21.18311913065454 1 0 5
597 1 1 0.5897 7.47717579625597 11.52305482866187 17.6728803483173 5 -6 4
256 1 2 -1.1794 0.7218509776256267 8.427995011393428 16.562354770805623 5 -1 3
741 1 1 0.5897 0.6228746238815304 9.732961507598475 17.848808340569455 5 2 2
415 1 2 -1.1794 7.222694882713969 8.654367592683574 21.28111074771713 4 -2 -1
799 1 2 -1.1794 5.297868502449709 6.847062917124437 20.413603068948376 1 0 5
417 1 1 0.5897 6.704317900437044 9.441721715407699 21.44749168657682 4 -2 -1
387 1 1 0.5897 8.424432063388089 13.497656340830378 3.5749524494146843 -8 4 2
299 1 1 0.5897 5.8456722976131115 12.548917361280502 1.2107620103478784 -3 1 -2
685 1 2 -1.1794 8.646472471353366 12.078823339477259 2.568128346285901 5 -10 -8
212 1 1 0.5897 3.537576602769331 15.760564504885426 0.9339562707003062 4 -4 5
274 1 2 -1.1794 2.3881631679388486 15.043095736524304 2.2693498473817253 -5 -1 5
325 1 2 -1.1794 0.7454128699776604 12.636987380306419 1.964752672515941 0 1 0
298 1 2 -1.1794 5.557039151523493 13.357625211525335 0.7876273476870059 -3 1 -2
620 1 1 0.5897 5.064297783165427 15.053294414990917 5.083729915246584 -1 -5 7
505 1 2 -1.1794 3.579255017464039 12.827381849544446 3.2658691842972734 6 2 -4
452 1 1 0.5897 6.593610249586379 14.739748378826556 3.6053477759901953 -1 -1 3
275 1 1 0.5897 1.9138494563270716 14.33053985503778 1.8408601742748962 -5 -1 5
506 1 1 0.5897 3.148071591753123 13.637100076329151 2.992452145375735 6 2 -4
453 1 1 0.5897 5.532562513200121 14.477815590360676 2.557654549234764 -1 -1 3
276 1 1 0.5897 1.7612471631024917 15.406776860138507 2.894671093643937 -5 -1 5
689 1 1 0.5897 8.643549798695696 15.686767747375926 1.1391473255262186 -1 -2 6
159 1 1 0.5897 2.4564609219172473 13.035086941163073 4.90393006410663 4 4 -1
451 1 2 -1.1794 5.825886903092669 15.133307086711351 3.190590925460787 -1 -1 3
779 1 1 0.5897 1.2083743319398796 14.904030109798125 4.970559614598463 -2 2 3
385 1 2 -1.1794 8.281507660097729 14.032321557832363 4.356025432841214 -8 4 2
386 1 1 0.5897 8.902890195648842 14.755250239369603 4.268963298991615 -8 4 2
326 1 1 0.5897 1.026595235255467 12.263034205169847 2.7998703282080264 0 1 0
780 1 1 0.5897 1.334262914433296 16.36851865863463 4.607860766248109 -2 2 3
507 1 1 0.5897 3.6194708748192617 12.296470015069707 2.4703531930538807 6 2 -4
778 1 2 -1.1794 0.8423861942927433 15.575463127818416 4.3946761194600095 -2 2 3
157 1 2 -1.1794 2.2945526186093073 13.510049720438499 5.719106120592953 4 4 -1
836 1 1 0.5897 4.880823491489696 12.503156680266995 5.725179000325495 0 2 -5
621 1 1 0.5897 3.8628811508603684 14.424192381301186 5.756891329579029 -1 -5 7
306 1 1 0.5897 2.577134709627168 15.417400347650796 8.759780545970342 9 -6 -10
399 1 1 0.5897 7.574712429986586 15.133418825342897 10.91702684371068 6 1 -6
619 1 2 -1.1794 4.715462414784517 14.817515266813443 5.94342201456068 -1 -5 7
79 1 2 -1.1794 5.578517193290133 13.212715721349102 9.344851938691855 7 3 -3
837 1 1 0.5897 5.28061201436772 12.122349437005424 7.134894536137456 0 2 -5
304 1 2 -1.1794 2.2015136004785347 16.26217479100855 8.511559382671724 9 -6 -10
404 1 1 0.5897 8.639473828385398 16.218333580408252 6.326072581954776 10 -3 -3
10 1 2 -1.1794 7.4916989441926995 14.809090696092296 6.8586540541593415 -4 -3 3
158 1 1 0.5897 1.775346736040209 12.905841166136321 6.249853256048927 4 4 -1
550 1 2 -1.1794 4.841813271506233 16.67455384978514 10.061847450132952 3 3 -5
732 1 1 0.5897 4.685012077449165 16.463482554532085 6.905155631566153 0 -2 -9
608 1 1 0.5897 3.755277882997791 13.392305502637944 9.39203418522126 5 -3 5
80 1 1 0.5897 5.774952753614461 13.702727780873674 10.143361113213547 7 3 -3
609 1 1 0.5897 2.4184075156508618 13.362837644422907 10.101976138302566 5 -3 5
576 1 1 0.5897 1.436240668239504 12.77020021830619 8.28398959393058 1 4 -1
153 1 1 0.5897 8.283727730214057 13.811885698585632 8.013131076973199 1 3 0
12 1 1 0.5897 7.469954017449212 14.48649343646664 5.957649492595251 -4 -3 3
607 1 2 -1.1794 2.8416325049116025 13.661661152060333 9.297007976425618 5 -3 5
93 1 1 0.5897 7.951878149245072 11.876823953392943 9.39423728023687 0 -6 -4
574 1 2 -1.1794 1.098164850806738 12.11215570310338 7.676537784587596 1 4 -1
11 1 1 0.5897 6.578964304583848 14.78074924563306 7.145817180218029 -4 -3 3
551 1 1 0.5897 4.4580904473461125 15.908687377143872 10.48906685851742 3 3 -5
559 1 2 -1.1794 8.63646938186377 16.557591080198048 9.911983757022924 6 2 2
81 1 1 0.5897 5.864988793003874 12.319337286353683 9.534908872660257 7 3 -3
151 1 2 -1.1794 8.847072937052774 13.319080140390833 8.609868974685611 1 3 0
552 1 1 0.5897 4.4849272009223125 16.657940415694647 9.17377573460357 3 3 -5
305 1 1 0.5897 2.735908806576266 16.554799689401115 7.773220553071844 9 -6 -10
281 1 1 0.5897 0.6717128214728021 13.110408577993208 11.09533560484711 -4 -4 -2
174 1 1 0.5897 6.689600790579213 11.999989936096437 13.03538809898576 9 -1 -2
222 1 1 0.5897 3.8565272343282224 13.96542232283557 11.854342082645584 0 -5 2
832 1 2 -1.1794 4.367937251669914 12.097829575063587 12.037973447453155 7 -3 -1
538 1 2 -1.1794 4.918150568790076 14.804140794191479 14.60425133193172 -12 -1 2
540 1 1 0.5897 4.219732966055451 14.912272294376201 15.249892501081009 -12 -1 2
823 1 2 -1.1794 2.789168952548047 15.442857324319023 16.116760654858503 -1 5 3
539 1 1 0.5897 4.478129393165509 14.88845664047375 13.758323780083378 -12 -1 2
221 1 1 0.5897 2.9627248569257305 15.185698460327925 11.919163534319946 0 -5 2
737 1 1 0.5897 1.8134526389087844 13.034662386644932 13.372335576407337 1 3 -2
173 1 1 0.5897 7.200002461887324 13.018167587016078 12.037923740449997 9 -1 -2
127 1 2 -1.1794 5.715870469480454 11.899649754844143 14.729410835803586 -3 0 -9
736 1 2 -1.1794 1.4547706246607537 12.991314715189807 14.258790550468346 1 3 -2
825 1 1 0.5897 2.351552939480671 14.653838697394754 15.796973440317021 -1 5 3
447 1 1 0.5897 8.735198427434824 15.973654897873757 13.343361020989182 2 4 -2
172 1 2 -1.1794 7.452065448727154 12.21819761984011 12.499334190983323 9 -1 -2
128 1 1 0.5897 5.532041850341484 12.83597956765926 14.805594960799958 -3 0 -9
824 1 1 0.5897 2.666423274106318 16.085360695576817 15.417858571477987 -1 5 3
438 1 1 0.5897 8.749548963842106 14.604988605786003 14.818066841443706 -7 2 -1
280 1 2 -1.1794 1.5007234539851622 12.796540447503682 11.456640807359445 -4 -4 -2
61 1 2 -1.1794 1.053535409358719 16.152459799999377 11.836470953269567 0 2 2
220 1 2 -1.1794 3.8644062553722502 14.899209262344211 12.064840629109087 0 -5 2
593 1 1 0.5897 5.823776102429649 16.548443033746995 15.047258798906197 -3 3 -6
738 1 1 0.5897 0.6890694415288076 13.565338576428783 14.236207932907638 1 3 -2
63 1 1 0.5897 1.5568701597511583 16.60330457123004 12.51448661155225 0 2 2
198 1 1 0.5897 8.859137501639374 12.170127050308647 13.637526510337239 -1 -4 -3
436 1 2 -1.1794 8.34423841439445 14.490424233416212 15.677668902972938 -7 2 -1
437 1 1 0.5897 9.056790261974493 14.187459894905595 16.240528276341003 -7 2 -1
282 1 1 0.5897 1.5098305803461751 11.860147918042557 11.258147474353269 -4 -4 -2
397 1 2 -1.1794 6.875112909976255 14.622241961036853 11.323941865785132 6 1 -6
398 1 1 0.5897 6.357121947800936 15.266235394654004 11.80693367101095 6 1 -6
706 1 2 -1.1794 1.5023329044753568 16.638530076377844 18.321671490778158 -4 -3 -6
211 1 2 -1.1794 4.035851460617517 16.166351024817757 21.079833262268444 4 -4 4
494 1 1 0.5897 6.6646421837402565 13.698086831104726 17.87856703091444 3 -2 -1
515 1 1 0.5897 6.9600648718066465 16.040496038308774 18.086805813937687 -5 -5 3
226 1 2 -1.1794 1.960204709654598 12.731160733825522 17.417336826356546 5 -5 -2
596 1 1 0.5897 7.713055505448379 12.028270195867254 19.080436056793822 6 -6 4
311 1 1 0.5897 1.3987158127536228 15.225941424259588 19.60787181566608 0 4 5
97 1 2 -1.1794 3.0141112785093505 12.513208449043601 20.901444829348108 0 -7 0
227 1 1 0.5897 1.180695510347406 13.249844164788426 17.218223862193994 5 -5 -2
293 1 1 0.5897 4.799750549118165 14.416457275050758 18.362930920376485 0 -4 -1
89 1 1 0.5897 6.560479050346349 14.821805608657213 21.311980245321806 3 -6 -2
228 1 1 0.5897 2.524427165581772 13.325913540678975 17.91154075151529 5 -5 -2
294 1 1 0.5897 3.433816196303281 15.004131688728176 18.078410821349152 0 -4 -1
88 1 2 -1.1794 7.353964701943791 15.271831330443996 21.021838125915117 3 -6 -2
312 1 1 0.5897 1.683224485874731 13.92276374089787 20.324066242535963 0 4 5
495 1 1 0.5897 6.822030224296538 14.567623759838304 16.649246207495196 3 -2 -1
310 1 2 -1.1794 0.9719593515617782 14.521101345741226 20.09511772832633 0 4 5
90 1 1 0.5897 7.0955528125443825 15.717962572032697 20.21529685525438 3 -6 -2
493 1 2 -1.1794 6.315974315632073 14.48384062008677 17.45745440382437 3 -2 -1
292 1 2 -1.1794 3.8985379065227526 14.42802690012431 18.685410697698075 0 -4 -1
300 1 1 0.5897 4.685655594971545 13.153127325484549 21.30359507269651 -3 1 -3
213 1 1 0.5897 4.280601928671866 15.436698981629343 20.510610263669548 4 -4 4
517 1 2 -1.1794 8.951626904913503 12.61265225135025 20.255902255799164 2 -1 -5
595 1 2 -1.1794 7.037673196398311 11.953639684751236 18.406192302389492 5 -6 4
98 1 1 0.5897 3.5930176360231862 12.020729564011273 20.319497778044536 0 -7 0
519 1 1 0.5897 8.633356484804393 12.735443396217313 21.15030601188559 2 -1 -5
707 1 1 0.5897 1.41456120397623 16.164074550161487 17.49492110043947 -4 -3 -6
708 1 1 0.5897 0.6019570058537115 16.82291709201384 18.589332187257284 -4 -3 -6
516 1 1 0.5897 8.167228360765463 16.777510642078155 18.626924811107138 -5 -5 3
514 1 2 -1.1794 7.215073628899088 16.72217426734784 18.70859402672024 -5 -5 3
99 1 1 0.5897 2.503942841583692 11.84282713312554 21.356011992473654 0 -7 0
407 1 1 0.5897 8.077994910773874 19.160061027417377 3.989408280632252 -13 1 2
354 1 1 0.5897 7.144868929928597 17.025504424079134 1.0061436155050578 7 2 0
408 1 1 0.5897 7.488797677216763 18.114043675891388 3.067001950637231 -13 1 2
406 1 2 -1.1794 7.6476806587507244 18.304995073746 3.991466045851916 -13 1 2
578 1 1 0.5897 5.9799959073493465 18.771120593943692 5.027543809332942 3 1 -2
352 1 2 -1.1794 6.917060930900559 17.903040094490514 1.3133065182213564 7 2 0
208 1 2 -1.1794 5.680868797684906 20.93208357028641 0.8911830422896302 1 -8 5
762 1 1 0.5897 4.092267184080548 20.676903312824138 3.115258129517589 1 2 1
760 1 2 -1.1794 4.8784416556238 20.971250479679163 3.5752814739564487 1 2 1
831 1 1 0.5897 2.356641431783803 20.001291956858886 1.3770247416779045 3 8 1
766 1 2 -1.1794 2.1931189279115006 17.95799336306726 5.524850687557318 -1 2 8
214 1 2 -1.1794 3.996123673822264 17.526858950603057 3.5587440670079076 1 -3 7
830 1 1 0.5897 1.901744938559819 20.11444488344349 2.816592872559768 3 8 1
761 1 1 0.5897 4.8969604151117725 20.44893419685706 4.377264848804913 1 2 1
378 1 1 0.5897 7.42891121803603 20.898032197206817 1.0942459526154047 9 7 0
215 1 1 0.5897 3.870691900807333 18.07836147865161 2.786454222125793 1 -3 7
577 1 2 -1.1794 5.341736707554019 19.20809845428004 5.5914638144244755 3 1 -2
209 1 1 0.5897 5.281028755420289 20.99059200419751 1.758956102576557 1 -8 5
376 1 2 -1.1794 8.359831626388587 21.079110198158034 1.2242844307242107 9 7 0
718 1 2 -1.1794 0.6498452980201344 20.471990878925688 4.083890869461389 0 4 5
263 1 1 0.5897 0.972743917893474 18.251419036635312 1.76459995428801 3 0 1
829 1 2 -1.1794 2.655985227507697 19.875926708179847 2.2775725912958373 3 8 1
719 1 1 0.5897 0.9317697409892376 21.07387493211094 4.772791204990853 0 4 5
768 1 1 0.5897 2.796605386468107 17.83055050385181 4.792817593727643 -1 2 8
216 1 1 0.5897 4.70998073946649 16.936124911681212 3.3184130746308447 1 -3 7
405 1 1 0.5897 8.776687436615438 17.3955933907422 5.3840895336624675 10 -3 -3
767 1 1 0.5897 2.267487967028007 18.88823281675186 5.738041639327274 -1 2 8
229 1 2 -1.1794 7.782556586812251 21.035039196146272 10.398601685864229 1 -1 1
828 1 1 0.5897 2.449710062906081 20.80572797713753 7.137156151946939 -7 3 8
579 1 1 0.5897 5.8654557920598585 19.7956611403617 6.13629561633435 3 1 -2
730 1 2 -1.1794 4.538032155505276 17.294431162160333 7.357077239367812 0 -2 -9
710 1 1 0.5897 6.785102776322579 17.76191006034231 8.185999219744772 3 0 3
701 1 1 0.5897 4.751532592648237 21.44606936422602 7.576001143263126 8 -3 0
231 1 1 0.5897 6.988022613721631 20.705861769975684 9.978272682481162 1 -1 1
853 1 2 -1.1794 6.624575015990844 20.730676476769077 7.557166076536557 -1 2 2
560 1 1 0.5897 8.246907684991534 17.203519499629046 9.322613813402326 6 2 2
826 1 2 -1.1794 1.7733405329917746 20.14063074339851 7.008698168014965 -7 3 8
854 1 1 0.5897 7.31643983888703 21.26798876684302 7.171253921479195 -1 2 2
709 1 2 -1.1794 7.557244434555455 18.318147839758772 8.289780537911092 3 0 3
827 1 1 0.5897 1.059454183198202 20.409504602931086 7.586958745943997 -7 3 8
711 1 1 0.5897 8.165248946127498 18.012865626646906 7.6163846925161405 3 0 3
731 1 1 0.5897 4.557971935019431 17.95240186956334 6.662103609418191 0 -2 -9
700 1 2 -1.1794 3.891537144212542 21.850358040813703 7.460761128211318 8 -3 0
855 1 1 0.5897 7.023203477484379 19.86705480596902 7.664698142199266 -1 2 2
187 1 2 -1.1794 2.8059705426397197 19.218323535955186 9.195122015840782 0 1 7
189 1 1 0.5897 2.6979643000727034 18.26937526450304 9.259962454896542 0 1 7
188 1 1 0.5897 2.512671573955112 19.433339424893994 8.309639115629682 0 1 7