LAMMPS data file via write_data, version 30 Jul 2021, timestep = 10250000

1008 atoms
2 atom types
672 bonds
1 bond types
336 angles
1 angle types

-3.2205020725066156 14.830501072060645 xlo xhi
-0.17896509600270072 22.75896409601129 ylo yhi
-0.07764805539956576 19.30764605540047 zlo zhi
-0.3177414175638895 -6.108227877873416 0.010717550753962055 xy xz yz

Masses

1 1.008
2 15.999

Pair Coeffs # lj/cut/tip4p/long/omp

1 0 0
2 0.21084 3.1668

Bond Coeffs # harmonic/omp

1 450 0.9572

Angle Coeffs # harmonic/omp

1 55 104.52

Atoms # full

101 34 1 0.5897 -2.458116995649091 4.285355670672904 0.04888780224973044 1 0 0
602 201 1 0.5897 -0.5383777743518947 5.240639675959334 0.2701799462378731 1 0 1
56 19 1 0.5897 -1.178779584894678 3.4301555224133673 2.9981689297323153 0 0 0
122 41 1 0.5897 -2.517334731759952 1.7300571197112935 1.578924626205851 1 0 0
55 19 2 -1.1794 -0.592512528659074 4.064289250565336 3.4110798008599783 0 0 0
123 41 1 0.5897 -3.449986950085724 2.3265747100832876 2.611493422819747 1 0 0
121 41 2 -1.1794 -2.522938521482434 2.1785947438292554 2.4244605272751927 1 0 0
86 29 1 0.5897 -2.292243407200383 1.2302224216066242 3.866178645865966 1 0 0
158 53 1 0.5897 -4.27707987331388 4.221146967648645 4.167058118901581 1 0 0
100 34 2 -1.1794 -3.381496091528413 4.455299350242642 0.23541108841405994 1 0 0
57 19 1 0.5897 0.12957208400968323 4.163188501497161 2.7905691872739324 0 0 0
33 11 1 0.5897 0.6169191149709565 0.0538685006396008 1.9924375467532438 0 0 0
85 29 2 -1.1794 -2.307979793950498 0.7473825585492723 4.692443516737991 1 0 0
157 53 2 -1.1794 -3.8666035839344435 4.880141835985628 4.726986502405706 1 0 0
163 55 2 -1.1794 -2.279342843661673 0.9936004358211776 -0.06238560229989294 1 0 0
67 23 2 -1.1794 -2.170270025935185 -0.00141760368605226 7.922679027857916 0 0 0
133 45 2 -1.1794 -2.2543422954672474 3.1790342599835815 6.422607891792615 1 0 0
159 53 1 0.5897 -3.288697968852131 4.379420927833377 5.302705771511253 1 0 0
134 45 1 0.5897 -1.857286629308989 2.4501943557784935 5.945716075357775 1 0 0
69 23 1 0.5897 -2.636823838312064 0.8086227289931068 8.128799044558985 0 0 0
125 42 1 0.5897 -5.471701390635037 2.8720876619166185 7.052044381421769 1 0 0
126 42 1 0.5897 -3.9614884654294085 2.777913116192781 7.101669651599499 1 0 0
669 223 1 0.5897 -5.091031430076584 1.6654514859754812 8.97975478232151 1 0 0
135 45 1 0.5897 -1.5175079202384207 3.745181018534344 6.652606742601492 1 0 0
124 42 2 -1.1794 -4.756239285109717 2.4032563923373877 7.481574876552272 1 0 0
87 29 1 0.5897 -3.237641281809222 0.600189230472516 4.866781848384631 1 0 0
98 33 1 0.5897 -3.7013871548147783 4.995371079333062 8.769141725492904 1 0 0
606 202 1 0.5897 -5.997774107046432 4.5983220503338975 9.596040883725413 1 0 0
559 187 2 -1.1794 -3.7746273720433487 4.361633133645428 13.043666954643978 0 0 0
626 209 1 0.5897 -5.4950970548672275 2.3659404317895887 12.475977594918618 1 0 0
668 223 1 0.5897 -5.6527143960515875 1.6674682968768595 10.385488258228511 1 0 0
99 33 1 0.5897 -3.7862001979606847 5.468684385085971 10.204506596633495 1 0 0
625 209 2 -1.1794 -5.91643637656384 2.9430751602970227 11.839167824961999 1 0 0
560 187 1 0.5897 -4.543128266819814 4.047785275947162 12.567053040460516 0 0 0
523 175 2 -1.1794 -2.1542017281670507 2.5683442581266736 9.955202335082998 0 0 0
561 187 1 0.5897 -3.5626799611831976 3.6524866809801373 13.650590572907896 0 0 0
627 209 1 0.5897 -6.777915849133145 3.1260881951472013 12.214205417465072 1 0 0
524 175 1 0.5897 -2.6914256785525446 3.36018985594665 9.929291583489738 0 0 0
589 197 2 -1.1794 -5.230557001452586 1.1680262022633634 14.100349248340558 1 0 0
987 329 1 0.5897 -3.055161446125329 -0.13688720533950552 11.6943679490355 1 1 0
667 223 2 -1.1794 -5.230071089790737 1.100872479993915 9.740061731661385 1 0 0
986 329 1 0.5897 -4.122837653951475 0.10355687173367312 10.648487558367057 1 1 0
662 221 1 0.5897 -7.423942523760163 4.654143016060262 14.193622932980903 1 0 0
593 198 1 0.5897 -7.224455956318785 0.2722035724174655 14.249279432630258 1 0 0
97 33 2 -1.1794 -3.7961962115443075 4.676887182017929 9.666713501352898 1 0 0
591 197 1 0.5897 -4.58938380239063 0.4782616054395492 14.2717958830029 1 0 0
164 55 1 0.5897 -7.955387480585393 1.6412514123501125 18.753874651220364 1 0 -1
661 221 2 -1.1794 -6.809231026236773 5.29250293079037 14.55548215871138 1 0 0
637 213 2 -1.1794 -5.514302736008329 3.343952020658694 15.875091251123711 1 0 0
628 210 2 -1.1794 -7.671753753225865 2.292483110044788 16.910631456688087 1 0 0
571 191 2 -1.1794 -4.998683494189146 0.14337128972488605 17.7459743941709 0 0 0
639 213 1 0.5897 -6.242149617752711 3.0968554027050783 16.445567816168186 1 0 0
638 213 1 0.5897 -5.852503045798317 4.074635249198842 15.357490677560776 1 0 0
20 7 1 0.5897 -5.253196117041105 2.093908248282442 18.464291890477163 0 0 -1
590 197 1 0.5897 -5.085551897772746 1.8089963700949883 14.796300183073946 1 0 0
165 55 1 0.5897 -8.788744547901086 0.3776306834886337 18.72075203520545 1 0 -1
19 7 2 -1.1794 -4.867235632316665 2.5578587804985062 19.207227104718754 0 0 -1
549 183 1 0.5897 -4.2270087690913005 4.310879651839507 16.704061017311204 0 0 0
629 210 1 0.5897 -8.372265997435203 2.942733127504034 16.85821450410517 1 0 0
630 210 1 0.5897 -7.887039616038457 1.6524678889898992 16.232195565537033 1 0 0
603 201 1 0.5897 -6.316259697004233 3.8586468088007972 19.162113850789268 1 0 0
601 201 2 -1.1794 -6.826517425472077 4.638249144237034 18.942762235183984 1 0 0
146 49 1 0.5897 -1.2038168733623111 6.736996917151322 2.3922384858602355 1 0 0
255 85 1 0.5897 -2.382576978487297 8.820187144426201 4.085593656187646 1 0 0
289 97 2 -1.1794 -2.6775491493627745 9.804705755117496 2.5678673308457785 1 0 0
290 97 1 0.5897 -2.1538126248892424 10.555086782647734 2.848923376136909 1 0 0
145 49 2 -1.1794 -0.6541668956683151 6.720169923528952 1.6088120997737796 1 0 0
113 38 1 0.5897 -3.4103101860803897 6.003272896828288 3.543539482218366 1 0 0
147 49 1 0.5897 -1.0430169323440972 7.3748157019436436 1.0288436943096693 1 0 0
291 97 1 0.5897 -3.5778538385718166 10.044699237525979 2.787305054702013 1 0 0
332 111 1 0.5897 -2.655115465523557 8.854765986199181 0.8561933097041297 1 0 0
112 38 2 -1.1794 -3.390933673239679 6.508132002230772 2.730618183178056 1 0 0
187 63 2 -1.1794 0.46648734888351306 10.378425535948681 0.4879710831223364 0 0 0
331 111 2 -1.1794 -2.2235358404067394 8.44032745619248 0.10908698033103195 1 0 0
114 38 1 0.5897 -3.594962536267824 5.869925742798819 2.047026042228546 1 0 0
188 63 1 0.5897 0.26613243680518917 9.813499936360747 1.2342005337876374 0 0 0
200 67 1 0.5897 0.3798316682706191 8.084091285708407 2.1508760901699717 0 0 0
224 75 1 0.5897 -0.5718624432572135 11.190861550405987 4.098295504273009 0 0 0
9 3 1 0.5897 -0.826836121303943 5.591053668858751 4.272527400536201 0 0 0
235 79 2 -1.1794 -2.0359528811931 7.730851578868602 8.085935787257084 0 0 0
110 37 1 0.5897 -4.299795017923902 5.849560806924663 6.3684283576481615 1 0 0
294 98 1 0.5897 -4.994018072027325 9.827426735103192 8.308507385909975 1 0 0
302 101 1 0.5897 -2.271367681716078 10.059707071724583 6.165661390546704 1 0 0
111 37 1 0.5897 -5.1662967534471385 6.424275495625788 7.4687594941632796 1 0 0
236 79 1 0.5897 -2.8803632570816897 7.334346387908278 7.871246969590757 0 0 0
837 279 1 0.5897 -5.797333106763853 8.488331146212523 9.362155783342589 1 0 0
109 37 2 -1.1794 -4.254285293052425 6.248099119333725 7.237467107877888 1 0 0
293 98 1 0.5897 -4.19610648040601 10.329824343933732 7.124149698711172 1 0 0
301 101 2 -1.1794 -2.5804643164878747 10.78401171222838 6.709818324547628 1 0 0
292 98 2 -1.1794 -5.0878896138801375 10.120911670993578 7.40236218232734 1 0 0
7 3 2 -1.1794 -0.7543917411484351 6.396520513977706 4.784669330549723 0 0 0
237 79 1 0.5897 -2.2590785085622125 8.584517643469368 8.457159864318527 0 0 0
257 86 1 0.5897 -4.119354549580035 8.174241986425294 4.857473085413128 1 0 0
303 101 1 0.5897 -1.7859367263112662 11.144181618212489 7.10388911704886 1 0 0
254 85 1 0.5897 -1.6815839147991498 7.8289262071593 4.989877282041964 1 0 0
253 85 2 -1.1794 -2.4391641609061714 8.412660281205394 4.949769612160335 1 0 0
8 3 1 0.5897 -0.7641574183904076 6.103206993659787 5.695672187239852 0 0 0
793 265 2 -1.1794 -5.89518588231063 9.988343987558176 12.228453990480716 1 0 0
650 217 1 0.5897 -3.1213478039245084 7.4773454950271 11.836790210666077 1 0 0
794 265 1 0.5897 -5.238336140487438 10.676948756994648 12.332142570063768 1 0 0
663 221 1 0.5897 -6.588753071857941 5.859270312097108 13.816344608156694 1 0 0
649 217 2 -1.1794 -3.5779545618433786 7.015998586778614 11.133326144751761 1 0 0
759 253 1 0.5897 -5.829540972788376 9.069711385044544 13.854606110259498 1 0 0
651 217 1 0.5897 -4.470605728713797 6.903159291513584 11.460064147524871 1 0 0
795 265 1 0.5897 -5.797365711128033 9.697931747764317 11.321715908250894 1 0 0
616 206 2 -1.1794 -6.1187402376307425 6.370178611512555 12.122725935155348 1 0 0
835 279 2 -1.1794 -5.1522872923111205 9.038397478617602 9.806730181564108 1 0 0
836 279 1 0.5897 -4.4232045313647115 8.447822800862335 9.996164682930305 1 0 0
617 206 1 0.5897 -6.642424837349788 7.133711724101468 11.879749344465495 1 0 0
618 206 1 0.5897 -6.393663418219026 5.686262759784912 11.512031613575465 1 0 0
513 171 1 0.5897 -3.890380649860522 5.873742563652125 14.160540351685755 0 0 0
739 247 2 -1.1794 -5.409308243541343 8.070058655840622 17.762666595792318 0 0 0
613 205 2 -1.1794 -7.406768482961406 6.479285104745296 16.877073800497286 1 0 0
796 266 2 -1.1794 -8.290407159254677 10.371320968233931 17.484943167981243 1 0 0
805 269 2 -1.1794 -5.999557720413055 10.76609558929399 16.226072281338894 1 0 0
512 171 1 0.5897 -4.45610966071721 7.165871430132303 14.710508615181084 0 0 0
333 111 1 0.5897 -8.399375540274496 9.095891253317125 18.790304718795724 1 0 -1
758 253 1 0.5897 -5.958306662617951 9.330534647097881 15.34014813483724 1 0 0
740 247 1 0.5897 -6.1768253499032415 7.607841174675083 17.425644929854812 0 0 0
741 247 1 0.5897 -5.764853446522153 8.701285829907834 18.388266536836802 0 0 0
797 266 1 0.5897 -7.370305731502874 10.473756299045254 17.24153812512546 1 0 0
807 269 1 0.5897 -5.276085848594175 11.100835319382753 16.755958976878574 1 0 0
762 254 1 0.5897 -7.598263781685122 8.445516474057364 14.974944092431155 1 0 0
615 205 1 0.5897 -7.269204850536627 6.095356010652725 16.01116446302924 1 0 0
757 253 2 -1.1794 -5.876089909567112 8.623567204396164 14.700109614746374 1 0 0
511 171 2 -1.1794 -3.7411345155618454 6.540847722387707 14.830571982996306 0 0 0
614 205 1 0.5897 -7.115633351624631 5.802749211317065 17.488384706192058 1 0 0
314 105 1 0.5897 -0.13086571870719022 14.658176653130207 2.2546914290646454 1 0 0
280 94 2 -1.1794 -3.697793232547509 13.84020996054891 2.7168046529938956 1 0 0
315 105 1 0.5897 -0.8153076272412463 13.558422357977664 1.470997141701009 1 0 0
423 141 1 0.5897 -2.5605580091902307 16.612696663572116 4.025543654184171 1 0 0
281 94 1 0.5897 -3.8592241690072 13.625888575826503 3.635531609401732 1 0 0
282 94 1 0.5897 -2.7501751509435457 13.964137994766878 2.6621303960768445 1 0 0
313 105 2 -1.1794 -0.9944070636773108 14.299577802973417 2.0496800661178405 1 0 0
223 75 2 -1.1794 -1.0860406110271796 11.67652738281525 3.453429541434222 0 0 0
225 75 1 0.5897 -1.0670422319552042 12.58188084614203 3.763789889699041 0 0 0
500 167 1 0.5897 -1.6272897594029252 15.548898624774429 0.30918235355067214 1 0 0
458 153 1 0.5897 -2.7725840351797295 16.832122634881515 1.9790345315064282 1 0 0
499 167 2 -1.1794 -2.3827476203581526 16.05112553873068 0.0037648256392875112 1 0 0
421 141 2 -1.1794 -2.2963106689650177 16.265300891351878 4.877316222805463 1 0 0
326 109 1 0.5897 -3.4759699295370927 11.88157242771738 5.399911721282825 1 0 0
175 59 2 -1.1794 -0.7777335201719291 13.904289562046237 5.361965086962325 0 0 0
403 135 2 -1.1794 -2.1127210098799836 15.915659820584816 8.133786349724224 0 0 0
277 93 2 -1.1794 -3.902083333342397 14.193040732122029 7.24137701179595 1 0 0
278 93 1 0.5897 -3.3512691324125914 14.961652121410927 7.390445206111032 1 0 0
405 135 1 0.5897 -2.1882814935538386 16.584841840208973 8.814031420845724 0 0 0
318 106 1 0.5897 -5.985180807186185 14.946493116731618 8.944427284330338 1 0 0
267 89 1 0.5897 -2.9039434433047546 12.349875654605642 8.715833937691398 1 0 0
327 109 1 0.5897 -4.165882481206397 13.155727744988894 5.838867696901487 1 0 0
176 59 1 0.5897 -1.2209816482404816 14.74664753247274 5.260846376414755 0 0 0
425 142 1 0.5897 -4.2789590267189475 15.804431080196458 5.059528316555355 1 0 0
462 154 1 0.5897 -4.776683005859901 16.896961968298058 6.558085784331827 1 0 0
325 109 2 -1.1794 -4.108858118681864 12.538387584847959 5.109598766938062 1 0 0
279 93 1 0.5897 -4.732170116152757 14.406297814824065 7.667707462839701 1 0 0
1004 335 1 0.5897 -4.7691150085659615 16.926289879684326 8.824158417099184 1 0 0
265 89 2 -1.1794 -3.292020784623771 12.286568300364822 9.588478607906763 1 0 0
422 141 1 0.5897 -2.3461296649514107 17.01638000956713 5.468657236322429 1 0 0
727 243 2 -1.1794 -3.989992302637506 11.728572777432921 12.998231743700137 0 0 0
773 258 1 0.5897 -6.191488351116778 12.736538751117903 10.838076003478964 1 0 0
774 258 1 0.5897 -5.237890999627688 11.91923648790341 9.99271220436064 1 0 0
729 243 1 0.5897 -4.073130518719086 12.541705910854562 13.496448458211335 0 0 0
819 273 1 0.5897 -3.3272060048477616 13.741930255867162 10.871831903925465 1 0 0
1005 335 1 0.5897 -4.257910338333537 15.969942637244037 9.880427370932427 1 0 0
818 273 1 0.5897 -4.438266912761373 14.306204563519591 11.731546636916633 1 0 0
786 262 1 0.5897 -6.412824359083009 13.506761175766746 13.070580652097476 1 0 0
817 273 2 -1.1794 -3.5977124091338415 14.534938265021863 11.334729889620903 1 0 0
784 262 2 -1.1794 -6.069980527680114 13.85195521319035 12.246304009047057 1 0 0
772 258 2 -1.1794 -6.15941657494052 12.166504958173867 10.0698138271802 1 0 0
930 310 1 0.5897 -6.996701843440404 15.990821203970322 14.353009980330016 1 0 0
925 309 2 -1.1794 -5.179525946545738 16.407047138762586 14.009461003732195 1 0 0
728 243 1 0.5897 -3.1311654146729087 11.790175542516666 12.580020947610624 0 0 0
785 262 1 0.5897 -6.794449347108193 14.357817600306221 11.878265408275912 1 0 0
831 277 1 0.5897 -7.7727352511133425 12.157382524648456 14.1088809835918 1 0 0
926 309 1 0.5897 -4.765857040410859 15.634009713392288 14.393535410143405 1 0 0
1003 335 2 -1.1794 -5.033658733690586 16.467225140180034 9.621289125861315 1 0 0
266 89 1 0.5897 -3.059314857947867 11.408877814927402 9.891450283154834 1 0 0
679 227 2 -1.1794 -4.123519428258529 13.902931271538638 15.18490858993445 0 0 0
909 303 1 0.5897 -5.13749041867737 16.00811211310156 17.461865456876296 0 0 0
907 303 2 -1.1794 -5.848784744757575 15.654621905750671 17.996069544316207 0 0 0
908 303 1 0.5897 -6.392212109740342 15.164916958517196 17.378732664080324 0 0 0
781 261 2 -1.1794 -7.660417662179281 14.08601660539915 16.80742113174886 1 0 0
782 261 1 0.5897 -7.444376385383947 13.518177513323463 17.54700005305891 1 0 0
830 277 1 0.5897 -7.3074021239447156 13.096993984437555 15.2008899694308 1 0 0
783 261 1 0.5897 -8.568434419700951 14.34655131147479 16.962083533702135 1 0 0
806 269 1 0.5897 -6.109255102059766 11.416041063566873 15.532035608356972 1 0 0
965 322 1 0.5897 -8.17938321672765 16.888711402066477 16.34597680281604 1 0 0
771 257 1 0.5897 -6.862702736297216 11.855401072581111 19.149929153590314 1 0 0
501 167 1 0.5897 -8.127015369199714 16.682945442352853 18.758195950288297 1 0 -1
769 257 2 -1.1794 -7.2635426386036155 12.724096726237617 19.18125592488837 1 0 0
681 227 1 0.5897 -4.350864168530759 13.22347781176736 15.81963292490988 0 0 0
770 257 1 0.5897 -8.200545729142586 12.552751882768803 19.27587973543418 1 0 0
927 309 1 0.5897 -5.257185592687851 17.024279016372816 14.736933817640427 1 0 0
829 277 2 -1.1794 -6.985971229282965 12.559810661760272 14.476784530148215 1 0 0
357 119 1 0.5897 -5.5299397365796175 16.964945155539382 19.228903347510986 0 0 -1
928 310 2 -1.1794 -7.9408773564561885 16.022049250878325 14.507504426495256 1 0 0
448 150 2 -1.1794 -3.5988153308966724 21.668905041712208 2.5991600446298255 1 0 0
391 131 2 -1.1794 -1.0052812013724228 18.962268871711004 3.4140499276690677 0 0 0
392 131 1 0.5897 -0.2994710641959708 19.13305423852801 2.7904317792967217 0 0 0
481 161 2 -1.1794 -1.1944189760318178 21.967037155925972 1.3041788953203766 1 0 0
483 161 1 0.5897 -1.963870844519354 21.77947883828292 1.841804106425173 1 0 0
459 153 1 0.5897 -2.3643540590121312 18.161971151972388 2.5765676921535 1 0 0
938 313 1 0.5897 -0.908353448346217 20.69333082915503 0.10791120713266389 1 0 1
393 131 1 0.5897 -1.0590765247100569 19.760274475598358 3.939954836957922 0 0 0
457 153 2 -1.1794 -3.0670849514616894 17.511990800757253 2.585095612351233 1 0 0
495 165 1 0.5897 -3.9888103143629854 20.84201649130926 4.228838364262617 1 0 0
449 150 1 0.5897 -3.7904925597373813 21.109287520270513 1.8466392992459657 1 0 0
450 150 1 0.5897 -4.28842144234453 22.332658045080827 2.5865652839916775 1 0 0
356 119 1 0.5897 0.5709683504321137 17.48153621883138 1.2625656280690885 0 0 0
355 119 2 -1.1794 0.37777348822112344 17.7348422744668 0.3600489461393658 0 0 0
437 146 1 0.5897 -2.713514244424303 19.85571134424866 0.1490084462483977 1 0 0
436 146 2 -1.1794 -3.574823794622051 20.21380053922085 0.3638883686421909 1 0 0
482 161 1 0.5897 -1.4480799075596942 22.725742938001794 0.7786144888808221 1 0 0
345 115 1 0.5897 -1.596193298681932 22.263345664368607 4.509692533768303 0 0 0
447 149 1 0.5897 -5.471776264604959 21.59611217839967 7.511641919883666 1 0 0
469 157 2 -1.1794 -2.2690917466825136 18.70903033955848 6.337499918585677 1 0 0
494 165 1 0.5897 -4.33630300142365 20.526478804332392 5.668000865174509 1 0 0
460 154 2 -1.1794 -4.655623662135357 17.627075564738398 7.165173183934774 1 0 0
445 149 2 -1.1794 -4.618233203525784 21.225477419147452 7.28715914879212 1 0 0
446 149 1 0.5897 -4.399460407031117 20.660610071321315 8.028223169963331 1 0 0
471 157 1 0.5897 -2.9615018128333186 18.320485374795688 6.872170630237693 1 0 0
470 157 1 0.5897 -2.7347430936133437 19.168117652496015 5.63858552407286 1 0 0
344 115 1 0.5897 -0.8545784336427151 21.766503389337416 5.7322490978859655 0 0 0
461 154 1 0.5897 -5.336490422166211 18.255205942477467 6.924083228095627 1 0 0
493 165 2 -1.1794 -4.159935673846613 20.111783888563238 4.82356362063792 1 0 0
343 115 2 -1.1794 -0.9151625447913867 21.64932072345384 4.784276964249466 0 0 0
68 23 1 0.5897 -3.1176250965401544 22.417606106254198 7.422075716918687 0 -1 0
435 145 1 0.5897 -4.889343478925947 19.39073032242817 10.251777355372896 1 0 0
961 321 2 -1.1794 -5.670324035129241 17.90283462855816 11.778156699061764 1 0 0
985 329 2 -1.1794 -4.0136824285375745 22.345640659664895 11.1482409855975 1 0 0
963 321 1 0.5897 -5.551195789936005 17.322897476067403 11.026037992691595 1 0 0
952 318 2 -1.1794 -6.612958975735862 21.87176575203616 12.28644956083876 1 0 0
896 299 1 0.5897 -4.81219812075309 19.296672139538728 12.79688144218535 0 0 0
954 318 1 0.5897 -5.720209300351823 22.057722097017702 11.995352491486202 1 0 0
895 299 2 -1.1794 -4.044131572773053 19.65467526373586 13.242046490358828 0 0 0
998 333 1 0.5897 -6.983095383843259 20.732704908728834 13.630916696907743 1 0 0
434 145 1 0.5897 -4.018101816519502 20.588160755487323 10.566893908956635 1 0 0
897 299 1 0.5897 -3.634878066952511 18.897419970450862 13.6607104317473 0 0 0
953 318 1 0.5897 -7.11304148372865 22.64945539091594 12.038709953016397 1 0 0
848 283 1 0.5897 -4.107715076881737 21.280388028655416 14.241027789379965 0 0 0
962 321 1 0.5897 -5.423264129409631 17.36962760417653 12.533638244077748 1 0 0
859 287 2 -1.1794 -2.2286510629796568 17.836867450409372 10.232266149911847 0 0 0
860 287 1 0.5897 -2.904248323046783 18.513177672309347 10.182645118308283 0 0 0
997 333 2 -1.1794 -7.47413221742107 20.22368736697245 14.275910111001348 1 0 0
433 145 2 -1.1794 -4.1168406717576085 19.86625217749163 9.946114888223999 1 0 0
847 283 2 -1.1794 -3.9972033513582685 22.047970386193263 14.802170778829835 0 0 0
974 325 1 0.5897 -6.538272478703963 18.13272734333089 16.447684682617677 1 0 0
964 322 2 -1.1794 -8.255662297293915 17.58302676679775 17.000469675963657 1 0 0
573 191 1 0.5897 -5.012875767039341 22.561329148460956 18.49000857471269 0 -1 0
973 325 2 -1.1794 -5.7416870939502065 18.37028031491247 15.973008957204124 1 0 0
949 317 2 -1.1794 -7.557929976672127 21.7149679782164 16.796584359065022 1 0 0
950 317 1 0.5897 -7.573656689686061 21.24702990773274 15.961756613419366 1 0 0
951 317 1 0.5897 -7.451709730675931 21.02804009063663 17.45458036806692 1 0 0
937 313 2 -1.1794 -7.167885058736554 19.99609036532646 18.86700398631902 1 0 0
975 325 1 0.5897 -5.190348500305042 18.79809686707455 16.62812362902337 1 0 0
939 313 1 0.5897 -6.601076647185337 19.285321763427973 19.166617231761634 1 0 0
999 333 1 0.5897 -6.805960662641853 19.728761995830666 14.750016860855132 1 0 0
572 191 1 0.5897 -5.980040838083006 22.53416848576373 17.32576979054854 0 -1 0
6 2 1 0.5897 3.717860590910476 1.625291709340961 4.165025472868663 0 0 0
54 18 1 0.5897 2.9626279391405603 3.5746847247849303 2.487689439791643 0 0 0
70 24 2 -1.1794 3.893279120455631 0.24695603591576915 1.4523617586820863 0 0 0
71 24 1 0.5897 3.065945620535034 0.33714979371604425 1.9252812436373135 0 0 0
52 18 2 -1.1794 3.597558952158347 3.045732325482283 2.9706129108750665 0 0 0
47 16 1 0.5897 1.9128723012980702 5.464752985760925 1.1519358330836529 0 0 0
31 11 2 -1.1794 1.1147351984153095 0.8714975161470437 1.985108442664671 0 0 0
46 16 2 -1.1794 1.724822907722615 4.94351273764922 1.9323757190940851 0 0 0
21 7 1 0.5897 1.220150077323023 1.9124295445323471 0.5380752500474691 0 0 0
78 26 1 0.5897 0.3770308884249154 2.6337443738194537 4.386981554837572 0 0 0
32 11 1 0.5897 0.9930071088381691 1.234502632173 2.862339159359159 0 0 0
53 18 1 0.5897 4.385074985963349 3.059934178328092 2.4266911286591917 0 0 0
48 16 1 0.5897 1.980104835599077 5.505893004687867 2.663613311611086 0 0 0
76 26 2 -1.1794 0.9114820495980709 1.84001034573045 4.41246100912785 0 0 0
527 176 1 0.5897 3.833060193777696 1.7456346855840974 0.42857376279161663 0 0 1
74 25 1 0.5897 4.380491595728545 4.068221096869897 4.175775142707363 0 0 0
5 2 1 0.5897 3.0562151246961093 0.3983500341937779 4.755740233574444 0 0 0
16 6 2 -1.1794 5.659978696426011 4.823750774544436 0.013059202728695402 0 0 0
18 6 1 0.5897 5.307723413263194 3.9357038324438003 -0.047572843058072405 0 0 0
59 20 1 0.5897 1.9215756554882875 3.2157866091204523 5.509265019121945 0 0 0
77 26 1 0.5897 0.5496253392867563 1.330199811690239 5.137257225708012 0 0 0
58 20 2 -1.1794 2.1985477900444295 3.9314356724120776 6.0814646473310425 0 0 0
34 12 2 -1.1794 0.30152096860639643 0.9280252615049525 7.109300787020012 0 0 0
35 12 1 0.5897 0.6021549540268452 1.5657257541524132 7.756751006671849 0 0 0
45 15 1 0.5897 0.6569137097665121 4.580577185340895 6.936313250488451 0 0 0
36 12 1 0.5897 -0.648462106540955 0.899680891928738 7.223470438605947 0 0 0
43 15 2 -1.1794 -0.2468300670003183 4.8733523115050055 7.053819959315528 0 0 0
60 20 1 0.5897 2.8761985463397846 3.5460173584941743 6.63677844270684 0 0 0
525 175 1 0.5897 -1.3128689204845974 2.8369603122772147 9.585980515847531 0 0 0
44 15 1 0.5897 -0.3092952568536753 5.092146173722832 7.983504136992977 0 0 0
401 134 1 0.5897 2.9682941180191307 0.10689800831012353 8.607681020387687 0 1 0
522 174 1 0.5897 2.641847151428699 5.3716656441336 9.26595330974151 0 0 0
402 134 1 0.5897 1.6734611615629467 -0.11969794912706958 7.856763447038189 0 1 0
22 8 2 -1.1794 0.6330574520807497 2.636237553435243 9.421216859051203 0 0 0
24 8 1 0.5897 1.380118112280309 3.212928658407838 9.581491417060906 0 0 0
4 2 2 -1.1794 3.8225856778825236 0.9642878850142025 4.849309075556596 0 0 0
556 186 2 -1.1794 0.885454216383267 3.436058642282759 13.19448985305929 0 0 0
557 186 1 0.5897 0.465258862391714 2.665856104714119 13.577285518112902 0 0 0
537 179 1 0.5897 -1.6156400665094175 1.8068546946565736 11.443836861278427 0 0 0
552 184 1 0.5897 -2.0912953446862774 4.665091351906462 12.298039906573198 0 0 0
550 184 2 -1.1794 -1.1977934773158188 5.007767070816385 12.321253732134366 0 0 0
574 192 2 -1.1794 0.8998824339226932 0.27044002005898155 10.990489910632219 0 0 0
535 179 2 -1.1794 -1.4160247969351665 1.251976754476962 12.197740626535905 0 0 0
536 179 1 0.5897 -1.5020333925703273 1.8335839659261737 12.95306989678272 0 0 0
576 192 1 0.5897 0.12409635481638892 0.29921444803210984 11.55043675338606 0 0 0
558 186 1 0.5897 0.1879891038959336 3.8709747463309574 12.704016251960438 0 0 0
23 8 1 0.5897 0.7794229439933598 1.8874617441250399 9.999230996561856 0 0 0
575 192 1 0.5897 1.5955655079609024 -0.056760940840411625 11.560622819504626 0 0 0
564 188 1 0.5897 -1.4738332773943048 4.9298850197955275 16.635863120847496 0 0 0
581 194 1 0.5897 -2.266609380585968 2.105256700196806 15.21853368614786 0 0 0
526 176 2 -1.1794 -2.105207351879704 2.402039962721691 19.12802351068055 0 0 0
580 194 2 -1.1794 -2.028945129060033 2.7671176489111433 14.569172385761302 0 0 0
562 188 2 -1.1794 -0.7176920959115813 4.554706241853287 16.184459995955876 0 0 0
538 180 2 -1.1794 -2.633296412789308 1.187057623395808 16.83684072017835 0 0 0
539 180 1 0.5897 -2.3671226731450528 1.8040586105469891 17.51852660824766 0 0 0
547 183 2 -1.1794 -3.5109782718355937 4.909951615369266 16.915651047858518 0 0 0
540 180 1 0.5897 -3.4691852362392863 0.8359168442712013 17.143907496104042 0 0 0
563 188 1 0.5897 -0.4707598735604632 5.216903582624265 15.538909648561106 0 0 0
582 194 1 0.5897 -1.6651099678696122 3.4880637688272365 15.083141581927313 0 0 0
528 176 1 0.5897 -2.961777562740873 2.787574510449246 18.943879190578883 0 0 0
12 4 1 0.5897 1.1173371401699281 6.346129875835839 4.640641842420213 0 0 0
694 232 2 -1.1794 3.2431407461312896 10.360653990468071 0.16506941640828277 0 0 1
240 80 1 0.5897 3.5029762637507558 7.474861710948089 0.8018617945600346 0 0 0
238 80 2 -1.1794 3.751731847606689 8.070572566460385 1.50859332873543 0 0 0
199 67 2 -1.1794 0.9763292767548721 8.769669378964446 2.451723099206664 0 0 0
239 80 1 0.5897 3.6625205479147205 8.94458047263178 1.1285653794563233 0 0 0
220 74 2 -1.1794 3.445746062164135 11.167173735835014 3.647832000991727 0 0 0
201 67 1 0.5897 1.8505444642505884 8.418248287943774 2.2827970178249632 0 0 0
245 82 1 0.5897 0.6416234941429702 9.653688542635992 3.9450167167304535 0 0 0
189 63 1 0.5897 1.4078479586701578 10.538939298098573 0.5542722815544548 0 0 0
29 10 1 0.5897 4.939689114700176 6.854986561451726 2.277114421377479 0 0 0
221 74 1 0.5897 4.130874181033234 10.987495957715883 3.0039829055811205 0 0 0
10 4 2 -1.1794 1.963926081561401 6.2745495879110305 4.199748937910808 0 0 0
174 58 1 0.5897 3.069561825663813 9.08321197315329 4.439930127288953 0 0 0
696 232 1 0.5897 3.8723437077100105 11.08210508330473 0.1634985761637911 0 0 1
11 4 1 0.5897 2.4751430059007298 5.686550847443441 4.755690405714984 0 0 0
64 22 2 -1.1794 2.623966785416793 6.708374704104211 8.112047892838044 0 0 0
173 58 1 0.5897 3.0405343590782845 7.607090543690555 4.775083144012964 0 0 0
246 82 1 0.5897 0.6783809354583812 9.386573324410787 5.434546471063875 0 0 0
204 68 1 0.5897 1.203963317099145 7.6634199289053315 7.228016248517865 0 0 0
588 196 1 0.5897 -1.1102816564682025 6.557922979149973 9.413404501928424 0 0 0
191 64 1 0.5897 1.0029640947637972 9.618717522148795 8.384876931416386 0 0 0
202 68 2 -1.1794 0.586067480651856 8.352537953053417 6.983953763780893 0 0 0
203 68 1 0.5897 -0.2712509727756873 8.003714598287537 7.228223166171733 0 0 0
65 22 1 0.5897 2.932785488539837 7.419937626745602 8.672911865512575 0 0 0
244 82 2 -1.1794 0.4170243807809144 10.04384564467568 4.789690404952044 0 0 0
190 64 2 -1.1794 0.9189663266655987 9.842656513853834 9.31163705363896 0 0 0
692 231 1 0.5897 -1.0072798964186611 10.020507426772248 9.600059626803047 0 0 0
192 64 1 0.5897 1.3907644844345608 10.670658164411302 9.402217537313355 0 0 0
172 58 2 -1.1794 3.3451469554067064 8.452496703754075 5.1050288953084655 0 0 0
744 248 1 0.5897 0.4342186251526594 7.077839415149683 10.889603004982527 0 0 0
743 248 1 0.5897 0.8932496253905686 8.518381256529391 10.809556383599384 0 0 0
551 184 1 0.5897 -1.2240453793355561 5.702045262175917 12.97967997006564 0 0 0
705 235 1 0.5897 -1.5373217471755156 9.319421859378945 13.096202130226196 0 0 0
703 235 2 -1.1794 -1.643829374806324 8.67103992367092 12.400146922843097 0 0 0
742 248 2 -1.1794 0.8500504891590657 7.769586314847799 11.404239772338096 0 0 0
724 242 2 -1.1794 0.9222712222133698 11.189166894802737 13.071916162475743 0 0 0
704 235 1 0.5897 -0.7719662811594485 8.29148578872983 12.290234624828411 0 0 0
678 226 1 0.5897 0.8390287909893503 9.667672078695354 14.101189617429664 0 0 0
514 172 2 -1.1794 -0.5574244012820282 6.821915772421005 14.452623524853106 0 0 0
693 231 1 0.5897 -1.8887915896072398 9.551841379630357 10.738085482683953 0 0 0
691 231 2 -1.1794 -1.917658654316282 9.823486513142958 9.82079525257377 0 0 0
750 250 1 0.5897 -3.1383655522858787 10.60031919741648 14.4240165329941 0 0 0
587 196 1 0.5897 -0.8673084091932526 5.61509733907633 10.572557137335922 0 0 0
516 172 1 0.5897 -0.02194103842884676 7.607776527487603 14.342737815523051 0 0 0
586 196 2 -1.1794 -0.4863205406920712 5.91303785407431 9.746595333196376 0 0 0
569 190 1 0.5897 -1.0165770062561332 6.422782826111849 18.06797105680061 0 0 0
706 236 2 -1.1794 -2.791720086302081 9.049878365565574 17.168135571075332 0 0 0
708 236 1 0.5897 -2.154498613435468 8.352822629796298 17.324125800978322 0 0 0
568 190 2 -1.1794 -0.8282570850562925 7.243377369262843 17.61253300842627 0 0 0
515 172 1 0.5897 -1.3186460815013783 7.1180667330643 14.951696382987295 0 0 0
83 28 1 0.5897 -4.355752851524411 7.118719383048996 18.545504480216195 0 0 -1
707 236 1 0.5897 -3.641180944123631 8.609617038293111 17.198361730734632 0 0 0
749 250 1 0.5897 -2.603946932061505 9.489402570339472 15.302644184293127 0 0 0
695 232 1 0.5897 -2.7847651529467017 9.980940466237197 18.680165521718244 0 0 0