LAMMPS data file via write_data, version 30 Jul 2021, timestep = 25500000

864 atoms
2 atom types
576 bonds
1 bond types
288 angles
1 angle types

0.1828184504667174 18.024753949534656 xlo xhi
0.014468599053797604 23.614709200954255 ylo yhi
0.14816416768864293 22.065031632303388 zlo zhi

Masses

1 1.00794
2 15.9994

Atoms # full

707 1 1 0.5897 2.9889636305289202 1.7513619658596367 3.9475651352852035 0 0 0
706 1 2 -1.1794 2.8863083491905264 1.663778836586233 2.999846517425932 0 0 0
30 1 1 0.5897 5.125611574140945 3.9652288948252723 2.3342808851741106 0 0 0
708 1 1 0.5897 2.0503919964948176 2.0890683256739235 2.8086847566074242 0 0 0
29 1 1 0.5897 4.273325624384735 2.7158919937822095 2.40325266075509 0 0 0
28 1 2 -1.1794 5.112974624312896 3.04245611304449 2.079953474261154 0 0 0
495 1 1 0.5897 7.927424622619676 2.095690964569413 2.7535864947712017 0 0 0
1 1 2 -1.1794 0.7499841768163826 3.1438233501513038 1.9423556517164537 0 0 0
494 1 1 0.5897 6.417905570636876 2.184985585835053 2.8243027791506767 0 0 0
493 1 2 -1.1794 7.168484742177253 1.7347756481020369 3.21180423277191 0 0 0
846 1 1 0.5897 7.435736478312915 1.921765398022281 4.989253729134815 0 0 0
3 1 1 0.5897 0.757200425689905 4.036138549958999 2.2888654803967534 0 0 0
136 1 2 -1.1794 5.170640417379338 5.6784873757818675 2.722689967914854 0 0 0
137 1 1 0.5897 5.212628117786007 5.633811336553793 3.678005323151513 0 0 0
597 1 1 0.5897 0.9083262253565281 5.6616339062145835 4.052906761517185 0 0 0
20 1 1 0.5897 0.7488183975451566 3.0002075589521526 0.19038637801229139 0 0 0
595 1 2 -1.1794 0.9073642792458431 5.607419478219968 3.0971645196320527 0 0 0
668 1 1 0.5897 5.346495212584924 3.067452620142628 0.26600849778887287 0 0 0
819 1 1 0.5897 7.270571361166596 0.05499180464555309 2.399770087201506 0 0 0
181 1 2 -1.1794 0.9013576834756883 5.562316979617867 5.906731727599762 0 0 0
419 1 1 0.5897 9.07294528923997 2.8000214972148276 6.372027870411905 0 0 0
176 1 1 0.5897 9.0848697424572 2.4192762887957366 9.715355105219324 0 0 0
489 1 1 0.5897 3.2521331085730636 1.0816285519059594 5.990732064468994 0 0 0
784 1 2 -1.1794 0.9278647313485986 2.851354720420907 6.909585544010738 0 0 0
675 1 1 0.5897 3.2219480425692586 0.7365021279627195 10.15693019313473 0 0 0
785 1 1 0.5897 0.9062751723022296 2.8808742111680976 7.866167464213081 0 0 0
112 1 2 -1.1794 0.8633782625651254 5.525701448965383 10.313715480870039 0 0 0
845 1 1 0.5897 7.434484465433884 1.0644773984304499 6.2371677992045145 0 0 0
183 1 1 0.5897 0.9340978428411787 4.686912386076918 6.292660053154362 0 0 0
487 1 2 -1.1794 3.247299286436651 2.001402067623375 5.725520493515405 0 0 0
84 1 1 0.5897 6.055213730292447 2.8886931544062064 6.58026456972569 0 0 0
36 1 1 0.5897 1.5545002768539267 2.2902236446544944 10.050317288185846 0 0 0
686 1 1 0.5897 5.160271171725586 5.073170248055094 5.9052372118574175 0 0 0
83 1 1 0.5897 4.547824679215932 2.960553823097845 6.460962435136002 0 0 0
34 1 2 -1.1794 0.8141029636191415 2.742523256105953 9.646027873725966 0 0 0
274 1 2 -1.1794 5.0038519772396235 3.237558216096158 9.590598631697844 0 0 0
275 1 1 0.5897 5.092269456431971 3.356880633947293 8.64491004822745 0 0 0
844 1 2 -1.1794 7.521597198595284 1.9707214314634316 5.941415673559668 0 0 0
488 1 1 0.5897 2.397941194055357 2.3312477073695814 6.01872541398812 0 0 0
35 1 1 0.5897 0.983542308638678 3.6709646544731767 9.806105635405013 0 0 0
356 1 1 0.5897 7.295617258403526 0.8980454814242617 9.813960007372398 0 0 0
355 1 2 -1.1794 7.361676077039415 1.7763417878676213 10.188890711794233 0 0 0
276 1 1 0.5897 5.8139337883656825 2.8011618117825954 9.85424014658978 0 0 0
82 1 2 -1.1794 5.306366560022278 3.451566883898119 6.776774692248107 0 0 0
678 1 1 0.5897 5.45358036024323 4.876258796523635 10.272376472128016 0 0 0
673 1 2 -1.1794 3.04264489595147 1.55441989036438 10.620842667567645 0 0 0
674 1 1 0.5897 3.7241966286610486 2.155399290054219 10.319937852990487 0 0 0
676 1 2 -1.1794 5.4626318469025925 5.7611041706316986 10.637504551759372 0 0 0
166 1 2 -1.1794 3.064332509699203 1.4354774371818733 13.432452364070896 0 0 0
167 1 1 0.5897 3.1254650172812894 1.5230687146235284 12.48115153996265 0 0 0
457 1 2 -1.1794 5.2552286430424795 3.123199162555396 13.926902207273661 0 0 0
458 1 1 0.5897 5.961698842038562 2.6679451547931947 13.468753869863583 0 0 0
459 1 1 0.5897 4.487758259431623 2.5657917659566043 13.798493179459614 0 0 0
762 1 1 0.5897 5.184065645323681 4.885773339449237 13.538216374898573 0 0 0
594 1 1 0.5897 8.10299082655111 1.9872310402318074 13.219604118521293 0 0 0
168 1 1 0.5897 2.273243527308034 1.9202557247713865 13.667755059280783 0 0 0
71 1 1 0.5897 5.3091493714237075 3.06538963438197 15.86900807083893 0 0 0
592 1 2 -1.1794 7.295016098745579 1.5404619387813587 12.967103893129195 0 0 0
466 1 2 -1.1794 1.0628007465154448 2.9982316877301542 14.327022138969834 0 0 0
593 1 1 0.5897 7.345038866632433 0.6895444730560407 13.402744070536688 0 0 0
468 1 1 0.5897 0.8978723324180633 2.9056139314786273 15.265425835847193 0 0 0
365 1 1 0.5897 0.9639542569789138 4.665562704083803 13.507456776987672 0 0 0
364 1 2 -1.1794 0.9802912054965577 5.560707064973688 13.168645815868604 0 0 0
467 1 1 0.5897 0.3003286173140651 2.598397185149171 13.908690720669792 0 0 0
760 1 2 -1.1794 5.12661101539846 5.813841854201064 13.310773160531836 0 0 0
761 1 1 0.5897 5.247192621894388 5.836205767826831 12.361382117840945 0 0 0
357 1 1 0.5897 7.371262120570919 1.6331889395018726 11.135360159673032 0 0 0
113 1 1 0.5897 0.8704614002246142 5.448496444691522 11.267852926536781 0 0 0
133 1 2 -1.1794 0.7336333118079178 2.749256547789958 17.007657181744555 0 0 0
323 1 1 0.5897 7.562163696133431 0.05124777112914626 16.96509861038556 0 1 0
289 1 2 -1.1794 3.0524646025285804 1.7026397778486182 17.827651557309963 0 0 0
754 1 2 -1.1794 7.707917737898417 1.7646087577742264 17.477542809256576 0 0 0
568 1 2 -1.1794 3.005469698924237 1.754065826122158 20.600875224698015 0 0 0
290 1 1 0.5897 2.919609573807895 0.7947151667866446 17.554968378223343 0 0 0
72 1 1 0.5897 4.700400089214309 2.546866853079259 17.154594307879186 0 0 0
648 1 1 0.5897 0.5791304193552402 5.698993497460301 19.51948203216206 0 0 0
134 1 1 0.5897 0.6719268971179947 3.642982766744968 17.344976998725024 0 0 0
42 1 1 0.5897 7.4837553584614 0.906786008062376 20.554691310584573 0 0 0
756 1 1 0.5897 6.9176320245440275 2.207394068311427 17.16838261163381 0 0 0
143 1 1 0.5897 5.290521675951012 4.847960701769888 20.764166109232804 0 0 0
646 1 2 -1.1794 0.5648233561016036 5.67705840175362 20.476405296844625 0 0 0
70 1 2 -1.1794 5.42060046495376 3.0810513799291126 16.819648272930444 0 0 0
291 1 1 0.5897 2.2404508169442163 2.1474546481369843 17.58483580596242 0 0 0
40 1 2 -1.1794 7.552695263444556 1.810012931523933 20.245221337174975 0 0 0
667 1 2 -1.1794 5.271710508640589 3.1272961728115565 21.23040105363532 0 0 0
19 1 2 -1.1794 0.5874223227269502 3.039133804667429 21.164479352723852 0 0 0
571 1 2 -1.1794 0.7596090735117484 5.408730561694607 17.7497690211233 0 0 0
21 1 1 0.5897 0.5438176045473204 3.974758637973525 20.96688190348224 0 0 0
569 1 1 0.5897 2.1947144530557416 2.1981172134101374 20.849216668479116 0 0 0
669 1 1 0.5897 4.437050310683812 2.704654373432598 21.028177304026165 0 0 0
755 1 1 0.5897 7.674354485104608 1.8510561136095198 18.430322467527724 0 0 0
41 1 1 0.5897 6.764520148716389 2.2387597427306885 20.578610454777625 0 0 0
570 1 1 0.5897 3.0269105408277612 1.810136985924476 19.645475234457486 0 0 0
278 1 1 0.5897 5.557917277237393 4.8529895637341 17.330506966049107 0 0 0
277 1 2 -1.1794 5.643820888861189 5.716805821388833 17.734007920863085 0 0 0
142 1 2 -1.1794 5.351354784751438 5.768692287352492 20.50942123620279 0 0 0
360 1 1 0.5897 8.847793496739243 2.921280309694 21.194590384325075 0 0 0
144 1 1 0.5897 5.5357285278399635 5.7462241604003195 19.57033509367978 0 0 0
123 1 1 0.5897 3.103887783639791 8.821112175176237 2.6166266722059905 0 0 0
121 1 2 -1.1794 3.2008160670705235 9.727845017831514 2.9078156520000555 0 0 0
122 1 1 0.5897 3.286017178238652 9.666559324524831 3.8593301951404086 0 0 0
44 1 1 0.5897 1.6121913503644476 10.402812934782984 2.3621778547553696 0 0 0
218 1 1 0.5897 6.003103875260016 10.813669968651094 2.087383224252574 0 0 0
417 1 1 0.5897 8.155551239842776 6.53072027302012 2.5903499200940803 0 0 0
219 1 1 0.5897 4.494830285922363 10.684980593606848 2.0748270642298596 0 0 0
254 1 1 0.5897 2.9991657625857844 7.195396778458261 1.1225025314141992 0 0 0
415 1 2 -1.1794 7.495814191420256 7.032011801626911 2.111077212877481 0 0 0
217 1 2 -1.1794 5.211597433508362 11.22109701323521 1.7356454324514987 0 0 0
66 1 1 0.5897 7.49262621733039 9.842538790661255 3.7052969630511305 0 0 0
65 1 1 0.5897 7.494361308516492 8.928326928131591 2.498465125618812 0 0 0
64 1 2 -1.1794 7.505475668186467 9.852377514047857 2.748154779521016 0 0 0
253 1 2 -1.1794 3.0396031758403694 7.251035914241711 2.0773116304286967 0 0 0
255 1 1 0.5897 2.267398628331562 6.772334591999791 2.3785528952061465 0 0 0
416 1 1 0.5897 6.667101171275472 6.6029964284514 2.324038745151636 0 0 0
43 1 2 -1.1794 0.7539442644264264 10.780772152620026 2.1705541106232324 0 0 0
396 1 1 0.5897 0.6976748952379982 10.678888560553405 0.41027176981515917 0 0 0
138 1 1 0.5897 4.418950156818919 6.242748011061727 2.541631471408577 0 0 0
162 1 1 0.5897 7.330721703367464 7.161775097421515 0.40315424552145457 0 0 1
45 1 1 0.5897 0.8541796870243135 11.7133221507026 2.3619603601167287 0 0 0
712 1 2 -1.1794 7.45440327986061 9.714091108033136 5.536227785986768 0 0 0
773 1 1 0.5897 9.038308348822031 10.707114564990643 2.393053296782021 0 0 0
685 1 2 -1.1794 5.136476921755718 5.94650149193696 5.513998477162007 0 0 0
822 1 1 0.5897 8.484617759885879 9.987672795265516 10.097087361610281 0 0 0
677 1 1 0.5897 6.244185748041675 6.16733293511186 10.262859657392877 0 0 0
11 1 1 0.5897 2.320264551625872 6.463652947610525 6.502626904912202 0 0 0
651 1 1 0.5897 4.130339589448016 6.74983357989652 9.877239866243315 0 0 0
687 1 1 0.5897 4.359059212730912 6.357646297382192 5.891860359317176 0 0 0
528 1 1 0.5897 8.481591259144666 6.6070518815065 9.542947200398851 0 0 0
15 1 1 0.5897 1.4035508449820393 10.619986703609513 9.685161586076452 0 0 0
147 1 1 0.5897 7.464502374884677 7.012699257038631 7.517514044551645 0 0 0
793 1 2 -1.1794 3.072377919470362 9.456659877340693 5.6412134251605455 0 0 0
146 1 1 0.5897 6.719539762265076 6.634481033763323 6.25494183025714 0 0 0
577 1 2 -1.1794 5.267023103545749 10.62914400841058 6.910190929937331 0 0 0
580 1 2 -1.1794 5.484945967180021 10.8564176319216 9.677052915907696 0 0 0
257 1 1 0.5897 3.2088097860317366 8.86813354792516 10.21872882808214 0 0 0
582 1 1 0.5897 5.37391316388899 10.639975530018368 8.751200661162054 0 0 0
551 1 1 0.5897 0.706605737870817 11.071720726744388 7.417651580306463 0 0 0
258 1 1 0.5897 3.8359609315604533 10.245441532295455 10.26083059130246 0 0 0
578 1 1 0.5897 6.002754804490091 10.209995998675556 6.463833819389946 0 0 0
256 1 2 -1.1794 3.054589928943239 9.761061080847215 10.527340361609797 0 0 0
13 1 2 -1.1794 0.6473907925396345 10.995449687363655 9.234095445064698 0 0 0
714 1 1 0.5897 7.575330029898991 8.867887292324625 5.967109114593693 0 0 0
12 1 1 0.5897 2.9481550421587 7.839811142704374 6.439338742229069 0 0 0
650 1 1 0.5897 3.2401393195347445 6.95056683188591 8.66923109594122 0 0 0
820 1 2 -1.1794 7.776702576081685 9.464790005438577 10.473481339505962 0 0 0
550 1 2 -1.1794 0.779566335889255 11.027235996652998 6.464186981397772 0 0 0
794 1 1 0.5897 2.30319577915539 9.891244619389914 6.009584051426834 0 0 0
713 1 1 0.5897 8.081862364857402 10.294605072424963 5.966989124088454 0 0 0
795 1 1 0.5897 3.816536935970019 9.928520495492837 6.015102369645889 0 0 0
581 1 1 0.5897 6.285823797559965 10.400491965414831 9.93572539690766 0 0 0
145 1 2 -1.1794 7.517620477860521 7.063804784719566 6.563075896329302 0 0 0
526 1 2 -1.1794 7.601615773413464 6.947561444704633 9.38215867133225 0 0 0
527 1 1 0.5897 7.622182956038869 7.839390718691328 9.72941241668038 0 0 0
10 1 2 -1.1794 3.0339087367338187 6.987515710270353 6.866634307513727 0 0 0
649 1 2 -1.1794 3.2485363174794113 7.022482248001577 9.62377133692953 0 0 0
165 1 1 0.5897 9.064440653172293 6.299352953482013 6.287414061663236 0 0 0
114 1 1 0.5897 1.6824381987387105 5.974054391713075 10.10309543888314 0 0 0
579 1 1 0.5897 5.324465889072707 11.549947163046044 6.654904292047535 0 0 0
828 1 1 0.5897 7.763307102736376 6.9048453310124405 14.534262665364134 0 0 0
261 1 1 0.5897 0.8642957799392562 11.074890690389044 14.869088548421292 0 0 0
332 1 1 0.5897 2.845309018210061 7.828853359812078 14.008747336604827 0 0 0
797 1 1 0.5897 2.7617423159104626 9.468116650590709 12.24264788412357 0 0 0
796 1 2 -1.1794 2.681088045102582 9.37028284110293 13.191493024785176 0 0 0
798 1 1 0.5897 1.9735180278551492 9.967171282450032 13.435019671868519 0 0 0
722 1 1 0.5897 4.2295274891735435 10.326082259551654 13.568162543312008 0 0 0
333 1 1 0.5897 3.677769461922835 6.5644681090826005 13.990563257774738 0 0 0
259 1 2 -1.1794 0.8405129470030048 11.129083496197156 13.913640296398883 0 0 0
721 1 2 -1.1794 5.035258579426426 10.80196606255167 13.769442365309741 0 0 0
723 1 1 0.5897 5.065500828832608 10.82900754401574 14.725862809303711 0 0 0
331 1 2 -1.1794 2.917409427882527 6.964094713896241 14.412896771785196 0 0 0
225 1 1 0.5897 2.9198007306464904 6.826965287515363 16.221183149885384 0 0 0
826 1 2 -1.1794 7.517906355030429 7.020654265811087 13.616254568438896 0 0 0
475 1 2 -1.1794 7.585231796074992 9.874583593225443 13.212213989509838 0 0 0
476 1 1 0.5897 6.7066486148682385 10.24065518306227 13.3133725520541 0 0 0
477 1 1 0.5897 7.462163041785975 8.928841486866697 13.29442066044102 0 0 0
827 1 1 0.5897 6.6382888242452855 6.648399809771215 13.554222568029752 0 0 0
851 1 1 0.5897 9.034950142002817 6.2145726983239555 12.948849257069522 0 0 0
679 1 2 -1.1794 5.289129420191782 10.798291672044384 16.506275502355003 0 0 0
821 1 1 0.5897 7.720833677679201 9.756192063337178 11.383625665059892 0 0 0
520 1 2 -1.1794 7.806829231552872 6.818086108229997 16.379123748069354 0 0 0
366 1 1 0.5897 1.6901240548030836 5.986374509997106 13.649446707137571 0 0 0
446 1 1 0.5897 0.8303780397635854 11.774675770903727 17.066071905723717 0 0 0
223 1 2 -1.1794 3.0162608258967207 6.909397525550841 17.170014388550065 0 0 0
246 1 1 0.5897 9.05252072709163 10.337023546075828 16.854670412657015 0 0 0
647 1 1 0.5897 1.3244986793870506 6.196419676888009 20.73977192686487 0 0 0
363 1 1 0.5897 5.285626127122849 10.98319823387056 21.96004838266483 0 0 0
462 1 1 0.5897 8.90064042347093 6.342732512953869 20.702826866123935 0 0 0
394 1 2 -1.1794 0.8001777083645486 10.73214973601092 21.3768563284588 0 0 0
7 1 2 -1.1794 7.676218159121594 9.429481182500668 17.205998372490825 0 0 0
161 1 1 0.5897 6.617375915622303 6.76213903380653 21.04583629896875 0 0 0
279 1 1 0.5897 4.797354927402479 6.137413207771925 17.58318521415913 0 0 0
521 1 1 0.5897 7.091590472274847 6.394731555023168 16.853927454675578 0 0 0
522 1 1 0.5897 7.735065949979795 7.743695397086537 16.612455360876332 0 0 0
626 1 1 0.5897 2.9979692769621695 9.716709300554431 18.523976897476885 0 0 0
5 1 1 0.5897 3.616773021028371 6.52915029817455 21.03814829971568 0 0 0
4 1 2 -1.1794 2.8237528417385627 7.037931461163565 21.206862328692935 0 0 0
224 1 1 0.5897 2.9482514593845552 7.849448432005145 17.337400435392233 0 0 0
361 1 2 -1.1794 5.352093307158457 10.971370596047269 21.00514744509153 0 0 0
689 1 1 0.5897 3.8076725546721737 10.20494376681245 20.562584286119638 0 0 0
625 1 2 -1.1794 3.061537292883933 9.689327274654827 17.569195536373158 0 0 0
139 1 2 -1.1794 7.584617506987492 9.67548475444644 19.907889802625213 0 0 0
445 1 2 -1.1794 0.8362255447560811 10.90538686516196 16.665266077058916 0 0 0
680 1 1 0.5897 4.4932023061530995 10.383909562712152 16.839421954656686 0 0 0
627 1 1 0.5897 2.278447393901922 10.146918959331371 17.263294255351006 0 0 0
141 1 1 0.5897 7.593346677981848 8.823968940161983 20.345146325413594 0 0 0
9 1 1 0.5897 6.8356689280696905 9.79515831394796 16.93045297483698 0 0 0
6 1 1 0.5897 3.0116942204474237 7.903144101256118 20.84295172936222 0 0 0
690 1 1 0.5897 2.3061575092540467 10.056161588548504 20.684763534169434 0 0 0
688 1 2 -1.1794 3.0793173841867563 9.640861527801464 20.302730963455744 0 0 0
140 1 1 0.5897 6.768348700515931 10.084491899322684 20.195286932996126 0 0 0
160 1 2 -1.1794 7.3536709282409225 7.280535250377851 21.370407400823524 0 0 0
8 1 1 0.5897 7.612048724066358 9.372066015405318 18.15940564194461 0 0 0
287 1 1 0.5897 8.781391666812572 10.81668011124062 20.838722090089426 0 0 0
681 1 1 0.5897 5.265192621456647 11.68600730189072 16.863668557394547 0 0 0
572 1 1 0.5897 1.5102713551026359 5.966133795497151 17.5447942834125 0 0 0
200 1 1 0.5897 5.265667825605283 13.264189962089853 4.900108665426988 0 0 0
173 1 1 0.5897 4.4110035808617996 14.147455981811246 2.838335850324424 0 0 0
172 1 2 -1.1794 5.122575087440958 13.595892302716448 3.163393620618089 0 0 0
293 1 1 0.5897 3.039128825164712 16.744550054885707 2.5855340621872847 0 0 0
558 1 1 0.5897 3.145348488997651 14.951606419832922 1.045750653752591 0 0 0
556 1 2 -1.1794 3.0238813194990466 15.003365201136099 1.9938783904147894 0 0 0
557 1 1 0.5897 2.206290620049376 14.53317246154102 2.1570984770649373 0 0 0
478 1 2 -1.1794 7.279361309587227 15.024426735236617 2.174723931476647 0 0 0
174 1 1 0.5897 5.096435084998161 12.817577983625268 2.606712025996645 0 0 0
479 1 1 0.5897 8.056941869427114 14.582565763287876 2.515797446439531 0 0 0
449 1 1 0.5897 7.61806224193135 16.74126968593447 2.8161492223209255 0 0 0
480 1 1 0.5897 6.546154501133387 14.492365612076481 2.483823200774465 0 0 0
373 1 2 -1.1794 0.7313621656879813 13.45091408159379 2.711933619721003 0 0 0
374 1 1 0.5897 0.693284669877605 13.416819496821041 3.667859236490939 0 0 0
655 1 2 -1.1794 0.6877456145027654 13.551467151145461 5.533703383004773 0 0 0
317 1 1 0.5897 7.369404929820626 15.094303738145321 0.4148981088429906 0 0 0
448 1 2 -1.1794 7.73219464015778 17.668511809127047 3.0248130877833694 0 0 0
292 1 2 -1.1794 3.0411173493352797 17.635956187173413 2.934442502955785 0 0 0
294 1 1 0.5897 3.0832480209691093 17.521949915333266 3.88397363765679 0 0 0
14 1 1 0.5897 0.6537764818794467 11.919656755143645 9.483383119394285 0 0 0
16 1 2 -1.1794 3.0293812769060726 14.83113415321752 6.47734311501977 0 0 0
18 1 1 0.5897 3.768919406797554 14.269742042279582 6.244687528998981 0 0 0
376 1 2 -1.1794 7.42398640654083 14.924919500897614 9.307653721490677 0 0 0
766 1 2 -1.1794 0.8712985449744228 13.557774251069407 10.080693576631282 0 0 0
199 1 2 -1.1794 5.246845004603616 13.279652839207852 5.857079111546484 0 0 0
184 1 2 -1.1794 7.61698785400083 17.40602546934354 10.64991878434566 0 0 0
656 1 1 0.5897 1.4430083097807227 14.007520927301181 5.904938712931521 0 0 0
307 1 2 -1.1794 7.476251557343067 17.563096522362542 5.7627196908476295 0 0 0
454 1 2 -1.1794 5.184474759115565 13.571473745328971 10.392435478834889 0 0 0
186 1 1 0.5897 7.634428029625419 16.560002041789822 10.202367942297494 0 0 0
382 1 2 -1.1794 3.187311812717993 17.282044356155154 10.579004174299724 0 0 0
456 1 1 0.5897 5.333154497269998 12.665479868099403 10.12150885519699 0 0 0
378 1 1 0.5897 7.38997630776152 14.94029644590813 8.351098701354427 0 0 0
377 1 1 0.5897 6.588530667287531 14.539374374464513 9.571356523814911 0 0 0
812 1 1 0.5897 3.7486088289534214 14.38588287213048 9.594347108008154 0 0 0
17 1 1 0.5897 3.022561523416904 14.83468875371079 7.434599304626122 0 0 0
384 1 1 0.5897 3.1418218091848167 16.43158452517347 10.141976626570731 0 0 0
517 1 2 -1.1794 7.376383158198669 14.949608793588357 6.546432694258075 0 0 0
811 1 2 -1.1794 3.0531490399819674 14.94156990871366 9.242532636770347 0 0 0
519 1 1 0.5897 8.190232276147173 14.52212888930945 6.279802034720834 0 0 0
813 1 1 0.5897 2.242228918555228 14.505189818432516 9.50365041574794 0 0 0
518 1 1 0.5897 7.423506456555595 15.821491584369305 6.154077308668302 0 0 0
239 1 1 0.5897 2.99395230569837 16.585473821078438 6.07331009831516 0 0 0
201 1 1 0.5897 5.936503037596238 13.897080520307657 6.100758651392675 0 0 0
59 1 1 0.5897 8.928695828107404 14.07982489946461 9.855339113499811 0 0 0
238 1 2 -1.1794 2.964093125319608 17.487059557416053 5.752991528852519 0 0 0
552 1 1 0.5897 0.7342214402419576 11.939329402502166 6.177184656905688 0 0 0
767 1 1 0.5897 0.8702089305061832 13.594592859469628 11.037271812229667 0 0 0
429 1 1 0.5897 5.8732577184991595 13.79471862325355 13.402709585635645 0 0 0
232 1 2 -1.1794 2.8751820083048 14.885710912990458 14.008491276557235 0 0 0
234 1 1 0.5897 2.949341842165334 14.897251118301039 14.962826757473154 0 0 0
606 1 1 0.5897 2.969630340805281 16.586681458138635 13.539876338199466 0 0 0
427 1 2 -1.1794 5.049540590007661 13.435973077345963 13.072603464944976 0 0 0
233 1 1 0.5897 3.6892296979534813 14.480690990629396 13.709355704271397 0 0 0
639 1 1 0.5897 1.5986511689979364 14.11437480403866 13.177152550584246 0 0 0
428 1 1 0.5897 5.10542883597919 12.498174159407023 13.256318104926233 0 0 0
297 1 1 0.5897 8.246207407299892 14.356706467587532 13.62319722999191 0 0 0
296 1 1 0.5897 7.427169204240545 14.537371162470116 14.883621915990402 0 0 0
295 1 2 -1.1794 7.372763690966452 14.599972425743708 13.929934449169831 0 0 0
270 1 1 0.5897 7.474176620863949 16.319237087271638 13.569090743610934 0 0 0
638 1 1 0.5897 0.926270080720559 12.758024625429016 13.193392743620995 0 0 0
637 1 2 -1.1794 0.8685900239411505 13.626832033232914 12.79566411035184 0 0 0
605 1 1 0.5897 3.0278795461264663 17.485815009352983 12.32316152047102 0 0 0
268 1 2 -1.1794 7.675789544270913 17.23132924804542 13.35987794706798 0 0 0
269 1 1 0.5897 7.586552401008548 17.28467957887127 12.40826034357426 0 0 0
604 1 2 -1.1794 3.033111931648618 17.505856962276944 13.280216601835638 0 0 0
455 1 1 0.5897 5.124315495115931 13.529768134323286 11.346913512579741 0 0 0
716 1 1 0.5897 2.8711737957029233 17.52100825651813 19.460012244618895 0 0 0
362 1 1 0.5897 5.316823122933077 11.89350607589278 20.750667317640143 0 0 0
664 1 2 -1.1794 3.0904656326729416 14.960265205665534 21.273123498274508 0 0 0
124 1 2 -1.1794 5.201768455864447 13.284693206967926 17.587662538874973 0 0 0
157 1 2 -1.1794 7.617520504715317 17.352877759792705 20.26847820733453 0 0 0
126 1 1 0.5897 5.99036194308709 13.729492785249912 17.277063497083134 0 0 0
666 1 1 0.5897 2.968685765319251 15.847262025092267 20.934371490729234 0 0 0
49 1 2 -1.1794 7.404835130986701 14.61934215288556 16.631741395701837 0 0 0
610 1 2 -1.1794 7.503991111168908 17.362366281671697 17.49668973046196 0 0 0
159 1 1 0.5897 7.785068428699327 17.404651315982612 19.32740254125916 0 0 0
825 1 1 0.5897 2.478681137380294 14.327039593223116 17.12755369403282 0 0 0
584 1 1 0.5897 2.926781241233024 16.50241034689644 17.366701636114136 0 0 0
51 1 1 0.5897 8.118370582382354 14.213267044451529 17.123877592432095 0 0 0
452 1 1 0.5897 0.940481615336068 12.6016715161096 20.877653720916186 0 0 0
125 1 1 0.5897 5.258735410915211 13.333559131593464 18.542000463886588 0 0 0
683 1 1 0.5897 5.969385139588371 14.04547171484204 20.810572236587866 0 0 0
53 1 1 0.5897 0.9020643087919792 13.437292428166465 18.594434744340425 0 0 0
823 1 2 -1.1794 3.189273863822554 14.874676354154634 16.79380681495318 0 0 0
682 1 2 -1.1794 5.250513023080566 13.589320039731366 20.37310030690336 0 0 0
50 1 1 0.5897 7.480894151397822 15.553676697898402 16.82556870264839 0 0 0
665 1 1 0.5897 2.3225290411855846 14.478482543804898 20.965919482732957 0 0 0
715 1 2 -1.1794 2.8257876878203043 17.597153099628898 20.41317781746138 0 0 0
316 1 2 -1.1794 7.371139713965775 14.9012748282683 21.394132149717414 0 0 0
318 1 1 0.5897 7.462319471990134 15.756195900892221 20.97324772924589 0 0 0
451 1 2 -1.1794 1.0001797585885823 13.433485742348207 20.407686427225812 0 0 0
824 1 1 0.5897 3.9881793910064784 14.425849617972307 17.070404704069013 0 0 0
684 1 1 0.5897 4.45907324116456 14.004021688727338 20.716384454423014 0 0 0
52 1 2 -1.1794 0.9531490583985888 13.480651596312665 17.639499003257207 0 0 0
453 1 1 0.5897 0.2482296081986135 13.938484998345977 20.717131875139785 0 0 0
583 1 2 -1.1794 2.875714133402105 17.381578171910952 17.741932128921313 0 0 0
54 1 1 0.5897 0.20550117818498848 14.020696227940103 17.383413151342893 0 0 0
117 1 1 0.5897 9.015009957865786 14.405218376065344 21.02109517408848 0 0 0
267 1 1 0.5897 5.825321221208776 21.808149106427535 2.93454131467647 0 0 0
696 1 1 0.5897 1.3964734442018476 21.88563901865765 2.698569697335753 0 0 0
266 1 1 0.5897 4.3203963151505675 21.733529569520186 2.7886737622398368 0 0 0
265 1 2 -1.1794 5.066987513260936 21.27599750826237 3.1752964683121836 0 0 0
228 1 1 0.5897 5.251794740946935 19.689965378585924 2.42823799069782 0 0 0
343 1 2 -1.1794 0.69978668226399 18.92923364485909 2.3031713530163365 0 0 0
249 1 1 0.5897 5.146448042445487 21.296920405562744 4.914556916139625 0 0 0
226 1 2 -1.1794 5.35264212486608 18.790344529818775 2.1170331998397582 0 0 0
187 1 2 -1.1794 2.9032539873486893 22.632408893059797 2.113702318692212 0 0 0
227 1 1 0.5897 4.538180663302434 18.356007856906395 2.370390186147178 0 0 0
818 1 1 0.5897 8.187732503854841 22.452583360628644 2.3333555238014596 0 0 0
189 1 1 0.5897 2.95801502076617 22.652416313410413 1.1581993374777417 0 0 0
344 1 1 0.5897 1.4854092717103462 18.454645765510172 2.5747460336526524 0 0 0
817 1 2 -1.1794 7.3101830362078815 22.749445134208607 2.092645740863224 0 0 0
345 1 1 0.5897 0.7032517959716285 18.872271051610255 1.347589811024433 0 0 0
694 1 2 -1.1794 0.6693108829643649 21.469500351685653 3.1614880939192522 0 0 0
413 1 1 0.5897 0.6671691635629291 21.5184426941612 4.917675924508991 0 0 0
695 1 1 0.5897 0.7202707268583652 20.54753694767888 2.909034707370359 0 0 0
450 1 1 0.5897 6.897816650456343 18.072589879513103 2.786643517715809 0 0 0
188 1 1 0.5897 3.0064310482503522 23.546299316187124 2.3792080713333013 0 0 0
602 1 1 0.5897 5.296587289909437 18.674883021545085 0.25634477182372595 0 0 0
308 1 1 0.5897 7.554273795821023 17.758378974024843 4.82882249722404 0 0 0
498 1 1 0.5897 7.185722666368228 22.699643969507157 0.24555952727730102 0 0 0
95 1 1 0.5897 0.24449004848984893 21.801948853909032 10.109408312084373 1 0 0
102 1 1 0.5897 5.506708254036255 18.675571160323187 8.607362366262434 0 0 0
31 1 2 -1.1794 7.425387528458588 22.78833287999418 6.662949916820761 0 0 0
702 1 1 0.5897 2.223252153748214 22.580902463965998 6.3654692991109325 0 0 0
404 1 1 0.5897 1.797638719725228 18.130985559221998 9.957736711342262 0 0 0
185 1 1 0.5897 8.332332194852249 17.902562628226967 10.252483617444094 0 0 0
412 1 2 -1.1794 0.7633272826554448 21.569742434333783 5.868729981251153 0 0 0
32 1 1 0.5897 8.177448848357647 22.299433111845893 6.3288693427650715 0 0 0
94 1 2 -1.1794 0.9791399062041286 21.26809086274332 10.411889806711558 0 0 0
85 1 2 -1.1794 7.2495042190336525 22.695097169446676 9.431190178768889 0 0 0
341 1 1 0.5897 1.548586609694971 18.358973679798957 6.532670726857939 0 0 0
403 1 2 -1.1794 1.0379053390270347 18.565141779925703 9.569767585209863 0 0 0
39 1 1 0.5897 3.866634248458862 22.245622567976383 9.799449879251375 0 0 0
86 1 1 0.5897 7.2855801449496225 22.628026482990514 8.476945019200604 0 0 0
387 1 1 0.5897 5.290419143760696 19.668884326722278 6.567965272280167 0 0 0
383 1 1 0.5897 3.9396449505152438 17.7177213293266 10.178506320179018 0 0 0
553 1 2 -1.1794 5.168928364007718 21.25253488682001 10.496414041982977 0 0 0
386 1 1 0.5897 5.985267532114657 18.333022486731103 6.4107886035656305 0 0 0
101 1 1 0.5897 6.159222049065102 18.201575571496306 9.88865260227413 0 0 0
87 1 1 0.5897 8.021710426192795 22.217832503279205 9.734709261106602 0 0 0
247 1 2 -1.1794 5.246665605499471 21.40141647778303 5.860823107634141 0 0 0
700 1 2 -1.1794 3.030517649229956 23.000872883655774 6.662348688313011 0 0 0
555 1 1 0.5897 5.181809426032997 20.383589957267468 10.095027042126397 0 0 0
340 1 2 -1.1794 0.8376075516609088 18.888315687463155 6.893962442028692 0 0 0
100 1 2 -1.1794 5.409082854969381 18.696666310342465 9.559414832051974 0 0 0
38 1 1 0.5897 2.3562851976157835 22.187884507019007 9.714616980047845 0 0 0
554 1 1 0.5897 5.86506813254556 21.733810299310747 10.049209623797804 0 0 0
248 1 1 0.5897 4.469217353449356 21.889468535741756 6.132092925107944 0 0 0
37 1 2 -1.1794 3.1141204268732543 22.677998764499094 9.395717553070847 0 0 0
701 1 1 0.5897 2.9819219028125747 22.966009954174595 7.61775822714505 0 0 0
385 1 2 -1.1794 5.231356657731961 18.749593519063914 6.828283995075976 0 0 0
405 1 1 0.5897 1.0339315947778358 19.438178826466277 9.962372939106768 0 0 0
33 1 1 0.5897 6.663976859259216 22.29360792753608 6.3601174089922035 0 0 0
414 1 1 0.5897 0.7236926833914763 20.659824903949136 6.163395206037971 0 0 0
342 1 1 0.5897 0.9024409452333371 18.763198823247144 7.840813645498789 0 0 0
240 1 1 0.5897 3.7749074376638063 17.882462742941925 6.073069392620661 0 0 0
309 1 1 0.5897 8.278271804484177 17.914580210818393 6.149271156955667 0 0 0
88 1 2 -1.1794 5.245821002777205 21.235043990697406 13.31926866360662 0 0 0
381 1 1 0.5897 1.573550399505007 21.96605043676115 13.515778867611244 0 0 0
90 1 1 0.5897 5.207389227663542 20.3084532505343 13.556521457652329 0 0 0
763 1 2 -1.1794 5.419312256625965 18.64850579100544 14.098697711703801 0 0 0
738 1 1 0.5897 3.866142226230789 21.98421020537255 14.068028892709872 0 0 0
89 1 1 0.5897 5.231016953384229 21.238534762092435 12.362110561014031 0 0 0
736 1 2 -1.1794 3.0487059244399735 22.417823469628573 14.312929362294936 0 0 0
789 1 1 0.5897 6.651151029727967 22.17868131491887 13.777498497513726 0 0 0
765 1 1 0.5897 6.195978877764845 18.17911725398166 13.794280600886806 0 0 0
787 1 2 -1.1794 7.45123379373622 22.615538101623585 14.069429925867706 0 0 0
503 1 1 0.5897 1.610306899383002 18.603506901842884 13.730257916898198 0 0 0
764 1 1 0.5897 4.684884221956349 18.178639518919397 13.70364259645035 0 0 0
474 1 1 0.5897 5.292825416200132 18.64319392493219 15.876843895192831 0 0 0
350 1 1 0.5897 2.8477768551799967 22.585870052967067 16.039541108313788 0 0 0