LAMMPS data file via write_data, version 30 Jul 2021, timestep = 1000000

864 atoms
2 atom types
576 bonds
1 bond types
288 angles
1 angle types

0.13926531536316844 18.068307084635585 xlo xhi
0.18166944166313215 23.447508358335718 ylo yhi
0.053371129501288195 22.159824670499063 zlo zhi

Masses

1 1.00794
2 15.9994

Atoms # full

707 1 1 0.5897 2.7088968891669865 1.744333751138348 3.4513227049551483 0 0 0
706 1 2 -1.1794 2.6191075187445025 1.6106260271887196 2.5076161036275755 0 0 0
30 1 1 0.5897 5.208231367240276 3.7903752695151685 2.383478643059219 0 0 0
708 1 1 0.5897 1.9829773553625576 2.2703225266704417 2.231206006742431 0 0 0
29 1 1 0.5897 4.276088423610831 2.608646279776138 2.546839208478277 0 0 0
28 1 2 -1.1794 5.081196989711279 2.88252722053481 2.1075686301636707 0 0 0
495 1 1 0.5897 8.18450827827763 2.340221460567278 2.716194094165281 0 0 0
846 1 1 0.5897 7.366459615661901 1.7466255850456016 4.986734514520784 0 0 0
1 1 2 -1.1794 0.7245288277831505 3.3840250071951776 1.898119248248193 0 0 0
494 1 1 0.5897 6.68083876913357 2.226076280907698 2.8478369154754577 0 0 0
493 1 2 -1.1794 7.50004729165477 1.88744785769261 3.20891793866542 0 0 0
595 1 2 -1.1794 1.1448808153522672 5.872079612337866 3.1725148858212275 0 0 0
3 1 1 0.5897 1.1037711618782213 4.0856684474126785 2.4275241535249794 0 0 0
668 1 1 0.5897 4.810801266536642 3.056662849416175 0.44897252345112326 0 0 0
137 1 1 0.5897 5.410574566943449 5.62415467499213 3.8203782988831647 0 0 0
136 1 2 -1.1794 5.298409418589091 5.397886595356248 2.896924283044997 0 0 0
597 1 1 0.5897 1.3008698220556643 5.935463583176242 4.114940602030833 0 0 0
487 1 2 -1.1794 3.277082376674667 2.023464997100228 5.25221520291725 0 0 0
685 1 2 -1.1794 5.558027242620727 5.671354003077002 5.568235153027444 0 0 0
20 1 1 0.5897 0.3983222349376066 3.343859641064076 0.1501485151323152 0 0 0
355 1 2 -1.1794 7.5631940025955116 1.7829321014676631 10.50859652073036 0 0 0
35 1 1 0.5897 1.1739257600728248 3.8147344490159036 9.9138595940159 0 0 0
83 1 1 0.5897 4.780872094576949 2.6932569926004133 6.519525605817077 0 0 0
176 1 1 0.5897 8.791322749691105 2.7948363776493403 9.831878269899157 0 0 0
488 1 1 0.5897 2.6934838692731993 2.574044737527687 5.774304491036727 0 0 0
784 1 2 -1.1794 1.2972233114684768 3.160567846131023 6.906156151688186 0 0 0
673 1 2 -1.1794 3.5375834086057822 1.7347255555679035 10.909595365055688 0 0 0
675 1 1 0.5897 3.4953801908183544 0.9190453350075438 10.410248836865538 0 0 0
113 1 1 0.5897 0.9076598898675863 5.680643003483762 11.101434372328782 0 0 0
112 1 2 -1.1794 1.013526149321625 5.815583172212689 10.159565560404655 0 0 0
845 1 1 0.5897 7.64815016362584 0.8700132777312058 6.188697232574937 0 0 0
274 1 2 -1.1794 5.388074217563926 3.222708817788096 9.75037520534988 0 0 0
678 1 1 0.5897 5.759700305319563 4.750597508926997 10.516027656416043 0 0 0
844 1 2 -1.1794 7.6490935703221545 1.7829687334217428 5.900670532293458 0 0 0
36 1 1 0.5897 1.7879299570862646 2.4323989951535907 9.847120329240278 0 0 0
785 1 1 0.5897 1.1720414771517005 3.059059428070863 7.849841841690884 0 0 0
674 1 1 0.5897 4.18263116810322 2.26764178328119 10.444606519546754 0 0 0
82 1 2 -1.1794 5.402286003984581 3.241869304737634 6.998224269052908 0 0 0
276 1 1 0.5897 6.0514268937937405 2.584767486404698 10.013543978608299 0 0 0
34 1 2 -1.1794 1.0062237542673738 2.9261824769901867 9.599511936669565 0 0 0
275 1 1 0.5897 5.371345118554956 3.171199857938712 8.794538916396261 0 0 0
356 1 1 0.5897 7.208700492491969 0.9360467079979121 10.237466889992533 0 0 0
84 1 1 0.5897 6.260398186182999 2.9773315686530553 6.66688415066417 0 0 0
183 1 1 0.5897 1.062948671344063 4.900333464553428 6.178779305126741 0 0 0
686 1 1 0.5897 5.462039901126677 4.779876936355295 5.903632672081245 0 0 0
676 1 2 -1.1794 5.807355780792085 5.655100070902503 10.825929539619931 0 0 0
489 1 1 0.5897 3.274072952897437 1.1777168399710032 5.7007116868635235 0 0 0
786 1 1 0.5897 0.49394858438400996 2.813067637787592 6.518652416368338 0 0 0
181 1 2 -1.1794 1.276771914598851 5.805501409756811 5.9521521083877005 0 0 0
166 1 2 -1.1794 3.008225030099219 2.0129556499190793 13.698626254296963 0 0 0
167 1 1 0.5897 3.2678443122246374 1.9983478558970489 12.777282210432993 0 0 0
457 1 2 -1.1794 5.292748839120456 3.6162430095373166 14.664324067281397 0 0 0
458 1 1 0.5897 5.848596488793856 2.9892503721929415 14.201431661494274 0 0 0
459 1 1 0.5897 4.449196490647429 3.1719985883292137 14.749070966607242 0 0 0
762 1 1 0.5897 5.480240965948531 5.306031139354569 13.982138783178357 0 0 0
466 1 2 -1.1794 0.566606159379415 3.2359133388719257 14.084055359914068 0 0 0
168 1 1 0.5897 2.0562246546854217 2.1094042499316332 13.67810081405236 0 0 0
365 1 1 0.5897 0.7913131649452224 5.030065172714596 13.492104380759443 0 0 0
592 1 2 -1.1794 6.895142137274085 2.0274403131395524 13.298366050871477 0 0 0
594 1 1 0.5897 7.624475133020099 2.454868282243037 13.747378476060362 0 0 0
468 1 1 0.5897 0.6049272454073361 3.0133373613435985 15.014396619016631 0 0 0
593 1 1 0.5897 6.9605623631199025 1.1077385002164013 13.55586082501242 0 0 0
71 1 1 0.5897 5.588205312487723 3.504074984991059 16.385081964486083 0 0 0
364 1 2 -1.1794 0.8750373339873252 5.857944135071491 13.01872161337458 0 0 0
357 1 1 0.5897 7.265423657435423 1.889690576583597 11.412150966607793 0 0 0
761 1 1 0.5897 5.791521825199559 5.9473271661365965 12.646324834544387 0 0 0
599 1 1 0.5897 8.885816163529196 2.6194300930871504 17.572795187082782 0 0 0
40 1 2 -1.1794 7.236087550734883 1.9084797913927243 21.086038563150325 0 0 0
462 1 1 0.5897 8.976491002373743 5.938104770734581 20.867720744229246 0 0 0
755 1 1 0.5897 7.289250860461284 1.8421485026724167 19.289039458901364 0 0 0
754 1 2 -1.1794 7.499256741742955 1.974297559107942 18.364409214371953 0 0 0
72 1 1 0.5897 4.717456081417301 2.9459038202858734 17.49071201761481 0 0 0
289 1 2 -1.1794 3.2126946092423547 2.0313247989877814 17.948986893202218 0 0 0
291 1 1 0.5897 2.4041715206353818 2.4383381942396194 17.63789122230451 0 0 0
143 1 1 0.5897 4.740730035457486 4.867851580690007 20.66908488305841 0 0 0
569 1 1 0.5897 2.0818041423965674 2.144592303752253 20.998072313299474 0 0 0
278 1 1 0.5897 5.526257229085673 5.246434814052775 17.52280193496513 0 0 0
570 1 1 0.5897 2.9370761189695798 1.8943391359418167 19.774099836353983 0 0 0
667 1 2 -1.1794 4.939111836656361 3.1798570589892496 21.614741601603363 0 0 0
669 1 1 0.5897 4.26461619735657 2.6364924201299793 21.207244508209257 0 0 0
19 1 2 -1.1794 0.32123781739143725 3.18104248034346 21.316343818848864 0 0 0
290 1 1 0.5897 3.1146622832149142 1.1045691777065891 17.72996697847519 0 0 0
568 1 2 -1.1794 2.8939321050808595 1.7243483641451047 20.71525207829479 0 0 0
41 1 1 0.5897 6.473275809889715 2.272505001769022 21.535276057571537 0 0 0
360 1 1 0.5897 8.848959692075757 2.5855811135986317 21.42806957686883 0 0 0
42 1 1 0.5897 7.2803716167931425 1.0003676264443317 21.385728710515586 0 0 0
756 1 1 0.5897 6.833638712971458 2.5872840323181707 18.052231501331107 0 0 0
646 1 2 -1.1794 0.3919431982168846 5.792325672096734 20.351652693531 0 0 0
648 1 1 0.5897 0.5539443090110276 5.767148225608557 19.408438320601775 0 0 0
21 1 1 0.5897 0.37205232356001305 4.049757206127701 20.91732724296488 0 0 0
134 1 1 0.5897 0.7820300466077325 3.924299338907767 17.32034564032083 0 0 0
133 1 2 -1.1794 0.7225150665668661 2.992005157297027 17.11121251052659 0 0 0
70 1 2 -1.1794 5.5060561086215465 3.4664703247607194 17.338161314049437 0 0 0
571 1 2 -1.1794 0.7281302416029963 5.64877540802642 17.645752913924532 0 0 0
142 1 2 -1.1794 4.8764881687565085 5.796244440337529 20.479133021891883 0 0 0
323 1 1 0.5897 7.287777086065685 0.3877558154512325 17.535612585964138 0 1 0
144 1 1 0.5897 4.961388667152665 5.836399639678136 19.52639423914784 0 0 0
255 1 1 0.5897 2.508373033340511 6.598502606147711 2.2669259158087285 0 0 0
123 1 1 0.5897 3.434886686403817 8.653460400188814 2.435900929833162 0 0 0
121 1 2 -1.1794 3.179650010205164 9.458992049700404 2.885801343881341 0 0 0
122 1 1 0.5897 3.3766951439537856 9.29190297638134 3.8076256974651566 0 0 0
44 1 1 0.5897 1.6068797309570975 10.574330247819052 2.5632221810617453 0 0 0
218 1 1 0.5897 5.845340078185104 10.517965483920067 2.2819300784028496 0 0 0
416 1 1 0.5897 6.6159406302827195 6.356191227206794 2.405112391953699 0 0 0
219 1 1 0.5897 4.336338317423915 10.546221978315032 2.1656456442755503 0 0 0
253 1 2 -1.1794 3.2990042021743524 6.959428177183686 1.8658990050224367 0 0 0
43 1 2 -1.1794 0.8440540765923181 10.935313944177619 2.111580727694639 0 0 0
217 1 2 -1.1794 5.124841346791597 11.01992956897615 1.9009751698931479 0 0 0
415 1 2 -1.1794 7.359425229161751 6.900764609358419 2.146499771822695 0 0 0
363 1 1 0.5897 5.3419279814291585 11.141383964018848 0.2077940995278506 0 0 1
66 1 1 0.5897 7.345792295940011 9.771271751732586 3.747956292869517 0 0 0
65 1 1 0.5897 7.403144400286601 8.617760732754947 2.768863736558538 0 0 0
64 1 2 -1.1794 7.348754857646972 9.572567957539826 2.811454301184846 0 0 0
254 1 1 0.5897 3.071053212469686 7.069849967184543 0.942647531378703 0 0 0
596 1 1 0.5897 0.3433259947560079 6.374738452160535 3.0276208902291817 1 0 0
417 1 1 0.5897 8.12041610710458 6.465983731910653 2.5312690634001984 0 0 0
396 1 1 0.5897 0.8559749409035502 11.005340627836263 0.32063204422296976 0 0 0
162 1 1 0.5897 7.2635987267473485 6.7922986780322265 0.35675854012522723 0 0 1
138 1 1 0.5897 4.66561043929635 6.036651944646043 2.5684996933086617 0 0 0
773 1 1 0.5897 8.922211382264127 10.353039838841118 2.417103417955301 0 0 0
793 1 2 -1.1794 3.4153463229262657 9.427682634763444 5.5762674349948735 0 0 0
146 1 1 0.5897 6.84271323378578 6.680414251076795 6.323167962033042 0 0 0
256 1 2 -1.1794 3.07668247125355 9.521575344669706 10.505943501503179 0 0 0
714 1 1 0.5897 7.587681020704993 9.054500481561726 6.21358037564348 0 0 0
526 1 2 -1.1794 7.538381456222263 7.201195853822433 9.447278123980329 0 0 0
145 1 2 -1.1794 7.537483129870303 7.22479571145637 6.693546344867962 0 0 0
13 1 2 -1.1794 1.1064821627152397 10.564824572612709 9.039086713307865 0 0 0
578 1 1 0.5897 6.2050195182482994 10.490118831157265 6.565021621047155 0 0 0
12 1 1 0.5897 3.513788376144483 7.734975660516303 6.321015544647219 0 0 0
528 1 1 0.5897 8.371325460911777 6.8569775142925256 9.769637501202647 0 0 0
550 1 2 -1.1794 1.1430947685612913 10.759035536486481 6.338070770551907 0 0 0
650 1 1 0.5897 3.7803108644883197 6.748140717246509 8.799557392377821 0 0 0
114 1 1 0.5897 1.8711301886014957 6.231381314982176 10.07160375695569 0 0 0
527 1 1 0.5897 7.540236087026415 8.121155358286174 9.712178083596786 0 0 0
15 1 1 0.5897 1.7107399955772271 10.101070967853737 9.61883193333884 0 0 0
580 1 2 -1.1794 5.0252230373307 11.2449033239879 9.659190978692859 0 0 0
581 1 1 0.5897 5.82577516686871 10.797909707755716 9.933895702585982 0 0 0
147 1 1 0.5897 7.506500021513267 7.0467992870356255 7.6337105633847235 0 0 0
651 1 1 0.5897 4.347113198367071 6.432932280941322 10.167724320996417 0 0 0
649 1 2 -1.1794 3.596515627867767 6.839499256924821 9.734644537866913 0 0 0
687 1 1 0.5897 4.972438223011574 6.197159976144179 6.1131687493153954 0 0 0
577 1 2 -1.1794 5.3521306607535735 10.801672360199726 6.867744312275934 0 0 0
258 1 1 0.5897 3.8301931287209765 10.027129484342234 10.201282100538606 0 0 0
10 1 2 -1.1794 3.5918268870152925 6.972895788486763 6.895136326415397 0 0 0
257 1 1 0.5897 3.2313951273550807 8.63681777102584 10.174719430016664 0 0 0
794 1 1 0.5897 2.623328840378527 9.867699353234993 5.884914083337592 0 0 0
582 1 1 0.5897 5.04696305326009 11.210120279581263 8.702713944625721 0 0 0
822 1 1 0.5897 8.231650610133919 10.465827639703436 9.674209463201617 0 0 0
820 1 2 -1.1794 7.5046752375878905 9.966997733579948 10.046886968225062 0 0 0
11 1 1 0.5897 2.7839153457322774 6.480208539864102 6.7512070715375145 0 0 0
677 1 1 0.5897 6.4447550235104245 6.073734392056679 10.247356701675775 0 0 0
795 1 1 0.5897 4.1234628358961025 9.825193086585765 6.083061435014939 0 0 0
579 1 1 0.5897 5.140293027510295 11.528400465328456 6.281695376376128 0 0 0
551 1 1 0.5897 1.0728380633283872 10.644485160789037 7.2859640389931775 0 0 0
713 1 1 0.5897 8.345425497571485 10.34572518205039 5.988272014963037 0 0 0
14 1 1 0.5897 0.8999533421063703 11.374639416751943 9.505967062684475 0 0 0
552 1 1 0.5897 1.0195085468695093 11.69822797822797 6.199982842228771 0 0 0
182 1 1 0.5897 0.49694821372977943 6.304476043840181 6.1951821218512935 1 0 0
821 1 1 0.5897 7.636475761993368 10.021405803758283 10.993561007184283 0 0 0
712 1 2 -1.1794 7.56992784649819 9.863351366691694 5.701761925170905 0 0 0
828 1 1 0.5897 7.909262525665436 7.724058471367858 15.366751012613477 0 0 0
827 1 1 0.5897 7.000155813215314 7.381580022978072 14.2055476457009 0 0 0
332 1 1 0.5897 2.899135293494479 8.163482417889847 13.627620100255543 0 0 0
797 1 1 0.5897 3.1158299667109493 9.791595100713845 12.329961601418049 0 0 0
796 1 2 -1.1794 3.0947273019746158 9.969763459100303 13.270360947056597 0 0 0
798 1 1 0.5897 2.2467653033290578 10.389044463594265 13.416238352665673 0 0 0
722 1 1 0.5897 5.030529496085815 10.718289932301394 13.794365500083433 0 0 0
261 1 1 0.5897 0.6224550014204122 10.316599879218566 14.862696438324878 0 0 0
723 1 1 0.5897 5.740386036786493 11.086282867883655 15.080072033892302 0 0 0
333 1 1 0.5897 3.9651348543855907 7.088526403728906 13.62608830711354 0 0 0
851 1 1 0.5897 8.718533429063678 6.410387644878736 13.537130057145905 0 0 0
331 1 2 -1.1794 3.0431641799299736 7.239806094857657 13.833785731081445 0 0 0
826 1 2 -1.1794 7.845987977204754 7.778611068360963 14.413050229798667 0 0 0
259 1 2 -1.1794 0.4262964703899445 10.622301914278253 13.976940159240545 0 0 0
475 1 2 -1.1794 7.682531454684057 10.000082643867248 12.869081379864358 0 0 0
476 1 1 0.5897 6.9592128061472724 10.452755302757316 13.302799693239391 0 0 0
477 1 1 0.5897 7.8342466447055585 9.221541517789785 13.405093467191021 0 0 0
721 1 2 -1.1794 5.772060021858539 11.22017983037924 14.132654969826614 0 0 0
225 1 1 0.5897 3.106762020453908 7.258383659151281 15.812686677998531 0 0 0
104 1 1 0.5897 9.057403104805106 11.116522933289573 13.500102970492062 0 0 0
366 1 1 0.5897 1.6569129593243908 6.267848146854638 13.388610811128316 0 0 0
760 1 2 -1.1794 5.629853857539689 6.155420910381505 13.566699813695795 0 0 0
521 1 1 0.5897 6.895558784791817 7.164929311606816 17.31360320431567 0 0 0
5 1 1 0.5897 3.390444929920767 6.615590856895714 21.069851188445483 0 0 0
7 1 2 -1.1794 8.08850545995003 9.993220902687398 18.10798645800756 0 0 0
139 1 2 -1.1794 7.944269863296529 9.577270194564962 20.97638982974209 0 0 0
279 1 1 0.5897 4.399317511294921 6.256972608904116 17.495200924700846 0 0 0
394 1 2 -1.1794 1.0109129734595577 10.97216503972792 21.482938382009976 0 0 0
141 1 1 0.5897 7.711376863369837 8.69818260258227 21.275371796174298 0 0 0
445 1 2 -1.1794 0.9035114853211361 10.319115069890398 16.923584942075536 0 0 0
711 1 1 0.5897 8.916017692086436 6.345893027270869 17.566123538011766 0 0 0
9 1 1 0.5897 7.266835735949845 10.385628814282462 17.812992383017402 0 0 0
690 1 1 0.5897 2.570213599189169 10.156910001735403 21.03211118199279 0 0 0
625 1 2 -1.1794 3.3011597484046105 9.536965689326117 17.84233577527533 0 0 0
688 1 2 -1.1794 3.1829059532094255 9.554846732420161 20.60968212546411 0 0 0
627 1 1 0.5897 2.439996236025734 9.794889083315555 17.513725981228042 0 0 0
681 1 1 0.5897 5.268613318075539 11.700204372441075 16.861375692952194 0 0 0
689 1 1 0.5897 4.045944360978266 9.844425284290905 20.905369455492306 0 0 0
520 1 2 -1.1794 7.702406441459146 7.551168059546199 16.972989534383586 0 0 0
626 1 1 0.5897 3.2519907558213754 9.685152263541353 18.7868704191753 0 0 0
161 1 1 0.5897 6.449584617741362 6.61003090717326 21.199705493924043 0 0 0
6 1 1 0.5897 2.6313645473193263 7.92544514046753 21.085982927623398 0 0 0
140 1 1 0.5897 7.151051369662902 10.095280275692533 21.11283819989886 0 0 0
8 1 1 0.5897 7.944879598921843 9.803920893561504 19.035411334557978 0 0 0
4 1 2 -1.1794 2.537822188498285 6.99368430259963 21.2847805698338 0 0 0
224 1 1 0.5897 3.2764512687868934 7.864798588076033 17.189674187524815 0 0 0
361 1 2 -1.1794 5.51308924133816 11.01214914652929 21.38123616298124 0 0 0
277 1 2 -1.1794 5.267182142776965 6.10112949659866 17.867568187047205 0 0 0
160 1 2 -1.1794 7.276805044250447 6.967636747119249 21.522143450503158 0 0 0
680 1 1 0.5897 4.7172853182483045 10.349110938069682 17.26492291491728 0 0 0
679 1 2 -1.1794 5.453982845886868 10.762189874970248 16.814517908454263 0 0 0
522 1 1 0.5897 7.766044720061048 8.399723696289573 17.41158540966262 0 0 0
446 1 1 0.5897 1.0196061433974783 11.201715583536457 17.27567936116119 0 0 0
647 1 1 0.5897 1.15686939299033 6.2386624699632245 20.71479576282558 0 0 0
395 1 1 0.5897 0.25163178589086427 10.507433688441067 21.131205552564005 0 0 0
572 1 1 0.5897 1.5202906553448738 6.102356137080771 17.357804448487094 0 0 0
223 1 2 -1.1794 3.068990388098022 7.042954856275161 16.744722986295926 0 0 0
373 1 2 -1.1794 0.6558378573367636 13.731555200071488 2.505020084912293 0 0 0
173 1 1 0.5897 4.459262688776123 14.214132956317115 2.5388599155874934 0 0 0
172 1 2 -1.1794 5.244418404117546 13.701515358937558 2.731080472680373 0 0 0
293 1 1 0.5897 2.579341019168315 16.76603897956366 2.5806098313704964 0 0 0
558 1 1 0.5897 3.069924482656614 15.156230234306415 0.9955711449104048 0 0 0
556 1 2 -1.1794 3.01126760280264 14.998944791219042 1.9380970261161632 0 0 0
557 1 1 0.5897 2.1360395088775963 14.633420805554842 2.066397074296642 0 0 0
478 1 2 -1.1794 7.798681525133328 14.551413058327318 2.0009835500870494 0 0 0
174 1 1 0.5897 5.10966831814669 12.87373336476444 2.2694955440750197 0 0 0
374 1 1 0.5897 0.7392881515075339 13.633840760879885 3.4537087741379136 0 0 0
200 1 1 0.5897 5.085574902598556 13.174482133923807 4.493851639135541 0 0 0
479 1 1 0.5897 8.55087608135441 14.173037460336037 2.456229756323176 0 0 0
480 1 1 0.5897 7.047164535187825 14.056446427187632 2.3272233235013045 0 0 0
449 1 1 0.5897 7.465322595871974 16.30650932426236 2.6628324293973997 0 0 0
45 1 1 0.5897 0.8684305756766297 11.871518413605411 2.3099677028308823 0 0 0
317 1 1 0.5897 7.577862695565421 14.259767230021994 0.1541752490637619 0 0 0
448 1 2 -1.1794 7.488508461876242 17.166648288891135 3.0824371884803012 0 0 0
308 1 1 0.5897 7.32041268963475 17.379924663420695 4.902057994271168 0 0 0
450 1 1 0.5897 6.6968983780109514 17.606372479645234 2.77235139423815 0 0 0
199 1 2 -1.1794 5.061347508498315 13.078383720028945 5.446063394859235 0 0 0
655 1 2 -1.1794 0.8689130455825728 13.467231927158712 5.439244126578821 0 0 0
294 1 1 0.5897 2.4462026968910506 17.594097318413255 3.841233406714117 0 0 0
238 1 2 -1.1794 2.6151164200256547 17.31306841359575 5.47347371958299 0 0 0
656 1 1 0.5897 1.596726737214138 13.999170456482759 5.761035788060845 0 0 0
186 1 1 0.5897 6.940784345830464 17.077957882355392 9.9808568293557 0 0 0
456 1 1 0.5897 5.312178161835605 13.009218283148263 10.05923310636148 0 0 0
767 1 1 0.5897 0.5296998204837352 13.110462962860447 11.014653107057645 0 0 0
811 1 2 -1.1794 2.8866690192979125 14.99531270140654 9.265968409370599 0 0 0
454 1 2 -1.1794 5.235707167947865 13.929825883392045 10.310433091267743 0 0 0
813 1 1 0.5897 2.1490478880150268 14.43200374561583 9.500051189880688 0 0 0
17 1 1 0.5897 3.005259167258033 14.939230563296967 7.365850435056959 0 0 0
384 1 1 0.5897 2.986827271626115 16.65691166371384 9.850141304400978 0 0 0
377 1 1 0.5897 6.6808936722077075 14.844666583423948 9.563467581299731 0 0 0
376 1 2 -1.1794 7.42054996429407 15.403217867195687 9.324466280812336 0 0 0
307 1 2 -1.1794 7.153520304673487 17.522378279506746 5.833925369493449 0 0 0
518 1 1 0.5897 6.843178629696014 15.721582315384554 6.241703868934511 0 0 0
812 1 1 0.5897 3.644895256095708 14.581085379708133 9.67794236644072 0 0 0
18 1 1 0.5897 3.787326216317774 14.323233388983205 6.225161008281498 0 0 0
201 1 1 0.5897 5.797781597851579 13.603605073138915 5.759138038853176 0 0 0
16 1 2 -1.1794 2.97493706656498 14.790070535715047 6.420669085590578 0 0 0
517 1 2 -1.1794 7.114856791865683 14.91067850527687 6.671875456409575 0 0 0
239 1 1 0.5897 2.7231201867264327 16.44592544068032 5.864431027758009 0 0 0
378 1 1 0.5897 7.45241744264334 15.363343767397492 8.368455604007105 0 0 0
519 1 1 0.5897 7.933145093234579 14.670954773756645 6.2370160224409705 0 0 0
382 1 2 -1.1794 2.7817277165444456 17.50592664949721 10.241991349368408 0 0 0
766 1 2 -1.1794 0.761238541805399 13.260090656782259 10.097850990848489 0 0 0
59 1 1 0.5897 8.87283681159011 14.219472593311517 9.511059372212237 0 0 0
429 1 1 0.5897 5.942616097429438 14.390360693694637 13.401800989952969 0 0 0
232 1 2 -1.1794 2.6630147133115707 14.766041843033776 13.710186742708505 0 0 0
234 1 1 0.5897 2.558723538864231 14.728356526295363 14.66109542675799 0 0 0
606 1 1 0.5897 3.133573068735325 16.493271263375878 13.01542338065745 0 0 0
427 1 2 -1.1794 5.209284711515904 13.859619777748257 13.090768066801074 0 0 0
233 1 1 0.5897 3.51153201952527 14.354958943020875 13.545340141270353 0 0 0
639 1 1 0.5897 1.2187095466114002 13.579587504201633 13.261198047864006 0 0 0
428 1 1 0.5897 5.340641425812117 13.004715293021468 13.50103917414467 0 0 0
637 1 2 -1.1794 0.4348055500740381 13.123397155180395 12.9553370407518 0 0 0
638 1 1 0.5897 0.4816352382318095 12.26155447449961 13.36948902790027 0 0 0
296 1 1 0.5897 7.73429750726498 14.977981992886903 14.594829807880275 0 0 0
295 1 2 -1.1794 7.772087066377174 15.239358944173754 13.674624917269483 0 0 0
270 1 1 0.5897 7.749955212650184 17.27470498451131 13.33104105783388 0 0 0
297 1 1 0.5897 8.494810894412867 14.728830622517787 13.309584634277513 0 0 0
604 1 2 -1.1794 3.1637053869668956 17.4379435431275 12.863387910183045 0 0 0
605 1 1 0.5897 3.164912819872786 17.527744605050284 11.910255468330314 0 0 0
823 1 2 -1.1794 2.691689854108992 14.644497285671845 16.266254949833936 0 0 0
455 1 1 0.5897 5.084336214176197 13.90901581787212 11.255533367590226 0 0 0
824 1 1 0.5897 3.5018785409111333 14.270214434598104 16.612179198019042 0 0 0
452 1 1 0.5897 0.9251594592792689 12.603407655756783 20.670048169667723 0 0 0
126 1 1 0.5897 5.8902922510693845 13.949545097855713 17.123644147495007 0 0 0
157 1 2 -1.1794 7.396343038992566 17.05511883082633 20.843216417983157 0 0 0
584 1 1 0.5897 2.8026479817600927 16.245741524108567 17.14395014125538 0 0 0
665 1 1 0.5897 2.09868335872312 14.669995103915126 21.23834900805435 0 0 0
583 1 2 -1.1794 2.730856469532413 17.07882057017061 17.61010130255734 0 0 0
125 1 1 0.5897 4.940029199132622 13.764008299774083 18.287574870193282 0 0 0
664 1 2 -1.1794 2.9435936733024204 15.081907969656843 21.41886207253622 0 0 0
684 1 1 0.5897 4.231017013912682 14.14976823453398 20.56646862971504 0 0 0
52 1 2 -1.1794 0.881441159995229 13.204204819464099 17.880492880648013 0 0 0
666 1 1 0.5897 2.843233577300659 15.981821737038603 21.10817563675964 0 0 0
318 1 1 0.5897 7.296897968000323 15.24594400336922 21.146629555763873 0 0 0
362 1 1 0.5897 5.351164706025681 11.869122845696202 20.986509224122862 0 0 0
825 1 1 0.5897 1.9953383601806425 14.15387444846106 16.702869382753505 0 0 0
451 1 2 -1.1794 0.9573059639308898 13.546743418821372 20.510110414342506 0 0 0
316 1 2 -1.1794 7.370872356423018 14.308744433224323 21.327215804700927 0 0 0
683 1 1 0.5897 5.744571489765862 14.165295616611415 20.54818434330297 0 0 0
159 1 1 0.5897 7.336080265314348 16.99731102789574 19.889505498140338 0 0 0
682 1 2 -1.1794 4.985602929775413 13.813973145799608 20.082640072795265 0 0 0
124 1 2 -1.1794 5.08505702209359 13.499498883624002 17.378994192446683 0 0 0
50 1 1 0.5897 7.225627747394243 15.698227882421744 17.295540561887044 0 0 0
610 1 2 -1.1794 7.321664959140825 17.31292408252013 18.13262830026038 0 0 0
53 1 1 0.5897 1.0341961049096569 13.461899770347374 18.789758857828225 0 0 0
51 1 1 0.5897 8.106796050456284 14.482796757281786 17.09962312110416 0 0 0
585 1 1 0.5897 3.436385484546468 17.616625098273854 17.250541512166464 0 0 0
49 1 2 -1.1794 7.376697683410878 14.959882357753965 16.7051891552071 0 0 0
267 1 1 0.5897 5.740911407298379 21.605510788225907 2.9313471473922914 0 0 0
696 1 1 0.5897 1.3125170846528973 21.827757928088584 2.810231044828026 0 0 0
266 1 1 0.5897 4.26528770715047 21.347434133845958 2.7136956793051095 0 0 0
265 1 2 -1.1794 4.956300914475937 21.28027391738077 3.3726856802436456 0 0 0
187 1 2 -1.1794 2.8032037317207603 22.100946402829567 1.9353110465704115 0 0 0
228 1 1 0.5897 5.0454096297619335 19.342441856532993 2.827727687483372 0 0 0
343 1 2 -1.1794 0.35985096132404637 19.100811717601847 2.085856038467776 0 0 0
817 1 2 -1.1794 7.558483779635865 22.462675820396115 2.3914179415484473 0 0 0
413 1 1 0.5897 0.9133638087841638 21.292072136203487 5.063639103639316 0 0 0
226 1 2 -1.1794 5.0365196862281225 18.542383230567097 2.3020942904023816 0 0 0
227 1 1 0.5897 4.190072873835547 18.13873589789444 2.4936984389553905 0 0 0
189 1 1 0.5897 2.8501604480294422 22.09666635903235 0.979115090469817 0 0 0
249 1 1 0.5897 4.93482804097867 21.163364188860022 5.101911402546443 0 0 0
695 1 1 0.5897 0.40346359744223514 20.617335381611912 2.8336131657892105 0 0 0
818 1 1 0.5897 8.34407406383892 22.165288495785276 2.8503331063650132 0 0 0
602 1 1 0.5897 5.207312447403108 18.58662372975914 0.3698641218712054 0 0 0
345 1 1 0.5897 0.3830005288168934 18.995284050589298 1.134613137114212 0 0 0
344 1 1 0.5897 1.0592928036518798 18.53203068854349 2.4075609572527235 0 0 0
694 1 2 -1.1794 0.5183851802748478 21.48539849810234 3.2205181781911096 0 0 0
498 1 1 0.5897 7.66900459878157 22.419509532125524 0.5649299015679136 0 0 0
321 1 1 0.5897 8.78748440512869 18.312294235190002 2.2523516493161537 0 0 0
819 1 1 0.5897 7.462243087325709 23.379463350646635 2.6496639344728528 0 -1 0
292 1 2 -1.1794 2.54443175136719 17.670615322726285 2.892009088171155 0 0 0
188 1 1 0.5897 2.97704765851584 23.009951491405076 2.180091694524867 0 0 0
383 1 1 0.5897 3.4558011235404607 18.09547319882992 9.903913725362692 0 0 0
342 1 1 0.5897 0.34796378917395143 18.50926091798615 7.288844061679136 0 0 0
403 1 2 -1.1794 0.4017155219320232 18.532659968486637 9.321182851932388 0 0 0
701 1 1 0.5897 3.0744776312312725 22.869469809282695 7.73988747093378 0 0 0
702 1 1 0.5897 2.451885724749909 22.341331995997347 6.464801006143517 0 0 0
387 1 1 0.5897 4.984886852059439 19.41804935081831 6.34995715129116 0 0 0
553 1 2 -1.1794 4.839758293821013 21.235226853523827 10.978305215064038 0 0 0
240 1 1 0.5897 3.386727721907004 17.80260905673677 5.7583561295312204 0 0 0
39 1 1 0.5897 3.7671690277776917 22.033041912258827 9.811650791089873 0 0 0
405 1 1 0.5897 0.4055284171305055 19.428766777156394 9.657960800679975 0 0 0
247 1 2 -1.1794 5.0519286944365165 21.125565237666542 6.051324712555517 0 0 0
385 1 2 -1.1794 4.8414327949689016 18.493203995456476 6.551236246051934 0 0 0
85 1 2 -1.1794 6.677873364103401 22.570057043435053 9.701453979418543 0 0 0
102 1 1 0.5897 4.960404767074643 18.932350231623687 8.273205624584168 0 0 0
87 1 1 0.5897 7.527268340845548 22.196594680890385 9.936457388472117 0 0 0
555 1 1 0.5897 4.667647854180304 20.519532682768013 10.366249008404454 0 0 0
404 1 1 0.5897 1.180695965819892 18.12910512707182 9.70394336649275 0 0 0
38 1 1 0.5897 2.3038474315395154 22.2867818032536 9.518824084932822 0 0 0
32 1 1 0.5897 7.925557651380231 22.1132527704872 6.749438827122992 0 0 0
31 1 2 -1.1794 7.119816730078866 22.572222717816345 6.98668544122754 0 0 0
37 1 2 -1.1794 3.167662998147625 22.695980710920104 9.469039312653148 0 0 0
100 1 2 -1.1794 4.843005087137393 19.117354714262046 9.20515659295798 0 0 0
33 1 1 0.5897 6.418291690925877 22.014636360122836 6.650217750187081 0 0 0
554 1 1 0.5897 5.5180004351524055 21.758407461092073 10.551078185080915 0 0 0
86 1 1 0.5897 6.655249811037202 22.532063569956936 8.745115737855475 0 0 0
386 1 1 0.5897 5.688464056968292 18.07804379090724 6.38907344839514 0 0 0
700 1 2 -1.1794 3.109040694765583 22.958111035279888 6.78727390026548 0 0 0
101 1 1 0.5897 5.661798293070728 18.833207202644942 9.611349908374025 0 0 0
248 1 1 0.5897 4.3953538799679714 21.72947470394341 6.39842683589643 0 0 0
94 1 2 -1.1794 0.9195238097160032 21.07073280196596 9.96548863278477 0 0 0
340 1 2 -1.1794 0.39268113884520073 18.57499995648813 6.334796143137631 0 0 0
341 1 1 0.5897 1.100345740946087 17.98032367591031 6.086130282368525 0 0 0
414 1 1 0.5897 1.0752961058528219 20.21402246869181 6.114413242040729 0 0 0
309 1 1 0.5897 7.949405530988807 17.943347796819193 6.158757987079363 0 0 0
185 1 1 0.5897 7.936409855078737 18.196088071772444 9.756190696023046 0 0 0
412 1 2 -1.1794 1.0985448454620417 21.163469642301987 5.994064910253862 0 0 0
184 1 2 -1.1794 7.137621565510157 17.979135374063414 10.23690329119607 0 0 0
96 1 1 0.5897 1.0279009537906183 21.22967000820031 10.90331314529131 0 0 0
95 1 1 0.5897 0.17471485518693036 21.616821017096793 9.714021309083067 1 0 0
764 1 1 0.5897 4.363586182519534 18.20110329727321 13.900653771628264 0 0 0
88 1 2 -1.1794 4.916828468516584 21.196054060853324 13.761578813851232 0 0 0
381 1 1 0.5897 1.7276285883416818 21.640040386393352 13.604603437394621 0 0 0
90 1 1 0.5897 5.021503986112251 20.268352687771287 13.973351086919061 0 0 0
763 1 2 -1.1794 5.123477172068532 18.545876773401833 14.369584823761569 0 0 0
738 1 1 0.5897 3.4296872470330904 22.003576386652878 14.462775366143957 0 0 0
89 1 1 0.5897 4.866251179007953 21.219867669002017 12.805859080665066 0 0 0
787 1 2 -1.1794 7.290840487055925 22.6710581448922 14.169103508537708 0 0 0
502 1 2 -1.1794 0.8020620917219613 18.562508053285857 13.913675403646652 0 0 0
268 1 2 -1.1794 7.696208721161906 18.19145979385712 13.060656129995166 0 0 0
737 1 1 0.5897 2.966954577412591 23.443431651778624 14.391473702774535 0 0 0
474 1 1 0.5897 5.063258759800066 18.624172963923048 16.173312837955258 0 0 0
736 1 2 -1.1794 2.806663597282665 22.61849824902508 14.85006155211366 0 0 0
765 1 1 0.5897 5.8678890473016505 18.33966439428086 13.804293408567233 0 0 0
380 1 1 0.5897 1.171820256336151 20.291770219253856 13.19775131083458 0 0 0
788 1 1 0.5897 7.218557125314514 22.809163671936588 15.113690835778575 0 0 0