LAMMPS data file via write_data, version 30 Jul 2021, timestep = 35250000

1296 atoms
2 atom types
864 bonds
1 bond types
432 angles
1 angle types

-10.563748903614444 12.543748903614445 xlo xhi
-9.065526803264792 12.055524803264792 ylo yhi
0.2965464038430632 21.563452596148842 zlo zhi
-8.899076717444057 1.719620559333391 2.72867248253148 xy xz yz

Masses

1 1.008
2 15.999

Pair Coeffs # lj/cut/tip4p/long/omp

1 0 0
2 0.21084 3.1668

Bond Coeffs # harmonic/omp

1 450 0.9572

Angle Coeffs # harmonic/omp

1 55 104.52

Atoms # full

260 87 1 0.5897 -6.94448548751526 -6.33970240349592 0.6829001488648274 1 1 0
298 100 2 -1.1794 -5.9922852380299965 -7.295575042677793 4.258275094027704 1 1 0
280 94 2 -1.1794 -9.62115472424227 -4.506308262769011 1.539757059172439 1 1 0
299 100 1 0.5897 -6.6622323266194545 -7.978331156655759 4.224246279050068 1 1 0
270 90 1 0.5897 -8.461842199964877 -7.388403172883441 2.3457407260903924 1 1 0
163 55 2 -1.1794 -7.239096704837957 -7.936901238743324 1.1512376595936713 1 1 0
164 55 1 0.5897 -6.410351206566294 -8.316861475784789 1.442876946202176 1 1 0
269 90 1 0.5897 -9.203445003012867 -6.0687314045093945 2.360484694222211 1 1 0
268 90 2 -1.1794 -8.9856795388479 -6.82085086287616 2.9110710851713675 1 1 0
300 100 1 0.5897 -5.162509850003901 -7.771946540032391 4.230976359341559 1 1 0
323 108 1 0.5897 -6.197174028308994 -5.61132461166182 3.451431323638922 1 1 0
282 94 1 0.5897 -10.475752340106071 -4.102917437694782 1.6918259352795006 1 1 0
314 105 1 0.5897 -8.75221004513229 -6.846842418625466 4.674725207827151 1 1 0
73 25 2 -1.1794 -8.141283806196055 -3.916702376060414 4.818275417480497 1 0 0
324 108 1 0.5897 -6.935381986120203 -4.294757263521485 3.5672014765854865 1 1 0
313 105 2 -1.1794 -8.720171502461229 -6.555337901848403 5.585857302322801 1 1 0
275 92 1 0.5897 -10.234567542559803 -7.912892492349118 3.741967938878359 1 1 0
315 105 1 0.5897 -8.672387370982223 -5.600971828103669 5.530840852056914 1 1 0
322 108 2 -1.1794 -6.240551506051359 -4.7322163232586245 3.075276759166081 1 1 0
261 87 1 0.5897 -6.589409255556308 -5.079970292274949 1.4435318011655407 1 1 0
259 87 2 -1.1794 -6.73167777844041 -5.414861209073036 0.5582239244685938 1 1 0
281 94 1 0.5897 -8.994507484494163 -3.7922938760502873 1.6565241126608723 1 1 0
75 25 1 0.5897 -9.02331680727828 -3.583984714256255 4.652295555014682 1 0 0
74 25 1 0.5897 -7.809117463174388 -3.3710771296178477 5.5310807064277805 1 0 0
165 55 1 0.5897 -7.591525623568698 -8.576138523501044 0.5321335891098194 1 1 0
429 143 1 0.5897 -6.336446974784473 -7.215567701160586 8.89270346042283 1 0 0
428 143 1 0.5897 -6.648355538967745 -7.1025450163329715 10.36977284436504 1 0 0
427 143 2 -1.1794 -5.94364657388729 -6.981143342015789 9.733501727348779 1 0 0
419 140 1 0.5897 -8.974578722567232 -5.033913716771908 8.942587848092888 1 0 0
418 140 2 -1.1794 -9.67642406118449 -5.487224857552982 9.409623922201508 1 0 0
413 138 1 0.5897 -7.570934552589229 -3.699139504450155 7.885518991644589 1 0 0
627 209 1 0.5897 -10.186480071996192 -6.772597727377374 6.601484690087655 1 1 0
420 140 1 0.5897 -9.223468255549646 -6.113456054980924 9.974372308959326 1 0 0
618 206 1 0.5897 -7.6728347004547315 -7.298833651559466 6.853389323076777 1 1 0
350 117 1 0.5897 -7.293306957890083 -4.3983192010877445 9.955743488850008 0 0 0
414 138 1 0.5897 -6.787435852654998 -4.954505493398061 7.566369252560246 1 0 0
412 138 2 -1.1794 -7.373885570227976 -4.574014847100427 8.220160162458662 1 0 0
626 209 1 0.5897 -10.420709021698487 -6.444724849379671 8.060725652205452 1 1 0
616 206 2 -1.1794 -7.283852900021742 -7.880796838679193 7.506301366193905 1 1 0
349 117 2 -1.1794 -7.174802729680852 -4.03599594483772 10.833713452864265 0 0 0
351 117 1 0.5897 -7.208946333235762 -3.087670229354451 10.70848729821978 0 0 0
631 211 2 -1.1794 -5.522129207631166 -5.555013777887636 6.292563898463629 1 1 0
633 211 1 0.5897 -5.872445836905461 -6.189257645423502 5.66716556882203 1 1 0
684 228 1 0.5897 -8.37004590510453 -6.556367155848912 14.570080296211918 0 0 0
740 247 1 0.5897 -10.817767019272578 -3.1701829944995596 12.277336424958008 1 0 0
652 218 2 -1.1794 -5.920198808850043 -5.554549010164226 12.633542949639546 0 0 0
682 228 2 -1.1794 -7.870259154086032 -7.012993276404321 13.893446158496557 0 0 0
780 260 1 0.5897 -7.557205508695145 -3.925622367286288 15.154890611552712 0 0 0
779 260 1 0.5897 -7.142237920004086 -2.8234619022942606 14.203609404575824 0 0 0
778 260 2 -1.1794 -7.912721719025199 -3.2379981188096787 14.591822880767667 0 0 0
768 256 1 0.5897 -9.513130850509945 -2.6664150537955305 14.94764879846432 0 0 0
654 218 1 0.5897 -6.328113057627702 -5.019571929386293 11.952597463581991 0 0 0
653 218 1 0.5897 -6.656116804138787 -5.942149907587949 13.107238997539927 0 0 0
661 221 2 -1.1794 -9.42231005639009 -4.318191696706965 12.553642601799407 0 0 0
766 256 2 -1.1794 -10.325346960304714 -2.159966382604771 14.95227598347643 0 0 0
662 221 1 0.5897 -8.930993396071031 -4.078042846726948 13.339221091998402 0 0 0
663 221 1 0.5897 -8.77891192461243 -4.276733043538454 11.84617951347631 0 0 0
729 243 1 0.5897 -8.095327524941775 -7.191778336713718 12.04916184253623 1 0 0
767 256 1 0.5897 -11.019221909142496 -2.819234709098243 14.960424693247393 0 0 0
788 263 1 0.5897 -5.2112788481851595 -4.601965077512498 15.54012219967208 0 0 0
727 243 2 -1.1794 -8.299737703021595 -7.481385151497703 11.160052109752801 1 0 0
757 253 2 -1.1794 -9.77263536100819 -5.716049102070041 15.538446275579945 0 0 0
789 263 1 0.5897 -5.015665097603902 -4.640649197382709 14.03943568601691 0 0 0
1097 366 1 0.5897 -8.949290606348745 -5.6620504328506485 18.38930435616186 0 0 0
1141 381 2 -1.1794 -8.864674496731796 -6.050905640554328 21.380991904599817 0 0 0
1110 370 1 0.5897 -10.282825587603547 -3.616755299859026 17.9325332896187 0 0 0
1087 363 2 -1.1794 -6.604860244515779 -4.893543217816889 16.426307040070043 0 0 0
1152 384 1 0.5897 -7.039924024252348 -3.9634989116750763 19.66749341143691 0 0 0
1225 409 2 -1.1794 -8.27871460456775 -3.4852372277548334 20.85229765180148 0 0 0
1227 409 1 0.5897 -9.053977637300687 -3.0638503223871467 20.481274022905207 0 0 0
1109 370 1 0.5897 -8.801884303601991 -3.350631911820404 17.7657838510431 0 0 0
1108 370 2 -1.1794 -9.448136182715514 -4.056667763313911 17.771416485067345 0 0 0
1089 363 1 0.5897 -6.536051065635255 -4.629374114263232 17.34372333586894 0 0 0
1151 384 1 0.5897 -6.121220501885265 -5.158033864424282 19.523237361615397 0 0 0
1219 407 2 -1.1794 -10.385357523436738 -1.9403687687551603 20.054342869178495 0 0 0
1150 384 2 -1.1794 -6.322421120495823 -4.306589185932797 19.134919848263102 0 0 0
1130 377 1 0.5897 -7.330912459604006 -1.8050078119487987 18.57368203176027 0 0 0
1248 416 1 0.5897 -5.800442311043526 -1.7031911815725174 20.66324904382079 0 0 0
1121 374 1 0.5897 -4.938355736956568 -3.5519196381494726 18.414148896947502 0 0 0
1129 377 2 -1.1794 -7.747170791311887 -1.842122812391306 17.7125333727053 0 0 0
1088 363 1 0.5897 -6.638109370825195 -5.8497256431635565 16.453848623788655 0 0 0
1143 381 1 0.5897 -8.643743318079533 -5.123545088050775 21.295306249500822 0 0 0
1221 407 1 0.5897 -10.886262518753401 -2.1918605916906184 19.27844049703782 0 0 0
1096 366 2 -1.1794 -8.900990127778734 -6.56281881801807 18.709426612160065 0 0 0
758 253 1 0.5897 -9.574071914698308 -5.222453285794966 16.334102514722773 0 0 0
1142 381 1 0.5897 -8.74299688663315 -6.408752444929892 20.50162795679001 0 0 0
1226 409 1 0.5897 -7.95719275709158 -2.8638371683457695 21.505441797340723 0 0 0
59 20 1 0.5897 -13.427921436353891 -0.7064933011117152 3.471343252285144 1 0 0
69 23 1 0.5897 -10.915000690900568 -2.8091080589079667 3.56123502134062 1 0 0
272 91 1 0.5897 -9.344930865948998 -1.4107389996429216 1.46521917638947 1 1 0
271 91 2 -1.1794 -10.17031875830396 -1.0093938465275887 1.1933745485145475 1 1 0
82 28 2 -1.1794 -8.908873928779931 -0.15878658332358597 4.134544136411331 1 0 0
301 101 2 -1.1794 -7.843165686361637 -2.3823343845664064 1.8353947127412549 1 1 0
258 86 1 0.5897 -12.25496182824361 -2.690769279032323 1.6216487418748224 1 1 0
83 28 1 0.5897 -9.490332195351943 -0.9171084763277513 4.1892996165608025 1 0 0
67 23 2 -1.1794 -10.510791371185293 -2.510027801956605 4.375697512999405 1 0 0
256 86 2 -1.1794 -11.93781369371893 -3.33446378439918 2.2551659197818434 1 1 0
68 23 1 0.5897 -11.213245717340508 -2.558357192266717 5.024084582015755 1 0 0
52 18 2 -1.1794 -11.956488503103929 0.16999358308544643 2.8230966950364476 1 0 0
98 33 1 0.5897 -11.632643932455746 0.4051109961635593 4.460158410643507 1 0 0
53 18 1 0.5897 -12.190019262592854 1.037197831761345 2.4919765182862936 1 0 0
54 18 1 0.5897 -11.339367207881347 -0.17500324104282328 2.1779001112896132 1 0 0
99 33 1 0.5897 -11.44762686369206 1.6257685755977782 5.336124385097241 1 0 0
107 36 1 0.5897 -9.026400101146136 1.5234510275487771 3.306651231398397 1 0 0
44 15 1 0.5897 -9.847489540437376 0.7146199682917409 0.5656593943368156 1 0 0
302 101 1 0.5897 -7.410699703692581 -2.1762585532256615 2.6640739283712525 1 1 0
97 33 2 -1.1794 -11.626736258183673 0.6863268742292341 5.375062147895687 1 0 0
84 28 1 0.5897 -8.027115639137094 -0.529049599315158 4.1748511977786436 1 0 0
417 139 1 0.5897 -8.612266533601147 1.0601645403207005 5.4495274741446895 1 0 0
273 91 1 0.5897 -10.384663742257636 -1.4386728670123894 0.3651764173348553 1 1 0
527 176 1 0.5897 -11.806043760477746 1.8554042136002469 8.785947185715662 1 0 0
526 176 2 -1.1794 -12.527550491432052 1.5034308851063756 9.307240027174291 1 0 0
426 142 1 0.5897 -8.805103845161353 -1.8145941998569581 6.8741949357499 1 0 0
411 137 1 0.5897 -13.164328392779492 0.4846058998388081 6.557584765643692 1 0 0
424 142 2 -1.1794 -7.944959622166121 -2.2102012650809453 7.015152859607314 1 0 0
402 134 1 0.5897 -10.749386125640804 -0.4004706430278162 6.501342589427205 1 0 0
401 134 1 0.5897 -11.01864662576061 -1.2646192020005866 7.714870259951218 1 0 0
400 134 2 -1.1794 -10.307501117773457 -0.8896648770002038 7.1953803080538545 1 0 0
537 179 1 0.5897 -9.432467086055789 -0.11380747839582206 8.587707960990736 1 0 0
536 179 1 0.5897 -9.766063112169897 -0.2598872260687326 10.057141223043493 1 0 0
535 179 2 -1.1794 -9.103845326336238 0.0926608634717958 9.46268042902354 1 0 0
528 176 1 0.5897 -12.125803441190055 0.8180785279083338 9.841231812675202 1 0 0
435 145 1 0.5897 -7.681492242668753 -0.9100842819077677 9.74566942434692 0 0 0
425 142 1 0.5897 -7.347145080268276 -1.4660173517427282 7.085554374158617 1 0 0
522 174 1 0.5897 -9.472638650853778 2.309291043468235 7.325835019540476 1 0 0
458 153 1 0.5897 -10.016500056015648 2.5964041354760106 9.589797290894845 0 0 0
433 145 2 -1.1794 -6.880860691882017 -1.3596177378213339 10.016127605567322 0 0 0
430 144 2 -1.1794 -12.359670808803184 -2.102655569478565 8.503254227285618 1 0 0
790 264 2 -1.1794 -10.730421314096153 0.3007168866359571 13.79075589377889 0 0 0
771 257 1 0.5897 -11.559224706929372 2.6269518189849244 11.549052287062011 0 0 0
762 254 1 0.5897 -9.099275022195373 2.110922854290367 11.86705103615847 0 0 0
761 254 1 0.5897 -9.191989594985214 1.204329241358618 13.075938145534023 0 0 0
760 254 2 -1.1794 -8.573240043352877 1.7324821364849754 12.571565452795966 0 0 0
769 257 2 -1.1794 -12.241733228542163 2.6623800931071564 12.2192063199748 0 0 0
792 264 1 0.5897 -11.420234485084919 0.6416416842373476 14.360036152458202 0 0 0
888 296 1 0.5897 -10.488995413705869 2.8661669947779878 15.1616884465696 0 0 0
837 279 1 0.5897 -11.26954493936001 -0.0034745064630428146 11.852421446803355 1 0 0
791 264 1 0.5897 -10.568573458290722 -0.5855223964032774 14.114177450913614 0 0 0
770 257 1 0.5897 -11.799448507015427 3.0090335483922086 12.994055920958033 0 0 0
836 279 1 0.5897 -11.463972766867109 -1.3198758683761458 11.13072954558285 1 0 0
896 299 1 0.5897 -8.204749105424135 2.3530735479385374 15.441278345144429 0 0 0
835 279 2 -1.1794 -11.25717192131329 -0.39751668144953456 10.980228123550333 1 0 0
866 289 1 0.5897 -12.519272019581305 1.7659456125772266 16.12575679384041 0 0 0
1229 410 1 0.5897 -7.743416923520098 3.479450922644425 18.318980100623737 0 0 0
1260 420 1 0.5897 -9.87775035020665 3.0189449047895263 19.52311503638138 0 0 0
1196 399 1 0.5897 -9.592375454706268 1.0720491256002411 16.63647096238464 0 0 0
1259 420 1 0.5897 -9.001351058707538 1.7876435470872423 19.436217996016765 0 0 0
1258 420 2 -1.1794 -9.090979579821303 2.678387452699381 19.097469286878265 0 0 0
1249 417 2 -1.1794 -11.474254595597067 1.026627281473182 21.36881298225421 0 0 0
1009 337 2 -1.1794 -11.113830070546658 3.5751123464592958 20.62127774863908 0 -1 0
1246 416 2 -1.1794 -6.285484461638699 -1.2466790311689735 19.975782423170116 0 0 0
1236 412 1 0.5897 -7.8074764959179594 -0.2861589343050337 20.31870796436901 0 0 0
1216 406 2 -1.1794 -12.36275233917954 2.9400616399590778 17.69796178893702 0 0 0
1235 412 1 0.5897 -9.310250718878327 -0.4529083382278358 20.24318287892522 0 0 0
1234 412 2 -1.1794 -8.616953676542526 0.2031666792748119 20.171958865046435 0 0 0
1099 367 2 -1.1794 -10.115821356369914 -0.5997421607269935 17.15187489460334 0 0 0
1100 367 1 0.5897 -9.235877954900978 -0.8859092695951176 17.396911373784107 0 0 0
1206 402 1 0.5897 -11.20078825001844 0.1869869302036804 18.449815476044254 0 0 0
1251 417 1 0.5897 -11.407165075078396 1.9798804972966106 21.31446685288497 0 0 0
1197 399 1 0.5897 -9.307952031682829 2.3432333104959007 17.407671357564592 0 0 0
1205 402 1 0.5897 -12.107844994181496 1.3963472643520056 18.369306730894877 0 0 0
1250 417 1 0.5897 -11.602314965836783 0.7431574301678268 20.46359618104302 0 0 0
1218 406 1 0.5897 -13.244057969102602 3.3094802751704613 17.642737201499216 0 0 0
1195 399 2 -1.1794 -9.472472319249547 2.0149567174897065 16.52374132390809 0 0 0
1011 337 1 0.5897 -11.907894637349054 3.8330748255492004 20.153117903799853 0 -1 0
1131 377 1 0.5897 -7.0572338096883485 -1.5844206193441224 17.101158773004162 0 0 0
1217 406 1 0.5897 -11.780718034475175 3.6972723990681704 17.634496935563796 0 0 0
1101 367 1 0.5897 -10.329500576459441 -1.118158563359282 16.376171916347023 0 0 0
1204 402 2 -1.1794 -12.028799464738626 0.5354425581973388 18.780183130276686 0 0 0
40 14 2 -1.1794 -14.861325880427387 4.016573821490857 1.9183533476306271 1 0 0
177 59 1 0.5897 -13.742345884086316 4.620533959731558 3.219177287556884 1 0 0
42 14 1 0.5897 -15.319416538792915 4.427411775178481 1.1851074060269093 1 0 0
182 61 1 0.5897 -10.681546351627368 3.9279336379299483 5.555784562255509 1 0 0
175 59 2 -1.1794 -13.33896351439224 4.81052811800917 4.0661618568943005 1 0 0
55 19 2 -1.1794 -12.946361142760646 6.302682025662147 1.2048066196074285 1 0 0
56 19 1 0.5897 -12.207681482387672 5.836074452312836 1.5958171335561968 1 0 0
66 22 1 0.5897 -13.474277898116435 2.908633284955881 1.670327550717563 1 0 0
65 22 1 0.5897 -11.99954934457529 3.2492525429401304 1.701415269564737 1 0 0
64 22 2 -1.1794 -12.604748026574232 2.514558769771039 1.600885562703128 1 0 0
108 36 1 0.5897 -9.789236184400911 2.7860156373439313 3.646770370194672 1 0 0
190 64 2 -1.1794 -11.647204654953992 6.935854401792071 4.421249115240211 1 0 0
191 64 1 0.5897 -12.20220502680037 6.17334908407644 4.2578537266991585 1 0 0
162 54 1 0.5897 -14.265697369719266 6.754073974884497 2.35519142840584 1 0 0
183 61 1 0.5897 -11.742240035261322 3.762852416412942 4.488283043658021 1 0 0
181 61 2 -1.1794 -10.970755825141259 3.336263963401528 4.8612296697275115 1 0 0
176 59 1 0.5897 -14.041872503486818 4.677216654981587 4.702040273449819 1 0 0
167 56 1 0.5897 -16.42151627372894 6.032486376112065 3.426408379298688 1 0 0
85 29 2 -1.1794 -10.747100277003788 4.82753034752508 1.7990277704199433 1 0 0
43 15 2 -1.1794 -9.703173100210353 1.6500123595277323 0.4229044958911778 1 0 0
45 15 1 0.5897 -9.501165591543542 1.9969304480679355 1.2918141566154335 1 0 0
41 14 1 0.5897 -15.544851760790724 3.545194018102988 2.3945841790278126 1 0 0
160 54 2 -1.1794 -14.992008527019951 7.075246120873555 2.88949281302761 1 0 0
57 19 1 0.5897 -13.212001950371599 5.755352898319547 0.4658927361500004 1 0 0
508 170 2 -1.1794 -13.240224753360554 6.2536745461527214 7.4715490739414365 1 0 0
645 215 1 0.5897 -12.020262069691334 6.919161054187354 8.655775790028159 1 0 0
644 215 1 0.5897 -12.38393876457118 7.066784822753814 10.11787513033497 1 0 0
643 215 2 -1.1794 -11.639714882538922 7.0936827418617305 9.516549391023823 1 0 0
509 170 1 0.5897 -13.946905337827321 5.868665903765361 7.98978627545618 1 0 0
459 153 1 0.5897 -9.885197424722639 3.8404432829115454 10.442251371866437 0 0 0
532 178 2 -1.1794 -10.783285783091513 5.126657662862124 6.904918660571131 1 0 0
457 153 2 -1.1794 -9.996090496371174 2.8914919944009245 10.500110877002076 0 0 0
510 170 1 0.5897 -13.684113328658537 6.8387376233431585 6.8576002960375675 1 0 0
534 178 1 0.5897 -11.664969554542587 5.450053342076853 7.089957520167353 1 0 0
521 174 1 0.5897 -10.410065448580799 3.473219333541591 7.567049404671057 1 0 0
543 181 1 0.5897 -10.40115588968193 6.057982246174371 9.825814446065056 0 0 0
533 178 1 0.5897 -10.20813360655817 5.860485918427326 7.121324635486629 1 0 0
519 173 1 0.5897 -16.211122741392238 7.480258843373509 6.573999897816759 1 0 0
477 159 1 0.5897 -15.480570720348549 4.622034142245525 6.565481937686421 1 0 0
636 212 1 0.5897 -14.96564137476366 7.782079263033989 10.107807190169515 1 0 0
520 174 2 -1.1794 -10.253979603502446 2.5625896976919513 7.817237037036792 1 0 0
887 296 1 0.5897 -10.172875888034083 4.071874633173103 14.302479927184494 0 0 0
874 292 2 -1.1794 -13.437717118524866 4.77900571169231 14.72408504522355 0 0 0
876 292 1 0.5897 -12.611689412451337 4.3045907572910345 14.817887485727034 0 0 0
848 283 1 0.5897 -13.83995100064347 3.714829939112917 11.911714375808202 1 0 0
945 315 1 0.5897 -13.742082946107438 7.012073968101763 12.125145044678797 1 0 0
875 292 1 0.5897 -14.109183027067601 4.097039975415461 14.738936078743476 0 0 0
900 300 1 0.5897 -14.178553726003614 7.603102757947376 14.398185474636394 0 0 0
899 300 1 0.5897 -13.441910786486616 6.320503922487049 14.075813575582012 0 0 0
898 300 2 -1.1794 -13.490695400754333 7.245988760419575 13.836518016279584 0 0 0
869 290 1 0.5897 -12.092155878218747 8.186643277948288 13.17384474966783 0 0 0
886 296 2 -1.1794 -10.890001530748593 3.4918323150093897 14.558351313686225 0 0 0
944 315 1 0.5897 -14.139752469946746 5.78156558350606 11.338203402085412 1 0 0
649 217 2 -1.1794 -15.593875891948954 8.178462072835437 15.534996471635925 0 -1 0
943 315 2 -1.1794 -13.958487760948234 6.716354455403568 11.240897553794296 1 0 0
1209 403 1 0.5897 -13.11375921311532 5.926674380659925 16.15491927985463 0 0 0
1018 340 2 -1.1794 -11.674157760842167 7.317863871527148 20.325631166621044 0 -1 0
1019 340 1 0.5897 -12.245569438125774 6.55027853178105 20.304308407191407 0 -1 0
1020 340 1 0.5897 -10.78752944446603 6.957599656056026 20.308143949227443 0 -1 0
980 327 1 0.5897 -12.559278825909566 8.067203574406374 16.646656588624097 0 -1 0
1237 413 2 -1.1794 -10.674789508000698 5.282722831086495 17.678621246771666 0 0 0
1034 345 1 0.5897 -14.719496094803715 7.918118453283082 20.42562962385742 0 -1 0
1030 344 2 -1.1794 -9.3220679106674 5.976192420701242 19.897858046929052 0 -1 0
1032 344 1 0.5897 -8.935857153827225 5.368823018617819 20.528905467311297 0 -1 0
1003 335 2 -1.1794 -13.390158144364786 4.9908909829616555 19.988911028558654 0 -1 0
1207 403 2 -1.1794 -13.014739157527895 6.31787739717733 17.0228502679665 0 0 0
1208 403 1 0.5897 -12.183006058075282 5.973277249500457 17.347999919063216 0 0 0
1239 413 1 0.5897 -10.001608949269082 5.287290842644481 16.998189341941167 0 0 0
1238 413 1 0.5897 -10.223708191423043 5.591025694319374 18.464533116245647 0 0 0
990 330 1 0.5897 -14.307344031009336 7.0225311510161 18.159830829794572 0 -1 0
1043 348 1 0.5897 -11.913597609995355 8.960392582202427 19.584740060193827 0 -1 0
989 330 1 0.5897 -15.116591236181229 8.254903069373633 18.5034181818496 0 -1 0
1033 345 2 -1.1794 -14.676227830716364 8.118831393956352 21.360521824348 0 -1 0
1035 345 1 0.5897 -14.430338901893318 9.043166751977989 21.39631180054234 0 -1 0
988 330 2 -1.1794 -14.96142879071246 7.350787169405518 18.776736055480686 0 -1 0
1005 335 1 0.5897 -13.823889875690515 4.765417938627811 19.16597188205479 0 -1 0
1010 337 1 0.5897 -11.012959960169493 4.2367828605141575 21.305470138890694 0 -1 0
650 217 1 0.5897 -15.288885488811541 8.715548134398905 16.266188691472777 0 -1 0
291 97 1 0.5897 -14.870925397341828 10.721189282483149 4.707022499811129 1 0 0
174 58 1 0.5897 -16.283104597923465 9.939046253891227 1.7428140135075625 1 0 0
173 58 1 0.5897 -14.792367503483135 10.20047864662811 1.7771988447684575 1 0 0
172 58 2 -1.1794 -15.44163555717641 9.505466026936567 1.8847842583511827 1 0 0
283 95 2 -1.1794 -16.691341430808144 11.523853192384511 4.295511287588743 1 0 0
161 54 1 0.5897 -15.156294015685766 7.960280090401195 2.564019421677933 1 0 0
216 72 1 0.5897 -12.931241900017731 9.648429831843384 3.784726909154708 1 0 0
214 72 2 -1.1794 -12.301917595006042 9.29206362673684 3.1577495941688882 1 0 0
285 95 1 0.5897 -17.12647735025711 11.23972416488811 3.491706719790998 1 0 0
148 50 2 -1.1794 -18.07119457422332 10.841121768397283 1.9350789357294973 1 0 0
289 97 2 -1.1794 -14.031538798341476 10.329218274394869 4.947920861083085 1 0 0
150 50 1 0.5897 -18.58969946768893 11.35194668318993 1.313398171418869 1 0 0
284 95 1 0.5897 -17.342836614201723 11.385332851170219 4.9829418589813494 1 0 0
193 65 2 -1.1794 -13.73622597848425 11.592042006408189 1.6494494025316413 1 0 0
215 72 1 0.5897 -12.143881427355678 8.397258086257441 3.45867861000219 1 0 0
205 69 2 -1.1794 -14.736391534137685 7.760622657507636 5.585861113609096 1 0 0
207 69 1 0.5897 -14.436591664622679 8.661655282472765 5.465774176087259 1 0 0
290 97 1 0.5897 -13.626393817831378 10.96985922502705 5.532349064382544 1 0 0
152 51 1 0.5897 -12.718753322259545 7.982415432612466 0.6198975006026066 1 0 0
206 69 1 0.5897 -14.757941910287581 7.395081587004892 4.701517019770927 1 0 0
151 51 2 -1.1794 -12.56602955323108 8.901085155773032 0.39884524851818526 1 0 0
1118 373 1 0.5897 -15.465707128993692 8.55396858914321 0.31209063717167784 0 -1 1
640 214 2 -1.1794 -13.565823631813615 12.099907322428496 7.025420834201223 1 0 0
630 210 1 0.5897 -12.862012907246921 9.111807083472417 7.596599588697446 1 0 0
629 210 1 0.5897 -13.622050070120615 10.395001370026044 7.856299511225117 1 0 0
628 210 2 -1.1794 -13.465258928484683 9.522025044291798 8.216235318320074 1 0 0
566 189 1 0.5897 -13.105310194588188 9.669886446487862 9.929668191025677 0 0 0
635 212 1 0.5897 -14.901317412266508 8.746504280961236 8.942601728498524 1 0 0
525 175 1 0.5897 -11.560773218175193 8.11167754638604 5.766011098636912 1 0 0
327 109 1 0.5897 -13.363508242319957 13.165152854645505 9.96431363649574 0 -1 0
642 214 1 0.5897 -14.430170884644564 12.505631035942269 7.092460403339038 1 0 0
634 212 2 -1.1794 -15.517809844682539 8.306712938208115 9.528026353050079 1 0 0
565 189 2 -1.1794 -13.09429686620712 9.922700907178857 10.852778444262707 0 0 0
567 189 1 0.5897 -12.945419142752593 10.868131236536325 10.840819255625286 0 0 0
617 206 1 0.5897 -16.90898286647198 12.690250388190837 7.800463494861645 1 0 0
523 175 2 -1.1794 -11.52265862999266 8.661699296233579 6.548405080848156 1 0 0
658 220 2 -1.1794 -16.33828915568447 11.619610317238283 15.077420783902319 0 -1 0
870 290 1 0.5897 -11.862273246264927 9.251166589910572 12.12223080075266 0 0 0
868 290 2 -1.1794 -11.399680731912802 8.68584761578829 12.740860804538233 0 0 0
671 224 1 0.5897 -12.99428837117344 11.049828166484534 14.438424620582321 0 -1 0
670 224 2 -1.1794 -13.727978947201425 10.62364994841349 14.881446282517816 0 -1 0
672 224 1 0.5897 -13.32105520479822 10.107327603955213 15.577220420166158 0 -1 0
956 319 1 0.5897 -16.587031477558583 10.549731245526289 12.303371065809815 1 0 0
660 220 1 0.5897 -15.44159274791032 11.284789259788194 15.08236404740587 0 -1 0
879 293 1 0.5897 -14.557800654697406 9.667595101314621 11.96562412376009 0 0 0
878 293 1 0.5897 -14.732056155644273 9.945796341511095 13.443461225419709 0 0 0
877 293 2 -1.1794 -15.195396993258452 9.608029281273119 12.677038456956284 0 0 0
680 227 1 0.5897 -11.061307313675849 9.563044386711905 15.606923678996175 0 -1 0
683 228 1 0.5897 -16.734314094736554 13.199620507822292 14.192974464855423 0 -1 0
728 243 1 0.5897 -17.090907556122623 12.688983088131636 11.186658790677518 1 -1 0
659 220 1 0.5897 -16.881887942991813 10.84757040472564 14.920607236602683 0 -1 0
681 227 1 0.5897 -10.749989381448092 9.46758354409845 14.12849087662966 0 -1 0
1140 380 1 0.5897 -11.784898746945585 12.750296363829168 20.611701268372304 0 -1 0
1138 380 2 -1.1794 -12.19693603685987 13.166301315163427 19.854437615315966 0 -1 0
1128 376 1 0.5897 -13.836851257718276 13.888025133081978 20.10435077866756 0 -1 0
1127 376 1 0.5897 -15.317606129021847 13.574426695458495 20.075351883866244 0 -1 0
1022 341 1 0.5897 -13.069434202292898 12.421063274132834 18.451545654584606 0 -1 0
1119 373 1 0.5897 -14.87456848158401 10.985204893102459 20.61467831111734 0 -1 0
1117 373 2 -1.1794 -14.003034356130499 10.687130023197465 20.87510350610926 0 -1 0
1044 348 1 0.5897 -12.675021160060165 10.264037470836389 19.696360816695176 0 -1 0
1042 348 2 -1.1794 -12.032268521142697 9.806951642028555 19.15406987227635 0 -1 0
1126 376 2 -1.1794 -14.698079486376631 14.28990175823149 20.218278325282903 0 -1 0
1098 366 1 0.5897 -17.110813336923467 14.153181423269896 18.183117079406564 0 -1 0
981 327 1 0.5897 -12.295404314411742 9.28622123156352 17.504518055239373 0 -1 0
991 331 2 -1.1794 -15.871963761841954 13.593420352430087 16.964157178498628 0 -1 0
992 331 1 0.5897 -15.027887810897305 13.229590980076711 17.231370863644564 0 -1 0
1111 371 2 -1.1794 -16.333330042819412 11.991494750930187 20.20777898728346 0 -1 0
1023 341 1 0.5897 -12.889705758158978 12.158921637456078 16.971428244651875 0 -1 0
1021 341 2 -1.1794 -13.55444865828823 12.189726048510522 17.659432191592472 0 -1 0
1001 334 1 0.5897 -14.72505796946802 10.626238521758708 17.72112070161375 0 -1 0
1000 334 2 -1.1794 -15.318494848276853 9.882877772210115 17.827952760785784 0 -1 0
993 331 1 0.5897 -16.296546636014565 12.88479281454726 16.480736094216226 0 -1 0
1002 334 1 0.5897 -16.193972160978017 10.26894526089957 17.80138921154827 0 -1 0
979 327 2 -1.1794 -12.405510258394226 9.010492091524824 16.594561928178702 0 -1 0
1013 338 1 0.5897 -10.619622215132413 10.476222863762768 18.386211139786212 0 -1 0
305 102 1 0.5897 -1.4031345633853078 -6.040397531235252 2.3453941458445007 1 1 0
311 104 1 0.5897 -2.789285868704517 -7.83139513988015 3.3510382146746043 1 1 0
310 104 2 -1.1794 -3.424881570272481 -8.435852895065892 3.7342356290106595 1 1 0
306 102 1 0.5897 -0.7493900665690152 -7.346687812614334 1.948064922991922 1 1 0
199 67 2 -1.1794 0.4977053003635472 -7.979250830013475 0.9069807784937685 1 1 0
304 102 2 -1.1794 -1.3729363618347037 -6.970545106631668 2.569233953210894 1 1 0
316 106 2 -1.1794 -1.903578128674738 -4.497947957318212 1.5619510813302941 1 1 0
242 81 1 0.5897 -1.1459234175306339 -6.697462503101509 4.487021342775341 0 1 0
318 106 1 0.5897 -2.7831637606262323 -4.1318548059576 1.6541601458790978 1 1 0
293 98 1 0.5897 -4.953406602088053 -3.778768782327357 2.3700618114946117 1 1 0
317 106 1 0.5897 -1.3273225102706192 -3.734165720994331 1.535193958867737 1 1 0
243 81 1 0.5897 -0.9264448706184538 -5.271698883003069 4.945883257062694 0 1 0
3 1 1 0.5897 -1.518932970833168 -3.305509851271818 4.308649819892203 0 0 0
241 81 2 -1.1794 -1.1142372914703174 -6.151573863671702 5.272584567682468 0 1 0
335 112 1 0.5897 -4.9795976291078095 -5.493814561436169 9.548232099039078 0 0 0
555 185 1 0.5897 -2.5968288168494196 -6.460452625260159 6.310332439110014 0 1 0
554 185 1 0.5897 -2.6545041583494466 -6.755723819636266 7.794045165354971 0 1 0
553 185 2 -1.1794 -3.1501800339760067 -6.859421684093941 6.981781485623781 0 1 0
546 182 1 0.5897 -0.18727128626416878 -7.2831139404588745 6.685168179921497 0 1 0
356 119 1 0.5897 1.0398749775864875 -6.994674043582913 10.201974769403328 0 0 0
632 211 1 0.5897 -4.6955511257151 -5.938450193631562 6.585794095594191 1 1 0
348 116 1 0.5897 -1.2777169313076193 -6.660898956820775 9.866596352340588 0 0 0
347 116 1 0.5897 -1.1109643247506167 -5.5952811018608095 8.804239087478773 0 0 0
346 116 2 -1.1794 -1.7610936948511107 -6.1785516524594435 9.195796005657389 0 0 0
336 112 1 0.5897 -3.475853144538081 -5.341326933150543 9.462634048211523 0 0 0
334 112 2 -1.1794 -4.28415100794753 -4.836157406878195 9.55012262899719 0 0 0
359 120 1 0.5897 -4.601527219917359 -3.2566485831003007 8.837825995398543 0 0 0
404 135 1 0.5897 -5.039018059955087 -3.735165422757661 5.846849029314022 1 0 0
357 119 1 0.5897 1.176631894234868 -7.155696843394303 8.702920537272423 0 0 0
544 182 2 -1.1794 0.30602704777316525 -7.825049914884643 7.300993748785977 0 1 0
669 223 1 0.5897 -4.199864043034545 -3.605303132864547 10.914292244650055 0 0 0
655 219 2 -1.1794 -0.3615775745097842 -7.371813534226696 11.188375787661883 0 0 0
793 265 2 -1.1794 -2.189574010404188 -5.918513127349408 15.521293839446711 0 0 0
795 265 1 0.5897 -3.0207692262585795 -5.651590979240094 15.128711904462833 0 0 0
803 268 1 0.5897 -3.2712459158883798 -2.9669388173869997 15.023315275191708 0 0 0
774 258 1 0.5897 -5.118221016579538 -2.2353693974846944 13.068053805813467 0 0 0
718 240 2 -1.1794 -0.13992393132668823 -6.79677332761883 13.833017590274489 0 0 0
657 219 1 0.5897 -0.3392430223398364 -7.138868289757164 12.116497181772427 0 0 0
699 233 1 0.5897 -1.030664352951531 -4.299599628559989 11.895191029029862 0 0 0
697 233 2 -1.1794 -1.7088012804016568 -4.41105899378922 12.561446614621078 0 0 0
677 226 1 0.5897 -2.8235373060656928 -5.952717966807191 12.462283236854423 0 0 0
676 226 2 -1.1794 -3.4311464357375048 -6.690907842630075 12.507510667669594 0 0 0
698 233 1 0.5897 -1.244556707679635 -4.321584299338826 13.39372785085052 0 0 0
668 223 1 0.5897 -3.1806851739272277 -3.2969964240446803 11.990425427819272 0 0 0
667 223 2 -1.1794 -4.0095168287350935 -2.9903728140148838 11.622629941825611 0 0 0