LAMMPS data file via write_data, version 30 Jul 2021, timestep = 13250000

864 atoms
2 atom types
576 bonds
1 bond types
288 angles
1 angle types

0.13301917617438086 18.07455322383651 xlo xhi
0.07135844186105267 23.557819358145586 ylo yhi
0.05563872979375084 22.15755707020606 zlo zhi

Masses

1 1.00794
2 15.9994

Atoms # full

707 1 1 0.5897 3.0508768204370744 1.8946470473869468 3.7251741649009458 0 0 0
706 1 2 -1.1794 3.0451696521742764 2.0002054402515967 2.7736810059613735 0 0 0
30 1 1 0.5897 5.20931056448477 4.1880093397950136 1.8504979322819257 0 0 0
708 1 1 0.5897 2.2305879072535832 2.4677234873693332 2.5889694912523815 0 0 0
29 1 1 0.5897 4.430367687360931 2.922417826651302 2.1386482958010844 0 0 0
28 1 2 -1.1794 5.2745635144164975 3.2339271395597566 1.8122277188234552 0 0 0
3 1 1 0.5897 0.6269551061358465 4.099874686185291 2.4590354797182803 0 0 0
1 1 2 -1.1794 0.6597201420059181 3.2074397381768307 2.1147168883999794 0 0 0
495 1 1 0.5897 8.05292346459289 2.2385316949089513 2.9876558964296143 0 0 0
494 1 1 0.5897 6.5549486773272925 2.4139259221025586 2.8557562847104117 0 0 0
493 1 2 -1.1794 7.219941028948306 1.815667402663296 3.196467277923369 0 0 0
685 1 2 -1.1794 5.3784291207085015 5.35370076595029 5.160004935223757 0 0 0
846 1 1 0.5897 7.431164058686386 1.8903271819278844 5.133278090552065 0 0 0
137 1 1 0.5897 5.353794201950398 5.920995869051286 3.378578285151373 0 0 0
20 1 1 0.5897 0.8857668803215574 3.0068793781501446 0.15954684675461814 0 0 0
188 1 1 0.5897 2.8688842664156855 0.23451386334283694 2.263400707648684 0 1 0
819 1 1 0.5897 7.041301681490726 0.17090568824791735 2.1926939624669313 0 0 0
487 1 2 -1.1794 3.082715279829789 1.7570142217737776 5.446450392980992 0 0 0
687 1 1 0.5897 4.67503373068981 5.91690899935325 5.482866903489975 0 0 0
676 1 2 -1.1794 4.900203301973835 5.551178052586563 10.309866316270583 0 0 0
113 1 1 0.5897 0.7628261413740342 5.838130681997796 10.995814361424262 0 0 0
82 1 2 -1.1794 5.223984565464361 2.8510969895080533 6.801680735569334 0 0 0
35 1 1 0.5897 1.0073767452643514 3.9539554126974124 9.766589275560044 0 0 0
674 1 1 0.5897 3.556488740161414 2.041576544536019 10.286407508616731 0 0 0
356 1 1 0.5897 7.29325852823594 0.9256960072071646 10.154533550592623 0 0 0
83 1 1 0.5897 4.514352017369961 2.440229263472275 6.307828180128157 0 0 0
34 1 2 -1.1794 0.9493711887686266 3.0644854861864896 9.417945491602893 0 0 0
844 1 2 -1.1794 7.62328198955744 1.8156201289948424 6.068168460184135 0 0 0
845 1 1 0.5897 7.541214331684887 0.8807331631789268 6.256055652892901 0 0 0
84 1 1 0.5897 6.007835739169289 2.365751937496787 6.544305143045537 0 0 0
274 1 2 -1.1794 4.849061474044593 2.9466242595227317 9.41632833050617 0 0 0
678 1 1 0.5897 4.95351190089571 4.679853430058577 9.917393410426504 0 0 0
489 1 1 0.5897 2.997986914108375 0.8413216896313178 5.711721472797429 0 0 0
36 1 1 0.5897 1.572968219136516 2.560701593237706 9.941045245549528 0 0 0
355 1 2 -1.1794 7.18383981962414 1.8577124753141554 10.34267040413282 0 0 0
488 1 1 0.5897 2.305926585607575 2.184195444552967 5.8074923805317225 0 0 0
784 1 2 -1.1794 0.9918150613353479 3.2224586770969488 6.737527474372837 0 0 0
276 1 1 0.5897 5.656468976471126 2.549998255117894 9.743513852001119 0 0 0
675 1 1 0.5897 2.8570116516481545 0.7037600813042555 10.398101536580308 0 0 0
275 1 1 0.5897 4.945612910083126 2.9368760699963117 8.463899015488593 0 0 0
673 1 2 -1.1794 2.8730133369302204 1.583234443535786 10.775388500262377 0 0 0
785 1 1 0.5897 1.0980272324298168 3.2381263789494286 7.688853157884267 0 0 0
183 1 1 0.5897 0.5423825292261792 5.071704848448619 6.004185076052202 0 0 0
686 1 1 0.5897 5.277780743197219 4.5386228178244865 5.6515864603734745 0 0 0
112 1 2 -1.1794 0.7762270556376668 5.680375727651117 10.051655082185835 0 0 0
165 1 1 0.5897 8.971786399380822 5.846391442758043 5.9569089187152695 0 0 0
181 1 2 -1.1794 0.6592972795392712 5.928255307509942 5.5933900123194125 0 0 0
176 1 1 0.5897 8.8455310898907 2.7496818593131036 9.586729339807654 0 0 0
786 1 1 0.5897 0.2241645352737327 2.6698116461365182 6.590839955435079 0 0 0
166 1 2 -1.1794 3.2296987157427344 2.0387213865989198 13.415065536156188 0 0 0
167 1 1 0.5897 3.0386740983424256 1.8836310154070997 12.489879221169419 0 0 0
457 1 2 -1.1794 5.572693676735106 3.3347561257943785 14.218431228551447 0 0 0
458 1 1 0.5897 6.360621345346665 2.908057350715852 13.88178623040737 0 0 0
459 1 1 0.5897 4.85197327273921 2.7852003119547564 13.910624489465265 0 0 0
762 1 1 0.5897 5.083195461842046 4.941068811735298 13.639016473329567 0 0 0
594 1 1 0.5897 8.453892963936626 2.33150395475225 13.336769400650644 0 0 0
168 1 1 0.5897 2.488940881574985 2.5570277425653516 13.729471531016326 0 0 0
466 1 2 -1.1794 0.796174680828344 3.4510699028911183 13.96396973148472 0 0 0
365 1 1 0.5897 0.5244753755603723 5.080203217920587 13.180281518771302 0 0 0
593 1 1 0.5897 7.66848212617964 1.0375919311766642 13.356864470669347 0 0 0
592 1 2 -1.1794 7.613370103323254 1.9521540017161807 13.08014744528246 0 0 0
468 1 1 0.5897 0.8265647828228242 3.3831289479692592 14.918423418101613 0 0 0
71 1 1 0.5897 5.293066189621597 3.148734794973574 15.95911752626255 0 0 0
357 1 1 0.5897 7.196218047089907 1.9127563586057177 11.298359994138485 0 0 0
760 1 2 -1.1794 4.89042119843517 5.763413122855725 13.188748914650263 0 0 0
761 1 1 0.5897 4.827484948297951 5.522143833385742 12.264454871397719 0 0 0
737 1 1 0.5897 3.0404607507446335 0.3691876631090917 13.625868740177204 0 1 0
754 1 2 -1.1794 7.591373841268518 1.784947617437193 17.65939163841714 0 0 0
19 1 2 -1.1794 0.8702769466738017 2.8828521737332884 21.312309994866922 0 0 0
648 1 1 0.5897 0.8695223296956291 5.908845479445507 19.816586764061157 0 0 0
755 1 1 0.5897 7.551664581786676 1.6618219392958293 18.607957098444885 0 0 0
21 1 1 0.5897 0.9464261306485231 3.7668638893302218 20.953404586947066 0 0 0
42 1 1 0.5897 7.438805855012329 0.9229278216441059 20.61581472249553 0 0 0
289 1 2 -1.1794 2.808568798609955 1.9524266663406138 17.590547677186244 0 0 0
41 1 1 0.5897 6.769021751861031 2.2791281778664967 20.55636718086067 0 0 0
143 1 1 0.5897 5.177509972207067 5.103380927103303 20.418175586757627 0 0 0
569 1 1 0.5897 2.3139508243470077 1.994283431883281 20.641208512545283 0 0 0
72 1 1 0.5897 4.346836864930828 2.8783901817364357 17.1097320116286 0 0 0
570 1 1 0.5897 3.0813600600072704 1.625754528397747 19.38916022514612 0 0 0
40 1 2 -1.1794 7.585847229655979 1.8283013588452102 20.34244959145684 0 0 0
599 1 1 0.5897 8.81605255500807 2.8494932127329804 16.934438151664672 0 0 0
667 1 2 -1.1794 5.068947855796995 3.409878662130845 21.0966066323943 0 0 0
277 1 2 -1.1794 5.14056415639447 5.919602133219412 17.64068222716385 0 0 0
568 1 2 -1.1794 3.156106152205239 1.6504057289805985 20.34326772522759 0 0 0
756 1 1 0.5897 6.845887261229564 2.3510368435354385 17.45945992046694 0 0 0
669 1 1 0.5897 4.300309756868761 2.8984838771494315 20.84382756442534 0 0 0
278 1 1 0.5897 5.149941341382548 5.003559874128177 17.36353686759987 0 0 0
291 1 1 0.5897 1.991763389717881 2.4215960824134832 17.420503943240355 0 0 0
290 1 1 0.5897 2.67068368220886 1.0851004682456409 17.209976963535688 0 0 0
70 1 2 -1.1794 5.236174320577441 3.1736951268095517 16.914458733670386 0 0 0
360 1 1 0.5897 9.037962973735748 2.6675477521737188 21.267163356153524 0 0 0
134 1 1 0.5897 0.3469249086367745 4.019044135301238 17.11674483900258 0 0 0
646 1 2 -1.1794 0.9585975560265688 5.761857029068376 20.75837303344278 0 0 0
571 1 2 -1.1794 0.5433516453224223 5.710689720255448 17.977336963952105 0 0 0
133 1 2 -1.1794 0.6632688084366831 3.228374453004897 16.67981548891138 0 0 0
323 1 1 0.5897 7.62963595580996 0.09386860015143034 17.097462409955668 0 1 0
668 1 1 0.5897 5.129431267221456 3.2992052861462384 22.045619249849203 0 0 -1
253 1 2 -1.1794 2.9281080775065207 7.064587685599197 2.018772822343479 0 0 0
123 1 1 0.5897 3.0270151776129928 8.75983719177084 2.6040583064778513 0 0 0
121 1 2 -1.1794 3.1416161361971056 9.63256455975844 2.9799435180354963 0 0 0
122 1 1 0.5897 2.9100445267504154 9.528758283853454 3.9030362830718635 0 0 0
44 1 1 0.5897 1.7717542453213786 10.558334959964775 2.327231681223521 0 0 0
218 1 1 0.5897 6.058362840559083 10.792303615556264 2.3066363429387216 0 0 0
138 1 1 0.5897 4.367493755695597 6.292838108472696 2.2917503057792192 0 0 0
219 1 1 0.5897 4.5732209281614615 10.589464466291988 2.519163095341543 0 0 0
255 1 1 0.5897 2.1315557018727853 6.585291991727902 2.246762905701198 0 0 0
415 1 2 -1.1794 7.446418231198351 7.53013922577944 2.0292208019428077 0 0 0
43 1 2 -1.1794 0.9574767129288227 11.017736162506539 2.122002762975855 0 0 0
254 1 1 0.5897 2.945623841173917 7.059594848490372 1.06159684382018 0 0 0
217 1 2 -1.1794 5.2044816964214835 11.1656895497621 2.088244718433133 0 0 0
66 1 1 0.5897 7.353677652201095 10.035707346403216 3.969439700409995 0 0 0
65 1 1 0.5897 7.47891941314237 9.15734762509154 2.742659381615123 0 0 0
64 1 2 -1.1794 7.574774437009192 10.062567623496818 3.0383643977288877 0 0 0
417 1 1 0.5897 8.165510567477511 6.967957936780657 2.3174411179499583 0 0 0
416 1 1 0.5897 6.654697128101292 7.041427130527707 2.2540224168956224 0 0 0
595 1 2 -1.1794 0.5413809055749327 6.0642218293606645 2.821129749513611 0 0 0
396 1 1 0.5897 0.9055058761696252 11.011045650932017 0.15356072353741723 0 0 0
363 1 1 0.5897 5.227959168835785 11.338470967647803 0.3919321486248344 0 0 1
162 1 1 0.5897 7.478918062181286 7.290576087627422 0.2855437447760645 0 0 1
597 1 1 0.5897 0.42822803309089863 6.057616028927636 3.7717442074682554 0 0 0
136 1 2 -1.1794 5.262677760487699 5.982301436472343 2.4275492800360743 0 0 0
795 1 1 0.5897 3.510363237579987 9.838860044554554 5.971634517079645 0 0 0
713 1 1 0.5897 7.747834193396472 9.932961216148774 6.077387710571218 0 0 0
10 1 2 -1.1794 3.1630716625170483 6.788951940155874 6.247258342090458 0 0 0
578 1 1 0.5897 5.603690840016589 10.569527772353236 6.154361220776543 0 0 0
526 1 2 -1.1794 7.242724396075878 6.787926967402889 9.142053994819092 0 0 0
577 1 2 -1.1794 4.8777754547386625 11.102822765283038 6.478171868755295 0 0 0
145 1 2 -1.1794 7.527697537930438 6.901346889268377 6.352131778764848 0 0 0
146 1 1 0.5897 6.846409660732335 6.3593893190892326 5.95417443637672 0 0 0
256 1 2 -1.1794 2.8101213374987575 9.617921338879155 9.999455007080224 0 0 0
580 1 2 -1.1794 5.132911124838483 11.109963945721518 9.234687280510606 0 0 0
650 1 1 0.5897 3.0101666207683455 6.859081517106631 7.988448628544286 0 0 0
822 1 1 0.5897 8.119008077056744 10.011575259285928 9.613204797099804 0 0 0
527 1 1 0.5897 7.09387126253767 7.667024477641547 9.490099340505157 0 0 0
15 1 1 0.5897 1.1742909514981403 10.410099896209134 9.867144950949426 0 0 0
582 1 1 0.5897 4.998599881952698 11.225642721827091 8.293898393830993 0 0 0
820 1 2 -1.1794 7.340441385688481 9.61250863390734 10.00158852312111 0 0 0
581 1 1 0.5897 5.871242788603697 10.504258400976626 9.298979648509318 0 0 0
147 1 1 0.5897 7.312607965679027 6.910853035481258 7.284953736400169 0 0 0
649 1 2 -1.1794 2.897887684716556 6.899285868233316 8.938348429255628 0 0 0
651 1 1 0.5897 3.68990327991359 6.49361775534435 9.291056153353624 0 0 0
13 1 2 -1.1794 0.44081727673880683 10.979878978641567 9.635738857018714 0 0 0
258 1 1 0.5897 3.5432927578971154 10.162267591868865 9.712493079076275 0 0 0
12 1 1 0.5897 3.11215123597767 7.722791584639652 6.0438625635863525 0 0 0
257 1 1 0.5897 3.020054941491885 8.742347417042952 9.674857928071232 0 0 0
528 1 1 0.5897 7.9132238125324355 6.413958814297944 9.713791770227536 0 0 0
712 1 2 -1.1794 6.970646206912151 9.539057833470286 5.681066710091913 0 0 0
11 1 1 0.5897 2.32488785451872 6.433106451962465 5.95219568430831 0 0 0
794 1 1 0.5897 2.0040093718358185 9.977718668791073 6.031866231501174 0 0 0
714 1 1 0.5897 7.097405651303678 8.596663447530732 5.789803891661886 0 0 0
550 1 2 -1.1794 0.5724830757117697 10.930015369014775 6.91225590141995 0 0 0
551 1 1 0.5897 0.36477610287445517 10.904430580913733 7.846454114381408 0 0 0
793 1 2 -1.1794 2.6992653885681714 9.414689149469414 5.691520213947354 0 0 0
114 1 1 0.5897 1.541552565852764 6.162505015033568 9.73854016036386 0 0 0
677 1 1 0.5897 5.737604721864371 5.962389365900404 10.095671247379057 0 0 0
821 1 1 0.5897 7.523979353927662 9.592763310633392 10.94096597979397 0 0 0
826 1 2 -1.1794 7.251115456635517 7.184057528484959 13.943588897196664 0 0 0
827 1 1 0.5897 6.4607366573603064 6.7161396434333565 13.674185066913996 0 0 0
332 1 1 0.5897 2.6872164950018913 7.823425173002518 13.6712790665439 0 0 0
797 1 1 0.5897 3.0595795194375612 9.415637973065623 11.858000752655496 0 0 0
796 1 2 -1.1794 3.006092269967698 9.399276003806424 12.8137215542055 0 0 0
798 1 1 0.5897 2.3710846319949797 10.081914384909327 13.030302927643456 0 0 0
722 1 1 0.5897 4.676009474372871 10.150492869308044 13.480898140109822 0 0 0
333 1 1 0.5897 3.4733672569368412 6.531598653695497 13.739225408307101 0 0 0
723 1 1 0.5897 5.455779919968318 10.637439263249535 14.683873443078246 0 0 0
828 1 1 0.5897 7.113508217341237 7.373088103422144 14.871964412968275 0 0 0
851 1 1 0.5897 8.845155229273557 6.1276367391473086 13.42567450157243 0 0 0
331 1 2 -1.1794 2.7062159469991696 6.97100351735431 14.106153285448874 0 0 0
225 1 1 0.5897 2.5541358462123487 6.990624789968489 15.980560990824308 0 0 0
721 1 2 -1.1794 5.4429802875226 10.667574857708448 13.727083631955848 0 0 0
475 1 2 -1.1794 7.947888649136491 9.595681764123173 12.74741784669302 0 0 0
476 1 1 0.5897 7.1636511519422506 10.095697158174762 12.973590617206838 0 0 0
477 1 1 0.5897 7.77653786405876 8.715926472075326 13.083169145034267 0 0 0
259 1 2 -1.1794 0.9069033812595206 11.09797347957038 13.666613324822046 0 0 0
261 1 1 0.5897 0.9768826105770438 11.043100045993018 14.619822289196895 0 0 0
366 1 1 0.5897 1.214465746980173 6.425061206955173 13.262203450520524 0 0 0
260 1 1 0.5897 0.21845129945135655 10.472771200544845 13.44008524807593 0 0 0
364 1 2 -1.1794 0.47422210733811554 5.977848754382004 12.851982972888191 0 0 0
679 1 2 -1.1794 5.096798859635516 10.838207402474229 16.464365481909617 0 0 0
445 1 2 -1.1794 0.7148803861063503 10.920837505819245 16.39984679513489 0 0 0
279 1 1 0.5897 4.336143183041254 6.276058586153057 17.263713901251627 0 0 0
141 1 1 0.5897 7.4127339705844975 8.883109639510081 20.84395405774857 0 0 0
224 1 1 0.5897 2.811215856002974 7.789331976478313 17.24079887676355 0 0 0
627 1 1 0.5897 2.0654164621133835 9.858836225311387 17.40871933055074 0 0 0
4 1 2 -1.1794 3.227528399175535 7.205941862739071 21.337157264156616 0 0 0
680 1 1 0.5897 4.367806070320982 10.303313708464323 16.778459230049116 0 0 0
394 1 2 -1.1794 1.0954941804906055 11.289326604447465 21.359418266798393 0 0 0
246 1 1 0.5897 8.880820389318519 10.59930891193821 16.83090388134015 0 0 0
140 1 1 0.5897 6.809493320163801 10.25364019238768 21.065757120241962 0 0 0
161 1 1 0.5897 6.820158213212407 6.838363036764416 21.101408675890795 0 0 0
690 1 1 0.5897 2.412389207858229 10.331883096278508 20.819794345863443 0 0 0
625 1 2 -1.1794 2.9228458040439844 9.474520457392 17.591327679204944 0 0 0
688 1 2 -1.1794 3.182563186045389 9.914389217554637 20.434067102889344 0 0 0
5 1 1 0.5897 4.019138205164844 6.802704854802935 20.980792022978783 0 0 0
522 1 1 0.5897 7.07465600088284 8.200462156832693 17.183725720836797 0 0 0
689 1 1 0.5897 3.925910390778323 10.359108276487438 20.84142296942789 0 0 0
361 1 2 -1.1794 5.342862745893182 11.231114871263378 21.549507242761656 0 0 0
626 1 1 0.5897 3.102013176417951 9.709024565209724 18.502033803775426 0 0 0
139 1 2 -1.1794 7.496832002046431 9.798914981659891 20.578870408516224 0 0 0
6 1 1 0.5897 3.292779537823647 8.126755420164749 21.08441342847761 0 0 0
711 1 1 0.5897 8.675816591733314 6.391127151278093 17.360531292719834 0 0 0
8 1 1 0.5897 7.323296741178196 9.815413410120785 18.776256222995762 0 0 0
7 1 2 -1.1794 7.40293738452174 9.754264354307317 17.82418919651417 0 0 0
160 1 2 -1.1794 7.641774080558055 7.18424231729491 21.450078936441763 0 0 0
223 1 2 -1.1794 2.647578356754508 6.899356701843981 16.928971727776926 0 0 0
572 1 1 0.5897 1.2913761269397321 6.0961826324712876 17.521122640575342 0 0 0
9 1 1 0.5897 6.590027513871073 10.133764428942586 17.49042583805315 0 0 0
521 1 1 0.5897 6.3883047924657 6.858544660718553 17.043633249304065 0 0 0
446 1 1 0.5897 0.6488547308618207 11.7907523677353 16.79350246240063 0 0 0
647 1 1 0.5897 1.7759958175777495 6.2009197434158185 20.99359207568788 0 0 0
520 1 2 -1.1794 7.096868428389393 7.388126566931118 16.677997165925646 0 0 0
681 1 1 0.5897 5.00588291837078 11.667140879427405 16.93418647827682 0 0 0
462 1 1 0.5897 9.015614747412208 6.403487138858526 20.911595236693607 0 0 0
395 1 1 0.5897 0.31081173587779887 11.055013758639005 20.863745271048778 0 0 0
144 1 1 0.5897 5.344494328408302 6.101325076822299 19.29200675579311 0 0 0
142 1 2 -1.1794 5.371860038613219 6.024558917134252 20.245878964531407 0 0 0
374 1 1 0.5897 1.1068312242940888 13.705371100386206 3.784242907453021 0 0 0
173 1 1 0.5897 5.025947243655704 14.177809236365004 2.3758611272659254 0 0 0
172 1 2 -1.1794 5.883871268826397 13.779392711487224 2.522312978179362 0 0 0
373 1 2 -1.1794 1.1054977693203787 13.681034685179883 2.8271991466880237 0 0 0
558 1 1 0.5897 3.4271815251301834 14.852214429726281 1.097701447927569 0 0 0
556 1 2 -1.1794 3.375847269644288 15.006993503733037 2.0410882811521764 0 0 0
557 1 1 0.5897 2.5187793227496535 14.664119923492313 2.294295080011631 0 0 0
478 1 2 -1.1794 8.148565024554756 15.320365657708143 2.145411941211441 0 0 0
174 1 1 0.5897 5.749171912875538 12.848326294237507 2.34627428269134 0 0 0
293 1 1 0.5897 3.3880172022677666 16.594403238903553 2.85146894315869 0 0 0
479 1 1 0.5897 8.775992015209347 14.674607489399662 2.470229080145406 0 0 0
449 1 1 0.5897 7.80058285891477 16.92476181598981 2.9551210769850584 0 0 0
480 1 1 0.5897 7.291502426953718 14.94512798469868 2.3475561277090087 0 0 0
200 1 1 0.5897 5.5870407503626325 13.445257968989692 4.331218208871245 0 0 0
199 1 2 -1.1794 5.37115876474023 13.40803153764286 5.263163726801588 0 0 0
292 1 2 -1.1794 3.4271922996691426 17.501635300638902 3.153859869118917 0 0 0
375 1 1 0.5897 0.2214981970300018 13.953749606230422 2.581396778569305 0 0 0
308 1 1 0.5897 7.381244296025209 17.32650161544347 5.036496940126932 0 0 0
45 1 1 0.5897 1.1951680925347168 11.944744877374871 2.135282605024083 0 0 0
317 1 1 0.5897 8.042631998617972 15.439779320002769 0.3005831294603227 0 0 0
294 1 1 0.5897 3.3577340560957025 17.440345816923312 4.106725332101276 0 0 0
384 1 1 0.5897 3.89364142846028 16.78511932246019 10.084991255781503 0 0 0
18 1 1 0.5897 3.866842657008512 14.128622690203386 6.359424560644088 0 0 0
454 1 2 -1.1794 5.7674591103916795 13.540837767512205 10.552132740815143 0 0 0
656 1 1 0.5897 1.66916448895753 13.80105301567655 6.1694070656272375 0 0 0
811 1 2 -1.1794 3.526853593734491 14.93077014255685 9.466010487224679 0 0 0
456 1 1 0.5897 5.608503720080423 12.668749928468186 10.191175186621743 0 0 0
813 1 1 0.5897 2.7427631762919304 14.474568092643452 9.771468423512072 0 0 0
17 1 1 0.5897 3.411621146524163 14.722007447609432 7.675874282747515 0 0 0
766 1 2 -1.1794 1.083025924876781 13.623532999489585 10.44057472294703 0 0 0
307 1 2 -1.1794 7.498175430222984 17.273303636418376 5.985212473663213 0 0 0
377 1 1 0.5897 7.196965814894934 14.233594085578584 9.80625201711955 0 0 0
382 1 2 -1.1794 3.5648400631289148 17.608940135385225 10.444575141020803 0 0 0
519 1 1 0.5897 8.171920043051944 14.260685647816297 6.438391437375981 0 0 0
812 1 1 0.5897 4.253301930717606 14.375553188320646 9.749269989928099 0 0 0
518 1 1 0.5897 7.532707591905447 15.631191675938483 6.505748585567096 0 0 0
376 1 2 -1.1794 7.910470518957859 14.660890224782658 9.332298849590401 0 0 0
16 1 2 -1.1794 3.149188042147927 14.618418497688792 6.761045693717558 0 0 0
517 1 2 -1.1794 7.343694912915727 14.701078270962842 6.6289302084070005 0 0 0
186 1 1 0.5897 7.763536224669327 16.442282517543944 9.902232584406937 0 0 0
378 1 1 0.5897 7.679439159250147 14.560209967557057 8.408722578339631 0 0 0
184 1 2 -1.1794 7.779371187295442 17.22726009865095 10.449700938166936 0 0 0
201 1 1 0.5897 6.140081051428235 13.771458417830896 5.702424185578519 0 0 0
768 1 1 0.5897 0.2877529745197973 13.973800234445205 10.039170359930734 0 0 0
239 1 1 0.5897 3.2004365522044003 16.415783252545992 6.362122824129991 0 0 0
185 1 1 0.5897 8.651825510900846 17.596865312209196 10.313924890322681 0 0 0
552 1 1 0.5897 0.7861941455388316 11.846696618564165 6.738925103747337 0 0 0
657 1 1 0.5897 0.16472912134203455 13.93270641670094 6.062266843015883 1 0 0
238 1 2 -1.1794 3.043747419948859 17.332615831984285 6.136521193433707 0 0 0
14 1 1 0.5897 0.7105046415854683 11.849636389610136 9.930471439074058 0 0 0
579 1 1 0.5897 4.944027305918484 11.921675573790184 5.987024873344024 0 0 0
655 1 2 -1.1794 0.9085359248533046 13.442553488485586 5.711927546041794 0 0 0
296 1 1 0.5897 7.444596089591397 14.826067364210822 14.911244758919429 0 0 0
232 1 2 -1.1794 2.87471906952721 14.964351464060021 13.80549598838366 0 0 0
234 1 1 0.5897 2.914150892252257 14.984920230299613 14.761814654125743 0 0 0
606 1 1 0.5897 3.007799801126491 16.60806796078709 13.213859321167444 0 0 0
427 1 2 -1.1794 5.114476071269991 13.2760537608461 13.216395500159761 0 0 0
233 1 1 0.5897 3.6237414239406722 14.427886964183148 13.54588424390775 0 0 0
639 1 1 0.5897 1.293321638602131 14.007111743774065 13.330305967389645 0 0 0
429 1 1 0.5897 5.922854605051983 13.727291043456999 13.45955967635837 0 0 0
428 1 1 0.5897 5.27244087191011 12.360470770215542 13.44613405825539 0 0 0
638 1 1 0.5897 0.5333135350469098 12.702203461899835 13.225127995318747 0 0 0
637 1 2 -1.1794 0.47488116391547164 13.631880040518665 13.005340296100723 0 0 0
295 1 2 -1.1794 7.319364833551858 14.697699645404162 13.97084857473909 0 0 0
270 1 1 0.5897 7.153903508563467 16.487073377272516 13.40664887563868 0 0 0
297 1 1 0.5897 8.195801385466261 14.508609557197365 13.635576418976418 0 0 0
269 1 1 0.5897 7.386244747810947 17.364579718019385 12.194980522868292 0 0 0
455 1 1 0.5897 5.743581015970809 13.416028546868489 11.501009731846185 0 0 0
268 1 2 -1.1794 7.203683530920061 17.40315641795835 13.133973339635064 0 0 0
604 1 2 -1.1794 2.904199919654011 17.536335487302956 13.005030436455401 0 0 0
605 1 1 0.5897 3.2315022713286505 17.618837183092282 12.10917997655088 0 0 0
767 1 1 0.5897 0.9404491554481423 13.722531774684782 11.382105027043302 0 0 0
825 1 1 0.5897 2.3161956840096103 14.24618440178817 16.906437230274555 0 0 0
664 1 2 -1.1794 3.3046755407545265 14.896413890111878 21.403042283462163 0 0 0
49 1 2 -1.1794 7.061743385561187 14.910351358324633 16.68595309046605 0 0 0
51 1 1 0.5897 7.936477969616868 14.623267145662723 16.948007118915534 0 0 0
50 1 1 0.5897 6.94290087683166 15.751176165327019 17.127562513742 0 0 0
583 1 2 -1.1794 2.8326640228614104 17.548229621246833 17.5638716016093 0 0 0
125 1 1 0.5897 5.348956812955673 13.285633648106423 18.70383423712598 0 0 0
124 1 2 -1.1794 5.140916838338698 13.258516969281334 17.76976275531527 0 0 0
684 1 1 0.5897 4.905941699968221 14.39473240085266 20.70593726286735 0 0 0
316 1 2 -1.1794 7.8346801916666795 15.243508460771636 21.488867867385665 0 0 0
666 1 1 0.5897 3.097757423992954 15.780115530320971 21.09921309128955 0 0 0
451 1 2 -1.1794 0.9372600812942222 13.851425993658387 20.34213316014133 0 0 0
823 1 2 -1.1794 3.091365547393758 14.736826012057929 16.63333567563243 0 0 0
318 1 1 0.5897 7.57485395360505 16.085635318829418 21.11548984916034 0 0 0
665 1 1 0.5897 2.644407634328505 14.340018236842447 20.989896552012283 0 0 0
824 1 1 0.5897 3.815026854585853 14.32422048260599 17.104865773090346 0 0 0
683 1 1 0.5897 6.412515727246188 14.317183013764911 20.83317586211676 0 0 0
452 1 1 0.5897 1.0011248714318004 13.009979175560435 20.7937927854314 0 0 0
682 1 2 -1.1794 5.661039307087694 13.865452973644919 20.449157112702103 0 0 0
584 1 1 0.5897 2.8621312566977224 16.651890146669956 17.22955889573673 0 0 0
53 1 1 0.5897 0.5617345856963305 13.650283246553522 18.627654878059595 0 0 0
126 1 1 0.5897 5.779359861893604 13.845316099180879 17.364469091408438 0 0 0
52 1 2 -1.1794 0.6027421503957644 13.47626511691671 17.687146644741468 0 0 0
157 1 2 -1.1794 7.135007384573118 17.59855836006534 20.43027889429606 0 0 0
716 1 1 0.5897 3.1054110444241614 17.394941337008873 19.32806731704023 0 0 0
610 1 2 -1.1794 7.181601898631531 17.42041752562274 17.730884491053807 0 0 0
715 1 2 -1.1794 3.028425698179471 17.335282731571347 20.28045291063986 0 0 0
362 1 1 0.5897 5.310761136466075 12.121919921516602 21.200943028678964 0 0 0
267 1 1 0.5897 5.857068970692088 21.710293726570058 2.8116309104494337 0 0 0
696 1 1 0.5897 1.3609519069166909 22.043207724710143 3.116194470756418 0 0 0
266 1 1 0.5897 4.353715356146496 21.79053637290812 2.971459113418845 0 0 0
265 1 2 -1.1794 5.1390202798483875 21.41983174218595 3.374129328223439 0 0 0
344 1 1 0.5897 1.8306890108197857 18.471155863162622 2.6368791550811723 0 0 0
228 1 1 0.5897 5.180220489690058 19.934440779494608 2.432692099056833 0 0 0
343 1 2 -1.1794 0.9851588217888485 18.89746434960759 2.4970624814204774 0 0 0
817 1 2 -1.1794 7.106715230353751 22.728440543523007 1.9716242610058183 0 0 0
249 1 1 0.5897 5.095448118632068 21.164424671311423 5.166752752163809 0 0 0
226 1 2 -1.1794 5.360010072684788 19.078009808635187 2.045015515668661 0 0 0
187 1 2 -1.1794 2.7593511397306894 22.777626034492634 2.1445971178076597 0 0 0
227 1 1 0.5897 4.6345103706778445 18.525787964672517 2.3363699467622174 0 0 0
321 1 1 0.5897 9.02228521302473 18.621013944779087 2.639796800779635 0 0 0
818 1 1 0.5897 7.882525205845406 22.42386074823981 2.4424081989663353 0 0 0
413 1 1 0.5897 0.6905713729855312 21.374844324533854 5.250944465348134 0 0 0
189 1 1 0.5897 2.7953947694683197 22.649313578508817 1.1965669975347029 0 0 0
345 1 1 0.5897 0.871864330194919 18.899946209569855 1.5464316376868228 0 0 0
694 1 2 -1.1794 0.676223535202762 21.488459278894062 3.4899375811267745 0 0 0
450 1 1 0.5897 6.92258770084551 18.157850070513156 2.967437109442187 0 0 0
695 1 1 0.5897 0.9550101527182989 20.595185021283008 3.288998649570656 0 0 0
448 1 2 -1.1794 7.684978567673554 17.767190074825393 3.394524633922112 0 0 0
602 1 1 0.5897 4.8286481629964655 18.94027196357233 0.21683736872126178 0 0 0
555 1 1 0.5897 5.566446895287238 20.62522674401084 10.750155025006112 0 0 0
405 1 1 0.5897 1.1035739454364468 19.23784931442455 9.564977118506977 0 0 0
87 1 1 0.5897 8.118950795958707 22.221275119125913 9.849613057651148 0 0 0
37 1 2 -1.1794 3.076903796024634 22.561277392150544 9.495565557150053 0 0 0
86 1 1 0.5897 7.424528937797601 22.680711841368037 8.58507531010494 0 0 0
247 1 2 -1.1794 5.134198772965754 21.035011243647695 6.1145177798727435 0 0 0
32 1 1 0.5897 8.112342755416613 22.019984733663932 6.497671966878717 0 0 0
248 1 1 0.5897 4.438000599149533 21.59269859151773 6.461637931481581 0 0 0
39 1 1 0.5897 3.833549790220449 22.156741539085402 9.919982781273973 0 0 0
340 1 2 -1.1794 0.6952510602214664 18.478504125347456 6.596888506775962 0 0 0
701 1 1 0.5897 3.0491091251416274 22.693529767952384 7.704818090417062 0 0 0
386 1 1 0.5897 5.915631466385994 18.02775670916315 6.87885721063359 0 0 0
387 1 1 0.5897 5.223319849120812 19.373686091380335 6.853994415748851 0 0 0
102 1 1 0.5897 5.584153078585064 18.791011886775145 9.15569554391937 0 0 0
700 1 2 -1.1794 3.0198635607350286 22.54642041307074 6.759292377698061 0 0 0
385 1 2 -1.1794 5.209452773838523 18.523475004764514 7.293366001098046 0 0 0
341 1 1 0.5897 1.5112272866920367 18.094917676063773 6.2754619346591864 0 0 0
38 1 1 0.5897 2.332302013679383 22.027665707454446 9.773111476740723 0 0 0
101 1 1 0.5897 6.544605480468047 18.37611813577 10.250061719054413 0 0 0
553 1 2 -1.1794 5.347004752907936 21.542686805791696 10.911814472343007 0 0 0
96 1 1 0.5897 0.9333042497229695 21.28029705503723 10.947746770467864 0 0 0
342 1 1 0.5897 0.799747415866913 18.502683893173703 7.5482124990305905 0 0 0
85 1 2 -1.1794 7.422450589494921 22.797718617640975 9.535278399281227 0 0 0
554 1 1 0.5897 5.993711005029353 22.036457815799608 10.407570622042053 0 0 0
404 1 1 0.5897 1.9667258968796035 17.998451514748837 9.667273934047993 0 0 0
702 1 1 0.5897 2.1641458990299496 22.14621130863678 6.605041377046274 0 0 0
31 1 2 -1.1794 7.3948526459386015 22.58172887434209 6.790651068639773 0 0 0
100 1 2 -1.1794 5.850340160469957 19.00400048755514 10.050263610842462 0 0 0
33 1 1 0.5897 6.602054898613383 22.09031767417561 6.575651539213567 0 0 0
403 1 2 -1.1794 1.1031222993695404 18.298151915068914 9.38330768460921 0 0 0
94 1 2 -1.1794 0.8703072836107769 20.989204430220518 10.037933064551302 0 0 0
414 1 1 0.5897 0.7724951203129852 20.261054424314892 6.273037646376706 0 0 0
412 1 2 -1.1794 0.6917105958429531 21.211456284796625 6.194243563661282 0 0 0
309 1 1 0.5897 8.214109174081335 17.880191003203258 6.173157918417053 0 0 0
383 1 1 0.5897 4.299227356735217 18.217108599267263 10.361183174197201 0 0 0
95 1 1 0.5897 0.15182305994822087 21.503879667197026 9.670364230643964 1 0 0
240 1 1 0.5897 3.7573380572315505 17.809297998184206 6.560580367912155 0 0 0
502 1 2 -1.1794 0.6896281109301332 18.683087462507224 13.937672817134658 0 0 0
88 1 2 -1.1794 5.356272056763921 21.73903320249594 13.563706806360527 0 0 0
381 1 1 0.5897 1.5421378523319376 21.862022585017066 13.132086550501942 0 0 0
90 1 1 0.5897 5.2051535981245625 20.822593812153535 13.794640790752918 0 0 0
763 1 2 -1.1794 5.09515942383787 19.016523636872677 14.089880990221209 0 0 0
738 1 1 0.5897 3.7861822883787424 22.53868248654134 13.656894948673093 0 0 0
89 1 1 0.5897 5.403833742377631 21.740978612102218 12.607542638987567 0 0 0
764 1 1 0.5897 4.385075025574239 18.520138501313305 13.682921820655958 0 0 0
474 1 1 0.5897 5.051042966193756 19.119109151697025 15.791249345723385 0 0 0
503 1 1 0.5897 1.5653162557511502 18.384641357231715 13.691992846859586 0 0 0
380 1 1 0.5897 0.8177264149826077 20.538606152068503 13.25557696088949 0 0 0
736 1 2 -1.1794 2.9145102561408542 22.9178146783296 13.769435527528355 0 0 0
787 1 2 -1.1794 7.771841178500896 22.8056221586571 14.290621229497678 0 0 0