#include		in.partitions
include		in.temp
variable        temperature equal 127.60
variable	tempDamp equal 100.0
include		in.pressure
variable        pressure equal 2055.9
variable        pressureDamp equal 1000.0 # This is 1 ps
include		in.seed
variable        seed equal 745823

units		real
atom_style	full
box tilt large
read_restart	restart.lmp.${pid}
read_restart	restart.lmp.0
Reading restart file ...
  restart file = 30 Jul 2021, LAMMPS = 30 Jul 2021
  restoring atom style full from restart
  triclinic box = (-10.565531 -9.2396504 0.024193024) to (12.545531 12.229648 21.835806) with tilt (-9.0400025 1.9430957 2.9120766)
  2 by 2 by 4 MPI processor grid
  restoring pair style lj/cut/tip4p/long/omp from restart
  restoring bond style harmonic/omp from restart
  restoring angle style harmonic/omp from restart
  1296 atoms
  864 bonds
  432 angles
Finding 1-2 1-3 1-4 neighbors ...
  special bond factors lj:    0        0        0       
  special bond factors coul:  0        0        0       
     2 = max # of 1-2 neighbors
     1 = max # of 1-3 neighbors
     1 = max # of 1-4 neighbors
     2 = max # of special neighbors
  special bonds CPU = 0.001 seconds
  read_restart CPU = 0.005 seconds
include 	in.setup
variable	out_freq equal 1000
variable	out_freq2 equal 10000
variable	out_freq3 equal 1000

timestep	2.0

neigh_modify    delay 7 every 1

include		in.tip4p
# This is TIP4P/Ice

# create groups ###
group ox type 2
432 atoms in group ox
group hy type 1
864 atoms in group hy

# set charges - beside manually ###
set group ox charge -1.1794
Setting atom values ...
  432 settings made for charge
set group hy charge 0.5897
Setting atom values ...
  864 settings made for charge

# ### TIP3P Potential Parameters ###
pair_style lj/cut/tip4p/long/omp 2 1 1 1 0.1577 8.5
pair_coeff 1 1*2 0.000 0.000
pair_coeff 2 2 0.21084 3.1668
bond_style  harmonic
bond_coeff  1 450 0.9572
angle_style harmonic
angle_coeff 1 55 104.52
kspace_style pppm/tip4p/omp 1.0e-5
pair_modify tail yes

thermo          ${out_freq}
thermo          1000
thermo_style    custom step temp pe etotal epair emol press lx ly lz vol pxx pyy pzz pxy pxz pyz enthalpy

restart 	${out_freq3} restart.lmp.${pid} restart2.lmp.${pid}
restart 	1000 restart.lmp.${pid} restart2.lmp.${pid}
restart 	1000 restart.lmp.0 restart2.lmp.${pid}
restart 	1000 restart.lmp.0 restart2.lmp.0


include         in.dump
dump            myDump all atom ${out_freq2} dump.water.${pid}
dump            myDump all atom 10000 dump.water.${pid}
dump            myDump all atom 10000 dump.water.0
dump            myDump2 all dcd ${out_freq2} dump.dcd
dump            myDump2 all dcd 10000 dump.dcd
dump_modify     myDump append yes
dump_modify     myDump2 append yes


variable natoms 	equal  "count(all)"                        # NUMBER ATOMS
variable H      	equal  "enthalpy/v_natoms"                 # ENTHALPY-per-atom
variable Vol      	equal  "vol/v_natoms"                 # volume-per-atom
fix AVG all 		ave/time ${out_freq} 1 ${out_freq} v_Vol v_H file vol_enthalpy.dat
fix AVG all 		ave/time 1000 1 ${out_freq} v_Vol v_H file vol_enthalpy.dat
fix AVG all 		ave/time 1000 1 1000 v_Vol v_H file vol_enthalpy.dat


timer           timeout 10:00:00 every 1000
New timer settings: style=normal  mode=nosync  timeout=10:00:00

fix 		1 all shake 1e-6 200 0 b 1 a 1
       0 = # of size 2 clusters
       0 = # of size 3 clusters
       0 = # of size 4 clusters
     432 = # of frozen angles
  find clusters CPU = 0.000 seconds
fix             2 all nph tri ${pressure} ${pressure} ${pressureDamp}
fix             2 all nph tri 2055.9 ${pressure} ${pressureDamp}
fix             2 all nph tri 2055.9 2055.9 ${pressureDamp}
fix             2 all nph tri 2055.9 2055.9 1000
fix             3 all temp/csvr ${temperature} ${temperature} ${tempDamp} ${seed}
fix             3 all temp/csvr 127.6 ${temperature} ${tempDamp} ${seed}
fix             3 all temp/csvr 127.6 127.6 ${tempDamp} ${seed}
fix             3 all temp/csvr 127.6 127.6 100 ${seed}
fix             3 all temp/csvr 127.6 127.6 100 745823


run             250000
PPPM initialization ...
  extracting TIP4P info from pair style
  using 12-bit tables for long-range coulomb (../kspace.cpp:340)
  G vector (1/distance) = 0.36698116
  grid = 27 40 32
  stencil order = 5
  estimated absolute RMS force accuracy = 0.0046097056
  estimated relative force accuracy = 1.3881992e-05
  using double precision FFTW3
  3d grid and FFT values/proc = 10353 2240
Last active /omp style is kspace_style pppm/tip4p/omp
Neighbor list info ...
  update every 1 steps, delay 7 steps, check yes
  max neighbors/atom: 2000, page size: 100000
  master list distance cutoff = 10.8154
  ghost atom cutoff = 10.8154
  binsize = 5.4077, bins = 7 5 5
  1 neighbor lists, perpetual/occasional/extra = 1 0 0
  (1) pair lj/cut/tip4p/long/omp, perpetual
      attributes: half, newton on, omp
      pair build: half/bin/newton/tri/omp
      stencil: half/bin/3d/tri
      bin: standard
Per MPI rank memory allocation (min/avg/max) = 12.66 | 12.67 | 12.68 Mbytes
Step Temp PotEng TotEng E_pair E_mol Press Lx Ly Lz Volume Pxx Pyy Pzz Pxy Pxz Pyz Enthalpy 
22500000    140.11853   -6675.7058   -6315.2594   -6675.7058            0    2610.0017    23.111062    21.469299    21.811613    10822.449    2913.9362     2521.056    2395.0129   -649.46852    -111.1055   -244.66825   -5903.3116 
22501000    128.79809   -6684.5719   -6353.2467   -6684.5719            0    1756.5252    23.286336    21.530349    21.531951    10795.322    1977.4751    907.07521    2385.0253    13.456556    9.8504581   -360.92413   -6076.7017 
22502000    133.03663   -6692.1971   -6349.9684   -6692.1971            0    3723.8007     23.11931    21.425871    21.665539    10732.054    3527.3317    3746.8875    3897.1831     503.2937   -71.690078    259.60085   -5767.1341 
22503000    128.21212    -6684.552   -6354.7342    -6684.552            0    2625.1171    23.070256    21.485188    21.768432    10789.932    3137.8153    2269.3075    2468.2283    417.18438   -22.133708    384.06367   -5941.6455 
22504000    122.86427   -6686.9106   -6370.8497   -6686.9106            0    1468.0917    23.246333    21.514912    21.633143    10819.661    1555.7867    974.34367    1874.1449     372.4758    -84.80001     -90.4825   -6139.1941 
22505000    131.14315   -6693.9368   -6356.5791   -6693.9368            0    3190.2748    23.163218     21.45073    21.639991    10752.217    3394.3095    2102.5081    4074.0068    577.68006    881.87484    1222.9626   -5856.3119 
22506000    129.88351   -6680.0719   -6345.9545   -6680.0719            0    1304.2039    23.124445    21.531116    21.828371    10868.239    2264.7865   -56.451131    1704.2765   -1485.0473   -36.965745    430.96971   -6139.2354 
22507000    125.69955   -6685.0961   -6361.7416   -6685.0961            0     916.7151    23.288221    21.505748    21.679467    10857.741     631.3269     503.4913    1615.3271   -743.26134    787.62236   -206.19317   -6216.5807 
22508000    126.22849   -6673.6381    -6348.923   -6673.6381            0    2991.8677    23.189222    21.439848     21.67729    10777.372    2748.8349    3113.3393    3113.4288   -926.26659    885.98722   -267.75929   -5878.6705 
22509000    133.32527    -6674.358   -6331.3869    -6674.358            0    1521.0681    23.257338    21.517781    21.692157    10855.759    1483.4631    461.41684    2618.3244     713.3443    220.92612    912.49436   -6090.5712 
22510000    129.51411   -6677.4763   -6344.3092   -6677.4763            0    2111.4094    23.208822    21.454813    21.736346    10823.416    2842.5548    2068.0461    1423.6272   -737.38895   -63.839526   -188.06921   -6011.0265 
22511000    128.01848   -6682.7113   -6353.3916   -6682.7113            0    2540.7515    23.273249    21.433432    21.627156    10788.179    1701.4176    2617.9765    3302.8605    927.69865   -406.15384    175.77743   -5953.6437 
22512000    129.28395   -6667.3613   -6334.7862   -6667.3613            0    1082.9624    23.239647    21.480427    21.797581    10881.299    1431.9712    1470.2656    346.65034   -255.77692   -17.477248    -688.5911   -6162.9281 
22513000    130.32126     -6674.35   -6339.1064     -6674.35            0    1181.6455    23.347612    21.426557    21.763019    10887.145    1089.6882    1448.2427    1007.0055    62.014055    1327.8425    666.89438   -6151.4873 
22514000    127.43368   -6695.4886   -6367.6732   -6695.4886            0    1538.0994    23.412068    21.381215    21.631149    10828.087    1776.7429    840.84006    1996.7152   -304.34768   -180.82798   -570.14245   -6124.7819 
22515000     127.8386   -6677.7663   -6348.9093   -6677.7663            0    1645.6612    23.349577    21.335168     21.79529    10857.698    972.83532    2331.5111    1632.6373   -707.32472    502.86445   -292.19655   -6088.3215 
22516000    130.24457   -6689.0399   -6353.9937   -6689.0399            0    2557.3928    23.375979    21.327702    21.647558    10792.518    2038.2342    3308.8928    2325.0512    166.56272    525.79328    239.21142   -5951.4657 
22517000     125.8216   -6675.1246   -6351.4562   -6675.1246            0    2277.9333    23.352217     21.30792    21.740099    10817.594    1636.5239    2817.6641     2379.612   -845.79326    153.92567    124.76614   -5992.0814 
22518000    123.93078   -6688.1439   -6369.3395   -6688.1439            0      2279.08    23.379075    21.297895    21.717286    10813.582    1681.9894    2888.8032    2266.4473   -88.819877   -19.868353   -585.22943   -6009.9172 
22519000    126.88558   -6686.2505   -6359.8451   -6686.2505            0    2189.4379     23.38189    21.337109    21.676206    10814.301    2127.8553    3039.8857    1400.5729    -464.3668   -925.02495    453.91628   -6014.5368 
22520000    126.01449   -6686.3709   -6362.2063   -6686.3709            0    1332.0911    23.468287    21.232169    21.765925    10845.582    1106.8222    765.73593    2123.7152   -451.91776    -686.8169    498.16879   -6151.5072 
22521000    128.36585   -6699.9471   -6369.7338   -6699.9471            0    2819.2576    23.401952    21.225775    21.718526    10788.125    1968.0548     3936.297     2553.421   -203.33659   -526.24905    55.889031   -5926.1694 
22522000     125.7125   -6675.6404   -6352.2527   -6675.6404            0    2081.9629    23.357279    21.310195    21.698229    10800.254     2121.546    2787.1083    1337.2345   -590.24337    492.08531   -1104.4489   -6024.3214 
22523000    131.45449   -6698.1396   -6359.9809   -6698.1396            0    2446.8392    23.372534    21.237687     21.76405    10803.208    1898.9158    3299.0925    2142.5095    1103.5802    553.24716   -626.35498   -5974.4723 
22524000    138.07353   -6673.0262   -6317.8404   -6673.0262            0     2170.941    23.377724    21.316945     21.72034     10824.15    1567.6992    2410.1586    2534.9654   -136.50751    440.34784    390.08372   -5975.1376 
22525000    130.41626   -6667.1748   -6331.6869   -6667.1748            0    1716.5579    23.362432    21.344945    21.750011    10846.074    1491.8153     2553.617    1104.2414    -192.4049    307.56131   -1317.8143   -6060.1637 
22526000    130.07976   -6669.2185   -6334.5962   -6669.2185            0    2239.1713    23.382297    21.288421    21.780559    10841.756    2057.2106    2637.9345    2022.3689   -382.39143   -199.89135    297.92821   -5980.5476 
22527000    127.15561   -6672.4334   -6345.3334   -6672.4334            0    2040.3516    23.432959    21.325588    21.658787    10823.364    1350.7737    2856.3119    1913.9693    995.16203    -799.8391   -304.78656   -6023.2686 
22528000    125.97419   -6694.7977   -6370.7368   -6694.7977            0    1517.6062    23.298034    21.338564    21.825635     10850.54    1519.0093    2131.1799    902.62938    1081.5419   -1151.0341   -597.89303   -6130.5848 
22529000    126.79315   -6692.5039   -6366.3362   -6692.5039            0    1493.7717    23.326683    21.414304    21.703787    10841.577    2083.0419    381.33408    2016.9393   -876.57317   -69.422713    487.42132   -6130.1511 
22530000    134.10164   -6675.0269   -6330.0587   -6675.0269            0    2103.7492    23.339579    21.370682    21.724094    10835.603     1848.499     2668.541    1794.2077    1431.7125   -567.04565    243.34539   -5997.6113 
22531000     127.1525   -6666.0195   -6338.9274   -6666.0195            0    1235.2391    23.337185    21.469615    21.670559    10857.825    1216.4481    1193.6166    1295.6526    -1067.399   -58.831434    455.63096    -6143.327 
22532000    129.80754   -6675.9331   -6342.0111   -6675.9331            0     2574.882    23.263381    21.426929    21.733963    10833.573    3526.3147     2444.769    1753.5624    -196.6552   -18.859289   -376.84745   -5935.1887 
22533000     128.5757    -6684.262   -6353.5088    -6684.262            0    1656.4751    23.311566    21.456559    21.659156    10833.606    1873.7407    1973.6978    1121.9868   -706.20437   -690.74598   -554.82698   -6091.7907 
22534000    127.05509   -6687.2951   -6360.4536   -6687.2951            0    1379.6516    23.216473    21.440592    21.793493    10848.255    1782.1133    1391.4011    965.44027   -175.14494    628.85099   -211.71047    -6142.178 
22535000    127.13159   -6691.3947   -6364.3564   -6691.3947            0    2812.4539    23.138216    21.510546    21.690587    10795.745    3489.3698    2589.6972    2358.2947    98.204769   -1065.3438   -339.62627     -5921.55 
22536000    128.45545   -6694.7026   -6364.2588   -6694.7026            0    1565.0123    23.284945    21.507929    21.610455    10822.752     2191.157    518.92237    1984.9574   -565.93398    469.58596    266.60057   -6117.2392 
22537000    129.63845   -6678.0238   -6344.5368   -6678.0238            0    2514.6093    23.228478    21.406206    21.709265    10794.576    3068.6522     1920.781    2554.3947    577.84082   -68.724938    600.89035   -5948.6673 
22538000    124.34887   -6674.3823   -6354.5024   -6674.3823            0     2798.291    23.067111    21.421131    21.861719    10802.391    3399.9933    2861.1739    2133.7058   -755.03951   -407.96099   -625.67142   -5913.6546 
22539000    127.04981   -6678.9985   -6352.1706   -6678.9985            0    1590.3169    23.334822    21.458066    21.603726    10817.421    1154.3857     1565.817    2050.7481    297.70964     608.4231   -513.35425   -6101.2807 
22540000    128.83824   -6695.1842   -6363.7556   -6695.1842            0    2040.2837    23.154854    21.438121    21.824335    10833.525    2348.5364     1555.637    2216.6777    -588.8986   -50.866393    1147.9204   -6041.3993 
22541000     122.0734    -6679.087   -6365.0606    -6679.087            0    1540.5881    23.241522     21.51982    21.663432    10835.039    1971.8528     1430.508    1219.4037    816.77478    4.5861996   -569.80665   -6121.6201 
22542000    126.45402   -6679.3549   -6354.0596   -6679.3549            0    1786.6613    23.278455    21.463926    21.675085    10829.892    1268.8512    1688.5487    2402.5839   -341.18845    732.86452    521.15522   -6071.8692 
22543000    133.42247   -6690.9806   -6347.7595   -6690.9806            0    2358.0956    23.234497    21.355955    21.807146    10820.594    2990.2527    2237.8595    1846.1745    630.81701   -335.49527     136.6085   -5975.6349 
22544000    128.75402   -6677.3005   -6346.0887   -6677.3005            0     2325.466    23.295879    21.478528    21.641475    10828.554    2063.9231      2536.32    2376.1549   -364.72863   -461.80944   -181.14441   -5978.8433 
22545000    118.95738    -6693.252   -6387.2414    -6693.252            0    1593.0412    23.338107    21.428772    21.640114    10822.372    1291.8217    846.35753    2640.9445    -129.3788    856.83314    201.78436   -6135.8066 
22546000    130.21525   -6682.5229   -6347.5521   -6682.5229            0    2329.6485    23.252934    21.387657    21.763137    10823.369    2314.3798    2917.4558    1757.1097    720.43186   -187.85935   -434.42556   -5979.8223 
22547000    117.79063   -6669.3714   -6366.3622   -6669.3714            0    1967.9576    23.272682     21.33621    21.809223    10829.387    2346.0147    2006.6569    1551.2012   -1087.8552    250.26996    36.058785   -6055.5518 
22548000    130.94582   -6683.1377   -6346.2876   -6683.1377            0    1711.1259    23.425491     21.35461    21.681861    10846.183    1016.4753    1361.3353    2755.5671      381.685    376.17507    471.80871   -6075.6209 
22549000     130.1981    -6680.239   -6345.3124    -6680.239            0    1668.8271    23.305738    21.331825    21.821505    10848.647    1776.4164    1596.8286    1633.2363   -50.136707    43.651952    559.05644   -6081.2766 
22550000    129.46339   -6685.8981   -6352.8614   -6685.8981            0     1882.405     23.39828    21.332635    21.728659    10845.794    1135.0609    2141.7563    2370.3979    84.895035    394.20743    -110.6602   -6055.1124 
22551000    129.93083   -6673.2393   -6339.0002   -6673.2393            0    1280.5634    23.453843     21.33991    21.690838    10856.327    716.27559    1507.2821    1618.1325    459.15789   -1214.0723    428.35071   -6136.2506 
22552000    124.78883   -6686.5618   -6365.5502   -6686.5618            0    2188.9181    23.424276    21.194272    21.782038    10813.921    1327.3811    3439.0698    1800.3035   -220.48983    795.72026    260.29221    -6020.336 
22553000    126.77823   -6689.7966   -6363.6673   -6689.7966            0    1681.5698    23.392843    21.341981    21.740929     10854.15    1315.7199    1471.1707    2257.8188   -306.40885   -689.92224    315.49655   -6097.4804 
22554000    127.91684   -6673.6051   -6344.5468   -6673.6051            0    1038.0521    23.437684    21.313015    21.751982    10865.718    357.05242    1220.1284    1536.9755   -213.46046    774.11708     434.1503   -6180.0515 
22555000     127.4533   -6672.4333   -6344.5674   -6672.4333            0    2703.6747    23.381249    21.140295    21.872704    10811.382    3024.9636    3464.0383    1622.0222    -754.4712   -591.84803    569.70019   -5918.2712 
22556000     132.2843   -6674.6444   -6334.3511   -6674.6444            0    1315.4245    23.482986    21.272934    21.746076    10863.296    746.94649    2264.2168    935.11011   -408.58073    17.973082   -869.25424   -6125.9484 
22557000    134.37044   -6696.2994   -6350.6397   -6696.2994            0    2433.0381    23.409378    21.282782    21.673462    10798.081    1895.4125    2534.1444    2869.5573   -615.07281    483.01967    998.56924   -5967.4874 
22558000    130.82723   -6689.9208   -6353.3758   -6689.9208            0    3416.9025    23.189038     21.28339    21.802023      10760.2    4099.9649    3262.3883    2888.3543    620.34344   -547.42772    150.87667   -5817.1733 
22559000    130.09947   -6685.6124   -6350.9394   -6685.6124            0    2336.0882    23.248089    21.389544    21.713494    10797.383    2797.6483    1789.7548    2420.8613   -1397.2305    664.70934    114.79496   -5983.0786 
22560000    127.00533   -6696.5167   -6369.8032   -6696.5167            0    2035.6326    23.301665    21.451117    21.588223    10790.803    2019.5631    1410.5416     2676.793      207.569    357.12642    268.37266     -6049.45 
22561000    127.36374   -6683.8584   -6356.2229   -6683.8584            0    2180.6535    23.123951    21.447037     21.78873    10805.908    3891.5568    1948.6872    701.71639     -786.499    327.17977    -307.1477    -6012.567 
22562000    127.21407   -6672.4992   -6345.2487   -6672.4992            0    1778.0541    23.260442    21.474685    21.698109    10838.437    2128.4732    1703.3316    1502.3575    363.21434    8.8073894    437.17421   -6064.1962 
22563000    132.30528   -6672.0577   -6331.7104   -6672.0577            0    1432.9354    23.185825    21.528058    21.750194    10856.518      1898.33    469.46106     1931.015   -281.62754    1130.9808    430.44893   -6104.8321 
22564000    126.59722   -6685.7221   -6360.0584   -6685.7221            0    1663.0907    23.191413    21.568292     21.66856    10838.595    1512.9628    2071.0616    1405.2477   -491.29198   -724.67536   -777.29074    -6097.174 
22565000    126.14012   -6701.9621   -6377.4744   -6701.9621            0    1805.8242    23.256573         21.5    21.622364    10811.535    745.12703    2250.7199    2421.6258    215.67743    911.90609    461.81634   -6092.7408 
22566000    133.31466   -6682.3117   -6339.3679   -6682.3117            0    2326.6462    23.136517    21.473274    21.774139    10817.757    3103.6327    1046.9807    2829.3254   -247.86478   -504.78554    1347.5658   -5972.3025 
22567000    120.09987   -6683.3542   -6374.4045   -6683.3542            0    1513.2701    23.329514    21.410938     21.72892    10853.743    1345.9706    1957.4194    1236.4202   -352.71944    212.81014   -985.07498    -6134.868 
22568000    121.70648   -6677.5952   -6364.5127   -6677.5952            0    2904.4583    23.297217    21.380464    21.661403     10789.66    2213.0563    3467.1988    3033.1199    603.45423    594.59635    988.18193   -5907.4784 
22569000    125.05293   -6701.9278   -6380.2368   -6701.9278            0    217.21287    23.323314    21.434344    21.763688    10880.102    363.16766    127.95201    160.51893     201.8911    373.66978     415.2666   -6345.7705 
22570000    127.62872    -6684.964   -6356.6469    -6684.964            0    1720.7218     23.31255    21.395038    21.729232    10837.952    1389.3206    1956.0935    1816.7513   -504.08739   -199.39007   -469.64506   -6084.6689 
22571000    128.97216   -6680.8371    -6349.064   -6680.8371            0    2289.0603    23.336772    21.399718    21.625416     10799.74     1481.537     1861.691    3523.9529  -0.43084798    26.188718    789.10442   -5988.5299 
22572000    130.91557   -6658.7923     -6322.02   -6658.7923            0    3350.1148    23.235837    21.340727    21.738429    10779.427    3060.3372     3322.977    3667.0302   -32.715139     1232.522   -142.60831   -5795.3588 
22573000    122.61088   -6681.8613   -6366.4523   -6681.8613            0    2165.4422    23.289063    21.412649    21.674479    10808.641    2166.9208    2468.6264    1860.7794   -253.76259   -601.17579   -141.16247   -6025.1073 
22574000    129.55039   -6688.5491   -6355.2886   -6688.5491            0    2613.3186    23.266765    21.372485    21.696466    10788.971    2523.3712    2221.2874    3095.2973   -25.701876    1047.3759    601.46781   -5944.0932 
22575000    129.66852   -6686.9053   -6353.3409   -6686.9053            0    2770.8552    23.191002    21.381991    21.740031    10780.225    3324.1082     2012.475    2975.9825    873.07802    -1342.904    187.83152   -5917.7112 
22576000    128.42518   -6685.9607   -6355.5948   -6685.9607            0    3227.0748    23.240765    21.429938     21.63738    10776.457    3120.1464    2783.3145    3777.7636   -833.86102    1.2900308   -84.780365   -5848.4162 
22577000    122.17713   -6681.6667   -6367.3734   -6681.6667            0    2000.9387    23.309777    21.404255    21.690582    10822.047    1196.7144    1842.8924    2963.2094    584.75831    154.08521    826.44099   -6051.5684 
22578000     135.3001   -6686.3237   -6338.2724   -6686.3237            0    1850.8875    23.206194    21.401759     21.84774    10850.754    1874.9514    2285.0665    1392.6446     605.3762   -28.478464    820.27865   -6045.3748 
22579000    125.08621   -6690.6957    -6368.919   -6690.6957            0    1399.1605     23.33018    21.465543    21.616199    10825.284    1749.9875    286.40973    2161.0842   -590.62391     285.0767    161.40657   -6148.0256 
22580000    127.73457   -6665.5485   -6336.9591   -6665.5485            0    1952.2851    23.294323    21.486439    21.673001    10847.598    2846.5617    999.86691    2010.4268   -821.13595    446.82078    845.48664   -6028.1055 
22581000     124.2512   -6684.2839   -6364.6552   -6684.2839            0    1407.3912    23.152877    21.407152    21.889539    10849.269    1993.7713    977.87001    1250.5322    383.01249    1383.0325     1325.663   -6141.9701 
22582000    123.95292   -6680.5986   -6361.7373   -6680.5986            0    2503.1115     23.24229    21.502168    21.637713    10813.655    2853.3792    2305.7242     2350.231   -645.95259   -741.63057    -40.93106   -5966.9814 
22583000    128.01668   -6687.8749   -6358.5598   -6687.8749            0     1647.882    23.231091    21.474774    21.720915    10836.183    1973.1616    1611.3353    1359.1492   -734.46932    142.12782   -186.49626   -6098.1374 
22584000    136.28683   -6675.9918   -6325.4022   -6675.9918            0    2144.4688    23.144919    21.473618    21.781527    10825.531    2286.6315    2506.6366    1640.1384    20.765628   -248.87261   -202.39903   -5986.8351 
22585000    125.21933   -6681.2979   -6359.1788   -6681.2979            0     2450.289    23.221823    21.505257    21.635666    10804.663    1777.5014    2643.5545    2929.8111    665.16928     962.7851   -64.737601   -5973.0747 
22586000    129.26536   -6695.1553    -6362.628   -6695.1553            0    2156.0609    23.210411     21.49905    21.675941    10816.333     2500.479    1167.7438      2799.96    423.31171   -793.68369     344.1157   -6022.5199 
22587000    126.00907   -6695.5566   -6371.4059   -6695.5566            0    2210.0075    23.098329    21.437415     21.80054     10794.94    2492.0485    2459.4386    1678.5355    995.11637    75.233649    247.23028   -6023.4775 
22588000     129.9153   -6685.4569   -6351.2577   -6685.4569            0    2517.0394    23.240911    21.547597    21.525933    10779.881    2322.7734    1398.5785    3829.7662    210.59216    -841.3468     440.4235   -5955.5451 
22589000    119.74636   -6691.2109   -6383.1706   -6691.2109            0    1211.1572    23.141611    21.526358     21.75491    10837.309    2372.0128    579.16188    682.29686    517.28774   -1160.9486    -537.2859    -6191.746 
22590000    127.64003   -6690.6298   -6362.2836   -6690.6298            0    2886.6634    23.147484    21.464072     21.72335    10793.013    3003.4703    2760.4231    2896.0969    1028.1521     -287.416    635.92736   -5907.9083 
22591000      124.661    -6690.303   -6369.6201    -6690.303            0    1369.4691    23.244335    21.639475      21.5659    10847.545     1607.834    933.39442    1567.1789    301.43341   -276.12059   -736.13614   -6152.9697 
22592000    130.65784    -6688.357   -6352.2476    -6688.357            0    1951.6053    23.156296    21.521682    21.724648    10826.749    1070.0824    2621.8208    2162.9126   -374.03485    786.61527    94.038102   -6044.0949 
22593000    126.95486   -6682.6148   -6356.0312   -6682.6148            0    2471.8716    23.206961    21.451719    21.728788    10817.225    2353.4714    2972.5648    2089.5785    835.58028    -821.0673    284.92962   -5966.0733 
22594000     127.3315   -6673.2687   -6345.7162   -6673.2687            0    2626.7787    23.181843    21.502998     21.65576    10794.945    2814.6985    2677.2328     2388.405    58.248518    -532.9527   -285.28199    -5932.174 
22595000      123.172   -6694.0521   -6377.1996   -6694.0521            0    1794.0111     23.15453    21.483345    21.765612    10827.016    3284.5495     1356.207    741.27689   -486.03107   -357.14917    880.90333   -6093.9236 
22596000      131.298   -6678.6848   -6340.9287   -6678.6848            0     2227.813    23.252551     21.40437     21.70475    10802.588    1383.5956    3209.4659    2090.3774     640.9577    832.75967   -460.31451   -5989.9486 
22597000    122.88014   -6674.5097    -6358.408   -6674.5097            0    3035.5668    23.227206    21.369646    21.723723    10782.726    3382.6493     3292.781    2431.2701   -16.778384   -1036.4758   -88.215289     -5881.05 
22598000    121.20038   -6687.7994   -6376.0188   -6687.7994            0    2833.0526    23.249981    21.333528    21.751866    10789.015    2844.0728    2285.8192    3369.2656    1229.3245    570.55535   -86.938564   -5930.2473 
22599000    129.35562   -6684.3232   -6351.5638   -6684.3232            0     2548.311    23.295021    21.422725    21.622934     10790.77    2075.5479    1545.4352    4023.9497    67.506252    208.00893    708.92523   -5950.5302 
22600000    121.86421   -6680.3264   -6366.8381   -6680.3264            0    1046.1404    23.186881    21.448592    21.872212    10877.618    1331.9966    1217.6363    588.78839   -176.40239    172.69567   -984.89201   -6200.8795 
22601000    124.89756   -6689.0506   -6367.7593   -6689.0506            0    3411.5367     23.23988     21.42464    21.592946    10751.259     3581.109    3570.3008    3083.2002   -1071.8073    3.0933116   -435.28114   -5832.8437 
22602000    127.63056   -6686.2591   -6357.9373   -6686.2591            0    1888.9329    23.282094    21.428532    21.669154    10810.764    2507.7741    1226.8859    1932.1386    465.19999   -670.63777     230.4537   -6060.1207 
22603000    130.15915   -6676.8849   -6342.0584   -6676.8849            0    1613.4882    23.265617    21.365533    21.849354    10860.927    1273.5034     2182.596    1384.3653    421.55481    403.72373    392.39063   -6086.4892 
22604000    127.01665   -6679.9715   -6353.2289   -6679.9715            0    860.96236     23.39946    21.447592    21.654978    10867.812    958.17322    1416.9951    207.71875   -572.36964   -842.09127   -763.58931   -6216.7699 
22605000    129.41063   -6679.2471   -6346.3461   -6679.2471            0    1995.1926    23.365054    21.372794    21.692834    10832.891    2059.6539    1260.6543    2665.2695   -195.49074    697.83103    416.71963   -6031.1324 
22606000    124.78903    -6685.651   -6364.6388    -6685.651            0    1032.5538    23.270306    21.326093    21.910622    10873.468    908.99121      1972.88    215.79012   -706.85653   -135.76611    402.85311   -6200.8981 
22607000    130.73571   -6695.9507   -6359.6411   -6695.9507            0    1809.7376    23.397405    21.353803    21.665069    10824.379     1008.834    1981.8111    2438.5676    299.95464    495.74548   -305.71511   -6073.9514 
22608000    127.72622   -6688.5788   -6360.0109   -6688.5788            0    2355.5132    23.349211    21.319655    21.699437    10801.917    2977.6946    1684.1531     2404.692   -698.76171   -136.39441    821.77148   -5988.9354 
22609000    125.30206   -6691.6768   -6369.3449   -6691.6768            0    1483.8858    23.304085    21.302127    21.845599    10844.736    1640.2552     2310.247    501.15518    15.252932   -500.59173   -595.24998   -6134.6545 
22610000    125.97911   -6685.9261   -6361.8526   -6685.9261            0    2319.1181     23.31173    21.348696    21.690387    10794.764    2617.1651    2299.3723    2040.8168   -106.31529    293.42177    43.239761   -5996.7525 
22611000    128.73367   -6683.5949   -6352.4354   -6683.5949            0    2367.2201    23.294057    21.415914    21.628984    10789.911    1214.9667    2645.9381    3240.7554    433.66669   -182.41957    92.757182   -5979.9302 
22612000    130.30853   -6687.7069   -6352.4961   -6687.7069            0    2797.3773    23.280176    21.340435     21.71648    10788.945    3350.8424    2758.3533    2282.9362    92.651871    17.903968   -1215.9938   -5912.3408 
22613000    127.24026   -6684.1597   -6356.8419   -6684.1597            0    1239.5903    23.279408    21.372671    21.778585    10835.785    760.18982    2380.6359    577.94532    -159.0231   -162.86664    237.48196   -6160.9509 
22614000    130.71443    -6683.383   -6347.1281    -6683.383            0    1828.6186    23.310709    21.408509    21.716831    10837.731    1316.2574     1804.253    2365.3454    1029.5076    382.58812    520.79552   -6058.1018 
22615000    129.88068   -6681.6881    -6347.578   -6681.6881            0    2813.9142    23.206441    21.405192    21.690127    10774.317    3544.7733    2099.2104     2797.759    10.285144   -327.26617    585.34612    -5905.421 
22616000     123.4704   -6694.2186   -6376.5985   -6694.2186            0    1704.1898    23.304272    21.371288    21.742933      10828.9    1437.4309    2448.4725     1226.666    852.51799   -857.55892    418.13678   -6107.4585 
22617000    120.45666   -6698.9065   -6389.0391   -6698.9065            0    2297.1735    23.265712    21.386411    21.716951    10805.705    2573.8784    3084.8781    1232.7639   -178.85339   -458.91642   -1212.1006   -6027.0273 
22618000    129.13609   -6703.8387   -6371.6439   -6703.8387            0    1227.0551    23.317751    21.464952    21.643803    10833.035    1253.6185    779.09758    1648.4494   -988.31642   -811.12678    456.22792   -6177.7831 
22619000    129.82793   -6691.1826   -6357.2081   -6691.1826            0    2384.9651    23.232199    21.317995    21.826772    10810.012    1730.0737    3475.0953    1949.7263    1681.0099   -456.38576   -439.70097   -5981.2114 
22620000    128.48962   -6689.6318   -6359.1001   -6689.6318            0    1797.9855     23.25485     21.44063    21.746611     10842.83    1218.4075    2597.4412    1578.1079   -768.55169   -609.69358   -526.02218   -6074.7818 
22621000    126.77411   -6685.0404   -6358.9217   -6685.0404            0    1859.6906    23.327984    21.441847    21.630421     10819.43    2221.6577    1136.3597    2221.0543    588.45618   -333.17529     213.6385   -6065.4806 
22622000    132.38024   -6675.8204   -6335.2803   -6675.8204            0    2707.3742    23.253551     21.37292    21.755607    10812.456    2546.5018     2866.736    2708.8849   -1142.0879   -257.90207     104.1433   -5908.3583 
22623000    128.41827   -6689.1953   -6358.8471   -6689.1953            0    2348.5377    23.345165    21.348083    21.678773    10804.148    2838.8339    1875.5438    2331.2354   -46.464629   -8.5675712   -606.05756   -5988.7941 
22624000     127.9463    -6678.487   -6349.3529    -6678.487            0    2260.5382    23.324934    21.325362    21.701183    10794.443    2553.9565    1610.3598    2617.2983    416.60791    661.60361    589.64363   -5993.4857 
22625000    128.61283   -6673.0937   -6342.2451   -6673.0937            0    3405.5132    23.229751    21.321216    21.748981    10771.977    3812.8691    3750.2359    2653.4348     542.4762    248.79755   -31.246191   -5807.2449 
22626000     131.6708   -6696.0455   -6357.3304   -6696.0455            0    2562.2892     23.27404    21.389615    21.659357    10782.521    2136.5031    3526.3029    2024.0615    264.71101   -19.381433   -317.89922   -5954.4053 
22627000      126.592   -6686.4841   -6360.8339   -6686.4841            0    2156.4544    23.293333    21.427318     21.67917     10820.37    1185.6548    2541.2578    2742.4507   -357.44417    937.98131    869.68695   -6020.5368 
22628000     129.2208   -6688.8369   -6356.4243   -6688.8369            0    1946.2313    23.286093    21.365236    21.747496    10819.659    1658.2037    2185.2026    1995.2877   -217.32113   -2.8890145   -587.75505   -6049.3214 
22629000    133.84218   -6677.4478    -6333.147   -6677.4478            0    2133.1216    23.313894    21.391072    21.732381    10838.138    2239.2926    1767.5132    2392.5591   -331.44546   -563.26412    231.16315   -5995.9791 
22630000    123.42505   -6698.8931   -6381.3897   -6698.8931            0    1955.9937    23.414979    21.376305    21.571355    10797.019    1222.0389     2255.872    2390.0703    231.79668   -236.95593    609.98845   -6073.3922 
22631000    116.72554    -6681.488   -6381.2187    -6681.488            0    1441.3953    23.234766    21.418652    21.804595    10851.217    1966.1552     1774.238     583.7928   -10.310415   -142.95143    -638.4057   -6153.1123 
22632000    132.68848   -6680.8513   -6339.5183   -6680.8513            0    1316.4722    23.272065    21.426102    21.782175    10861.238    744.94344    1653.6115    1550.8615    360.84534   -420.67072    36.952445   -6130.9891 
22633000    126.12506    -6671.317    -6346.868    -6671.317            0    2729.2929    23.303312    21.363692    21.676466    10791.515    2240.3673    3026.3631    2921.1483     453.8621   -444.14994    704.95263   -5917.3232 
22634000    123.55573   -6692.9183   -6375.0788   -6692.9183            0    2081.7519    23.242762     21.39336    21.749711    10814.843    1732.2988    2665.9661     1846.991   -598.72877   -507.25145    -141.3788   -6046.7378 
22635000    122.73246   -6692.7335   -6377.0117   -6692.7335            0    2108.0065    23.229799    21.466179    21.717103    10829.342    1970.2924    850.71556    3503.0116    27.650406    4.0062705   -322.45934    -6044.084 
22636000     128.4025   -6672.6213   -6342.3137   -6672.6213            0    2458.8817    23.275233    21.439609    21.627636    10792.448    2624.1596    2623.8351    2128.6503     261.3228    6.4470664      137.967   -5955.2937 
22637000    124.97455   -6681.6292   -6360.1398   -6681.6292            0    2145.0361    23.245326    21.421117    21.708694    10809.645    2019.5611    2220.1919    2195.3554    -722.2963    186.40967   -614.93802     -6021.98 
22638000     121.7988   -6685.6545   -6372.3345   -6685.6545            0    2000.6698    23.243747    21.480288    21.685994    10827.435    932.98961    2606.4796    2462.5401   -171.34114    483.11962    -1006.786   -6056.4147 
22639000     123.6671   -6684.8836   -6366.7576   -6684.8836            0    1078.2588    23.268847    21.471401    21.688064    10835.676    668.27439    433.44548    2133.0567    1006.2431   -326.38938    902.74453   -6196.3633 
22640000    124.88555   -6678.2485    -6356.988   -6678.2485            0    2668.4166     23.24045    21.377017    21.738816    10800.094    2599.6051    3267.3213    2138.3235   -745.46704     529.1528   -1079.3357   -5936.6903 
22641000    127.45118   -6696.7905   -6368.9301   -6696.7905            0    1866.9996    23.334756    21.434614    21.647749    10827.587    1717.1044    2247.0833     1636.811    -564.7545    312.75386    202.76534   -6074.1136 
22642000    127.05218   -6684.2926   -6357.4586   -6684.2926            0    1867.5231    23.223035    21.332262    21.842604    10820.824    2036.6969    2062.0675     1503.805    254.99159    232.79378    381.43064   -6062.7436 
22643000    121.74134   -6669.5482   -6356.3761   -6669.5482            0    1957.8776    23.264902    21.463036    21.682559     10826.87    3013.0402    1165.2324    1695.3603   -31.391018   -1617.0735    225.25516   -6047.2295 
22644000    123.10877   -6677.9472   -6361.2574   -6677.9472            0    1947.6099    23.276545    21.482844    21.666236    10834.123      934.511    2018.5139     2889.805    1118.7557   -103.91273   -837.97695   -6053.5261 
22645000    133.59323   -6680.9397   -6337.2792   -6680.9397            0    1900.7471    23.159181     21.44044    21.825572    10837.335    2229.2699    2260.9188    1212.0527    706.45744    231.03295    38.000465   -6036.8634 
22646000    129.84841   -6694.0121    -6359.985   -6694.0121            0     3243.805    23.263471    21.470017    21.548631    10762.833    2783.5725    3275.5403    3672.3023   -555.79337    388.93601      109.576   -5850.8215 
22647000    126.90962   -6692.9583   -6366.4911   -6692.9583            0    2357.6996    23.260304    21.450246    21.663155    10808.599    2301.7061    2317.8554    2453.5373   -881.68849    180.84551   -602.57157   -5994.8414 
22648000    124.71062   -6689.8791   -6369.0687   -6689.8791            0     2711.512    23.190209    21.355373    21.756752    10774.717    3289.7845    2984.3878    1860.3636    446.93234   -548.88304   -692.42328   -5942.9866 
22649000    129.27551   -6671.0214    -6338.468   -6671.0214            0    3038.5984    23.272046    21.382387    21.626481    10761.594    2478.2612    3659.9767    2977.5572   -292.23172    1307.9587   -316.03817   -5861.5697 
22650000    130.02799   -6699.2343   -6364.7452   -6699.2343            0    1887.2801    23.173285    21.469741    21.751305    10821.806    2080.4951      1369.61    2211.7354    5.1820972   -1141.4067   -118.32483   -6066.8854 
22651000     132.4439   -6685.1979    -6344.494   -6685.1979            0    1929.1284    23.191586    21.423141    21.738214     10800.34    2290.3062     2093.648    1403.4311     511.7489     462.8495    286.06465   -6040.6333 
22652000    125.70192   -6692.3299   -6368.9694   -6692.3299            0    1607.0302    23.324097    21.414994    21.683264    10830.474    1407.4904    356.64493    3056.9551   -255.54723   -264.65847    1453.2829   -6115.1368 
22653000     132.8752   -6682.9543   -6341.1409   -6682.9543            0    2357.9662    23.314688    21.451143    21.690553    10848.025    1081.0982    3257.8218    2734.9784    808.84443    196.23887   -555.47134   -5968.0934 
22654000    124.17392   -6677.3336   -6357.9037   -6677.3336            0    906.49196     23.24984     21.36826    21.860944    10860.705    820.85205    1898.6146 0.0092183555    302.88657    422.72734    363.24509   -6214.3224 
22655000    122.21997    -6681.873   -6367.4695    -6681.873            0    2650.8086    23.219451    21.355764    21.760987    10790.601     3857.951    2524.4555    1570.0194    52.325297    30.326595    765.30911   -5950.3122 
22656000    123.56264   -6699.9098   -6382.0524   -6699.9098            0    3153.1724    23.380955    21.413899    21.498338    10763.732    1907.7564    2723.8553    4827.9057   -4.7898839    393.82554   -862.76868   -5887.0737 
22657000    122.12384   -6679.1143   -6364.9581   -6679.1143            0    1515.4006    23.220807     21.40018    21.827844    10846.898    1269.8779    2409.5623     866.7617    372.79323    69.807271   -305.86996   -6125.2356 
22658000    128.67788   -6698.2558   -6367.2398   -6698.2558            0    2097.4101    23.306313    21.424408    21.642542     10806.64    2262.0737    1519.6413    2510.5152     289.1534     268.2972   -574.75378   -6036.6801 
22659000     127.5708   -6680.5286   -6352.3605   -6680.5286            0    2487.9099    23.277393     21.41215    21.677764     10804.61    3063.2057    2512.5817    1887.9423   -1048.1244   -787.74684   -387.74639   -5960.3302 
22660000    124.88106   -6677.7592   -6356.5103   -6677.7592            0    3401.1618    23.157946    21.287658    21.836201    10764.776    4071.7131    3938.0751    2193.6971   -34.031264    138.57764   -315.06162    -5822.551 
22661000     122.6544   -6689.7407   -6374.2198   -6689.7407            0    1416.6206     23.38074    21.419807    21.616627    10825.843    1106.4523    1711.7445    1431.6652   -624.73299   -450.91684   -77.164792   -6150.5583 
22662000    124.71011   -6675.1672    -6354.358   -6675.1672            0    2348.7531    23.268656    21.336588    21.784803    10815.582    1415.3499    3545.2509    2085.6584    569.30841    135.40381   -546.92717   -5983.8794 
22663000    127.54825   -6685.0891    -6356.979   -6685.0891            0     3535.564    23.255659     21.35135    21.667508    10758.778    3574.5992    3220.9404    3811.1524   -333.66468    7.5525879    810.65956   -5802.2287 
22664000    129.12548    -6700.996   -6368.8285    -6700.996            0    2200.7799    23.248497    21.453248    21.652945    10799.531    2470.9112    2057.8837    2073.5448   -140.51747    17.641302   -1398.1749   -6022.2055 
22665000    132.11756    -6696.696   -6356.8316    -6696.696            0    2525.4154    23.186084    21.458907    21.708978    10801.259    2858.5016     1976.437    2741.3076   -63.327612    506.35499    299.43444   -5959.0148 
22666000    135.48855   -6690.3478   -6341.8118   -6690.3478            0    1570.0423    23.238754    21.475283    21.724307    10841.707    1999.3092    1926.4041    784.41375    199.88322    10.158284    237.08527   -6093.5643 
22667000     128.1557   -6691.6948   -6362.0221   -6691.6948            0    2107.3078    23.260259    21.452559    21.684402    10820.345    2437.1192    2773.1446    1111.6597    833.74212    883.27572   -1227.9747   -6029.4813 
22668000    131.15776   -6680.7182   -6343.3229   -6680.7182            0    1689.4747    23.233749    21.516881    21.685354    10840.894    2726.4347    575.61925    1766.3701    101.78408   -906.28746    877.59287   -6076.2113 
22669000    132.42493   -6668.0047   -6327.3497   -6668.0047            0    1362.7042    23.223851    21.451975    21.791586    10856.513    2267.2838    1154.8683    665.96039   -572.76035    206.58117   -360.49103   -6111.5912 
22670000    127.52581   -6686.1639   -6358.1116   -6686.1639            0    2048.0363    23.235105    21.498667    21.644355     10811.87    2012.3764    1824.2114    2307.5211    549.56636   -901.15768    -426.9918   -6035.1771 
22671000    131.21544   -6695.0485   -6357.5047   -6695.0485            0    2051.1268    23.199976    21.552756    21.622392    10811.703    2598.6441    1495.5621    2059.1742   -569.50707    183.06974    63.313445    -6034.088 
22672000    132.10288   -6695.0234   -6355.1968   -6695.0234            0    1713.4809      23.1692    21.482914    21.746574    10824.181    2694.0736    748.37493    1697.9941    30.275229   -144.51389   -428.27148   -6084.7075 
22673000    122.14563   -6679.8028   -6365.5907   -6679.8028            0    2227.6381    23.190803    21.523658    21.655702    10809.463    2492.1976    1575.0407     2615.676    622.70541    99.812048    642.45007   -6014.4148 
22674000    121.91569   -6682.5112   -6368.8905   -6682.5112            0    1594.1004    23.214585    21.561122    21.625931    10824.481    2654.9277    416.58734    1710.7861   -501.04504    77.314586    52.563161   -6117.2395 
22675000    130.04061   -6687.1133   -6352.5918   -6687.1133            0    2113.7779    23.066457    21.534664    21.815571    10836.414     3288.806     1799.561    1252.9666   -311.29084   -627.74385   -923.06661   -6018.5346 
22676000    121.78416   -6680.9804   -6367.6981   -6680.9804            0     1747.473    23.151887    21.559726    21.695795     10829.42    2302.6088    725.43922     2214.371    350.14721    474.42311   -279.52011   -6091.7093 
22677000     135.5555   -6683.3648   -6334.6566   -6683.3648            0    1473.8358    23.206823    21.553364    21.666385    10837.203    1371.9834    954.23458    2095.2894    525.12091   -31.155685   -1.8917687   -6101.7176 
22678000    129.86206   -6683.2668   -6349.2046   -6683.2668            0    2450.0557    23.215746    21.463889    21.694549    10810.398    2142.7933    2318.7202    2888.6537   -89.941822   -55.901798    216.60075   -5962.9323 
22679000    127.93767   -6683.4111   -6354.2993   -6683.4111            0    2314.9381    23.128373    21.474336     21.73169    10793.402    3034.3193    1811.5627    2098.9324    210.60693   -697.88299    357.47747   -5989.9033 
22680000    126.31234   -6676.6313   -6351.7005   -6676.6313            0    2176.9231    23.170635    21.447323    21.744772    10806.023    3187.4796    1623.2563    1720.0336   -99.428842   -452.51111    -252.7649   -6008.6288 
22681000    122.12981   -6670.8211   -6356.6496   -6670.8211            0    2568.4667    23.234844     21.48694    21.601296    10784.354    2006.2914     2349.522    3349.5868   -197.70984    962.14777    797.10546   -5952.6844 
22682000    128.64403   -6679.2898   -6348.3609   -6679.2898            0    2799.1945    23.199067    21.396947    21.764297    10803.562    3052.5157     3184.323    2160.7447   -158.64691    222.89582   -606.64567    -5907.323 
22683000    125.23562   -6689.8957   -6367.7347   -6689.8957            0    1716.3914    23.250081    21.422102    21.747484    10831.674    1765.8422    1760.9049    1622.4272   -136.20674    1056.2639   -798.65798   -6096.5983 
22684000    126.78102   -6691.5494   -6365.4129   -6691.5494            0    2604.0163     23.26911    21.431797    21.607506    10775.638     2538.072    1899.4022    3374.5746    924.56355   -270.73596    1236.9286   -5956.1875 
22685000    129.46931   -6677.5657   -6344.5138   -6677.5657            0    2513.4853    23.226289    21.375474    21.769355    10807.896    2891.0143      3021.32    1628.1217   -334.38421   -172.05121   -1008.1989    -5948.333 
22686000    131.55601   -6683.6055   -6345.1857   -6683.6055            0    785.67806    23.347031    21.438708    21.712114    10867.568    215.70719    1480.5874    660.73957   -844.95802    685.27087   -113.88691   -6220.6617 
22687000    119.82081   -6683.9774   -6375.7456   -6683.9774            0    2518.8578    23.365903    21.335207    21.678953    10807.313    1644.8374     3849.713    2062.0231    646.48571    584.81942    15.127972   -5978.7394 
22688000     129.7496   -6674.2024   -6340.4294   -6674.2024            0     1895.273    23.315249    21.414466    21.765323    10867.069    1696.7263    2635.4696     1353.623    486.73198   -609.73096    -441.0371    -6040.057 
22689000    123.66425   -6699.2821   -6381.1633   -6699.2821            0    1731.7236    23.305868    21.341759    21.740693    10813.565    1072.9937    2368.1103     1754.067    986.31052    114.88934   -14.616179   -6108.0623 
22690000    135.98468   -6675.1737   -6325.3614   -6675.1737            0    2110.6525    23.378055    21.357558      21.6603    10814.948     1191.725    3142.4132    1997.8193    253.08765    742.60179   -189.30258   -5992.4589 
22691000    129.23575    -6674.939   -6342.4879    -6674.939            0    1938.0714    23.304298    21.357876    21.759183    10830.205       1572.2    2393.5896    1848.4246    155.27812    465.27089   -172.10421   -6036.3745 
22692000    127.93045   -6678.0448   -6348.9515   -6678.0448            0    2594.1504    23.241645    21.348701     21.74534    10789.579    2280.1612    2533.2452     2969.045    408.64643    222.38624    941.77256   -5940.7491 
22693000    123.79874   -6681.6594   -6363.1947   -6681.6594            0    2303.7193    23.342076    21.447048     21.55338    10790.024    1296.6759    2278.4083    3336.0738   -550.36457    406.86691   -447.94928   -6000.6782 
22694000    128.20873   -6685.0047   -6355.1956   -6685.0047            0    1433.3823    23.256769     21.41321    21.824822    10868.806    1833.6385    2009.5742     456.9341   -774.29192   -292.04422   -904.81275   -6127.9896 
22695000    133.12377    -6688.132   -6345.6792    -6688.132            0     2355.515    23.251273    21.386665    21.735862    10808.531    2333.7324    2828.5633    1904.2493   -592.08685    175.20225    405.68009   -5974.3762 
22696000    131.82535   -6700.2019   -6361.0892   -6700.2019            0    2013.3527    23.324933    21.431415    21.626054    10810.568    2363.7672    1281.3529    2394.9381   -730.34069    615.74434   -39.775122   -6043.6619 
22697000    123.96869   -6675.6366   -6356.7347   -6675.6366            0    624.41339    23.238837    21.459724     21.88084    10911.953    1149.9345    278.57921    444.72648    345.50612   -38.499059    250.04456   -6257.3658 
22698000    132.21312   -6686.9713   -6346.8611   -6686.9713            0    1842.5593    23.275145    21.447036    21.673746    10819.162    1963.8178    1710.0691     1853.791    89.796698   -248.09627     85.59514   -6056.1304 
22699000    130.47903   -6677.7932   -6342.1439   -6677.7932            0    3498.3573    23.241576    21.407507     21.66108    10777.345    4170.1693    3436.4041    2888.4986    64.960525   -575.55093    152.46961   -5792.2842 
22700000    127.52807   -6693.4402    -6365.382   -6693.4402            0    1466.4373    23.191007    21.405691    21.868022    10855.713    2571.8871    1295.6705    531.75421   -1171.8255    49.690248   -444.87072   -6133.2165 
22701000    129.85406   -6684.7887    -6350.747   -6684.7887            0    2308.2598    23.278628    21.349016    21.712182    10790.429     2416.524    2196.6195     2311.636    351.39458    186.15894    371.04878   -5987.5023 
22702000    127.91544   -6688.6662   -6359.6115   -6688.6662            0    1884.5947    23.357935     21.40151    21.606158    10800.812    1385.4638    2588.4997    1679.8206    282.21174    -1096.958     119.9607   -6062.7525 
22703000    119.84504   -6690.4234   -6382.1293   -6690.4234            0    2458.9386    23.239532    21.301486     21.82383    10803.594    2590.6481    2375.6112    2410.5566   -1195.6378    995.53799   -402.32119   -5994.7006 
22704000    127.32832   -6687.6719   -6360.1275   -6687.6719            0     2711.601    23.309552    21.356565    21.634376    10769.851    2853.8244    2344.2959    2936.6828    160.93827   -239.50565   -151.72175   -5934.2238 
22705000    125.43741   -6691.5381    -6368.858   -6691.5381            0    2071.3093      23.2966    21.406076    21.696229    10819.666    3018.3798    1453.1528    1742.3952   -836.19962    -381.1006   -314.28587   -6042.0184 
22706000      122.801   -6688.6606   -6372.7625   -6688.6606            0    2008.8625     23.25946    21.283461    21.876132      10829.6    3115.1536    2405.1762    506.25774     591.6916   -386.87555   -594.29499   -6055.4855 
22707000    124.33451   -6690.6947   -6370.8517   -6690.6947            0    1337.0884    23.389785    21.354743    21.703759    10840.655    794.77381     2414.998    801.49343   -366.38645    640.27712   -100.49585   -6159.4583 
22708000    127.54229   -6682.7522   -6354.6575   -6682.7522            0    1327.0131     23.38005    21.430249    21.652118    10848.583    526.40696    2253.5029    1201.1295    172.01193   -381.59432   -500.24467   -6144.7035 
22709000     127.7798   -6673.9342   -6345.2284   -6673.9342            0    1908.1074    23.173134    21.420638    21.854109    10848.015    3172.2624     2092.622    459.43779   -908.98216   -486.54703    447.96912   -6043.3521 
22710000    127.75439   -6688.0923   -6359.4519   -6688.0923            0    1138.9661    23.290727    21.442589    21.706449    10840.494     1391.137    994.97221    1030.7891   -232.58168    476.38607   -38.350151   -6179.3843 
22711000    131.70975   -6686.7049   -6347.8896   -6686.7049            0     1775.273    23.345668    21.464103     21.61302    10830.151     1872.991    771.44347    2681.3845    509.94233   -707.19032    613.14407   -6067.4912 
22712000    124.38157   -6683.2598   -6363.2958   -6683.2598            0    2516.8509     23.26836    21.328146    21.779477    10808.522    1390.8683    3522.9933     2636.691   -591.16239    817.72574   -470.78747   -5966.5615 
22713000    126.98304    -6687.373   -6360.7169    -6687.373            0    2117.3076    23.324897    21.335182    21.724246    10810.874    1689.0293    2867.2659    1795.6276    1398.9331   -191.92961   -8.6452165   -6026.8905 
22714000    131.12731   -6694.7815   -6357.4645   -6694.7815            0    1952.0864    23.415201    21.434076    21.575025    10828.143    1536.9255     1586.982    2732.3517   -219.25027   -332.11602   -531.58094   -6049.1962 
22715000    129.47306   -6710.8706    -6377.809   -6710.8706            0    1644.9075    23.204259    21.402953    21.813046    10833.224    2744.9658    1368.5196    821.23705    178.20617   -397.35493   -555.79376   -6117.9277 
22716000     125.7285   -6683.1748   -6359.7459   -6683.1748            0    1730.2668    23.281541    21.379661    21.770035    10836.066    1300.2714    1777.0138    2113.5153    254.03588    681.63591    731.39649   -6086.3068 
22717000    128.92194   -6690.2547   -6358.6109   -6690.2547            0    1608.1056    23.353212    21.466942    21.603331    10830.226     917.5091    1284.1295    2622.6781   -877.61225    159.19296   -724.91399   -6104.6143 
22718000    134.44753   -6691.1186   -6345.2606   -6691.1186            0    1637.6746    23.213879    21.375462    21.823787    10829.124    1327.3069    2471.9602    1113.7566    1007.1833   -609.93486    325.00936   -6086.6199 
22719000    127.02602   -6690.0221   -6363.2554   -6690.0221            0    1339.3553    23.226937    21.400697    21.808716    10840.516    1555.6345    1944.5097     517.9218   -16.283112   -528.15443   -270.71778   -6151.5062 
22720000    120.57674   -6689.3749   -6379.1986   -6689.3749            0    1199.1271    23.330953    21.470892    21.695362    10867.996    1641.4628    1137.4318    818.48672   -48.999928    19.094603   -509.55977   -6189.1387 
22721000    125.66366   -6689.4452   -6366.1831   -6689.4452            0    1173.8154    23.232719    21.505975    21.726715    10855.585    1727.5732    828.01667    965.85643    -88.99785    66.716612   -370.79031   -6180.3475 
22722000    127.34207    -6692.595   -6365.0153    -6692.595            0    1331.4362    23.290486    21.438256    21.709179    10839.554    1081.5081     2037.257    875.54348   -183.93593    406.12811    361.19584   -6154.5369 
22723000    125.19119   -6688.2359   -6366.1892   -6688.2359            0    1823.8942    23.162472    21.510832    21.725223    10824.463    2845.8145    871.97831    1753.8898   -164.45869    174.80127   -205.66924   -6078.2625 
22724000    132.85437   -6684.9422   -6343.1825   -6684.9422            0    2036.6677    23.151487    21.552024    21.703166    10829.042    2614.7948    1295.1939    2200.0145    638.22233   -659.25206    160.66797   -6021.5306 
22725000     121.5442   -6676.1398   -6363.4748   -6676.1398            0    2061.9876    23.164904    21.507909    21.711871    10817.476    2526.4335     2217.866    1441.6634   -105.03331    551.88737   -118.46577   -6038.1719 
22726000    125.95994   -6683.5907   -6359.5664   -6683.5907            0     2191.933    23.114171     21.53017    21.739336    10818.624    2602.2353     2090.282    1883.2816   -231.87689   -72.964644    350.59049   -6013.7264 
22727000    130.31327   -6664.5407   -6329.3178   -6664.5407            0    1516.3495     23.19385     21.57202    21.684302    10849.485    1380.8086    881.33105     2286.909    376.26088    209.56913    163.02114   -6089.3879 
22728000     134.2732   -6679.1121   -6333.7025   -6679.1121            0    1944.3103    23.116081    21.574989    21.715349    10830.079    2188.6961    1484.8358    2159.3992    204.05722    653.36861    753.75002   -6026.6072 
22729000     128.4232   -6679.3066   -6348.9458   -6679.3066            0    2761.7447    23.121663    21.510064    21.688898     10786.94    4219.0579    1774.4277    2291.7486    1135.6338    -997.1458    -640.4559   -5914.4779 
22730000     134.5742   -6686.6806   -6340.4967   -6686.6806            0    2375.1302    23.139157    21.511785    21.700686    10801.833    2466.7311    1623.4699    3035.1897   -567.31379    701.60624    609.33977   -5966.3337 
22731000    129.76467   -6672.7662   -6338.9544   -6672.7662            0    1832.3248    23.059051    21.639399    21.689103    10822.515    2353.4363    1766.2616    1377.2766    269.95483    -391.2165   -122.58354   -6049.7489 
22732000    129.50552   -6683.8789   -6350.7338   -6683.8789            0    2202.1488    23.136809    21.609268    21.625516    10812.099    2496.1802    1314.0776    2796.1885    653.23606    186.79692   -207.86517   -6003.4916 
22733000    129.65124   -6698.2368   -6364.7169   -6698.2368            0    1483.4653    23.154988    21.497188     21.75347    10828.162    2016.5583    839.81764    1594.0199    358.18714   -46.629342    232.17388   -6130.4516 
22734000    128.73041   -6681.6415   -6350.4904   -6681.6415            0    3197.5771    23.049446    21.562967    21.651616    10761.166    4371.3727    2920.1111    2301.2476    240.29212    50.240494   -720.33879   -5848.6608 
22735000     126.9433   -6689.2298   -6362.6759   -6689.2298            0     2555.942     23.16091    21.590824     21.57087    10786.797    3354.3558    1125.9676    3187.5026     135.8946   -283.03021    244.50183   -5960.5895 
22736000    127.97037   -6691.8377   -6362.6417   -6691.8377            0    1834.0594    23.136687    21.474622    21.767963    10815.448    3046.3269    1090.5566    1365.2946    324.95635    149.43782    632.31864   -6073.3515 
22737000    130.21888   -6698.6532    -6363.673   -6698.6532            0    3169.1303    23.123611    21.582169    21.547404    10753.398    3109.1908    2672.2929    3725.9073   -571.33864     157.2657   -115.52485    -5866.667 
22738000    137.92204   -6699.1774   -6344.3813   -6699.1774            0    1899.1997    23.115845    21.509426    21.745081     10811.84    1936.3786    982.25612    2778.9645    1120.5792    490.13088    664.56077   -6044.9163 
22739000    124.35981   -6684.9975   -6365.0895   -6684.9975            0    1686.7626    23.199523    21.520113    21.736979    10852.325    2115.6744    879.96552    2064.6479   -2.6201788    640.34338     593.4899   -6098.1255 
22740000    127.23886   -6673.5643     -6346.25   -6673.5643            0    2692.2071    23.206215    21.587587     21.51559    10778.583     3264.243    1468.7487    3343.6295    537.21902    263.75869   -794.38504   -5923.0497 
22741000    127.32486   -6694.3703   -6366.8349   -6694.3703            0    1893.3632    23.114838    21.484305    21.794564    10823.316    2491.2209    1275.2527    1913.6161     435.6873   -335.38774    585.59418   -6067.9732 
22742000    128.36871   -6695.5115   -6365.2908   -6695.5115            0    2281.5807    23.150048    21.530253    21.676934    10804.356    3618.6217    1099.9124    2126.2079   -315.40338   -795.23942     378.6515   -6005.7811 
22743000    127.86935   -6681.0755   -6352.1394   -6681.0755            0    1894.4492    23.239328    21.551664    21.594998    10815.772    1426.8641    1419.1984     2837.285   -117.08269     469.6372   -204.49078   -6053.3148 
22744000    127.65013   -6687.9978   -6359.6256   -6687.9978            0    2058.2189    23.160247    21.472348    21.781475    10832.033    2718.6393    2199.2702    1256.7473    55.988091   -292.43917    -190.9645   -6034.4804 
22745000    136.94769   -6683.0289   -6330.7393   -6683.0289            0     1599.704    23.196668    21.567761    21.680412    10846.714    2021.3468    599.97504    2177.7902    49.652218     433.6422    334.03205    -6077.685 
22746000    125.22148   -6687.3679   -6365.2433   -6687.3679            0    1262.6814     23.22185    21.576751    21.657914    10851.743    1539.8661     708.7793    1539.3987    -84.11563   -638.10773    356.87949   -6165.4094 
22747000    125.84373   -6681.5261   -6357.8008   -6681.5261            0    2027.8255    23.113427    21.506699    21.803223    10838.241     2672.083    1204.9223    2206.4712   -538.46306    167.93334    378.29432   -6037.2733 
22748000    128.89708   -6680.7584   -6349.1785   -6680.7584            0    2114.5111    23.231899    21.561979    21.585817    10812.891    2385.0008    803.14523    3155.3873     311.4802    200.15349    599.33026   -6015.7308 
22749000    126.66439   -6691.3367   -6365.5002   -6691.3367            0    2218.6606    23.126159    21.523859    21.739842    10821.315    3146.9319    1935.5781    1573.4718   -641.46534    127.22562   -73.922507   -6015.3561 
22750000    136.66757   -6679.4424   -6327.8734   -6679.4424            0    1360.6627    23.113275    21.616724    21.769525    10876.779    1369.6441    927.57724    1784.7669    424.19887    354.50309    557.81306    -6112.036 
Loop time of 505.875 on 64 procs for 250000 steps with 1296 atoms

Performance: 85.397 ns/day, 0.281 hours/ns, 494.193 timesteps/s
383.5% CPU use with 16 MPI tasks x 4 OpenMP threads

MPI task timing breakdown:
Section |  min time  |  avg time  |  max time  |%varavg| %total
---------------------------------------------------------------
Pair    | 39.041     | 49.104     | 59.245     |  73.5 |  9.71
Bond    | 1.5874     | 1.7046     | 2.0788     |   8.8 |  0.34
Kspace  | 244.51     | 253.26     | 265.44     |  32.0 | 50.06
Neigh   | 1.4353     | 1.485      | 1.5355     |   2.3 |  0.29
Comm    | 52.762     | 57.184     | 62.195     |  37.3 | 11.30
Output  | 0.47386    | 0.47414    | 0.47581    |   0.1 |  0.09
Modify  | 120.04     | 127.26     | 132.25     |  30.9 | 25.16
Other   |            | 15.41      |            |       |  3.05

Nlocal:        81.0000 ave          95 max          64 min
Histogram: 1 2 1 1 2 0 4 2 1 2
Nghost:        3624.12 ave        3647 max        3598 min
Histogram: 1 1 2 0 3 3 2 2 1 1
Neighs:        25675.1 ave       29896 max       20192 min
Histogram: 1 1 1 1 2 1 4 1 2 2

Total # of neighbors = 410801
Ave neighs/atom = 316.97608
Ave special neighs/atom = 2.0000000
Neighbor list builds = 3531
Dangerous builds = 0

unfix		3
unfix		2
unfix		1

write_data	data.final.${pid}
write_data	data.final.0
System init for write_data ...
PPPM initialization ...
  extracting TIP4P info from pair style
  using 12-bit tables for long-range coulomb (../kspace.cpp:340)
  G vector (1/distance) = 0.36614117
  grid = 30 40 32
  stencil order = 5
  estimated absolute RMS force accuracy = 0.0048071654
  estimated relative force accuracy = 1.4476636e-05
  using double precision FFTW3
  3d grid and FFT values/proc = 11832 2400
Last active /omp style is kspace_style pppm/tip4p/omp
WARNING: Not all mixed pair coeffs generated from mixing. Use write_data with 'pair ij' option to store all pair coeffs. (../write_data.cpp:312)

write_restart   restart.lmp.${pid}
write_restart   restart.lmp.0
System init for write_restart ...
PPPM initialization ...
  extracting TIP4P info from pair style
  using 12-bit tables for long-range coulomb (../kspace.cpp:340)
  G vector (1/distance) = 0.36614117
  grid = 30 40 32
  stencil order = 5
  estimated absolute RMS force accuracy = 0.0048071654
  estimated relative force accuracy = 1.4476636e-05
  using double precision FFTW3
  3d grid and FFT values/proc = 11832 2400
Last active /omp style is kspace_style pppm/tip4p/omp
Total wall time: 0:08:26
