LAMMPS data file via write_data, version 30 Jul 2021, timestep = 2000000

972 atoms
2 atom types
648 bonds
1 bond types
324 angles
1 angle types

0.18044953762929694 19.819551462372775 xlo xhi
0.002699443469545315 19.997301556533678 ylo yhi
0.10044934665178396 20.599548653352535 zlo zhi

Masses

1 1.008
2 15.999

Pair Coeffs # lj/cut/tip4p/long/omp

1 0 0
2 0.21084 3.1668

Bond Coeffs # harmonic/omp

1 450 0.9572

Angle Coeffs # harmonic/omp

1 55 104.52

Atoms # full

674 225 1 0.5897 2.0684194035193597 5.858600488913007 0.2774265488897143 0 0 1
22 8 2 -1.1794 2.372871703939344 0.9458638428338424 4.7608586435478895 0 0 0
109 37 2 -1.1794 2.860789841983592 9.186232928874928 0.5001530101338448 0 0 0
10 4 2 -1.1794 1.5417498513088064 4.1434831634660325 4.031993833660173 0 0 0
11 4 1 0.5897 1.2019833085862432 3.490255872950583 3.420403876823736 0 0 0
12 4 1 0.5897 2.453159245462763 3.887839095974529 4.174412879994573 0 0 0
31 11 2 -1.1794 0.883765742843522 2.103849233164018 2.1961020892277734 0 0 0
33 11 1 0.5897 1.57972189611385 2.3640423387258007 1.5926279870075601 0 0 0
18 6 1 0.5897 4.449698130170259 2.455613356175348 3.6653087952392402 0 0 0
5 2 1 0.5897 4.630414950529471 0.15040349383373322 2.4980877767236795 0 0 0
4 2 2 -1.1794 4.642560615184286 0.8494814033886229 3.151784687555194 0 0 0
140 47 1 0.5897 1.14199375398817 9.177383286386194 3.1840225930440895 0 0 0
236 79 1 0.5897 1.083602159285339 0.27709959005729723 1.910102254748775 0 1 0
139 47 2 -1.1794 0.7989622808772103 8.609710411830976 2.4938979735837 0 0 0
17 6 1 0.5897 4.447575778793438 3.853951927096632 3.085589469537415 0 0 0
110 37 1 0.5897 2.221193222751042 9.173313126776316 1.21222455090511 0 0 0
14 5 1 0.5897 4.039778491539762 5.398179419031488 1.4197181579583587 0 0 0
111 37 1 0.5897 3.6407086084816376 9.585777881877812 0.8852848681334156 0 0 0
15 5 1 0.5897 4.2682966636596165 6.341366318088857 2.581614910323167 0 0 0
16 6 2 -1.1794 4.274925568893478 3.368833653830805 3.892400631313623 0 0 0
19 7 2 -1.1794 1.0293383781242207 5.6995504912949375 1.7124295458992607 0 0 0
81 27 1 0.5897 0.2170411102763522 4.290278826658679 5.050116493709807 1 0 0
23 8 1 0.5897 3.0123533601251995 0.916382182609996 4.04918654102426 0 0 0
112 38 2 -1.1794 4.188341828994226 8.117013590560848 3.4397117581022405 0 0 0
114 38 1 0.5897 3.413345318437114 7.937157805014005 3.9719928676219802 0 0 0
141 47 1 0.5897 1.0270056384974886 7.724079566740162 2.776325270625067 0 0 0
20 7 1 0.5897 1.2008934116137864 5.246600708765194 2.5380451491044584 0 0 0
102 34 1 0.5897 0.25167484567098425 0.3398223109808584 4.517824148935854 1 0 0
6 2 1 0.5897 5.0271458458679845 0.44454862265172546 3.9291871100185976 0 0 0
130 44 2 -1.1794 1.8799072682700768 7.454552995709532 5.018322856981863 0 0 0
13 5 2 -1.1794 4.610593193842111 5.545965100193436 2.173785305650266 0 0 0
113 38 1 0.5897 4.92610360203961 7.957798703394291 4.02846006725891 0 0 0
1 1 2 -1.1794 2.4151853722928074 2.870722544695135 0.11925756364001217 0 0 0
26 9 1 0.5897 2.0203188072164133 5.6883643605574905 7.4140152094051945 0 0 0
325 109 2 -1.1794 2.820040071796764 2.831214709948887 6.499643016091132 0 0 0
326 109 1 0.5897 2.692529340243392 2.2521275969036347 5.74825112966683 0 0 0
327 109 1 0.5897 3.7125561505088216 2.6494395825777115 6.794022410864788 0 0 0
355 119 2 -1.1794 1.1102325934378428 2.229641068905453 8.568195899117388 0 0 0
356 119 1 0.5897 1.7431170522409536 2.245925529672375 7.850240570327072 0 0 0
437 146 1 0.5897 4.726336884607437 8.181137540526741 9.37476834413694 0 0 0
344 115 1 0.5897 1.4338307828968424 5.598464225130302 9.568677101103312 0 0 0
561 187 1 0.5897 1.5948526722883767 0.10809759373231083 9.170185448564112 0 1 0
27 9 1 0.5897 2.8135642723860115 4.672053269330162 6.620488655521519 0 0 0
330 110 1 0.5897 4.437820757690574 1.155929860918224 9.169336147384543 0 0 0
436 146 2 -1.1794 4.385391204864023 8.362229893045852 10.250688904164633 0 0 0
131 44 1 0.5897 2.223519936048982 6.739353463197142 5.553667140007356 0 0 0
435 145 1 0.5897 2.533330666845362 8.732054359357676 6.3365077789462125 0 0 0
339 113 1 0.5897 4.444570441888882 5.374543763009564 7.748371142476846 0 0 0
433 145 2 -1.1794 2.7193473861509454 9.203642570539811 7.148435951951269 0 0 0
25 9 2 -1.1794 2.835815908330104 5.579258318391946 6.924766679564232 0 0 0
335 112 1 0.5897 1.3490104864904253 3.3777020559359707 9.821564588176022 0 0 0
328 110 2 -1.1794 3.9253511192421597 1.1636328609252604 9.977794401031101 0 0 0
464 155 1 0.5897 1.3949233863981474 8.896833585390896 8.398017312664807 0 0 0
345 115 1 0.5897 1.018352011879335 7.031775263042294 9.314506224914407 0 0 0
343 115 2 -1.1794 1.1347143447361883 6.188517125408867 8.876886232939308 0 0 0
463 155 2 -1.1794 0.7578368400234051 8.815153000020413 9.107745834147496 0 0 0
468 156 1 0.5897 4.442822329721354 9.136571516726509 7.536838778553219 0 0 0
342 114 1 0.5897 4.336713781863205 4.125422002638196 9.857791393739767 0 0 0
357 119 1 0.5897 0.27390604053195844 2.0320617051889744 8.146503434481884 0 0 0
438 146 1 0.5897 4.361358950615236 9.317434184102332 10.306082758021779 0 0 0
337 113 2 -1.1794 5.027098900661184 5.000360105869245 8.409335554734328 0 0 0
132 44 1 0.5897 0.9579861631537467 7.519466155406229 5.267652510654024 0 0 0
24 8 1 0.5897 2.609844977742061 0.21136977982632743 5.327011885528287 0 0 0
649 217 2 -1.1794 3.022294976033794 2.5660351333375444 13.539483360828735 0 0 0
650 217 1 0.5897 2.491918019572902 2.0626851235523422 12.921783709191994 0 0 0
792 264 1 0.5897 4.65856215137071 9.191672253679757 14.413253698365448 0 0 0
789 263 1 0.5897 1.252190067578361 8.757896917431225 15.443884549387354 0 0 0
350 117 1 0.5897 2.929943144225996 4.469548614872959 13.21532286612103 0 0 0
668 223 1 0.5897 1.437613941713118 5.627533655577305 14.53965271310402 0 0 0
651 217 1 0.5897 2.5503619872630794 2.500891955241356 14.369720557813066 0 0 0
533 178 1 0.5897 0.5394917800321344 7.755730870680237 11.83493797272844 1 0 0
351 117 1 0.5897 3.3707912974733207 5.612418909820454 14.10472823944139 0 0 0
757 253 2 -1.1794 2.3621473385335467 9.243100693078649 14.15731666899257 0 0 0
683 228 1 0.5897 4.694569527901886 2.786695561018419 14.058148721708806 0 0 0
348 116 1 0.5897 2.1746885009325148 0.7387609675061093 11.07565636703089 0 0 0
336 112 1 0.5897 2.395108617502506 4.117044087304951 10.628402994599163 0 0 0
349 117 2 -1.1794 2.832678146705182 5.41368275625842 13.338447538348175 0 0 0
759 253 1 0.5897 2.453649287349784 8.696356064569922 13.376997746317166 0 0 0
454 152 2 -1.1794 2.268916022455576 7.508189159468581 11.885745308747785 0 0 0
455 152 1 0.5897 3.0254930233998656 7.719786133160124 11.338837252907444 0 0 0
456 152 1 0.5897 2.491574938332403 6.669246756048806 12.289146182657738 0 0 0
347 116 1 0.5897 0.8764317109415019 0.5494647332103295 11.831153446160542 0 0 0
346 116 2 -1.1794 1.7799189609009105 0.8459616987021362 11.941071138675497 0 0 0
340 114 2 -1.1794 4.126429688553246 3.849587975471667 10.74994866407329 0 0 0
334 112 2 -1.1794 1.4496489287000147 3.988450940516024 10.551668200787258 0 0 0
329 110 1 0.5897 4.559087129842114 0.9596509416503951 10.665586870756062 0 0 0
661 221 2 -1.1794 4.742562711673055 5.875678440360781 15.182238197358272 0 0 0
341 114 1 0.5897 4.106408096202279 2.8936520885699446 10.70710706582277 0 0 0
680 227 1 0.5897 0.3503723144937574 2.4646491879406462 15.049611689012698 0 0 0
669 223 1 0.5897 0.9220784976997038 6.704284886119233 15.470574932373102 0 0 0
667 223 2 -1.1794 0.9421196167452329 5.7552030493693165 15.34861287892141 0 0 0
787 263 2 -1.1794 0.6953222552800455 8.366044300140306 16.11663057889063 0 0 0
652 218 2 -1.1794 4.1216694548711725 1.4874082921871457 16.706776611601782 0 0 0
653 218 1 0.5897 3.4164789173206858 1.4083722767963789 17.349240934764417 0 0 0
681 227 1 0.5897 1.0437347918662847 3.0401865354821336 16.26613661815483 0 0 0
664 222 2 -1.1794 4.583173605068458 4.414280016776116 17.52282064491331 0 0 0
666 222 1 0.5897 4.5066313515779335 3.5156442346575068 17.202482005637457 0 0 0
884 295 1 0.5897 0.9585435967289733 0.5688081209408382 15.703066422466401 0 1 0
671 224 1 0.5897 2.0544166581963914 1.7711399214129138 19.274467186818384 0 0 0
665 222 1 0.5897 3.68678999919351 4.667630660742242 17.74329492565272 0 0 0
673 225 2 -1.1794 2.876368331377329 5.83468109443363 20.263768111743886 0 0 0
672 224 1 0.5897 1.1922721087562198 0.8180191101927086 18.474401619668555 0 0 0
760 254 2 -1.1794 4.4007230086698215 8.109591155086916 16.66603709725881 0 0 0
658 220 2 -1.1794 1.70164119094958 4.348443642720482 17.47163506395222 0 0 0
662 221 1 0.5897 4.720044577997511 5.252247907250858 15.908204282581957 0 0 0
659 220 1 0.5897 0.9473909614352266 4.348685962837914 18.06104549468565 0 0 0
660 220 1 0.5897 1.5356683625864211 5.073492502601348 16.86920834183966 0 0 0
675 225 1 0.5897 2.774879230267169 6.538461434743319 19.623013589154795 0 0 0
858 286 1 0.5897 0.43876878080807796 7.407700910023437 18.677376320060326 1 0 0
788 263 1 0.5897 1.0158571282615791 8.736270208583566 16.9390914869824 0 0 0
670 224 2 -1.1794 2.10496531857522 1.0368056740127196 18.662639070326556 0 0 0
778 260 2 -1.1794 2.3053936327801265 7.948521760876168 18.544059789606116 0 0 0
779 260 1 0.5897 2.4924556198945975 8.435080570973623 19.34681783785925 0 0 0
780 260 1 0.5897 3.113653686830539 8.006312739117133 18.03448273080226 0 0 0
761 254 1 0.5897 4.3824407102466445 9.06635940557739 16.68436257423385 0 0 0
663 221 1 0.5897 4.60989738296565 6.7291220997421775 15.59472994955915 0 0 0
679 227 2 -1.1794 1.0841436630192802 2.3128303134841777 15.645273777157572 0 0 0
654 218 1 0.5897 4.015505611439172 0.7243353737944356 16.138792372308842 0 0 0
2 1 1 0.5897 2.305345442939139 3.8169446840579706 20.52524724126601 0 0 -1
3 1 1 0.5897 3.3627022186837014 2.7360404385473833 20.59921191148093 0 0 -1
762 254 1 0.5897 5.050383183880905 7.869301663400638 17.32667082165844 0 0 0
120 40 1 0.5897 1.0243331345023068 11.247300240284074 3.718223127877879 0 0 0
129 43 1 0.5897 0.6796264903076845 13.255416967174224 2.364392100378363 0 0 0
123 41 1 0.5897 3.9113975099209557 12.191017280065536 0.8700067681707594 0 0 0
237 79 1 0.5897 0.32427715613429564 19.017108449080304 1.5344578249474794 0 0 0
240 80 1 0.5897 2.7949597529638033 14.28656709338163 4.610220763052969 0 0 0
249 83 1 0.5897 1.3078403317667153 15.432596571938593 1.8611974922655123 0 0 0
220 74 2 -1.1794 3.8474075217179515 14.459810102334696 3.164515181586936 0 0 0
230 77 1 0.5897 4.591481314210111 18.5336248478048 0.46755553853527415 0 0 0
232 78 2 -1.1794 4.315543780656952 17.081713235380935 3.5578214313200562 0 0 0
124 42 2 -1.1794 4.049081164890447 10.876740584280082 3.6724393069807704 0 0 0
127 43 2 -1.1794 0.5533392627903746 12.356910234542825 2.0597269852142124 0 0 0
222 74 1 0.5897 4.341467867789053 14.092940205369626 2.431353240457059 0 0 0
118 40 2 -1.1794 1.4854219856492068 10.537120984555623 4.16455956065553 0 0 0
890 297 1 0.5897 2.429996968555356 18.794689410569756 0.42453893107262025 0 0 1
248 83 1 0.5897 1.2021026975291997 15.87999933073968 3.303631172769503 0 0 0
221 74 1 0.5897 3.9645970341660526 15.406210492562257 3.0831099337116443 0 0 0
217 73 2 -1.1794 2.191633932446883 15.940929745592653 0.3350453067018434 0 0 0
229 77 2 -1.1794 4.85633991105859 18.568846034155115 1.3867322790710332 0 0 0
247 83 2 -1.1794 0.8674863392787673 15.229378700806329 2.6864517576203637 0 0 0
234 78 1 0.5897 3.3823165830871416 17.128113769359583 3.765719100472857 0 0 0
226 76 2 -1.1794 1.6842058120190486 17.66317663035383 3.9341737389454554 0 0 0
227 76 1 0.5897 1.520668329301397 18.286563127304788 3.2264977120572738 0 0 0
122 41 1 0.5897 4.418543366250723 11.96537436221542 2.27850547644149 0 0 0
233 78 1 0.5897 4.422622945565731 17.66175800991858 2.803981469895306 0 0 0
250 84 2 -1.1794 4.881821793146659 15.494768503759902 0.4072552492971164 0 0 0
119 40 1 0.5897 2.4079477474013813 10.67909908815975 3.952254976469388 0 0 0
783 261 1 0.5897 1.6420054035261593 11.835731166209603 0.5489612842918801 0 0 1
235 79 2 -1.1794 1.1982738160795157 19.33276688777541 1.764201846844682 0 0 0
228 76 1 0.5897 0.9292597835228312 17.756259957921895 4.515264891633268 0 0 0
126 42 1 0.5897 4.4687317150457195 10.07752940785227 3.3542093929479 0 0 0
121 41 2 -1.1794 4.678441740725689 12.319540098830624 1.4280632107193432 0 0 0
125 42 1 0.5897 4.423333390998839 11.014139369411534 4.542668672498672 0 0 0
219 73 1 0.5897 3.1331330778752196 15.84577805534678 0.47923959686453754 0 0 0
317 106 1 0.5897 0.28393605719152326 14.145065776308808 5.169349707473272 1 0 0
133 45 2 -1.1794 2.8716400678834657 11.917965848090557 6.7262839834110775 0 0 0
134 45 1 0.5897 2.0860594988334222 12.121007338881304 7.2341446110870535 0 0 0
135 45 1 0.5897 3.5980957408800682 12.149146455530092 7.3051680536251355 0 0 0
450 150 1 0.5897 4.350194056564295 11.699112008394808 10.25199118741811 0 0 0
573 191 1 0.5897 0.9831594573233415 14.533883295634373 9.405478171424111 0 0 0
243 81 1 0.5897 2.661257914950128 17.947668052577264 6.470401133601476 0 0 0
560 187 1 0.5897 0.41285641649387916 19.2259251018552 8.815144792928402 0 0 0
453 151 1 0.5897 1.0450959108875462 12.118121355133583 9.219470538228082 0 0 0
242 81 1 0.5897 2.34226351754682 19.25116355067573 7.170941999884596 0 0 0
434 145 1 0.5897 2.7097250552994727 10.12713339421339 6.897085507747593 0 0 0
572 191 1 0.5897 0.9323403575477178 15.874240725180401 10.107243911004895 0 0 0
239 80 1 0.5897 2.5782246138722553 13.444659044647848 5.849574635164737 0 0 0
542 181 1 0.5897 1.7468788831768032 16.109323752911873 7.755147141243494 0 0 0
555 185 1 0.5897 4.344083465978956 18.905753936893223 7.756559246951648 0 0 0
541 181 2 -1.1794 2.4841267003494623 16.16615173166686 7.147255590734417 0 0 0
451 151 2 -1.1794 1.0376275867411595 12.752856628121796 8.50306761406019 0 0 0
576 192 1 0.5897 4.514559880861774 16.10130367954388 7.69637663646089 0 0 0
446 149 1 0.5897 4.579901292276109 13.366160213547268 8.9969065508894 0 0 0
551 184 1 0.5897 1.7690749473421978 18.05474861486987 10.157606545138881 0 0 0
559 187 2 -1.1794 1.355995784603791 19.19639346192815 8.976136892037518 0 0 0
543 181 1 0.5897 2.306197537644613 15.49286479465086 6.490596568727766 0 0 0
241 81 2 -1.1794 2.8681289943816957 18.88211857504886 6.461359630599372 0 0 0
188 63 1 0.5897 0.6379215970555683 11.1097090098871 5.572493151414948 1 0 0
558 186 1 0.5897 4.728456015950218 17.80952713927547 10.201953595428979 0 0 0
238 80 2 -1.1794 2.232865188383504 14.20422882355549 5.380630094736388 0 0 0
553 185 2 -1.1794 4.844994114397064 18.756572986246944 8.558488936673372 0 0 0
445 149 2 -1.1794 4.837561244180494 12.573044109272614 8.52711627755193 0 0 0
571 191 2 -1.1794 0.5526300964327469 15.388182413222511 9.375259502197586 0 0 0
544 182 2 -1.1794 4.358657312069929 14.705223495718938 10.278801784644518 0 0 0
443 148 1 0.5897 1.2309665196013182 10.304303534209854 10.204140269047166 0 0 0
877 293 2 -1.1794 4.880406009476077 19.279340372286025 15.269162882148748 0 0 0
457 153 2 -1.1794 2.815158913153264 12.130512714072301 13.700255579042274 0 0 0
458 153 1 0.5897 2.0988311060743152 12.265699239006782 14.320642261078719 0 0 0
459 153 1 0.5897 3.6054203536984755 12.34664492903208 14.195291253769676 0 0 0
758 253 1 0.5897 2.5932332004464 10.123628233970498 13.861730386432505 0 0 0
562 188 2 -1.1794 2.023424817248123 14.28306183537499 11.730537040765052 0 0 0
563 188 1 0.5897 2.2723178358376623 13.417530739027722 12.054623211813682 0 0 0
885 295 1 0.5897 1.6997012564628473 19.31402250513582 15.277150576760741 0 0 0
879 293 1 0.5897 4.393693770225093 19.06444935121021 14.473426592662513 0 0 0
564 188 1 0.5897 2.275803277498011 14.88354664224501 12.431909322887163 0 0 0
552 184 1 0.5897 2.8072824022304173 17.192678817545403 10.84377217379394 0 0 0
866 289 1 0.5897 3.6680960660868265 16.041428583975275 13.808909628521207 0 0 0
444 148 1 0.5897 2.3157535392039783 10.939742584475486 11.047604033617676 0 0 0
865 289 2 -1.1794 2.72888264441938 16.01623941871845 13.625820291103102 0 0 0
550 184 2 -1.1794 1.8695651074148525 17.384754946364954 10.83374522171564 0 0 0
565 189 2 -1.1794 2.784058057912865 18.83038170506263 13.66592870098883 0 0 0
566 189 1 0.5897 2.847171351923528 17.964240112935663 13.26351232601639 0 0 0
545 182 1 0.5897 3.5071956650680027 14.529954050305392 10.67954603018124 0 0 0
442 148 2 -1.1794 1.3946408204600178 11.03200894824204 10.803990807443414 0 0 0
620 207 1 0.5897 0.2939550336609287 17.75550404312589 11.946797705668093 1 0 0
567 189 1 0.5897 2.587938721419319 19.419616583978534 12.937559902133888 0 0 0
867 289 1 0.5897 2.3345513310714194 15.697623918685565 14.437733086062906 0 0 0
449 150 1 0.5897 4.853212643217455 11.102907125860458 11.549472705356624 0 0 0
769 257 2 -1.1794 4.814525271072758 12.91740593213279 15.397105560401775 0 0 0
557 186 1 0.5897 4.585782554671944 16.356007525333744 10.600052029493773 0 0 0
556 186 2 -1.1794 4.624283312798441 17.240251760479865 10.964361006856809 0 0 0
448 150 2 -1.1794 4.157334027689702 11.019232025951391 10.897528151846124 0 0 0
546 182 1 0.5897 4.988947544650858 14.573720092611964 10.987119636575496 0 0 0
896 299 1 0.5897 0.31019221300810074 15.584536828035066 15.18620766072692 0 0 0
869 290 1 0.5897 3.2493185511896407 14.477724355479085 17.405266654125157 0 0 0
773 258 1 0.5897 2.9386848477271994 10.731336663993929 17.1740283022543 0 0 0
768 256 1 0.5897 0.9534747617638138 11.469557303155767 16.947813592133706 0 0 0
888 296 1 0.5897 2.0235495441498035 13.24557244823335 19.209741146316645 0 0 0
777 259 1 0.5897 0.8231487570796838 13.582258127814356 15.621780334457254 0 0 0
887 296 1 0.5897 2.1126987802310397 14.74374507531797 19.407237410316398 0 0 0
868 290 2 -1.1794 4.114771092113111 14.75692236194511 17.106375689831246 0 0 0
766 256 2 -1.1794 1.1896179146498893 10.859353560102333 17.646439918534178 0 0 0
886 296 2 -1.1794 2.1620949920925465 14.064728178071842 18.734441722442142 0 0 0
782 261 1 0.5897 2.565627382566197 10.957737915225502 20.23080363609867 0 0 0
774 258 1 0.5897 4.044153649371994 11.526858719854841 16.51299286703901 0 0 0
889 297 2 -1.1794 2.7671465608524826 18.735091588802916 20.0297438336937 0 0 0
897 299 1 0.5897 1.2279109857952193 16.192782634659668 16.225311713935255 0 0 0
878 293 1 0.5897 4.792941752837268 18.502345035305115 15.821216226669064 0 0 0
880 294 2 -1.1794 4.021643286703114 17.372473606388375 17.09138211227831 0 0 0
772 258 2 -1.1794 3.890934509771766 10.776954781793153 17.08771946093944 0 0 0
882 294 1 0.5897 4.201748906522414 16.436751665979976 17.001475024363607 0 0 0
881 294 1 0.5897 3.1389461201174655 17.41274205995809 17.45941345159642 0 0 0
895 299 2 -1.1794 1.1201391107040175 15.421064393598959 15.669469946724888 0 0 0
891 297 1 0.5897 2.563228064602977 19.584801233656904 19.639174977893184 0 0 0
965 322 1 0.5897 0.2358907362231194 14.208828798870345 19.130597065251983 1 0 0
874 292 2 -1.1794 1.383891743128371 17.471940208850803 17.529089542690883 0 0 0
876 292 1 0.5897 1.1278436300854917 18.145131695908102 16.898679320385213 0 0 0
870 290 1 0.5897 4.710193871334612 14.479642106063464 17.80268004839448 0 0 0
767 256 1 0.5897 0.5671573657341837 11.046498546237753 18.3491456349999 0 0 0
875 292 1 0.5897 0.8579018993596782 17.658765641170458 18.30670448368663 0 0 0
771 257 1 0.5897 4.558036723253646 13.656183724766574 15.948997779392924 0 0 0
781 261 2 -1.1794 2.3735415130997692 11.8735843646211 20.431894388390056 0 0 0
775 259 2 -1.1794 0.7553039082377998 12.628703164320555 15.574791186023603 0 0 0
883 295 2 -1.1794 0.972677973224218 19.61392705540545 15.822842166440312 0 0 0
873 291 1 0.5897 4.994121786102993 17.57161360533618 18.556171008391246 0 0 0
218 73 1 0.5897 2.0930737399063295 16.817716478587975 20.463152124216776 0 0 -1
48 16 1 0.5897 7.577495637299042 4.544372716547942 4.999745051610824 0 0 0
58 20 2 -1.1794 8.385083768848236 0.6751050241306558 5.2044369231927545 0 0 0
143 48 1 0.5897 6.403642760790043 9.305599218664085 0.8491176967834481 0 0 0
68 23 1 0.5897 7.815543689912559 2.6752309556476863 1.6448247219440981 0 0 0
142 48 2 -1.1794 5.6352099642554725 9.556233935735502 0.33632002599579625 0 0 0
67 23 2 -1.1794 7.206353116037224 2.4663526227191834 2.35301696692792 0 0 0
47 16 1 0.5897 7.6797375276571085 3.7668694374719975 3.7047966042577514 0 0 0
69 23 1 0.5897 6.351523883907305 2.4110549704271094 1.9258013322947778 0 0 0
46 16 2 -1.1794 8.071944723400915 4.4984357496386576 4.181410263494446 0 0 0
41 14 1 0.5897 9.600108972602452 0.9812437701245299 3.959917182092253 0 0 0
272 91 1 0.5897 7.141359311855017 0.6672055996477839 2.116176242022961 0 1 0
176 59 1 0.5897 7.592335969639389 8.063417696283137 2.418863746106418 0 0 0
39 13 1 0.5897 9.662412745211261 2.4683978928491705 0.3207719932277124 0 0 0
56 19 1 0.5897 6.323807631856611 5.881358805116252 1.9266604208713145 0 0 0
55 19 2 -1.1794 7.234134274206463 6.162482789664507 2.0190875965294994 0 0 0
57 19 1 0.5897 7.496659866827088 5.845494526178246 2.883295509058694 0 0 0
177 59 1 0.5897 8.359136388090096 8.992631728213853 1.5021124613425367 0 0 0
175 59 2 -1.1794 7.685989903203655 8.986204703213357 2.182641425424909 0 0 0
711 237 1 0.5897 8.673315009402087 5.7664846563062735 0.5699034100475288 0 0 1
166 56 2 -1.1794 8.434482689294002 7.368771690047503 4.68767595737567 0 0 0
168 56 1 0.5897 8.475561169864742 8.173604342318493 5.204098538152335 0 0 0
34 12 2 -1.1794 5.120597530458385 2.1890833198108863 0.16637402099941312 0 0 0
470 157 1 0.5897 8.529660950418853 9.2360059199853 7.586890643254268 0 0 0
28 10 2 -1.1794 5.721784522297104 0.16510366151913752 5.414244768695738 0 0 0
370 124 2 -1.1794 8.191120307697778 4.342040338784807 10.156983880294112 0 0 0
8 3 1 0.5897 5.640629428108235 4.033052210985887 6.831265628852025 0 0 0
167 56 1 0.5897 8.857172736196478 6.709076077709726 5.237515918041898 0 0 0
362 121 1 0.5897 9.38598456190991 3.7334565387588503 6.378410702898527 0 0 0
138 46 1 0.5897 6.754035704904203 6.926672252052763 5.472616722283921 0 0 0
392 131 1 0.5897 8.120809411752257 2.276325027972753 8.051142991117565 0 0 0
391 131 2 -1.1794 7.573872023989959 2.00321898176851 8.787719933714545 0 0 0
359 120 1 0.5897 5.969276401643102 1.866444777749514 7.943510788729663 0 0 0
381 127 1 0.5897 7.812890026348837 5.804860605633448 9.079205698223134 0 0 0
7 3 2 -1.1794 5.966312234393694 4.176574723687258 5.942670782944589 0 0 0
469 157 2 -1.1794 8.95435115143886 9.480205133737327 6.764531616965483 0 0 0
500 167 1 0.5897 7.705357468418379 9.854837273231006 9.541169273304053 0 0 0
338 113 1 0.5897 5.77535610599289 5.596698043387661 8.43513900660781 0 0 0
393 131 1 0.5897 7.639393629468211 1.0483574936908768 8.794144565229127 0 0 0
499 167 2 -1.1794 7.624751103472828 9.02278878816432 9.074975482472853 0 0 0
62 21 1 0.5897 8.665365820943391 5.93834250431568 7.333775188308054 0 0 0
501 167 1 0.5897 6.748508640308101 9.047065027212593 8.6903637414895 0 0 0
380 127 1 0.5897 7.709206715626678 7.287226027266516 8.790483953731304 0 0 0
379 127 2 -1.1794 7.438106107475392 6.430941695662713 8.459730078428258 0 0 0
361 121 2 -1.1794 9.282067574372215 2.79233119052887 6.518320704131864 0 0 0
61 21 2 -1.1794 9.27383040784489 5.6665332285710335 6.646660960466619 0 0 0
9 3 1 0.5897 5.473577955300491 3.5579507504411296 5.403588741095229 0 0 0
137 46 1 0.5897 5.451338452734236 6.177050326533538 5.654317502970778 0 0 0
136 46 2 -1.1794 5.805854035947978 7.053698015691715 5.506208114679014 0 0 0
467 156 1 0.5897 5.476835981908935 8.152490377147569 7.0326016742727075 0 0 0
371 124 1 0.5897 7.766655203335889 3.5652486981087446 9.792853963228115 0 0 0
466 156 2 -1.1794 5.366425230932631 8.89948492493036 7.620796640201656 0 0 0
360 120 1 0.5897 5.1767699107967635 1.1075808827025637 6.9004631899744115 0 0 0
358 120 2 -1.1794 5.095869891090121 1.7987554283967457 7.557656017696133 0 0 0
471 157 1 0.5897 9.875339307447685 9.253295454197252 6.893387380514114 0 0 0
59 20 1 0.5897 8.609486316844961 1.416202715626108 5.767068016650468 0 0 0
29 10 1 0.5897 6.658926472936269 0.3214251078998883 5.53105363050018 0 0 0
491 164 1 0.5897 9.461053670114397 7.792610534017978 10.673496768734184 0 0 0
794 265 1 0.5897 8.854079169117405 9.057764395788046 12.867933277169973 0 0 0
354 118 1 0.5897 5.586873772138766 1.4874994562392572 12.987294004049637 0 0 0
684 228 1 0.5897 5.8765324989004215 3.563269536353086 13.517929407316704 0 0 0
383 128 1 0.5897 8.909633896851453 1.8693164253175154 12.2268427277185 0 0 0
386 129 1 0.5897 9.285772025021025 4.803788188044663 13.172335646371078 0 0 0
705 235 1 0.5897 8.073479014958561 6.094944944603157 14.938436066621597 0 0 0
384 128 1 0.5897 9.057057072079019 1.122798232473548 10.918076027572182 0 0 0
791 264 1 0.5897 6.13500079187084 9.131298991564762 14.742605917545907 0 0 0
824 275 1 0.5897 7.856951060320768 9.307330036685107 15.13436981203674 0 0 0
686 229 1 0.5897 8.733208877835194 2.514034572540728 14.182528994720416 0 0 0
353 118 1 0.5897 6.582476570845479 1.150898222937556 11.897580140145283 0 0 0
385 129 2 -1.1794 9.394202070615453 5.6687431116471645 13.567561127771592 0 0 0
372 124 1 0.5897 7.597023350725904 4.639274090541844 10.84616875439425 0 0 0
333 111 1 0.5897 6.322858197886284 5.824894322926542 12.427265579692671 0 0 0
685 229 2 -1.1794 9.354543227836285 2.94827696282812 13.59805203295823 0 0 0
332 111 1 0.5897 5.48973785901263 4.742139481721889 11.775167338531253 0 0 0
461 154 1 0.5897 6.285462280154189 8.212471932117083 12.68879166073904 0 0 0
387 129 1 0.5897 9.486068101730615 6.262997710095281 12.82282716380433 0 0 0
460 154 2 -1.1794 6.311001220285148 7.579528044697732 11.971228812765702 0 0 0
352 118 2 -1.1794 5.69560639747566 0.954622627166876 12.199621368699246 0 0 0
492 164 1 0.5897 8.15248302842221 7.790123749667788 11.434853660950798 0 0 0
331 111 2 -1.1794 6.310596478616583 4.885114962354398 12.246263858630243 0 0 0
490 164 2 -1.1794 9.100187766772121 7.735935541557692 11.558260766185807 0 0 0
382 128 2 -1.1794 8.506306941778094 1.1802792215203324 11.698879560303507 0 0 0
682 228 2 -1.1794 5.651675955191147 2.8024464226850303 14.053409052668123 0 0 0
793 265 2 -1.1794 8.796397537533446 9.609891834753803 13.647692652267846 0 0 0
790 264 2 -1.1794 5.525785738658261 9.319180111582444 14.028603075824709 0 0 0
462 154 1 0.5897 5.509670425931948 7.746741852595793 11.475087503618969 0 0 0
717 239 1 0.5897 6.783664043078776 1.9349954769357205 15.395163553220772 0 0 0
704 235 1 0.5897 6.581969071010515 6.125738004972976 15.196440645248206 0 0 0
677 226 1 0.5897 5.234112989650028 0.9843861518703771 18.22416917576009 0 0 0
707 236 1 0.5897 8.849625775754204 0.313077425342321 19.004206046314387 0 0 0
703 235 2 -1.1794 7.417598535878302 6.432441552603602 15.548502368064073 0 0 0
657 219 1 0.5897 6.993167782174407 4.73427700789555 19.301558057462437 0 0 0
710 237 1 0.5897 9.145438583257224 4.68169900833969 20.12448091616389 0 0 0
655 219 2 -1.1794 6.117563685976523 4.587644131745328 19.659493916801118 0 0 0
815 272 1 0.5897 8.767103108542152 6.9734439062840785 19.237966733382194 0 0 0
36 12 1 0.5897 5.655908908164877 2.897949449362625 20.3090122908036 0 0 -1
716 239 1 0.5897 7.889549472969191 1.0257724405591906 15.887279576367805 0 0 0
786 262 1 0.5897 6.846030179590845 7.551342830695856 18.843402093177453 0 0 0
694 232 2 -1.1794 8.11070746406069 4.3358529978354765 17.032278923278177 0 0 0
695 232 1 0.5897 7.906744851781282 3.5229086763968867 16.570057461973626 0 0 0
785 262 1 0.5897 5.7012978330681365 6.6693592786104885 19.29461449812394 0 0 0
823 275 2 -1.1794 7.424188683554658 9.171697973415833 15.977329761589681 0 0 0
784 262 2 -1.1794 5.896229072948532 7.545543481575607 18.962320200914597 0 0 0
706 236 2 -1.1794 8.772307133217584 1.0378165247421176 18.38378569575834 0 0 0
696 232 1 0.5897 7.7375044024929185 5.024633446267946 16.482291835161973 0 0 0
676 226 2 -1.1794 5.947566205930523 0.6039341755952575 18.736473780260198 0 0 0
816 272 1 0.5897 8.877136150109177 8.475689304729915 19.087419128417096 0 0 0
38 13 1 0.5897 8.704972856096804 2.317978061583601 19.65681130506337 0 0 -1
814 272 2 -1.1794 8.762743342020025 7.670765041531717 18.582301886248857 0 0 0
709 237 2 -1.1794 9.179646745557006 5.6272868155822815 20.268666403836562 0 0 0
708 236 1 0.5897 7.835801482384107 1.0917514905939583 18.19317774914436 0 0 0
656 219 1 0.5897 5.577409054477533 4.383017562703901 18.89619898154561 0 0 0
825 275 1 0.5897 7.609846155967178 8.259110493090128 16.198294587965734 0 0 0
144 48 1 0.5897 5.5960900651616035 8.910200332061978 20.130222209015486 0 0 -1
715 239 2 -1.1794 7.6722975194759835 1.9478689654741674 15.75076761952711 0 0 0
35 12 1 0.5897 5.37464436900052 1.4182430055844744 20.158116862664052 0 0 -1
702 234 1 0.5897 9.80003265990054 4.102575829748001 17.806760250481105 0 0 0
145 49 2 -1.1794 9.211893855297122 9.428841619296387 20.485851469620528 0 0 -1
37 13 2 -1.1794 8.792617756715774 2.72897520537904 20.51680195511128 0 0 -1
271 91 2 -1.1794 7.235798704533282 19.775890943600608 1.766419856091277 0 0 0
255 85 1 0.5897 9.672152220152471 15.708034539556124 0.3197076068865769 0 0 0
927 309 1 0.5897 8.31858595277972 19.302104378859184 0.34412375737803497 0 0 1
156 52 1 0.5897 9.216752349387292 10.775856333860286 4.408246967784288 0 0 0
264 88 1 0.5897 7.461849953855805 17.80601614143762 4.488543830609319 0 0 0
231 77 1 0.5897 5.739820686917891 18.936800453157485 1.368003936909255 0 0 0
163 55 2 -1.1794 7.0608024876057875 12.899381556873543 2.5879572354477447 0 0 0
164 55 1 0.5897 6.220751731926979 12.537594730256336 2.3056392267807926 0 0 0
165 55 1 0.5897 7.441510566455289 12.218097363426443 3.142100090532522 0 0 0
155 52 1 0.5897 8.169121023985738 10.225554852829633 3.464004749588248 0 0 0
285 95 1 0.5897 7.288093242176774 14.882084118505789 2.4620601195699128 0 0 0
819 273 1 0.5897 7.9024185781156575 12.176678393458095 0.6304050288362077 0 0 1
262 88 2 -1.1794 7.838503349681379 17.76349325721201 3.609591310994486 0 0 0
251 84 1 0.5897 5.5386032664002816 15.463998341671118 1.1029375578034937 0 0 0