LAMMPS data file via write_data, version 30 Jul 2021, timestep = 8250000

1296 atoms
2 atom types
864 bonds
1 bond types
432 angles
1 angle types

-10.691976563546133 12.671976563546133 xlo xhi
-9.308484725554095 12.298482725554095 ylo yhi
-0.004098563427236357 21.864097563424828 zlo zhi
-9.134000138498957 1.81161837324018 2.9981357147162386 xy xz yz

Masses

1 1.008
2 15.999

Pair Coeffs # lj/cut/tip4p/long/omp

1 0 0
2 0.21084 3.1668

Bond Coeffs # harmonic/omp

1 450 0.9572

Angle Coeffs # harmonic/omp

1 55 104.52

Atoms # full

280 94 2 -1.1794 -9.83450478293759 -4.759458503254452 1.3232168821325707 1 1 0
270 90 1 0.5897 -8.721610622522242 -7.67575658795776 1.8834874271373034 1 1 0
269 90 1 0.5897 -9.384705114301642 -6.329705903064181 2.0843545963995123 1 1 0
268 90 2 -1.1794 -9.317234880211752 -7.2048379362293105 2.466288361865123 1 1 0
314 105 1 0.5897 -9.05942569928396 -6.7454925692307945 4.1178203536140865 1 1 0
299 100 1 0.5897 -6.574442438973685 -7.787683824640322 4.140096562724414 1 1 0
163 55 2 -1.1794 -7.3152105286658 -8.171027277567632 0.6143035388907028 1 1 0
164 55 1 0.5897 -6.52443728300526 -8.482834815719285 1.0543594113936852 1 1 0
73 25 2 -1.1794 -8.360683443787076 -3.837241087955025 4.753449989865437 1 0 0
3 1 1 0.5897 -1.4733321923944658 -3.502314222730294 4.375430820881936 0 0 0
298 100 2 -1.1794 -5.87152661996251 -7.142129930839834 4.065766065472144 1 1 0
323 108 1 0.5897 -6.4920387153657755 -5.793062018605847 3.130717668279333 1 1 0
324 108 1 0.5897 -7.207336163868532 -4.473371571477761 3.3273353558327226 1 1 0
310 104 2 -1.1794 -3.429536400378314 -8.3892108517916 3.8927389331497277 1 1 0
293 98 1 0.5897 -5.143986341416186 -3.9054029470996197 2.1762009114451004 1 1 0
317 106 1 0.5897 -1.4832989143347906 -4.088428424324124 1.2258287360240598 1 1 0
300 100 1 0.5897 -5.076037639204038 -7.664341227395823 3.9622136659626124 1 1 0
241 81 2 -1.1794 -0.9467534574258654 -6.490722700560511 5.34865017491912 0 1 0
322 108 2 -1.1794 -6.742116254980087 -4.991725706039153 2.6707712959715706 1 1 0
282 94 1 0.5897 -10.66511267568646 -4.28394117590543 1.308953063365967 1 1 0
261 87 1 0.5897 -6.873047859159005 -5.264533305228888 0.8087904902079437 1 1 0
242 81 1 0.5897 -1.1829907755581832 -6.680023098444483 4.4406420062528875 0 1 0
313 105 2 -1.1794 -8.70112969745278 -6.4837798602637235 4.965915223926392 1 1 0
243 81 1 0.5897 -0.7650849074732413 -5.55092269847583 5.358445783434153 0 1 0
305 102 1 0.5897 -1.2391407437765949 -6.346607614081753 2.309144899963864 1 1 0
311 104 1 0.5897 -2.6455007172889697 -8.076779824818386 3.4410730838452723 1 1 0
304 102 2 -1.1794 -1.181385627626236 -7.243170602252661 2.6394887116028243 1 1 0
316 106 2 -1.1794 -1.9271898512400067 -4.873507517607826 1.5467097565023824 1 1 0
306 102 1 0.5897 -0.4122940808848643 -7.610377839847592 2.203717604862666 1 1 0
318 106 1 0.5897 -2.7821539674625857 -4.5615536424443475 1.843292507871239 1 1 0
281 94 1 0.5897 -9.167759099974617 -4.07592555944683 1.3908892680448377 1 1 0
275 92 1 0.5897 -10.673315228179614 -8.095166049414374 3.0950416584537455 1 1 0
75 25 1 0.5897 -9.070913209809847 -3.427802736725881 4.259370510569332 1 0 0
315 105 1 0.5897 -8.406251724361097 -5.582656291938953 4.834159295070261 1 1 0
633 211 1 0.5897 -5.793507391965222 -5.935390794302808 5.439229740131617 1 1 0
420 140 1 0.5897 -9.466305965914255 -6.42253200478204 9.741784159736106 1 0 0
618 206 1 0.5897 -7.708166339148905 -7.396885945416051 6.286179695886124 1 1 0
413 138 1 0.5897 -7.638688455334388 -3.7371508601773336 7.767547425692329 1 0 0
419 140 1 0.5897 -8.859816533103123 -5.630514361644653 8.602975004123795 1 0 0
418 140 2 -1.1794 -9.644367526178298 -6.1194579752489435 8.851511915082101 1 0 0
414 138 1 0.5897 -6.75223791448818 -4.957759642677349 7.640221591882739 1 0 0
350 117 1 0.5897 -7.526145236443424 -4.316078475672617 9.883276736455628 0 0 0
412 138 2 -1.1794 -7.49575625832361 -4.610299767939865 8.132852010689474 1 0 0
429 143 1 0.5897 -6.348807480192506 -6.75729065940414 8.634368481566893 1 0 0
427 143 2 -1.1794 -5.961282158539479 -6.813708113454412 9.507732812943807 1 0 0
359 120 1 0.5897 -4.710800233746696 -2.9025061641453638 8.959726984288533 0 0 0
428 143 1 0.5897 -6.7056824038647145 -6.959530876509815 10.091592160515951 1 0 0
404 135 1 0.5897 -5.35547342609128 -3.5861628626321584 5.825458694814433 1 0 0
632 211 1 0.5897 -4.706975492849074 -5.880367717118107 6.491927334642516 1 1 0
356 119 1 0.5897 1.0513688110108586 -6.841821010235817 9.86678904220847 0 0 0
626 209 1 0.5897 -10.662497539081372 -6.74085197139243 7.493657220268506 1 1 0
554 185 1 0.5897 -2.7809560844183343 -6.605481205881963 7.752314868660324 0 1 0
631 211 2 -1.1794 -5.4554970618754215 -5.391195385811219 6.15042060144529 1 1 0
347 116 1 0.5897 -1.3480914465722158 -5.309631843962424 8.816180074180247 0 0 0
335 112 1 0.5897 -4.932038562719267 -5.1500228847976866 9.86113651922691 0 0 0
555 185 1 0.5897 -2.406742225171934 -6.947224045309232 6.325832373552143 0 1 0
348 116 1 0.5897 -1.7154952688351681 -6.257450956265263 9.938056557305611 0 0 0
336 112 1 0.5897 -3.4943821916594517 -4.724400682566104 9.651078120520225 0 0 0
553 185 2 -1.1794 -3.1495483646615456 -6.92603014075705 6.9291944108250565 0 1 0
546 182 1 0.5897 -0.135439154656547 -7.495253194214038 6.704647666128066 0 1 0
346 116 2 -1.1794 -2.094047422411938 -5.758366716673075 9.214332825060625 0 0 0
334 112 2 -1.1794 -4.364543171003941 -4.379179448515244 9.850799320448186 0 0 0
616 206 2 -1.1794 -7.347998905208032 -7.724963933729919 7.110066481873635 1 1 0
627 209 1 0.5897 -10.323766518418832 -6.848864630263682 6.022157348186289 1 1 0
544 182 2 -1.1794 0.39672505968480287 -8.028816143246077 7.2948074263674805 0 1 0
349 117 2 -1.1794 -7.537301335797787 -3.9793239878297584 10.779164648738826 0 0 0
351 117 1 0.5897 -7.361326514421731 -3.0430278365235184 10.685835996902094 0 0 0
74 25 1 0.5897 -8.189053023676523 -3.230975303266586 5.473971303491948 1 0 0
652 218 2 -1.1794 -5.794533569619669 -5.058841972614976 12.73810614817783 0 0 0
780 260 1 0.5897 -7.452345581888075 -4.203116811333079 15.37649481208985 0 0 0
779 260 1 0.5897 -7.599120098634094 -3.0981333286283235 14.352116985033735 0 0 0
778 260 2 -1.1794 -8.108220787905212 -3.7110774184129536 14.882624258924738 0 0 0
768 256 1 0.5897 -9.5495383507259 -2.612385087851977 15.105784489049572 0 0 0
654 218 1 0.5897 -6.321062924166053 -4.740942322891263 12.004724366240772 0 0 0
653 218 1 0.5897 -6.412408561729642 -5.545059327033649 13.284136588579766 0 0 0
662 221 1 0.5897 -9.140036113735901 -4.101046744269086 13.429428168679427 0 0 0
661 221 2 -1.1794 -9.588660101673707 -4.256543734843375 12.598342440095024 0 0 0
663 221 1 0.5897 -8.914316473722877 -4.120960377372668 11.932645313235845 0 0 0
684 228 1 0.5897 -8.447402218305566 -6.659130454610713 14.409520282461626 0 0 0
816 272 1 0.5897 0.08230032366883933 -3.816964588051434 15.518235144208656 0 0 0
802 268 2 -1.1794 -2.6391230117857987 -1.8794467137170896 15.169831334593722 0 0 0
682 228 2 -1.1794 -7.774604602746443 -6.957492717637553 13.797514367702293 0 0 0
655 219 2 -1.1794 -0.40971139182221883 -7.174215080418332 11.123402003678732 0 0 0
767 256 1 0.5897 -10.983657120650514 -3.054777244616089 14.906729368396977 0 0 0
788 263 1 0.5897 -5.047391714395607 -4.684182943545279 15.57044898684015 0 0 0
718 240 2 -1.1794 -0.23645584842631706 -6.629578644033813 13.841622938928525 0 0 0
774 258 1 0.5897 -5.625520030498549 -2.122737014822512 13.188704215006231 0 0 0
667 223 2 -1.1794 -3.905496258683061 -2.42431725749283 11.992122214380906 0 0 0
789 263 1 0.5897 -4.719287104084836 -4.303361550707074 14.14248286691259 0 0 0
787 263 2 -1.1794 -4.4411554250502885 -4.159948394107255 15.047030480743127 0 0 0
729 243 1 0.5897 -8.16317797725076 -7.125202062599128 11.985873476368052 1 0 0
758 253 1 0.5897 -9.833298117500824 -5.538464182300325 16.30110357990987 0 0 0
740 247 1 0.5897 -11.090412681173133 -3.0788224716760872 12.15206300798093 1 0 0
676 226 2 -1.1794 -3.3212799945623015 -6.470458180560531 12.115588361861278 0 0 0
814 272 2 -1.1794 -0.215433580703424 -3.3897731220818397 14.715104444333296 0 0 0
803 268 1 0.5897 -3.3212431304813093 -2.5510362927771038 15.175578030501457 0 0 0
804 268 1 0.5897 -1.8256545487491191 -2.3647626276731692 15.032092372883657 0 0 0
795 265 1 0.5897 -2.9449094855149758 -5.195878440277458 15.457057959461045 0 0 0
720 240 1 0.5897 -0.9380549869965904 -6.393106866732779 14.448308199751322 0 0 0
698 233 1 0.5897 -1.2382873463965733 -3.995148134221422 13.495495494833472 0 0 0
668 223 1 0.5897 -3.113486131449168 -2.843655416387972 12.328388684311262 0 0 0
699 233 1 0.5897 -1.1392820716807872 -3.9549340927005696 11.985443012350428 0 0 0
697 233 2 -1.1794 -1.7549186392023177 -4.120302510031089 12.699520658838086 0 0 0
677 226 1 0.5897 -2.6158581840952397 -5.840313835813928 12.262657280998022 0 0 0
793 265 2 -1.1794 -2.170412606457843 -5.645040006814712 15.795598350182502 0 0 0
678 226 1 0.5897 -4.121757810355729 -5.986126119041992 12.317792468612947 0 0 0
669 223 1 0.5897 -4.258822748095646 -3.0505701679398536 11.360315649431067 0 0 0
727 243 2 -1.1794 -8.18633785499878 -7.393262512799117 11.067317138988992 1 0 0
657 219 1 0.5897 -0.27150828971191565 -6.937853646112558 12.040554893499365 0 0 0
766 256 2 -1.1794 -10.421443986089717 -2.280146405292369 14.892242098305134 0 0 0
689 230 1 0.5897 1.1543360385540744 -5.4057170213552785 13.348968848959611 0 0 0
1087 363 2 -1.1794 -6.368122228281133 -5.431582333285603 16.36464241708397 0 0 0
1150 384 2 -1.1794 -6.270300615317551 -4.608710559654364 18.91680771597973 0 0 0
1152 384 1 0.5897 -6.998652073612311 -4.254572216014143 19.427012299521657 0 0 0
1227 409 1 0.5897 -9.136242875972272 -3.20249901205349 20.543256570403933 0 0 0
1109 370 1 0.5897 -8.834371502076632 -3.5941044192358023 17.612397126355212 0 0 0
1089 363 1 0.5897 -6.379603691036349 -5.10177141121491 17.26310653457439 0 0 0
1151 384 1 0.5897 -6.1767695866228705 -5.509903025894451 19.22565309531997 0 0 0
1225 409 2 -1.1794 -8.322484869054286 -3.616735059573074 20.830339460654045 0 0 0
1108 370 2 -1.1794 -9.521064187321928 -4.249014062124642 17.738496952333186 0 0 0
1097 366 1 0.5897 -9.367911285359238 -6.022010359025408 18.45687445733313 0 0 0
1248 416 1 0.5897 -5.974515770925269 -1.45637585847674 20.64577726549581 0 0 0
794 265 1 0.5897 -1.8178847848889 -5.049874375693786 16.457196523745225 0 0 0
1219 407 2 -1.1794 -10.681896382404759 -2.029849298076318 20.192274846241695 0 0 0
1133 378 1 0.5897 -1.3345116904768322 -5.726861642275301 18.63233660839822 0 0 0
1226 409 1 0.5897 -8.009972336104383 -3.061993436762428 21.545027844569013 0 0 0
1088 363 1 0.5897 -6.629590459862856 -6.349143105175777 16.44244184486847 0 0 0
1121 374 1 0.5897 -5.0845006905634085 -3.3836828209358876 18.301941954473783 0 0 0
259 87 2 -1.1794 -5.17480698268608 -2.5271477246923792 21.763048505201304 1 1 -1
1165 389 2 -1.1794 0.07917770492101006 -1.6946429956277278 17.939751832494544 0 0 0
1130 377 1 0.5897 -7.411392289367073 -1.9431056169641945 18.595196463234075 0 0 0
1256 419 1 0.5897 -3.594223048955473 -2.1580972184106084 20.88916557961931 0 0 0
1129 377 2 -1.1794 -7.76353502015335 -1.9989571199675265 17.70693528311306 0 0 0
1110 370 1 0.5897 -10.27416306674881 -3.749435533566002 18.05392884105069 0 0 0
1131 377 1 0.5897 -7.0748454604719 -1.6323553100527493 17.152300603530108 0 0 0
1122 374 1 0.5897 -4.787471223309498 -2.2342417902234484 17.36247303201562 0 0 0
1188 396 1 0.5897 0.7853501130282279 -4.003359534104749 19.978969260146677 0 0 0
1261 421 2 -1.1794 -0.6698251411246883 -3.5270158267955907 21.074255410252967 0 0 0
1146 382 1 0.5897 -2.510939775051108 -3.443367387708312 17.76443523401204 0 0 0
1255 419 2 -1.1794 -2.9254144963770603 -1.9702493200479019 20.230614124204877 0 0 0
1257 419 1 0.5897 -3.3434467061760307 -2.183756100728659 19.396463871607423 0 0 0
1120 374 2 -1.1794 -4.383525926910481 -2.792773788487585 18.026587044806284 0 0 0
1145 382 1 0.5897 -1.0254989623834145 -3.22109743638544 17.954409269329837 0 0 0
1144 382 2 -1.1794 -1.6838010634927567 -3.911749549768457 17.87704491108221 0 0 0
1263 421 1 0.5897 -1.464796028360551 -3.123778448067176 20.725512623172904 0 0 0
1187 396 1 0.5897 1.6214324356439942 -5.256746461854592 19.831070885218388 0 0 0
165 55 1 0.5897 -5.642762636368402 -5.7958606351889035 21.769242500976553 1 1 -1
1143 381 1 0.5897 -8.735289787888393 -5.1651885287174695 21.487762003529824 0 0 0
1186 396 2 -1.1794 1.436386206330118 -4.416410689434279 19.411731231266486 0 0 0
1124 375 1 0.5897 0.8406329035986122 -5.926993249094756 16.772993522570687 0 0 0
1141 381 2 -1.1794 -8.98992930395697 -6.085767491458055 21.551252364357303 0 0 0
1123 375 2 -1.1794 1.0432067331699884 -4.995467198121671 16.686219415168246 0 0 0
1125 375 1 0.5897 1.2599328168135742 -4.713192247299745 17.574744170098995 0 0 0
1132 378 2 -1.1794 -1.19377979436811 -6.570626081058327 19.061883380789943 0 0 0
1179 393 1 0.5897 -0.9121689392269534 -5.420682507045564 21.739810706796 0 0 0
260 87 1 0.5897 -5.410209521743093 -3.454038925066069 21.80533646091675 1 1 -1
1262 421 1 0.5897 -0.3951413959076593 -2.943431302762244 21.7814835832436 0 0 0
201 67 1 0.5897 2.31149036190668 -5.926979190204869 21.79984164668445 1 1 -1
107 36 1 0.5897 -9.302726813568897 1.5726754179092364 3.3611480116694654 1 0 0
84 28 1 0.5897 -8.307343168651336 -0.4561640263482829 3.9195867210047566 1 0 0
59 20 1 0.5897 -13.617639799518605 -0.7591284562008109 3.256247120109998 1 0 0
53 18 1 0.5897 -12.44359612783007 0.939735132672066 2.0526656791485083 1 0 0
272 91 1 0.5897 -9.775041323780528 -1.3421504793371835 0.9090841362167494 1 1 0
82 28 2 -1.1794 -9.099090826803465 -0.030939132860751783 4.249069768824948 1 0 0
292 98 2 -1.1794 -4.427121088412976 -3.5097876542505313 1.6803012062934195 1 1 0
301 101 2 -1.1794 -8.15271550257913 -2.2638476855353984 1.3625114740463 1 1 0
69 23 1 0.5897 -11.150443871469907 -2.812567465609134 2.8469969052115807 1 0 0
54 18 1 0.5897 -11.616903801565337 -0.3236023105191812 1.9410582658324358 1 0 0
271 91 2 -1.1794 -10.569573274878014 -0.9212646435209493 0.5807934808448539 1 1 0
83 28 1 0.5897 -9.770638529671725 -0.7121047765297153 4.211772558096429 1 0 0
52 18 2 -1.1794 -12.287772168688816 0.09695005362416076 2.4789117285685833 1 0 0
68 23 1 0.5897 -11.4236767402012 -2.384489742357445 4.27310313204923 1 0 0
258 86 1 0.5897 -12.6557967832912 -2.9195445774756443 1.0039819813980666 1 1 0
67 23 2 -1.1794 -10.719082986933667 -2.4736220975931467 3.6313491072669626 1 0 0
95 32 1 0.5897 -6.042546386915486 -0.7317900767211825 3.427199961622843 1 0 0
98 33 1 0.5897 -11.926412855265502 0.5808060341899228 4.280442089764201 1 0 0
256 86 2 -1.1794 -12.35090662706186 -3.569032279332178 1.6375505596550584 1 1 0
302 101 1 0.5897 -7.756323541519684 -1.823497574716514 2.1142719572560034 1 1 0
96 32 1 0.5897 -6.4462775410869595 -1.8184372466870116 4.400974764131634 1 0 0
11 4 1 0.5897 -1.9773444098537247 -0.9176695398835495 4.197462450996454 0 0 0
89 30 1 0.5897 -4.663073713040173 1.0038025903707872 2.354393960895408 1 0 0
104 35 1 0.5897 -3.644812240138286 -2.3733823729509256 4.5452344451220545 1 0 0
105 35 1 0.5897 -3.606064696301128 -2.7917750166916653 3.0908918426092677 1 0 0
90 30 1 0.5897 -3.752131792608462 -0.1995041853152255 2.2355390651606517 1 0 0
26 9 1 0.5897 -4.333158871405573 0.43897823908827327 4.47480564350212 0 0 0
303 101 1 0.5897 -7.508356554623327 -2.1680294483972506 0.6611697279946055 1 1 0
88 30 2 -1.1794 -4.508560209539147 0.1324032200220806 2.7191591094509353 1 0 0
294 98 1 0.5897 -4.843521961846146 -2.8167107614482285 1.1679924046254428 1 1 0
94 32 2 -1.1794 -6.746463365545798 -1.3506722224769039 3.6217146342743374 1 0 0
103 35 2 -1.1794 -3.041659422616961 -2.5327585435704574 3.8192705029468095 1 0 0
44 15 1 0.5897 -10.057355547922104 0.9204379422525282 0.6264307625566811 1 0 0
97 33 2 -1.1794 -11.880808283339405 0.9130624480568237 5.1769180351532595 1 0 0
27 9 1 0.5897 -4.2673275353803755 1.6672062773757688 5.357421570910512 0 0 0
307 103 2 -1.1794 -2.4556973274829677 -0.9065150139596057 1.083717092262128 1 1 0
309 103 1 0.5897 -2.6658841123261396 -1.3838333915720353 0.2811249075468274 1 1 0
99 33 1 0.5897 -11.624399945133355 1.8302530338847323 5.080198878388835 1 0 0
25 9 2 -1.1794 -4.257824232156925 0.7105558231455102 5.3895239337546235 0 0 0
417 139 1 0.5897 -8.837439839270523 1.1894570284360864 5.651065910819893 1 0 0
358 120 2 -1.1794 -5.015146156738489 -2.184540804046894 8.404651212152102 0 0 0
455 152 1 0.5897 -4.194920636451351 1.8250589166469648 8.830149650972501 0 0 0
425 142 1 0.5897 -7.2584302764418265 -1.5537860661896072 7.021159072800315 1 0 0
536 179 1 0.5897 -9.53093405129442 0.07169748393089392 10.316343382360632 1 0 0
537 179 1 0.5897 -9.320928899822533 -0.09878804849318712 8.826877622719064 1 0 0
535 179 2 -1.1794 -8.864186012516306 0.14121639824629817 9.633065233260435 1 0 0
424 142 2 -1.1794 -8.0164698838889 -2.1340699465367363 6.950554202966378 1 0 0
527 176 1 0.5897 -12.234545401771273 1.5944050239738576 8.463471144843648 1 0 0
402 134 1 0.5897 -10.785968685432136 -0.20153665922370223 6.554031163307024 1 0 0
401 134 1 0.5897 -11.083937287539896 -1.2133574098963216 7.640042381462386 1 0 0
526 176 2 -1.1794 -12.845657533603044 1.153816205900025 9.054013628406427 1 0 0
400 134 2 -1.1794 -10.37687261599308 -0.6822045861930714 7.273589835898781 1 0 0
528 176 1 0.5897 -12.307398909198639 0.8825003000787746 9.7975266811708 1 0 0
426 142 1 0.5897 -8.764950082481992 -1.5426129675131222 6.87195910110447 1 0 0
435 145 1 0.5897 -7.469918552653224 -0.9232931392724382 10.150845189186112 0 0 0
411 137 1 0.5897 -13.503873497429424 0.3401473285932184 6.191313846939022 1 0 0
433 145 2 -1.1794 -6.585898493210656 -1.2418541596658592 10.333203378318355 0 0 0
415 139 2 -1.1794 -8.632032109966985 1.911192823011941 6.245307303293059 1 0 0
329 110 1 0.5897 -3.449621525547358 -1.1656778239214898 7.928849426662442 0 0 0
416 139 1 0.5897 -7.991543134275232 1.545031269609451 6.855114354855406 1 0 0
360 120 1 0.5897 -5.553016490655211 -1.6447566695901044 8.983880748168128 0 0 0
443 148 1 0.5897 -7.935296894279684 1.831919419843766 9.706586195124453 0 0 0
337 113 2 -1.1794 -6.3295823689231625 0.20773472860766873 7.094094661336801 0 0 0
442 148 2 -1.1794 -7.38488006308005 2.6134847822337406 9.756989851992323 0 0 0
330 110 1 0.5897 -3.218105795112896 -0.20494674511382804 6.781963475672354 0 0 0
444 148 1 0.5897 -6.488772952046407 2.2773774178519 9.741222344136876 0 0 0
339 113 1 0.5897 -5.5764645276678495 0.44894453468747386 6.554721100765742 0 0 0
454 152 2 -1.1794 -4.871012915264415 1.3735159410267421 9.335460536794924 0 0 0
338 113 1 0.5897 -6.07364253553729 0.44780400110774465 7.984589483148206 0 0 0
405 135 1 0.5897 -5.04160387892155 -2.3078049484364334 6.5732836806969095 1 0 0
456 152 1 0.5897 -4.385325958467277 0.8584740471910166 9.979664964231391 0 0 0
328 110 2 -1.1794 -2.764521120424244 -0.8235606429601088 7.354474123410722 0 0 0
430 144 2 -1.1794 -12.364757740074431 -2.3715579881634223 8.121288110237876 1 0 0
464 155 1 0.5897 -2.0111926743260042 0.4841909429886986 10.09234754346554 0 0 0
522 174 1 0.5897 -10.138022332612858 2.445133702372887 7.262158351293782 1 0 0
403 135 2 -1.1794 -5.168969482019494 -2.6569025415396466 5.6912104076947125 1 0 0
792 264 1 0.5897 -11.521664248369067 0.5708138180561857 14.704688039357713 0 0 0
434 145 1 0.5897 -6.276101912849455 -0.6914870820976269 11.052445907107296 0 0 0
924 308 1 0.5897 -2.868125957471457 3.5033607850631405 15.522569853071802 0 0 0
770 257 1 0.5897 -11.986567156638735 2.9718557047084797 13.175401986363562 0 0 0
896 299 1 0.5897 -8.40551331264775 2.522055127995788 15.496309945820531 0 0 0
897 299 1 0.5897 -8.070556562233499 2.487179510498322 14.020400286270691 0 0 0
762 254 1 0.5897 -9.573314080673176 2.3713444991779262 11.827406644864206 0 0 0
760 254 2 -1.1794 -9.060536530916185 1.8393383566420596 12.435849291904892 0 0 0
791 264 1 0.5897 -10.689228535423727 -0.589151879474688 14.201300411880245 0 0 0
761 254 1 0.5897 -9.69997083228956 1.5187714316491565 13.071976420337243 0 0 0
837 279 1 0.5897 -11.387780212567662 0.26839331528759836 12.01651136081607 1 0 0
790 264 2 -1.1794 -10.808345054382027 0.35561418448734905 14.103777263583025 0 0 0
826 276 2 -1.1794 -3.093699923575424 0.5108332453253244 14.046685659507974 0 0 0
819 273 1 0.5897 -5.60657294388863 -0.16772433540572962 16.075669266244837 0 0 0
901 301 2 -1.1794 -5.238153149132557 1.656149020000834 15.568087875588304 0 0 0
765 255 1 0.5897 -3.411123774657381 0.46048003411810257 12.28874704277072 0 0 0
784 262 2 -1.1794 -6.5980158276042395 0.5395306295333988 12.56808143095983 0 0 0
865 289 2 -1.1794 -12.952058638418112 1.339906421974188 15.675402112572124 0 0 0
895 299 2 -1.1794 -7.695471491852405 2.69123122109006 14.877029502278747 0 0 0
764 255 1 0.5897 -3.4472087857070903 -0.7808735205059865 11.42293681319665 0 0 0
827 276 1 0.5897 -2.979467622256541 -0.4239040916594572 14.218437004538574 0 0 0
818 273 1 0.5897 -5.886802362400449 -1.3647331079972425 15.192186375959707 0 0 0
769 257 2 -1.1794 -12.568365532511418 2.6533633018912717 12.48529280299702 0 0 0
773 258 1 0.5897 -6.715669600945445 -1.0763632687199713 13.281128875327228 0 0 0
785 262 1 0.5897 -5.874837233557058 1.1606547860728362 12.4811322729274 0 0 0
786 262 1 0.5897 -7.3845613240596375 1.0649181027401369 12.421343176033144 0 0 0
903 301 1 0.5897 -6.07505924501568 1.9859669820854098 15.240961197134236 0 0 0
828 276 1 0.5897 -3.86152420387773 0.7574506207603715 14.562300605880278 0 0 0
836 279 1 0.5897 -11.408499222540406 -0.8775279413174566 11.027432325826037 1 0 0
807 269 1 0.5897 -4.1676542781164665 2.985027241213256 11.948294540275569 0 0 0
772 258 2 -1.1794 -6.462732510521031 -1.9374011785797771 13.61412238680268 0 0 0
888 296 1 0.5897 -10.88497243732586 3.2131055025447264 15.356361219744352 0 0 0
771 257 1 0.5897 -12.08169412679289 2.8006558780598354 11.674312144712399 0 0 0
805 269 2 -1.1794 -4.865886221450947 2.7555569938039444 12.561574252847057 0 0 0
806 269 1 0.5897 -4.5062736298243955 2.96450557768234 13.423640953837472 0 0 0
1101 367 1 0.5897 -10.157999035889679 -1.0658294772223513 16.37906370161147 0 0 0
902 301 1 0.5897 -4.9582403928182925 2.3076808885569644 16.211029070530806 0 0 0
817 273 2 -1.1794 -5.718760720601416 -1.1180185739215212 16.101597247126143 0 0 0
835 279 2 -1.1794 -11.255878147998915 0.06536594090111691 11.090482944443075 1 0 0
763 255 2 -1.1794 -3.377423807497041 0.172691959347528 11.37650472041013 0 0 0
1285 429 2 -1.1794 -4.1974140157573645 1.179165819136605 21.61388691212202 0 0 0
1136 379 1 0.5897 -1.4414231213074178 -0.6431451277511915 17.71763250932046 0 0 0
1137 379 1 0.5897 -2.483312887053035 -0.6743064870032764 16.61980831942992 0 0 0
1205 402 1 0.5897 -12.031798324813764 1.2136872785862138 18.56128891746883 0 0 0
1009 337 2 -1.1794 -11.083301410125097 3.7093520436713217 21.01276018346565 0 -1 0
1260 420 1 0.5897 -9.557639236053566 3.3299947967814294 19.748476710430488 0 0 0
1246 416 2 -1.1794 -6.534710952470837 -0.8820310700971774 20.123770664385162 0 0 0
273 91 1 0.5897 -8.802475483363196 1.820141617521367 21.527993553862878 1 1 -1
1235 412 1 0.5897 -9.735891771800109 -0.33133167771086036 20.183958067295755 0 0 0
1259 420 1 0.5897 -9.071738152716485 1.9791405685108838 19.267840309420713 0 0 0
1206 402 1 0.5897 -11.451916920454035 -0.14622859873893468 18.235275633003944 0 0 0
1099 367 2 -1.1794 -10.147219335797399 -0.5551886217190916 17.188566625158202 0 0 0
1234 412 2 -1.1794 -9.006782572775256 0.24252322451122943 19.94847557519944 0 0 0
1197 399 1 0.5897 -9.527323903770597 2.419858488017878 17.41005722808631 0 0 0
1258 420 2 -1.1794 -9.108156079026159 2.9028302322834314 19.019309098964257 0 0 0
1236 412 1 0.5897 -8.227836627283136 -0.3037983440703478 20.05333818607957 0 0 0
1100 367 1 0.5897 -9.406600801932752 -0.9055756558271817 17.683438496736024 0 0 0
1216 406 2 -1.1794 -12.507783037275289 3.028080965437942 18.021501202786474 0 0 0
1217 406 1 0.5897 -11.950298520608804 3.8038308623734807 17.959980484670638 0 0 0
1253 418 1 0.5897 -3.8760596838950274 3.8324055945615676 17.813603966734853 0 0 0
1251 417 1 0.5897 -11.48458505076015 1.9895235372786466 21.33578948715106 0 0 0
1247 416 1 0.5897 -5.923785210951665 -0.34080318147272237 19.623588591710302 0 0 0
1010 337 1 0.5897 -10.867534553139631 4.205301346726287 21.802474746704135 0 -1 0
1240 414 2 -1.1794 -4.614946344512216 0.7855557922116425 18.898685276958822 0 0 0
1252 418 2 -1.1794 -4.6476614697757395 3.2831082296339584 17.674910229441004 0 0 0
1135 379 2 -1.1794 -2.2056198405360643 -0.17191498922654702 17.385748921508224 0 0 0
1195 399 2 -1.1794 -9.767193449646363 2.130066145784234 16.5299297450779 0 0 0
1045 349 2 -1.1794 -3.5673386857908405 3.8701134122457006 20.968715452721888 0 -1 0
1270 424 2 -1.1794 -1.144623326601426 0.39700400915717715 20.675183036345523 0 0 0
866 289 1 0.5897 -12.747995010288939 1.830560844747053 16.47150608839722 0 0 0
1286 429 1 0.5897 -4.331372322732774 0.9247137060501824 20.700958484826444 0 0 0
1271 424 1 0.5897 -1.7630151345702298 -0.3325632495410389 20.716134778569277 0 0 0
1296 432 1 0.5897 -2.216457954942804 3.3504051543613595 19.812912225051605 0 0 0
1241 414 1 0.5897 -4.580084093659077 1.649502654964417 18.487985952501496 0 0 0
1254 418 1 0.5897 -5.389171259818356 3.877142670901293 17.79117063727646 0 0 0
1242 414 1 0.5897 -3.9614802495610943 0.2690882170700952 18.427028079448554 0 0 0
1272 424 1 0.5897 -0.28547214725377046 -0.0199655079876635 20.610125476031058 0 0 0
1232 411 1 0.5897 -1.9629995526388004 1.6105004912785006 16.891263084325587 0 0 0
1011 337 1 0.5897 -11.896549617765608 4.1030922321006 20.696846492245584 0 -1 0
1250 417 1 0.5897 -11.852356660685736 0.7746295508430947 20.510754170647786 0 0 0
1196 399 1 0.5897 -9.81404587709312 1.1762409643498017 16.59572579139634 0 0 0
1249 417 2 -1.1794 -11.708432839279228 1.0619659226210008 21.412336984068133 0 0 0
1295 432 1 0.5897 -1.4568703182316955 2.044396315608971 19.909250520339135 0 0 0
1287 429 1 0.5897 -3.928330761283659 2.0967873483540345 21.5702751905144 0 0 0
1218 406 1 0.5897 -13.399021939600939 3.3753121910139825 18.058469101851486 0 0 0
1047 349 1 0.5897 -4.446744931044225 4.057038169935142 20.640195283367852 0 -1 0
40 14 2 -1.1794 -15.13288606783339 3.6845321852738753 1.5875941856003253 1 0 0
177 59 1 0.5897 -14.284503285898701 4.3291970709063055 3.067299690367234 1 0 0
56 19 1 0.5897 -12.3914624019148 5.795634299082563 1.3773844029644033 1 0 0
66 22 1 0.5897 -13.545706335131403 2.948582592348963 1.1724899107081102 1 0 0
65 22 1 0.5897 -12.080568582719117 3.2476603168749403 1.408924980058224 1 0 0
64 22 2 -1.1794 -12.680454827481931 2.539256438867179 1.1752380724409899 1 0 0
191 64 1 0.5897 -12.542959843190717 6.580276142280317 3.942298131420278 1 0 0
183 61 1 0.5897 -12.097210279643889 3.8323339395272455 4.29301574005997 1 0 0
175 59 2 -1.1794 -13.736216751973803 4.598094760876366 3.804351103812722 1 0 0
176 59 1 0.5897 -14.327283866551124 4.593556986601856 4.557248229202472 1 0 0
42 14 1 0.5897 -15.563341410941135 4.251619296413626 0.9478280049266098 1 0 0
181 61 2 -1.1794 -11.220464230322651 3.5671996661079817 4.5709043958652185 1 0 0
55 19 2 -1.1794 -13.128013446778642 6.274819007524348 0.9978165407691164 1 0 0
45 15 1 0.5897 -9.510249897959204 2.224062657441772 1.1679883388097505 1 0 0
192 64 1 0.5897 -11.077635301928163 6.915913184601571 3.762639283735281 1 0 0
101 34 1 0.5897 -4.387114988886813 3.220816574967005 1.4307492073618135 1 0 0
202 68 2 -1.1794 -9.510591143857452 6.061686457358112 3.5729281222648592 1 0 0
43 15 2 -1.1794 -9.826326641236777 1.811598862060725 0.3641638627269956 1 0 0
108 36 1 0.5897 -9.986552998227767 2.91869172330002 3.4731628369639935 1 0 0
93 31 1 0.5897 -5.71221747936807 5.649439337470396 0.291920144066324 1 0 0
86 29 1 0.5897 -10.599379399498414 4.945116464846004 2.4589348892748455 1 0 0
85 29 2 -1.1794 -10.938752837240092 4.717468919263595 1.5934035276006528 1 0 0
106 36 2 -1.1794 -9.299564512174147 2.4563108852276248 2.9930844638217056 1 0 0
87 29 1 0.5897 -10.262862470510187 5.015613606290286 0.9846503817104332 1 0 0
111 37 1 0.5897 -4.520749891670859 3.9100144517273456 4.668605397656264 0 0 0
190 64 2 -1.1794 -11.936102399798184 7.318924054580965 3.8924655114764346 1 0 0
213 71 1 0.5897 -6.383206445024396 4.678367226097784 3.1769665714916457 1 0 0
100 34 2 -1.1794 -4.947837483082266 2.4502730182095025 1.3402389036237163 1 0 0
102 34 1 0.5897 -5.82335042150594 2.762320542103698 1.5690426903301238 1 0 0
204 68 1 0.5897 -9.170230474659979 5.440041994378687 4.216286021633336 1 0 0
212 71 1 0.5897 -6.746960170971841 4.829465972546634 4.638665196523298 1 0 0
211 71 2 -1.1794 -5.9992853247768085 4.82746157614201 4.04096822439562 1 0 0
76 26 2 -1.1794 -7.330159177872006 3.962911895876534 1.7388615477707996 1 0 0
77 26 1 0.5897 -7.9574966521078245 3.634184981508888 2.382817469941304 1 0 0
78 26 1 0.5897 -7.826811212225726 4.597411682888355 1.2221999073692893 1 0 0
203 68 1 0.5897 -8.762162056018948 6.618389599735831 3.3577598283837444 1 0 0
162 54 1 0.5897 -14.608918809751042 6.966694857954426 2.308832102418863 1 0 0
198 66 1 0.5897 -6.584691925266506 6.945116414981989 2.212166285257186 1 0 0
182 61 1 0.5897 -11.038294045805758 4.108406456034567 5.339076342239875 1 0 0
57 19 1 0.5897 -13.271003577277932 5.860354203687525 0.1469774691111095 1 0 0
167 56 1 0.5897 -16.743086686175726 6.332774389015032 3.3945858235716244 1 0 0
109 37 2 -1.1794 -3.7519301277129786 3.4079989251891085 4.938981117260816 0 0 0
508 170 2 -1.1794 -13.460887838404872 6.5107240589984325 7.317761321222779 1 0 0
644 215 1 0.5897 -12.835682042793255 7.067433108953271 10.060835874719814 1 0 0
643 215 2 -1.1794 -12.10604818938749 7.307768390372928 9.489746203525074 1 0 0
521 174 1 0.5897 -10.879470719289335 3.749340087219476 7.465156283138435 1 0 0
510 170 1 0.5897 -13.844810723994826 7.080523606568178 6.651347599166613 1 0 0