LAMMPS data file via write_data, version 30 Jul 2021, timestep = 5000000

864 atoms
2 atom types
576 bonds
1 bond types
288 angles
1 angle types

0.3151486176155398 17.892423782383638 xlo xhi
1.4627347139097129 22.166443086095143 ylo yhi
0.38448057739272024 21.828715222609084 zlo zhi

Masses

1 1.00794
2 15.9994

Pair Coeffs # lj/cut/tip4p/long/omp

1 0 0
2 0.21084 3.1668

Bond Coeffs # harmonic/omp

1 450 0.9572

Angle Coeffs # harmonic/omp

1 55 104.52

Atoms # full

697 1 2 -1.1794 2.394745849036105 4.627621193151661 3.9752806734914983 -1 4 -4
261 1 1 0.5897 2.5987263386227224 5.578982334731821 1.0269483695028567 2 -2 6
645 1 1 0.5897 2.6280630188616003 2.13178310750025 0.5207899711178949 7 -2 -2
699 1 1 0.5897 2.4805800220317122 4.553303671597235 3.0248021956716933 -1 4 -4
698 1 1 0.5897 2.568976773495681 3.744786910630571 4.301756680164809 -1 4 -4
260 1 1 0.5897 1.888922426870468 4.251607849804277 1.1891244820698001 2 -2 6
259 1 2 -1.1794 1.7348896744328228 5.196328258253806 1.1807294197615605 2 -2 6
643 1 2 -1.1794 2.3636720619780154 2.562825135054003 1.3335536789950329 7 -2 -2
644 1 1 0.5897 1.4778811736678323 2.2400210191642005 1.4992550920499907 7 -2 -2
176 1 1 0.5897 3.341746132754787 6.236325390688201 4.807209901111978 -2 -1 7
631 1 2 -1.1794 4.515006487405167 5.4509694378273155 1.4749984365887032 3 7 5
841 1 2 -1.1794 2.9252026389486714 2.1613645671107258 5.220597201020052 -3 1 2
378 1 1 0.5897 0.7733163543272907 4.902705368241888 4.762167689048738 2 3 4
320 1 1 0.5897 3.9411337808279114 2.708511982310025 2.571298075820719 2 1 2
632 1 1 0.5897 4.682815222689671 4.821418748797461 0.7737120240424391 3 7 5
455 1 1 0.5897 1.8042763692835313 6.589358038274404 2.343863321259975 2 1 1
842 1 1 0.5897 2.4178008786737695 1.4988338117810542 4.751664212674915 -3 1 2
269 1 1 0.5897 0.43470492146475326 2.949137226625073 7.763099508946066 3 7 7
843 1 1 0.5897 2.3421730590682603 2.460862092576762 5.918208587995292 -3 1 2
279 1 1 0.5897 3.5714543985085863 4.342575296297348 9.407161807152965 1 0 2
474 1 1 0.5897 4.49558019255408 1.850458925977719 7.740912035961435 -1 1 -5
278 1 1 0.5897 3.972552026834618 3.933232794293322 8.005863201170065 1 0 2
270 1 1 0.5897 1.8753875463017675 3.2637278059952304 8.1059112970214 3 7 7
268 1 2 -1.1794 1.2763965892447589 3.1713132251267737 7.364985083826492 3 7 7
118 1 2 -1.1794 2.786096267555645 5.8604609143504085 10.019150646951331 1 -4 -3
277 1 2 -1.1794 3.6825685762416103 3.5757109268666185 8.84514380544697 1 0 2
119 1 1 0.5897 2.1594975401578713 5.916281895705185 9.297660654332713 1 -4 -3
46 1 2 -1.1794 0.7235103495432612 5.92026665384843 8.276305200703662 3 -1 -1
629 1 1 0.5897 3.4476861491801887 2.384462472895496 10.016778909442541 -3 -4 4
48 1 1 0.5897 0.9060447348762092 5.250195720032079 7.617489112890307 3 -1 -1
628 1 2 -1.1794 3.5588452460968285 1.6937252164097854 10.670097118742031 -3 -4 4
473 1 1 0.5897 4.188747243158074 1.604808040526855 6.278873635458243 -1 1 -5
701 1 1 0.5897 2.059686813326188 3.0060277055132527 12.717736324482033 6 1 1
702 1 1 0.5897 2.5989498489293923 1.776176088264299 13.416830140008443 6 1 1
700 1 2 -1.1794 2.4729758782277687 2.718100982947888 13.531743507059717 6 1 1
486 1 1 0.5897 4.0872273484936965 3.5160628232685314 13.800915337770833 -1 1 0
710 1 1 0.5897 1.5452677276716509 3.119471919824316 15.005342364007664 -5 -1 -2
81 1 1 0.5897 0.9031098271439154 4.4661361431364455 12.310863574555365 0 2 -5
80 1 1 0.5897 1.7514964399915585 4.826880835281693 11.109967412389603 0 2 -5
79 1 2 -1.1794 1.2058961364167624 4.126843545158878 11.468552857272064 0 2 -5
709 1 2 -1.1794 1.121199816086615 2.831271596638724 15.813681220012333 -5 -1 -2
257 1 1 0.5897 3.1238953491332198 6.364693249345017 14.323455977010493 2 -3 2
256 1 2 -1.1794 2.2319516524716443 6.3137069700872885 14.667143222337588 2 -3 2
593 1 1 0.5897 0.43939857117647124 5.62690648935548 14.294591551116332 -1 -2 -2
258 1 1 0.5897 2.342860942999815 6.270051477889947 15.616922587968299 2 -3 2
711 1 1 0.5897 0.706833546724841 3.620757581424107 16.161981178170322 -5 -1 -2
848 1 1 0.5897 2.1015349151138363 5.812759691743645 20.236171175103138 2 -2 5
360 1 1 0.5897 3.008050391781065 3.841887736822345 18.466707102938628 2 -2 -2
849 1 1 0.5897 1.375469157709065 4.7345336846713355 19.460081042514673 2 -2 5
847 1 2 -1.1794 2.160981096635873 5.281293883467829 19.44224682908186 2 -2 5
359 1 1 0.5897 2.4987512590638747 3.1099193106484 17.243201776600344 2 -2 -2
358 1 2 -1.1794 2.9384099732621674 2.9682932309409837 18.08163978444624 2 -2 -2
498 1 1 0.5897 3.131584892317696 1.777390025149126 19.5300043601832 1 -1 2
50 1 1 0.5897 4.036436968990276 5.415046341578359 17.436884911247795 8 -3 -1
496 1 2 -1.1794 3.462163593943678 1.5463560053819985 20.398139479016947 1 -1 3
51 1 1 0.5897 2.6566589522673523 5.93634806719973 17.778535366486487 8 -3 -1
227 1 1 0.5897 4.63150110951906 2.9906625437723076 16.7642259168276 4 -3 -2
49 1 2 -1.1794 3.352731628087858 6.008277382871728 17.12534181126776 8 -3 -1
288 1 1 0.5897 4.591673712875997 2.836920214281248 21.054135927652347 2 2 1
604 1 2 -1.1794 0.7051081050200744 11.10401392808132 1.0166881291873828 -6 3 0
454 1 2 -1.1794 2.071136046383483 7.491020280610669 2.5230325869664845 2 1 1
456 1 1 0.5897 2.578551963703048 7.434719721252664 3.3327517907416246 2 1 1
465 1 1 0.5897 3.8550070723698404 10.471719713859347 0.9296366587179615 3 3 -1
177 1 1 0.5897 2.8085473038433255 7.489002373616926 5.469438364785258 -2 -1 7
606 1 1 0.5897 0.38868669551696866 10.354892973804033 1.5216755314081598 -6 3 0
449 1 1 0.5897 0.931309465284216 9.97633171117086 4.0922801912421285 4 0 -3
450 1 1 0.5897 0.9204247462859737 8.898970887202328 3.028614904590604 4 0 -3
448 1 2 -1.1794 0.37346794146653506 9.57769086270111 3.424260061731676 4 0 -3
215 1 1 0.5897 3.3887833272046692 11.057882111859662 4.731303805608769 0 2 3
216 1 1 0.5897 3.9745342081960082 10.953421165942586 3.3391660111781616 0 2 3
214 1 2 -1.1794 4.206954999658221 11.158786512304543 4.244759096292473 0 2 3
755 1 1 0.5897 2.6927660671817235 7.849662653311376 0.8698542497303644 -5 -2 -4
451 1 2 -1.1794 1.3676079489150552 11.274965849485374 5.185086465467826 0 -1 5
175 1 2 -1.1794 3.5176507316813623 7.171605429260348 4.910227866929091 -2 -1 7
463 1 2 -1.1794 3.460712475782096 10.887361357927881 1.6964961094625297 3 3 -1
464 1 1 0.5897 2.5339021022942156 10.973244823847162 1.4730009920344738 3 3 -1
453 1 1 0.5897 0.9362047193592561 11.78998291065264 4.503195679190976 0 -1 5
54 1 1 0.5897 3.389947419552396 10.906271731896805 8.428070879736284 -5 -2 7
53 1 1 0.5897 4.323735750745822 9.98240939476027 7.675365936393549 -5 -2 7
230 1 1 0.5897 3.9293423532924066 9.132298711636638 9.555340731115953 1 3 3
515 1 1 0.5897 2.0722868499886538 8.86553904202703 7.14071526476597 -3 -3 0
120 1 1 0.5897 3.2663693564307987 6.687763974923823 9.984448397598815 1 -4 -3
52 1 2 -1.1794 3.436712990458554 10.036484660328213 8.031113604871852 -5 -2 7
229 1 2 -1.1794 4.129245547032815 8.460043636247125 10.206818357180145 1 3 3
435 1 1 0.5897 1.1729686958522234 8.135147480343633 9.724383188358637 1 3 -1
516 1 1 0.5897 0.6796186290452289 8.45571606364172 6.711105309874571 -3 -3 0
514 1 2 -1.1794 1.5745279330511828 8.125824700026586 6.792363545804649 -3 -3 0
47 1 1 0.5897 1.1203644316377837 6.717136311953659 7.9244116570389425 3 -1 -1
145 1 2 -1.1794 1.9778767293210293 8.950815597821837 14.297635911276505 2 3 -5
146 1 1 0.5897 1.8789287105440489 8.015798338485322 14.47726773153 2 3 -5
147 1 1 0.5897 2.337741315578904 9.313866311920014 15.106996677924455 2 3 -5
680 1 1 0.5897 3.1783390780477214 9.711892411673004 11.535242396297676 -7 -5 -1
681 1 1 0.5897 2.302043408851757 9.819105677418543 12.765143484201795 -7 -5 -1
705 1 1 0.5897 4.4734029429604 10.89080988139722 15.824024618673166 3 -3 -2
679 1 2 -1.1794 2.6210854623856585 10.323422954445725 12.016691413172516 -7 -5 -1
333 1 1 0.5897 0.3548721215355286 9.060066023857841 15.345083356931015 -1 -1 -4
599 1 1 0.5897 3.452572911883931 11.725960776705264 13.034065824720935 0 -3 -3
761 1 1 0.5897 0.3538019808570698 7.633865062928771 19.222524595693685 0 -3 2
754 1 2 -1.1794 2.8136089398724375 7.746513780437353 21.37012023371441 -5 -2 -5
437 1 1 0.5897 3.633840426738409 7.698870787367567 18.18569691069736 -3 4 -1
438 1 1 0.5897 3.604108973890637 7.94631061362141 19.678990395801918 -3 4 -1
817 1 2 -1.1794 3.1417992817949876 11.216676603946004 19.621829717820923 1 -1 -1
717 1 1 0.5897 3.39378247724747 9.605275254480377 17.605736736362623 4 -4 -4
818 1 1 0.5897 3.489115746128191 10.32510102408306 19.64925204229396 1 -1 -1
436 1 2 -1.1794 3.8921271856709505 8.33481142138843 18.852909196848458 -3 4 -1
716 1 1 0.5897 2.3743317143698435 10.612896204018586 17.11843654177092 4 -4 -4
715 1 2 -1.1794 3.141951405018692 10.11559728959742 16.836026606269463 4 -4 -4
756 1 1 0.5897 2.0083378769368228 8.093127002118853 20.9857942184942 -5 -2 -5
823 1 2 -1.1794 0.6717227106873705 11.50823017487453 16.89665538132372 0 3 3
819 1 1 0.5897 2.193620635453202 11.102956093072665 19.556096756414952 1 -2 -1
760 1 2 -1.1794 0.32686952820348064 7.929428228019195 20.13258459141973 0 -3 2
787 1 2 -1.1794 4.253732154994682 15.381473971545915 4.196313834192825 1 -2 5
595 1 2 -1.1794 2.2673706680495123 14.071365244879727 2.2876369358467015 0 -4 1
597 1 1 0.5897 3.055267030501868 13.772704500369246 2.741847377095538 0 -4 1
829 1 2 -1.1794 2.2031821364201423 16.925098722055267 1.773418054681335 3 2 4
830 1 1 0.5897 2.1743431796669817 15.96830763710485 1.768117949875243 3 2 4
789 1 1 0.5897 4.568537385294183 14.954192663805676 4.992940440020222 1 -2 5
423 1 1 0.5897 0.926251084094302 13.386295566898516 3.131982509457599 -4 2 7
788 1 1 0.5897 3.6639754793971386 16.067559827571873 4.5089853484832485 1 -2 5
273 1 1 0.5897 4.418070220175698 12.648643695657741 5.731627588620633 0 4 5
596 1 1 0.5897 2.33335386827444 13.685894861665009 1.4139395390051681 1 -4 1
403 1 2 -1.1794 1.2695219521345862 13.077008304849672 7.3811945816171605 6 -2 1
329 1 1 0.5897 2.175042131442819 16.278533870655487 8.656953019688393 3 4 0
532 1 2 -1.1794 4.2649709203865305 15.189015161421572 9.877229643251797 -8 -2 -3
64 1 2 -1.1794 2.7816143777994053 12.118609933604663 9.58590146864624 6 0 -5
247 1 2 -1.1794 2.547692584722074 15.442510178514867 7.08808589116874 -1 -2 -5
66 1 1 0.5897 3.7027163177833526 12.347978470895798 9.709408652159587 6 0 -5
405 1 1 0.5897 1.7792456744511693 12.69369605594397 8.09503752545457 6 -2 1
328 1 2 -1.1794 1.796353310309529 16.921912689986332 9.256090413801084 3 4 0
248 1 1 0.5897 3.454921701697328 15.178089741162522 6.935431231927716 -1 -2 -5
404 1 1 0.5897 1.71527617006553 13.900696767640632 7.183349406812133 6 -2 1
249 1 1 0.5897 2.349624224095941 16.045442942987442 6.3714780267383 -1 -2 -5
533 1 1 0.5897 4.1749893041841695 16.031301537190956 9.43141131649412 -8 -2 -3
452 1 1 0.5897 1.3338496584477815 11.831137794001075 5.963438626713369 0 -1 5
330 1 1 0.5897 0.8709105393279678 16.959501195620486 9.014280536091121 3 4 0
65 1 1 0.5897 2.474503731507079 11.879410883884105 10.460424530840953 6 0 -5
476 1 1 0.5897 1.7073715254683997 15.57917215661127 10.67344456317659 4 -1 0
428 1 1 0.5897 2.3284771025960898 14.833592896500473 13.25613384999246 0 -1 -2
598 1 2 -1.1794 3.956568044354376 12.434597223570595 13.434205343242766 0 -3 -3
721 1 2 -1.1794 0.3172840798185277 13.04672435231081 11.139219119725633 0 1 0
548 1 1 0.5897 3.5448326951994233 15.312330633767438 15.473954802979202 4 0 6
427 1 2 -1.1794 2.5781615129086988 14.481075367245229 14.110346510248167 0 -1 -2
429 1 1 0.5897 3.1983318647525487 13.780309240058228 13.908814060189352 0 -1 -2
417 1 1 0.5897 0.6270960533721983 14.21565234011476 14.866197757762817 0 -3 -2
600 1 1 0.5897 4.567755025524348 11.991680089192528 14.022910517152415 0 -3 -3
475 1 2 -1.1794 1.9873058930591971 15.113725391413983 11.46167141670117 4 -1 0
547 1 2 -1.1794 3.9627890397542216 15.306580446550162 16.335107666408774 4 0 6
111 1 1 0.5897 0.998054078968323 16.837541463379438 13.454302555791388 1 -2 -8
723 1 1 0.5897 0.942434534771712 13.75953029365991 11.27109792665094 0 1 0
469 1 2 -1.1794 1.149117683835056 16.602684275672004 16.450935651958837 0 -4 4
477 1 1 0.5897 2.876552226418494 14.81975913399252 11.26376741221935 4 -1 0
813 1 1 0.5897 2.2441027004110854 14.321418609023597 19.564696335919017 -2 4 -4
425 1 1 0.5897 3.0579137241333205 12.6469202821745 20.62327817322207 7 -4 0
424 1 2 -1.1794 3.112730451656866 13.41896924475013 21.18651968986549 7 -4 0
426 1 1 0.5897 4.034879308581505 13.46699390768827 21.438849489839598 7 -5 0
845 1 1 0.5897 4.684611363294682 16.447502298711782 17.925835352622514 0 1 4
812 1 1 0.5897 1.7267513808660995 15.70609352408453 19.237501811238985 -2 4 -4
308 1 1 0.5897 4.240819678503631 12.484292322425341 18.05717330402318 4 5 -2
549 1 1 0.5897 3.8336372643865064 14.414968830120534 16.65860883670375 4 0 6
811 1 2 -1.1794 1.9428076882835499 14.864345633829517 18.836170382389852 -2 4 -4
537 1 1 0.5897 0.5188500421797112 13.90486988970285 18.737339058513015 6 6 3
470 1 1 0.5897 1.741825633891533 15.971868127235044 16.85967082129789 0 -4 4
825 1 1 0.5897 0.676276609878876 12.368508249459067 16.476871323326776 0 3 3
211 1 2 -1.1794 0.9141219761779737 20.219545806047734 1.348863792570062 4 1 2
364 1 2 -1.1794 4.101223677005456 19.470362632298567 3.6257604979108953 4 4 4
831 1 1 0.5897 2.433264756717896 17.15325368974451 2.674146843222695 3 2 4
529 1 2 -1.1794 2.464184785722509 17.304188213067462 4.7457646074515205 -3 -1 -5
726 1 1 0.5897 0.544809660377845 20.744555141442916 4.605335351296317 3 -2 3
365 1 1 0.5897 3.980733939625739 19.79595908243907 2.7336997485164023 4 4 4
531 1 1 0.5897 2.591023421875955 17.977200089257074 5.414543893756714 -3 -1 -5
212 1 1 0.5897 1.833541168742746 20.350372535056678 1.1168021944325996 4 1 2
366 1 1 0.5897 3.242996322022954 19.57372460248631 4.036934229353331 4 4 4
334 1 2 -1.1794 4.0448915508214665 20.085499271337888 0.9105943425282542 4 1 3
725 1 1 0.5897 1.2474563528269784 20.762366655060916 3.264438672483014 3 -2 3
724 1 2 -1.1794 1.4109130662684013 20.675520251878226 4.203608064289015 3 -2 3
213 1 1 0.5897 0.4392492287418306 20.859024082438744 0.8179308781355925 4 1 2
530 1 1 0.5897 1.5146280208085154 17.248500250969492 4.638397466774533 -3 -1 -5
855 1 1 0.5897 3.608569936850435 17.221559638329794 0.5591983924909059 -1 0 -1
637 1 2 -1.1794 1.2111209375945413 21.012755493531266 9.796991354199186 -6 -1 7
472 1 2 -1.1794 4.68048704573282 21.95308472671187 7.019246174466229 -1 0 -5
639 1 1 0.5897 0.43709601816149224 21.071890632044713 10.357120477162143 -6 -1 7
232 1 2 -1.1794 3.2216166156946837 19.26985574408382 6.754963401743897 -3 0 0
234 1 1 0.5897 3.9125650767659437 19.921328972036143 6.875251127895234 -3 0 0
94 1 2 -1.1794 2.740126627372527 18.966460318907586 10.901254378478237 -2 0 0
95 1 1 0.5897 2.691445299561274 18.20920734946123 10.317743450116525 -1 0 0
96 1 1 0.5897 2.0643080471730784 19.56234453053719 10.578026590349124 -2 0 0
638 1 1 0.5897 0.8616446873063432 20.993925721032902 8.906013684489716 -6 -1 7
233 1 1 0.5897 2.432589387988261 19.69109466463852 7.095976566066768 -3 0 0
630 1 1 0.5897 2.8008640595221075 21.82603255529404 10.546546195641548 -3 -5 4
209 1 1 0.5897 4.382644887220686 19.58292931999572 10.160383866209955 3 -3 1
693 1 1 0.5897 4.350683042135918 17.656732993696885 7.353867958071485 2 0 2
776 1 1 0.5897 3.1681548537163637 17.898533354266675 13.72987277594574 7 -5 -1
777 1 1 0.5897 2.3416701810991993 18.259790325887913 12.513943416339126 7 -5 -1
775 1 2 -1.1794 2.292180911253915 18.180784222913466 13.466634431469727 7 -5 -1
202 1 2 -1.1794 0.7104192385784946 20.469665961468635 15.724345896212093 -5 -1 2
462 1 1 0.5897 4.105166538337345 20.53866494852811 13.689218726970697 2 3 -1
461 1 1 0.5897 2.7380694532241376 19.889156303324825 13.724571777844472 2 3 -1
203 1 1 0.5897 1.1210745695270834 21.226971801277692 15.307046094280661 -5 -1 2
460 1 2 -1.1794 3.189911406526139 20.712616986271556 13.909105658773292 2 3 -1
204 1 1 0.5897 1.444044587922986 19.946755363615395 16.047838505283906 -5 -1 2
471 1 1 0.5897 1.6636422076996378 17.40711643083 16.38427766308558 0 -4 4
796 1 2 -1.1794 2.7261099101501935 18.889749547877173 16.762262126072507 2 -4 -2
71 1 1 0.5897 2.9712208968817015 19.842079016163986 19.752553465194573 3 1 -5
797 1 1 0.5897 3.536325337988396 19.366068903947685 16.58067344017355 2 -4 -2
497 1 1 0.5897 4.100839031182811 21.556006753786207 20.234836652961867 1 -2 3
72 1 1 0.5897 2.083960984056311 18.641368787754367 20.00378699223753 3 1 -5
764 1 1 0.5897 0.6786974410953848 20.19846942274203 18.92335809773335 -4 -1 -3
70 1 2 -1.1794 2.1411526572400317 19.445596618983842 19.48780587093563 3 1 -5
798 1 1 0.5897 2.5920048339898787 18.994677473050885 17.70422414001466 2 -4 -2
853 1 2 -1.1794 4.39681929801747 17.440639983217608 21.50649167592306 -1 0 -2
854 1 1 0.5897 4.271259690822616 17.016008544601025 20.65784161742107 -1 0 -2
352 1 2 -1.1794 1.1411839332549942 17.065241345998697 20.722841057712195 2 3 -4
353 1 1 0.5897 1.3886862697353763 17.035147572868738 21.647030416674674 2 3 -4
354 1 1 0.5897 0.34320243257452177 17.593656776410036 20.705177168320134 2 3 -4
335 1 1 0.5897 4.074240287917144 19.29369472921225 21.817701828650435 4 1 2
807 1 1 0.5897 7.068108004682093 6.015058848959229 4.940581538035361 4 -1 -5
291 1 1 0.5897 7.7800198428555785 2.822763759917871 1.6474521696339848 -9 -2 -7
414 1 1 0.5897 6.391895320931348 4.163603961325851 3.8989671249499858 -2 -3 4
319 1 2 -1.1794 4.8056740409549565 2.7028509430971903 2.982203334567637 2 1 2
412 1 2 -1.1794 6.413252425217953 5.0340751710148 3.5013307766187802 -2 -3 4
289 1 2 -1.1794 6.952649684900863 2.459533761283346 1.3315020107392312 -9 -2 -7
290 1 1 0.5897 6.30087880231749 2.7612092216996205 1.9643342851676189 -9 -2 -7
805 1 2 -1.1794 7.029986000523778 6.630567753403641 5.672694702536627 4 -1 -5
413 1 1 0.5897 5.548830583898334 5.137398200530491 3.1033481657880846 -2 -3 4
627 1 1 0.5897 7.8511786493685145 6.051243620871831 2.2771868304230676 -5 -2 1
633 1 1 0.5897 5.080606779703939 6.195421357485754 1.2696029925125853 3 7 5
205 1 2 -1.1794 9.07893375883246 3.927437794030017 4.892389972326744 -4 6 -3
206 1 1 0.5897 8.84631935757675 3.21647254024115 5.489662388825071 -4 6 -3
207 1 1 0.5897 9.085566324809605 3.520537478697555 4.0259754597813115 -4 6 -3
321 1 1 0.5897 4.790521739469116 1.9418673916189984 3.562691269104317 2 1 2
669 1 1 0.5897 5.4580735254670065 5.287324984926844 6.130120652649929 -8 -6 -1
667 1 2 -1.1794 5.125484523787913 4.487656389758735 6.537798946737638 -8 -6 -1
802 1 2 -1.1794 7.217923725023002 3.5190872734198733 8.33538895796584 1 1 -3
804 1 1 0.5897 8.142130074342678 3.5620150044822867 8.08984028982561 1 1 -3
803 1 1 0.5897 7.1047272566371245 2.6375260155324955 8.690825248000984 1 1 -3
126 1 1 0.5897 6.450919127930754 4.659203922925677 10.068867381197464 0 3 4
668 1 1 0.5897 5.908743606967896 4.031589146399709 6.845708458792053 -8 -6 -2
124 1 2 -1.1794 6.115494898217004 4.948126521150532 10.91758988977401 0 3 4
41 1 1 0.5897 6.55535335098907 6.623980791260301 10.553164094010402 -1 1 4
542 1 1 0.5897 6.921337174292374 1.5089774186465235 10.701871446079991 -6 2 1
581 1 1 0.5897 5.0672367895254276 1.93635556570755 11.854181406731584 -2 -3 0
485 1 1 0.5897 5.504845397216258 3.3745671854088326 13.288686111030835 -1 1 0
580 1 2 -1.1794 5.948581129892155 1.995561125372519 12.223007827179885 -2 -3 0
107 1 1 0.5897 4.969027344846825 5.7598623192360305 13.505168550151568 -4 2 2
821 1 1 0.5897 8.669556169643585 1.8624627194886096 12.767845859764254 5 2 4
718 1 2 -1.1794 8.724272369818177 3.675621453403461 12.861448575870247 5 4 0
228 1 1 0.5897 5.356296367799668 3.4805046657517558 15.528607631295621 4 -3 -2
125 1 1 0.5897 6.4771355066367855 4.321577874730946 11.544451504442666 0 3 4
484 1 2 -1.1794 4.954244729947933 3.918518528641525 13.851935329369242 -1 1 0
75 1 1 0.5897 6.612994855798353 1.4960580021354397 15.702224978029502 4 -3 2
226 1 2 -1.1794 5.498947669655835 3.0307522900910397 16.36146870932324 4 -3 -2
618 1 1 0.5897 6.030377644819191 4.052673767303527 18.186363313506682 -3 4 0
545 1 1 0.5897 8.763513158663063 5.080217611529488 17.012361900532916 -2 4 3
287 1 1 0.5897 5.903510136249355 3.378810192296653 21.580898533095784 2 2 1
617 1 1 0.5897 5.346345802376446 4.343559933836289 19.505269939599245 -3 4 0
616 1 2 -1.1794 5.5347787908599 4.728270195034664 18.649233656664926 -3 4 0
347 1 1 0.5897 6.156032899209981 6.245977916527576 19.154975840258047 -6 3 -2
286 1 2 -1.1794 5.157419156364832 3.608609861278184 21.026977527904535 2 2 1
29 1 1 0.5897 7.1815981332409695 10.411279471894682 1.652209944945077 -6 -1 6
157 1 2 -1.1794 5.738407888726684 8.607937321493297 4.184664472462868 1 1 -2
159 1 1 0.5897 5.0613547466619355 8.019537475421263 4.518841150477561 1 1 -2
766 1 2 -1.1794 7.843809058475613 10.388042205568391 5.051984042704063 3 0 3
447 1 1 0.5897 5.848331374517493 7.917253374359771 2.207680349600688 3 1 0
30 1 1 0.5897 7.6501123595199445 10.296459144148232 3.087272862028555 -6 -1 6
28 1 2 -1.1794 7.93701471794326 10.573896586222531 2.217199436702872 -6 -1 6
445 1 2 -1.1794 6.068197182268143 7.561194397531054 1.3467627371264395 2 1 0
446 1 1 0.5897 6.954009785990096 7.21339130588158 1.449984585716306 2 1 0
768 1 1 0.5897 8.612735826854705 10.825022983310719 5.418171454162924 3 0 3
625 1 2 -1.1794 8.559555550632629 6.694622935340121 2.2536042178148654 -5 -2 1
806 1 1 0.5897 6.986980618550912 7.492863156036505 5.259263141333946 4 -1 -5
158 1 1 0.5897 5.554799344189105 9.448232148483111 4.604761775155916 1 1 -2
317 1 1 0.5897 9.014231933741298 9.074936337275405 4.4291959317107725 -5 -3 1
560 1 1 0.5897 5.932105849088652 9.22039262300843 0.5749551648081779 4 4 1
559 1 2 -1.1794 5.9007917179022815 10.158222006796047 0.3857975991596489 4 4 1
40 1 2 -1.1794 6.728796493016938 7.562999429277083 10.486407383997038 -1 1 4
343 1 2 -1.1794 6.02108356438785 11.57449772360247 10.954819216361033 -4 -1 -2
19 1 2 -1.1794 6.036831528336239 10.15978219710261 7.094131975024182 -5 -3 0
20 1 1 0.5897 6.556204351714709 9.39788577609946 7.3511527767216345 -5 -3 -1
42 1 1 0.5897 7.4237188053163 7.632756127491783 9.831796765150765 -1 1 4
11 1 1 0.5897 9.007270045218782 7.9994222023641965 7.798329813097701 -3 1 5
21 1 1 0.5897 6.477107047535414 10.9014711118421 7.509293772458287 -5 -3 0
10 1 2 -1.1794 8.06540896399611 7.856499191377041 7.891900612736369 -3 1 5
12 1 1 0.5897 7.837981638397161 7.273609235298049 7.167463153520209 -3 1 5
809 1 1 0.5897 8.745521362398057 10.809747346942308 8.374130335157357 5 -1 -2
231 1 1 0.5897 5.0843080119161375 8.395892894534448 10.20015690244983 1 3 3
345 1 1 0.5897 6.782469781705418 11.239208910246703 10.481305999105832 -4 -1 -2
808 1 2 -1.1794 8.209481178035212 10.705950297860618 9.160372291375035 5 -1 -2
810 1 1 0.5897 8.790177927177544 10.282315173347174 9.792530199051367 5 -1 -2
767 1 1 0.5897 7.256227979580136 10.270663836405534 5.798486571701716 3 0 3
295 1 2 -1.1794 7.618402423284359 11.439544496402418 13.15320845580165 0 1 -1
293 1 1 0.5897 7.0029818629899445 8.708763259353237 13.65462734037047 -1 -1 2
297 1 1 0.5897 7.522313843315133 10.487439392600939 13.17677857267198 0 1 -1
703 1 2 -1.1794 5.218853167479714 10.90394404448765 15.223660168581379 3 -3 -2
325 1 2 -1.1794 7.741151085537706 11.563756579314063 16.063251662732895 -2 0 -4
292 1 2 -1.1794 7.533046855089701 8.825583736643422 12.866158155076157 -1 -1 2
294 1 1 0.5897 6.968048551834972 8.531880621487701 12.151412409183049 -1 -1 2
196 1 2 -1.1794 6.122863500425441 8.453688087880185 15.209085835247514 -3 -1 -1
704 1 1 0.5897 5.529373164189502 9.998636405424799 15.206749198256219 3 -3 -2
198 1 1 0.5897 5.68233893755393 7.805772335046684 14.659142943606215 -3 -1 -1
197 1 1 0.5897 6.676069956009469 7.9357565900307065 15.79390427417226 -3 -1 -1
504 1 1 0.5897 8.714752687564932 7.457460243863933 13.649954960197238 -2 -2 1
56 1 1 0.5897 8.904061012975452 9.02678806595822 11.422412816470779 -1 0 0
327 1 1 0.5897 6.789595957095021 11.656119797728559 16.01524222059996 -2 0 -4
608 1 1 0.5897 9.022308652937996 10.306506489572508 15.820713583810171 7 2 2
296 1 1 0.5897 7.373683415541641 11.72730750370653 14.032761951964394 0 1 -1
344 1 1 0.5897 6.265575094410697 11.51072710635282 11.878134029864645 -4 -1 -2
106 1 2 -1.1794 4.751853760281023 6.691297757679902 13.544760203106508 -4 2 2
108 1 1 0.5897 4.724691369028127 6.970507693156415 12.629561782846457 -4 2 2
36 1 1 0.5897 8.800419579590073 9.213339740970296 18.763266369217334 -5 4 -1
772 1 2 -1.1794 7.896610099295823 6.818844413523278 17.050519201714245 2 -1 4
561 1 1 0.5897 6.37623873135661 10.25256687796022 21.00458373856349 4 4 0
251 1 1 0.5897 7.940311168189329 11.132705860863163 19.31861636004139 4 -2 0
346 1 2 -1.1794 6.579002447620352 7.061247298396057 19.42465958715895 -6 3 -2
250 1 2 -1.1794 7.140128403625376 10.624781529497938 19.184332962746502 4 -2 0
773 1 1 0.5897 8.556792765631755 7.5109684821101546 17.088437242278452 2 -1 4
348 1 1 0.5897 5.887455566955415 7.720668135195325 19.36772164431347 -6 3 -2
252 1 1 0.5897 6.737428558052962 11.012325243460765 18.40719287332758 4 -2 0
774 1 1 0.5897 7.425519201992316 6.890791398060555 17.88070449594389 2 -1 4
218 1 1 0.5897 8.199891409495594 7.047820470079204 20.31985046508929 1 -1 -4
217 1 2 -1.1794 9.079308777733532 6.93435604795606 20.680458707866975 1 -1 -4
588 1 1 0.5897 6.059176181405969 12.91046701652504 3.293428277103872 0 2 4
778 1 2 -1.1794 6.0724217806587255 16.257964049534294 2.0187956268141827 -3 -1 -1
420 1 1 0.5897 5.838026847341044 14.763034009491154 0.8026804960381713 -6 -1 6
780 1 1 0.5897 5.409538838656914 16.694686310198605 1.4838533979421182 -3 -1 -1
368 1 1 0.5897 8.985862032183721 14.816542377081204 4.718178159300008 3 6 0
367 1 2 -1.1794 8.335787969729108 14.267283648733224 5.156423324162096 3 6 0
369 1 1 0.5897 7.8332157442097365 13.874429594193028 4.44271197313756 3 6 -1
586 1 2 -1.1794 6.885966053794963 13.065573959863743 2.8366486485866558 0 2 4
419 1 1 0.5897 6.150987686740862 13.300771051586112 1.0390459181868965 -6 -1 6
587 1 1 0.5897 7.296958694666461 12.202634954732185 2.7846040785451533 0 2 4
779 1 1 0.5897 5.648527159229112 16.12759071006918 2.8670886070280908 -3 -1 -1
648 1 1 0.5897 8.444005326267021 13.810272438277833 1.3156620903141583 -5 -2 1
441 1 1 0.5897 7.52383326773555 16.573893403510596 0.695415836178884 0 0 -3
828 1 1 0.5897 6.547590390435849 16.77377210393522 5.737843102869962 1 1 1
856 1 2 -1.1794 7.06706355467038 13.01016035250844 7.529822869953027 1 -1 -5
858 1 1 0.5897 6.924276516505361 13.59399460225963 8.2748497500922 1 -1 -5
223 1 2 -1.1794 7.031296797118896 14.958247225754748 9.623422747213743 3 0 -7
225 1 1 0.5897 7.558992446408705 14.528186663073175 10.296385185225999 3 0 -7
857 1 1 0.5897 7.6183433898434325 13.514755029325123 6.93168784588558 1 -1 -5
224 1 1 0.5897 6.9244869277301095 15.855569749646797 9.939228058596166 3 0 -7
534 1 1 0.5897 5.209434178756128 15.038462454087842 9.917484621967303 -8 -2 -3
272 1 1 0.5897 5.5321101483509425 13.25835055949973 6.555780189920391 0 4 5
827 1 1 0.5897 7.327575337302644 15.483245873769972 5.8728457402237835 1 1 1
77 1 1 0.5897 8.732439243512658 15.55759420811022 8.980257228987945 -6 -4 -5
826 1 2 -1.1794 6.972407437339913 16.210148431461306 6.384484540857595 1 1 1
271 1 2 -1.1794 4.750078720801644 13.486856651848194 6.053274654933649 0 4 5
692 1 1 0.5897 5.466553771395821 16.633961040352716 7.383766393236604 2 0 2
374 1 1 0.5897 5.460938449669937 13.991253774234076 12.499371320710926 5 2 0
373 1 2 -1.1794 6.017016549810474 14.74273933409321 12.70518564194847 5 2 0
67 1 2 -1.1794 6.524913698998947 14.399060519310424 15.35140494811176 3 -4 -3
375 1 1 0.5897 6.87472396933566 14.511438726677847 12.34853496825883 5 2 0
68 1 1 0.5897 6.330956789122958 14.416765212530542 14.414185682001456 3 -4 -3
69 1 1 0.5897 5.676577563252924 14.531501239285666 15.774575695349785 3 -4 -3
194 1 1 0.5897 6.480320491319309 16.23379705114473 15.526953779285847 0 -4 2
443 1 1 0.5897 5.312446362380085 16.61116142078903 12.851821598944754 5 5 -3
511 1 2 -1.1794 8.704963010581816 14.238779383769355 11.841681609152388 2 0 -6
326 1 1 0.5897 8.078072293334357 12.431662645666465 15.840646684376775 -2 0 -4
513 1 1 0.5897 9.04379359160118 13.42212066687731 11.47486146307587 2 0 -6
45 1 1 0.5897 7.503099344056037 14.56088842778402 18.911589818038216 0 5 -2
190 1 2 -1.1794 8.855806614184422 15.380648754584529 17.907695327499574 6 5 -4
844 1 2 -1.1794 5.017931052751079 16.562780954198132 18.81572512282679 0 1 4
439 1 2 -1.1794 8.196451138941278 16.61858491582478 21.46003371922464 0 0 -4
44 1 1 0.5897 6.572947765894177 14.172001769930569 20.041037435648462 0 5 -2
191 1 1 0.5897 8.29443315596021 16.15385687373973 17.850113375684813 6 5 -4
43 1 2 -1.1794 6.576361748967945 14.454814962388394 19.126546010094536 0 5 -2
309 1 1 0.5897 5.589379007803992 13.148711278919187 17.878379570977224 4 5 -2
846 1 1 0.5897 5.4946107990817366 15.753430166597 19.00017134139462 0 1 4
307 1 2 -1.1794 4.79115250809583 12.916336373324064 17.40390184074134 4 5 -2
440 1 1 0.5897 8.481520948607537 15.712117851329314 21.34452611854703 0 0 -4
418 1 2 -1.1794 5.936426076474769 13.926776230407073 21.791641123648528 -6 -1 5
304 1 2 -1.1794 6.835051359309906 20.48104139160948 0.941127341201544 4 -1 -4
576 1 1 0.5897 6.906993231090619 18.173913353447546 3.967700288220208 5 -1 3
305 1 1 0.5897 6.844220842865737 21.418550303245055 1.1342177949133343 4 -1 -4
575 1 1 0.5897 5.5466387817544796 18.72013468596429 4.346070823900476 5 -1 3
574 1 2 -1.1794 6.303557347551391 18.257740463675397 4.70604398767784 5 -1 3
172 1 2 -1.1794 8.782069387926926 18.442973338975662 3.247073507529308 0 -1 -1
336 1 1 0.5897 4.962627849139943 20.333166830103906 1.0233217797437222 4 1 3
174 1 1 0.5897 8.910258217087112 18.74152940120495 2.3466698103361074 0 -1 -1
133 1 2 -1.1794 7.060055072376406 17.628800133815197 10.267120668459745 -2 -5 -2