LAMMPS data file via write_data, version 30 Jul 2021, timestep = 2500000

864 atoms
2 atom types
576 bonds
1 bond types
288 angles
1 angle types

0.0457066325198614 18.16186576748246 xlo xhi
0.02061197378872137 23.608565826213272 ylo yhi
0.08467470351165574 22.128521096486818 zlo zhi

Masses

1 1.00794
2 15.9994

Atoms # full

707 1 1 0.5897 3.47986736011159 1.6043026075793771 3.4439856782570426 0 0 0
706 1 2 -1.1794 3.2295067815261387 1.3940003685198317 2.5443765585384814 0 0 0
30 1 1 0.5897 5.30861534509862 3.860355765348495 2.0457070534974546 0 0 0
708 1 1 0.5897 2.394968111136271 1.844798106728838 2.41589852601593 0 0 0
29 1 1 0.5897 4.642216270745856 2.5174133635213853 1.8355583737725834 0 0 0
28 1 2 -1.1794 5.47043237985339 2.979738441064131 1.7073117473625208 0 0 0
846 1 1 0.5897 7.451691551603839 1.751906171718804 5.102014424555374 0 0 0
1 1 2 -1.1794 1.0807049348481712 3.1038860316723413 2.0847857345404246 0 0 0
495 1 1 0.5897 8.536934665371286 2.4436652701467443 3.0322305302748918 0 0 0
494 1 1 0.5897 7.070820233281618 2.406588846567845 2.65706315233437 0 0 0
493 1 2 -1.1794 7.720621238297541 1.9782056960592027 3.214200131097477 0 0 0
3 1 1 0.5897 0.7982551607397925 3.9563209282887195 2.4160967013683883 0 0 0
595 1 2 -1.1794 0.5387779693313683 5.628521413233775 3.2949807536070375 0 0 0
137 1 1 0.5897 5.129751549477746 5.553316485584969 3.608025934748081 0 0 0
685 1 2 -1.1794 5.443902559376094 5.679167189707539 5.487229463232672 0 0 0
819 1 1 0.5897 7.542491141107735 0.03422398451465231 2.9141671677711036 0 0 0
20 1 1 0.5897 0.979914092549582 2.8082951569234913 0.25528260975710804 0 0 0
2 1 1 0.5897 0.33215479390213454 2.5271553381347642 2.237122777332838 0 0 0
136 1 2 -1.1794 5.0896602417552685 5.575670799140231 2.6519215283016213 0 0 0
597 1 1 0.5897 0.6615119538198769 5.690416644755533 4.2422460643988575 0 0 0
488 1 1 0.5897 2.6834827054570107 2.307552343277671 5.385691132063882 0 0 0
487 1 2 -1.1794 3.466466236081291 1.8118615621002696 5.1461708642848425 0 0 0
673 1 2 -1.1794 2.9748711536363017 1.9813132703924081 10.140535357206161 0 0 0
785 1 1 0.5897 1.0246053262708417 3.091297309014104 7.514736022953505 0 0 0
181 1 2 -1.1794 1.157607333060465 5.710653862404632 6.020648763141204 0 0 0
34 1 2 -1.1794 0.6272481010738299 3.3410202765424772 9.247348520528233 0 0 0
356 1 1 0.5897 7.473625722052749 0.34456497067604536 9.832622770709943 0 0 0
183 1 1 0.5897 1.2408024205879928 4.8141785120559035 6.345636532919288 0 0 0
357 1 1 0.5897 7.660136129287006 1.3132347256216377 10.980969905696918 0 0 0
784 1 2 -1.1794 1.1798176284749338 3.125295125401106 6.570826795800471 0 0 0
355 1 2 -1.1794 7.569771339606766 1.2764793701355357 10.028764710392927 0 0 0
84 1 1 0.5897 5.972781856954605 2.615473779076146 6.269506840860831 0 0 0
419 1 1 0.5897 8.981051914300187 2.8318754565955526 6.439426677089909 0 0 0
274 1 2 -1.1794 5.457275300291833 3.2170756510541403 9.353343552999934 0 0 0
678 1 1 0.5897 5.0485394553188225 4.943430865315217 9.870676261335472 0 0 0
675 1 1 0.5897 3.0039952986316685 1.0543589897282055 9.903714736693173 0 0 0
36 1 1 0.5897 1.323580724340383 2.9122069822317496 9.7447693190737 0 0 0
845 1 1 0.5897 7.588835915848178 0.9471062145847081 6.376879788341294 0 0 0
674 1 1 0.5897 3.7806069916785634 2.347535299450401 9.776106603858395 0 0 0
82 1 2 -1.1794 5.214087897769543 3.1192739644056706 6.563980573311616 0 0 0
276 1 1 0.5897 6.07777496977803 2.558005488296382 9.664403939314239 0 0 0
844 1 2 -1.1794 7.469770129018276 1.8406030552258636 6.0549069337970005 0 0 0
275 1 1 0.5897 5.555280579747347 3.208518985657359 8.40122540011939 0 0 0
35 1 1 0.5897 0.7101232651602876 4.268504389962981 9.469012474071148 0 0 0
83 1 1 0.5897 4.473290261209488 2.7320961581042895 6.097651863391513 0 0 0
686 1 1 0.5897 5.503948832311379 4.760240068488199 5.748305179178087 0 0 0
489 1 1 0.5897 3.4158227902257514 1.0140579636612483 5.672637404922825 0 0 0
786 1 1 0.5897 0.4637067452940684 2.616047122208205 6.191357045491409 0 0 0
676 1 2 -1.1794 5.189851194902432 5.724909439651369 10.405009643783934 0 0 0
166 1 2 -1.1794 2.8378093529888746 1.9696064343016415 12.793574335628286 0 0 0
167 1 1 0.5897 3.0199606315433534 2.026769398354942 11.855584305315139 0 0 0
457 1 2 -1.1794 5.349866877851209 3.1476556998523795 13.955953409553556 0 0 0
458 1 1 0.5897 5.996380292687665 2.5208093487311687 13.631554714152127 0 0 0
459 1 1 0.5897 4.508361370702722 2.7070370649318694 13.838258755392904 0 0 0
762 1 1 0.5897 5.531683828459182 4.833306582566838 13.396020020957348 0 0 0
594 1 1 0.5897 7.965231673030373 2.009258199604901 13.083590582650073 0 0 0
168 1 1 0.5897 2.1442663180308688 2.6121418332562403 12.942926141398058 0 0 0
737 1 1 0.5897 2.415018467627956 0.35647115942945845 13.581297201800467 0 1 0
365 1 1 0.5897 0.7993785675421812 4.968601305455288 13.265281377180397 0 0 0
593 1 1 0.5897 7.272477768013156 0.6743928550407786 13.256692106847348 0 0 0
592 1 2 -1.1794 7.1519882428014 1.5467143837066457 12.881546924567166 0 0 0
71 1 1 0.5897 5.876571735106674 2.9530839374478792 15.735590303885509 0 0 0
466 1 2 -1.1794 0.43566308520500246 3.423020143826271 14.175260361745847 0 0 0
468 1 1 0.5897 0.5408529065478556 3.0315701999342086 15.042385721769481 0 0 0
760 1 2 -1.1794 5.529827291835404 5.732294171149204 13.067369562753091 0 0 0
761 1 1 0.5897 5.42135790165375 5.641489014105205 12.120693305056157 0 0 0
364 1 2 -1.1794 1.0122499013588877 5.8228606297954935 12.889644645239864 0 0 0
754 1 2 -1.1794 8.157449547037377 1.46612637812073 17.459111836471955 0 0 0
70 1 2 -1.1794 5.9150032188848165 2.9433568590248824 16.691968970117102 0 0 0
290 1 1 0.5897 3.256550517178724 0.7752688701011123 16.8229143120614 0 0 0
755 1 1 0.5897 8.087744266723588 1.830346904805484 18.341550001193614 0 0 0
648 1 1 0.5897 0.5017413141179741 5.394039281333816 19.83432713211532 0 0 0
19 1 2 -1.1794 0.838871177673625 2.7707440362114952 21.353139772697073 0 0 0
289 1 2 -1.1794 3.4330020545393762 1.657176797828985 17.150461220877943 0 0 0
41 1 1 0.5897 6.7819602929458735 1.9680617185060956 20.412806853964653 0 0 0
143 1 1 0.5897 5.226716564097823 4.9731470680218735 20.596946877594878 0 0 0
569 1 1 0.5897 2.211867092594095 1.9213990752999701 20.023238312754387 0 0 0
72 1 1 0.5897 5.3298446430171875 2.2306170784545007 16.948408440273074 0 0 0
570 1 1 0.5897 3.2840213888307286 1.5548515150205076 19.019313911035123 0 0 0
40 1 2 -1.1794 7.658275311830914 1.6033504361106767 20.28950355913527 0 0 0
669 1 1 0.5897 4.558516408696349 2.754038270042691 20.638895845261903 0 0 0
21 1 1 0.5897 0.7295648977990861 3.6846181235902096 21.090339736696073 0 0 0
42 1 1 0.5897 7.7230173655387055 0.9078176963526515 20.943912355115373 0 0 0
568 1 2 -1.1794 3.1405229570661066 1.7000639395186739 19.954488647533243 0 0 0
667 1 2 -1.1794 5.393650080571023 3.1323323272337222 20.91396038328315 0 0 0
134 1 1 0.5897 0.7359386012145899 3.535372800825862 17.382788146370103 0 0 0
278 1 1 0.5897 5.578627898441791 4.603281151870808 17.13242138691427 0 0 0
571 1 2 -1.1794 0.6117665384305964 5.254861852477535 18.04349418152194 0 0 0
291 1 1 0.5897 2.6515085444238147 2.1595463242006314 16.92016457302565 0 0 0
133 1 2 -1.1794 0.8212877152364652 2.7359314589976345 16.86335905811473 0 0 0
756 1 1 0.5897 7.405136148659144 1.8272529771053054 16.990322275937494 0 0 0
277 1 2 -1.1794 5.428613998120387 5.433824949944318 17.58394425124761 0 0 0
144 1 1 0.5897 5.263587711678581 5.763192161995428 19.30610653189014 0 0 0
646 1 2 -1.1794 0.49694382237111295 5.463845123676501 20.788952131832218 0 0 0
142 1 2 -1.1794 5.1290198579666395 5.859432924415106 20.248884544171577 0 0 0
360 1 1 0.5897 8.996356504448505 2.6319127750341953 20.855129438625774 0 0 0
572 1 1 0.5897 1.5116602467037004 5.5094642850624735 17.839797878269227 0 0 0
668 1 1 0.5897 5.44914795035592 2.9369363995908544 21.84937801930898 0 0 -1
279 1 1 0.5897 4.495822635265341 5.609135378680398 17.460270692559433 0 0 0
81 1 1 0.5897 2.9501420546396546 0.040568177738890654 20.56380431014636 0 1 0
417 1 1 0.5897 8.227281175667237 6.629893724293902 2.2262220860054835 0 0 0
123 1 1 0.5897 2.731038275014759 8.555545964012667 2.926546890836409 0 0 0
121 1 2 -1.1794 2.8231402256403597 9.44461643756026 3.2689805248724264 0 0 0
122 1 1 0.5897 2.9119709011109336 9.329400685262602 4.215046607502209 0 0 0
44 1 1 0.5897 1.4695134702156414 10.534704391403293 2.6465699382776195 0 0 0
218 1 1 0.5897 6.081736926624781 10.61557687006785 2.266050179756623 0 0 0
138 1 1 0.5897 4.217770715153236 5.918700732463015 2.4562696735681517 0 0 0
219 1 1 0.5897 4.614597559880274 10.320225919863885 2.493851968548226 0 0 0
254 1 1 0.5897 2.44481143933273 7.028126385418676 1.3082888416401117 0 0 0
415 1 2 -1.1794 7.447186569473697 7.051063925865667 1.86535476377299 0 0 0
217 1 2 -1.1794 5.204002091366926 10.934841218487378 2.0568012843073102 0 0 0
253 1 2 -1.1794 2.754146951445544 6.855843642413543 2.197573772605986 0 0 0
255 1 1 0.5897 2.076022420637897 6.30214510728015 2.5845065878676134 0 0 0
66 1 1 0.5897 7.6931554183971125 9.741722849143057 3.4636628407875905 0 0 0
65 1 1 0.5897 7.724496620675948 8.784123496591073 2.291566776912026 0 0 0
64 1 2 -1.1794 7.7701762421563245 9.714927794148476 2.5099566632936603 0 0 0
416 1 1 0.5897 6.714736847614783 6.5795271193424485 2.262009763019822 0 0 0
43 1 2 -1.1794 0.690283534401446 11.02447437458238 2.383766670110544 0 0 0
396 1 1 0.5897 0.6426645940700909 10.913170158871278 0.6922410954467655 0 0 0
363 1 1 0.5897 5.058296482561361 10.479446168429586 0.25846071113222946 0 0 1
712 1 2 -1.1794 7.320864807168627 9.729305903534165 5.244281302468315 0 0 0
713 1 1 0.5897 8.099319494631786 10.16395744388741 5.592501464480416 0 0 0
793 1 2 -1.1794 3.1287336232980882 9.6675784028266 5.907495465713383 0 0 0
10 1 2 -1.1794 3.33399404342176 7.024778518813289 6.71001990324422 0 0 0
578 1 1 0.5897 6.015697054338881 10.671985556363913 6.195211955892618 0 0 0
182 1 1 0.5897 0.27472610085010785 5.977642989291179 6.2763429654971885 1 0 0
526 1 2 -1.1794 7.361662888180195 6.998079069142902 9.42991125146785 0 0 0
577 1 2 -1.1794 5.29713436411921 11.150074962761561 6.60903135942844 0 0 0
145 1 2 -1.1794 7.542096649341407 7.374048310819135 6.585255016041488 0 0 0
528 1 1 0.5897 8.21241156739916 6.587996505327711 9.585474011594727 0 0 0
551 1 1 0.5897 0.5471421578108634 11.146419074515352 7.533879550640094 0 0 0
550 1 2 -1.1794 0.658497329123324 10.978075594167745 6.598202682038012 0 0 0
650 1 1 0.5897 3.13212129085034 7.269767816653883 8.590253179184334 0 0 0
256 1 2 -1.1794 2.9353965827795685 9.999980504105421 10.570619070532004 0 0 0
527 1 1 0.5897 7.509099963148039 7.928479901362891 9.59960670146432 0 0 0
15 1 1 0.5897 1.4818917408497767 10.886071567717806 9.756355232959434 0 0 0
582 1 1 0.5897 5.001989261772112 11.225614758991684 8.671086425838787 0 0 0
822 1 1 0.5897 8.350083249980903 10.390581158591724 10.016848497168542 0 0 0
581 1 1 0.5897 5.921387853792622 10.58742044628074 9.690485774145497 0 0 0
147 1 1 0.5897 7.449819169306316 7.501306903483744 7.529442826308865 0 0 0
649 1 2 -1.1794 3.2295135186199877 7.524594470598527 9.507737265744751 0 0 0
12 1 1 0.5897 3.1307902632905775 7.945786579832143 6.54682012614377 0 0 0
580 1 2 -1.1794 5.12651762664383 11.115085931261879 9.613682715457285 0 0 0
258 1 1 0.5897 3.712196230225314 10.549559341119028 10.467006831213572 0 0 0
11 1 1 0.5897 2.5208963062922907 6.560691305445654 6.51090548178636 0 0 0
257 1 1 0.5897 3.181280370074752 9.16105423623315 10.180792879885924 0 0 0
687 1 1 0.5897 4.6701095788385025 6.0084484535454905 5.944364897081407 0 0 0
13 1 2 -1.1794 0.7019330666526912 11.316874528167666 9.406767117235932 0 0 0
795 1 1 0.5897 3.8067098330069093 10.311685682908081 6.111680807032522 0 0 0
714 1 1 0.5897 7.345992352574702 8.851219877887802 5.624472272705801 0 0 0
146 1 1 0.5897 6.799160272598868 6.820933958778884 6.343903718890194 0 0 0
820 1 2 -1.1794 7.5899895322849735 9.952246812231612 10.399303152164107 0 0 0
794 1 1 0.5897 2.3097960077572934 10.092044053832105 6.163062468221956 0 0 0
677 1 1 0.5897 5.981141209019307 6.123402917534666 10.042789884611398 0 0 0
651 1 1 0.5897 3.8086545883952208 6.860269128876817 9.881142553936368 0 0 0
112 1 2 -1.1794 0.8673896334836776 6.086539227293775 10.15397567912921 0 0 0
114 1 1 0.5897 1.5664656846068974 6.706392181709709 9.946078307585863 0 0 0
261 1 1 0.5897 0.875574591215492 10.4777126186157 15.078773259571873 0 0 0
333 1 1 0.5897 3.9451811117831244 6.59641990066115 13.706293904525586 0 0 0
332 1 1 0.5897 3.147325646373521 7.847645937710428 14.005609185696066 0 0 0
797 1 1 0.5897 2.998949603930692 9.635787466368605 12.281919715302852 0 0 0
796 1 2 -1.1794 3.0468416967172294 9.509727911955233 13.229562292473496 0 0 0
798 1 1 0.5897 2.2701128813400633 9.953362998808354 13.570212244625013 0 0 0
722 1 1 0.5897 4.6607549903195835 10.28221713435386 13.733796965982753 0 0 0
259 1 2 -1.1794 0.786343232025563 10.733855611936507 14.160800909539292 0 0 0
723 1 1 0.5897 5.233728095134702 10.893544123183249 14.99465595172846 0 0 0
828 1 1 0.5897 7.502846076840057 7.206910161049256 14.735718742693166 0 0 0
827 1 1 0.5897 6.843854381978935 6.809768552135644 13.431952802161916 0 0 0
331 1 2 -1.1794 3.1418381116781786 6.89859627722915 14.12995956261946 0 0 0
225 1 1 0.5897 3.115956280024521 6.431285794843384 16.17017980277297 0 0 0
826 1 2 -1.1794 7.621817546017309 7.2401073231059625 13.786533527291171 0 0 0
475 1 2 -1.1794 7.910113723819951 9.938644278601444 13.195792196875205 0 0 0
476 1 1 0.5897 7.122291769599341 10.244593319464482 13.645111435254101 0 0 0
477 1 1 0.5897 7.854459880553865 8.983980528360902 13.237017969059545 0 0 0
721 1 2 -1.1794 5.420459129847907 10.76087257489502 14.065285466347726 0 0 0
821 1 1 0.5897 7.775207492686186 9.926063864606565 11.338030496605006 0 0 0
366 1 1 0.5897 1.6961160959957529 6.172482797166771 13.460833759387857 0 0 0
520 1 2 -1.1794 7.423055369319015 7.173927189245167 16.42534565729267 0 0 0
113 1 1 0.5897 0.8164453406916673 6.09397894537467 11.109787625939127 0 0 0
394 1 2 -1.1794 0.6073224895731577 10.741210982650538 21.79514231751636 0 0 0
141 1 1 0.5897 7.723357952163454 8.570128622922491 20.455978881703878 0 0 0
446 1 1 0.5897 0.3345177938236447 11.663093484219692 17.01479745251526 0 0 0
4 1 2 -1.1794 2.9026218651044515 6.999005741028286 21.323137508551845 0 0 0
362 1 1 0.5897 4.775979236039356 11.422960194845697 21.152534129953928 0 0 0
224 1 1 0.5897 2.8228296732087723 7.236358043339163 17.418325967810652 0 0 0
627 1 1 0.5897 1.7337053284045423 9.613613911093426 17.592091138736077 0 0 0
246 1 1 0.5897 9.087644022156187 10.55323559097926 17.028839484308456 0 0 0
140 1 1 0.5897 6.761266453334257 9.695857370755643 20.770427814367128 0 0 0
361 1 2 -1.1794 4.945124865256767 10.502205375079383 21.352094339038132 0 0 0
690 1 1 0.5897 1.974367497793939 9.963306793567522 21.04298244167083 0 0 0
625 1 2 -1.1794 2.359030323420498 8.974780419472399 17.93417878475837 0 0 0
688 1 2 -1.1794 2.614315689662164 9.52219179869113 20.484367014240018 0 0 0
522 1 1 0.5897 7.246567096024869 8.01063696396725 16.855401631008444 0 0 0
287 1 1 0.5897 8.996153776221652 10.823673665213725 20.60919557969298 0 0 0
689 1 1 0.5897 3.461720779163816 9.850594872329532 20.784694520076194 0 0 0
160 1 2 -1.1794 7.617664336317916 6.970384089852833 21.138320026721285 0 0 0
626 1 1 0.5897 2.372773149635013 9.134014481606581 18.87792900776843 0 0 0
139 1 2 -1.1794 7.536508420685666 9.485964251093112 20.24975087274983 0 0 0
6 1 1 0.5897 2.834370920618977 7.893066488987325 20.98819276733758 0 0 0
9 1 1 0.5897 6.723677896175799 10.247638345929559 17.34808076728595 0 0 0
8 1 1 0.5897 7.523732339748963 9.65152699400015 18.486644327221615 0 0 0
7 1 2 -1.1794 7.547204949967233 9.79971657595917 17.541292257501198 0 0 0
5 1 1 0.5897 3.785675913615 6.719230119228225 21.08216668588205 0 0 0
680 1 1 0.5897 4.17700580795787 10.252688058298368 17.420331564061403 0 0 0
445 1 2 -1.1794 0.5811256413557567 10.739089042384117 17.054610793613623 0 0 0
573 1 1 0.5897 0.07265907435828467 5.934044368706305 17.638217649252343 0 0 0
161 1 1 0.5897 6.753423489460354 6.798789712454759 20.764407014326352 0 0 0
681 1 1 0.5897 4.7461056769745715 11.624811282194862 17.1285412489109 0 0 0
223 1 2 -1.1794 2.9383654404960837 6.3388711109010325 17.106202644732424 0 0 0
679 1 2 -1.1794 4.89472231504853 10.693398184341834 16.965573611989523 0 0 0
647 1 1 0.5897 1.255436531415277 6.0106865050644815 20.993404924646367 0 0 0
162 1 1 0.5897 7.524163038051881 6.757032229815783 22.06673267965663 0 0 0
521 1 1 0.5897 6.687034715945416 6.615518957683336 16.675573002751847 0 0 0
174 1 1 0.5897 5.163887687790926 12.643235834632783 2.510316655175034 0 0 0
173 1 1 0.5897 4.497540126534237 13.990373951863765 2.691857889239976 0 0 0
172 1 2 -1.1794 5.23802826856673 13.46518483056885 2.9951854252529455 0 0 0
373 1 2 -1.1794 0.8398680019415187 13.616452970548234 3.0844652477186005 0 0 0
558 1 1 0.5897 2.9169279935647063 14.88778636528864 1.470693406743614 0 0 0
556 1 2 -1.1794 3.024459306430552 15.04522811960084 2.4087148536966065 0 0 0
557 1 1 0.5897 2.3695882862706763 14.483377476118816 2.8229968041536226 0 0 0
478 1 2 -1.1794 7.388846141269594 14.796430855425942 2.107141181779948 0 0 0
200 1 1 0.5897 4.970678462156836 13.6706003633406 4.737018608980363 0 0 0
293 1 1 0.5897 2.900491942385491 16.6967635309553 2.9666636223374256 0 0 0
479 1 1 0.5897 8.227550347519713 14.413293183490115 2.3639034891922073 0 0 0
449 1 1 0.5897 7.814585068701228 16.562923121041383 2.541326913410323 0 0 0
480 1 1 0.5897 6.732104956952616 14.214534936032265 2.489585821600922 0 0 0
374 1 1 0.5897 0.6345815947816028 13.543377259504954 4.016510975902238 0 0 0
448 1 2 -1.1794 7.933753827681033 17.508101060264416 2.6341494665871097 0 0 0
317 1 1 0.5897 7.116223779371842 14.742294753150816 0.31670797431130526 0 0 0
292 1 2 -1.1794 2.8868168261616813 17.63223444428395 3.1689642046565156 0 0 0
294 1 1 0.5897 2.916447792491838 17.671497852140675 4.124902335870463 0 0 0
45 1 1 0.5897 0.8981142618517847 11.935488924976285 2.5912318352722936 0 0 0
656 1 1 0.5897 1.323763417687089 14.223067798807483 6.3528161913018035 0 0 0
519 1 1 0.5897 8.057120431625036 14.771439093599843 6.281110579950031 0 0 0
454 1 2 -1.1794 5.313721446121103 13.743696060277076 10.35130729504077 0 0 0
59 1 1 0.5897 8.724980258127506 14.44363874224529 10.00785511458983 0 0 0
811 1 2 -1.1794 3.016017455910801 15.208999141237333 9.79664035881843 0 0 0
199 1 2 -1.1794 5.0273150216237585 13.744148224139652 5.689691980572153 0 0 0
813 1 1 0.5897 2.3025663143356696 14.631143311534784 10.06724141250939 0 0 0
17 1 1 0.5897 3.0258532871435095 15.08811761734929 7.710537438496737 0 0 0
384 1 1 0.5897 2.8002185340132733 16.78238785572491 10.415098981321746 0 0 0
518 1 1 0.5897 7.454649948897389 16.14971533247604 6.110401621214237 0 0 0
377 1 1 0.5897 6.61396548749389 14.644314516148734 9.551948951079318 0 0 0
766 1 2 -1.1794 0.6281913859894229 13.902941515806411 10.429593356336994 0 0 0
18 1 1 0.5897 3.5248046035357015 14.57381903340102 6.377000657359133 0 0 0
812 1 1 0.5897 3.8071872889267215 14.785589330357581 10.129684685241289 0 0 0
579 1 1 0.5897 5.346111172855141 12.029155805869765 6.23353217313895 0 0 0
376 1 2 -1.1794 7.326492445792084 15.14065606035742 9.149334070381649 0 0 0
16 1 2 -1.1794 2.8144916770596526 15.07536091248294 6.777072452941692 0 0 0
517 1 2 -1.1794 7.254320488321111 15.270501944666236 6.43139728107423 0 0 0
186 1 1 0.5897 7.255646132979925 16.819301073472815 9.845797984819084 0 0 0
378 1 1 0.5897 7.0790547276534035 15.210819754344476 8.227353012323007 0 0 0
456 1 1 0.5897 5.371157545344489 12.887114669568488 9.92798277814986 0 0 0
14 1 1 0.5897 0.682231976909065 12.168538955274247 9.843201126490902 0 0 0
239 1 1 0.5897 2.744630419345774 16.749686309295328 6.348861438572031 0 0 0
201 1 1 0.5897 5.711516985648374 14.39644852600517 5.839771362553088 0 0 0
655 1 2 -1.1794 0.6522443358621319 13.70145767415682 5.9133445050920885 0 0 0
238 1 2 -1.1794 2.700238392779683 17.673148140085633 6.100989180849349 0 0 0
184 1 2 -1.1794 7.305084753294902 17.607815627122925 10.386185909415389 0 0 0
382 1 2 -1.1794 2.762465393631567 17.659539674704586 10.796388092164692 0 0 0
552 1 1 0.5897 0.7033998730883215 11.848029748220949 6.2015342434582985 0 0 0
455 1 1 0.5897 5.305481645636078 13.548256187091676 11.28830445641337 0 0 0
232 1 2 -1.1794 2.8923578432461614 14.619724092829834 13.785626988196485 0 0 0
234 1 1 0.5897 2.914313744558488 14.578102725150377 14.74165979377778 0 0 0
606 1 1 0.5897 2.9038517188114397 16.37699664988427 13.668450676540255 0 0 0
427 1 2 -1.1794 5.130518964486104 13.265683848037304 13.096590042153652 0 0 0
233 1 1 0.5897 3.673849972521087 14.142666382217808 13.506620620278111 0 0 0
639 1 1 0.5897 1.151298096259873 13.800923196205684 13.495415627230596 0 0 0
429 1 1 0.5897 5.9136485833846155 13.745306218516808 13.366633464013027 0 0 0
297 1 1 0.5897 8.211417903790053 14.599867414722642 13.498354065681324 0 0 0
637 1 2 -1.1794 0.3924446887626162 13.353281961240109 13.121371549289108 0 0 0
428 1 1 0.5897 5.3223451047055645 12.352769241683756 13.311032762722643 0 0 0
295 1 2 -1.1794 7.380512536316588 14.962242048294042 13.805636676885797 0 0 0
270 1 1 0.5897 7.467132226619374 16.848889782775245 13.478915164073872 0 0 0
296 1 1 0.5897 7.40269144107235 14.841984853564457 14.75498455452678 0 0 0
638 1 1 0.5897 0.4084826862874065 12.482028521295097 13.51740443926849 0 0 0
604 1 2 -1.1794 2.9962971500923254 17.31766534763179 13.517464272934328 0 0 0
269 1 1 0.5897 7.309964003991845 17.665683635895025 12.21400751080753 0 0 0
605 1 1 0.5897 3.034541336399619 17.40521308966472 12.565049729546836 0 0 0
823 1 2 -1.1794 2.580669670396312 14.46619179080167 16.593328355287767 0 0 0
767 1 1 0.5897 0.523582462209553 13.699936245407713 11.359136765424685 0 0 0
50 1 1 0.5897 7.338340776918698 15.528469697126592 16.973252702118714 0 0 0
451 1 2 -1.1794 0.421582526341216 13.297639013261817 20.394510684126622 0 0 0
49 1 2 -1.1794 7.415318915279541 14.61683931777365 16.691852902185662 0 0 0
117 1 1 0.5897 8.642351207302783 14.165208481683125 20.78865679174555 0 0 0
665 1 1 0.5897 2.0270422410168987 14.11333467400889 20.85816134406973 0 0 0
717 1 1 0.5897 3.9195801602163707 17.697824269390534 20.604512096096936 0 0 0
125 1 1 0.5897 4.976390323781079 13.432967227910055 18.501116167879772 0 0 0
316 1 2 -1.1794 6.967691407618363 14.649570917961086 21.41952554367768 0 0 0
684 1 1 0.5897 3.8982166358331347 13.680470558457017 20.941445101849062 0 0 0
52 1 2 -1.1794 0.2277932493702407 13.382240334882685 17.634585534202152 0 0 0
666 1 1 0.5897 2.4071374819040563 15.533488091083035 21.219334911626564 0 0 0
126 1 1 0.5897 5.841472103344596 13.62793542615063 17.27417563422367 0 0 0
824 1 1 0.5897 3.3360962062248096 14.022517132834475 16.978879677001146 0 0 0
318 1 1 0.5897 6.892117943750552 15.54823849409182 21.098801116462276 0 0 0
584 1 1 0.5897 2.678870479643033 16.234809797360626 17.338498126861595 0 0 0
664 1 2 -1.1794 2.467566314163601 14.630885233848584 21.532166844644973 0 0 0
683 1 1 0.5897 5.4089745579412005 13.599326004032871 20.890154429008273 0 0 0
53 1 1 0.5897 0.1298153619836825 13.345933865227037 18.586051643302355 0 0 0
682 1 2 -1.1794 4.616646679746783 13.115859054468842 20.656461979661273 0 0 0
124 1 2 -1.1794 4.953003866541427 13.39671693523215 17.544902533018753 0 0 0
51 1 1 0.5897 8.241534982254834 14.317537062102035 17.071223983348943 0 0 0
825 1 1 0.5897 1.823927208919862 14.073384138105638 17.028320599883653 0 0 0
452 1 1 0.5897 0.43940099395402704 12.432384725382523 20.80342748055711 0 0 0
583 1 2 -1.1794 2.6814297121198933 17.140069809833683 17.649429525936664 0 0 0
159 1 1 0.5897 7.0878382898622885 17.273997486358276 19.610806362788612 0 0 0
610 1 2 -1.1794 7.042197135807122 17.23567568247134 17.76087602896484 0 0 0
157 1 2 -1.1794 7.1485441080043906 17.2095783280533 20.563889197868228 0 0 0
716 1 1 0.5897 3.2224478683577806 17.188992519559974 19.36077140450534 0 0 0
715 1 2 -1.1794 3.2366595347115137 17.09378537669547 20.31312838805245 0 0 0
585 1 1 0.5897 3.4129202940736425 17.550210324884805 17.18806497329327 0 0 0
612 1 1 0.5897 7.827598862469264 17.616742153207177 17.368326064372088 0 0 0
267 1 1 0.5897 5.697404329904106 22.045105383956592 3.0288818121528704 0 0 0
696 1 1 0.5897 1.633866501336539 21.89259928747937 2.3579936703923927 0 0 0
266 1 1 0.5897 4.247242311610482 21.849302761631975 2.6411790483485857 0 0 0
265 1 2 -1.1794 4.935608781208093 21.49213467614232 3.2021919609935225 0 0 0
187 1 2 -1.1794 3.186398252515304 22.63502156807776 1.512747790050214 0 0 0
228 1 1 0.5897 5.225429583396052 19.71049780783655 2.5488837577800885 0 0 0
602 1 1 0.5897 5.049762682489708 18.99385464686601 0.2642327808733923 0 0 0
817 1 2 -1.1794 7.48300145467032 22.698663021093285 2.6697095206490733 0 0 0
343 1 2 -1.1794 0.5875641970366842 18.59810288697922 2.148776779584864 0 0 0
226 1 2 -1.1794 5.252415197829008 18.812926535833395 2.2174366729632737 0 0 0
345 1 1 0.5897 0.7054441226334455 18.799407077795937 1.2204506086583298 0 0 0
189 1 1 0.5897 3.2487206568903435 22.821247162158283 0.5759261577179098 0 0 0
413 1 1 0.5897 0.8671486519404101 21.66943488225538 4.640341004243663 0 0 0
818 1 1 0.5897 8.349616725223433 22.342390500655267 2.865099505934092 0 0 0
344 1 1 0.5897 1.4288011162471637 18.233870203791447 2.4240681043971115 0 0 0
695 1 1 0.5897 0.8419430382931535 20.611802376592248 2.513361852657122 0 0 0
694 1 2 -1.1794 0.88930968808061 21.515132845981945 2.8262963158336167 0 0 0
249 1 1 0.5897 5.290211825385381 21.46423434649531 4.9745471161855646 0 0 0
227 1 1 0.5897 4.448721848826823 18.411086382708756 2.547201395437727 0 0 0
498 1 1 0.5897 7.263129807754226 22.76175962758301 0.6819229355481936 0 0 0
450 1 1 0.5897 7.1468836927334 17.88864803707951 2.2440585420064347 0 0 0
188 1 1 0.5897 3.1276579315588413 23.49670771068138 1.9253326917068536 0 0 0
308 1 1 0.5897 7.834311419034381 17.893779337696202 4.548320458700405 0 0 0
307 1 2 -1.1794 7.701232126707776 17.83302964707268 5.4942693335052795 0 0 0
555 1 1 0.5897 4.875900908716069 20.528782716991877 10.223676671618719 0 0 0
700 1 2 -1.1794 3.1484821951906414 23.017289851036683 6.5088009703582825 0 0 0
87 1 1 0.5897 8.155694402984901 21.998149160217793 9.745337721524345 0 0 0
94 1 2 -1.1794 0.7788791753948846 21.537853803246207 10.0940801736736 0 0 0
101 1 1 0.5897 5.657747910895199 18.366214488755574 10.000254166966238 0 0 0
342 1 1 0.5897 0.3620573324938357 19.04838057648915 7.725314374387545 0 0 0
412 1 2 -1.1794 0.8270746088669209 21.700600291239958 5.596179888971549 0 0 0
405 1 1 0.5897 0.5081056695193096 19.750127634705116 9.79161749565568 0 0 0
39 1 1 0.5897 3.754859223431465 22.46675414187131 9.897441069968206 0 0 0
387 1 1 0.5897 5.280960016004077 19.754568863953136 6.376381079842159 0 0 0
31 1 2 -1.1794 7.730578469689373 22.884731315437648 6.769493398284389 0 0 0
86 1 1 0.5897 7.391455377243976 22.40087350577384 8.502150519750705 0 0 0
701 1 1 0.5897 3.1283483296900276 23.107109498979483 7.4615478202633065 0 0 0
102 1 1 0.5897 5.042310705731875 18.818311770434466 8.693058711780372 0 0 0
702 1 1 0.5897 2.3338426389461064 22.563357715184726 6.293286145652683 0 0 0
385 1 2 -1.1794 5.253934860177693 18.820588032465714 6.584048989039952 0 0 0
386 1 1 0.5897 5.979629554018409 18.443125630473507 6.086970113288381 0 0 0
38 1 1 0.5897 2.2509540423223036 22.496105267925632 9.727011696904624 0 0 0
553 1 2 -1.1794 4.977531072377556 21.424452295310097 10.545592106964392 0 0 0
33 1 1 0.5897 6.9940088112090315 22.477111582236805 6.314017936495255 0 0 0
341 1 1 0.5897 1.1752591281530511 18.5870002594741 6.53463232737376 0 0 0
37 1 2 -1.1794 3.049785343644174 22.962682269969925 9.481409343170053 0 0 0
240 1 1 0.5897 3.5293301074865537 18.043108098863776 6.404102089834578 0 0 0
554 1 1 0.5897 5.799040998962115 21.72680613907181 10.15848910073722 0 0 0
85 1 2 -1.1794 7.2870305365650205 22.2638110661056 9.443694125079732 0 0 0
340 1 2 -1.1794 0.42551740894473694 19.131853737534097 6.773888981725939 0 0 0
414 1 1 0.5897 0.6778236235443914 20.79262909122593 5.859831929860522 0 0 0
100 1 2 -1.1794 4.942847008713589 18.892418689962746 9.64220403378013 0 0 0
383 1 1 0.5897 3.3767764046653883 18.174995656749424 10.273806737486137 0 0 0
32 1 1 0.5897 8.49957151676084 22.40865950984805 6.456197138937192 0 0 0
248 1 1 0.5897 4.801983987384755 21.960052753308602 6.319026195665837 0 0 0
403 1 2 -1.1794 0.37733181982703984 18.862930299852003 9.45693447227476 0 0 0
185 1 1 0.5897 7.997373523541916 18.131802848403844 9.983274159208545 0 0 0
404 1 1 0.5897 1.1280594957780792 18.369051759849665 9.786555799118137 0 0 0
95 1 1 0.5897 0.1361412854985531 22.117034834308402 9.684680498191472 1 0 0
309 1 1 0.5897 8.397401451472518 18.372087260825236 5.869674863328939 0 0 0
247 1 2 -1.1794 5.560152376406532 21.566564612361447 5.8871584218566175 0 0 0
96 1 1 0.5897 0.6615000770309445 21.675381789124888 11.034037081018903 0 0 0
787 1 2 -1.1794 7.224622099401824 22.380064668855397 14.027778047252761 0 0 0
88 1 2 -1.1794 4.7294397034627496 21.989262197618483 13.198440592775954 0 0 0
381 1 1 0.5897 1.164433655260919 22.067208507156437 13.109680210152414 0 0 0
90 1 1 0.5897 4.718442787223381 21.058583169832474 13.421817400108253 0 0 0
763 1 2 -1.1794 5.1611032228237015 19.157719340140897 13.707467467695611 0 0 0
738 1 1 0.5897 3.161614923104214 22.654398877177034 13.84615494958626 0 0 0
89 1 1 0.5897 4.766456194043102 22.006107250284078 12.24212150526548 0 0 0
474 1 1 0.5897 4.825142541032206 18.85133433714479 15.827463596112342 0 0 0
379 1 2 -1.1794 0.37155827680106673 21.564178011639793 12.924074630001343 0 0 0
503 1 1 0.5897 1.6592730332184167 18.51761910902916 14.213933023959008 0 0 0
504 1 1 0.5897 0.6525664467078429 18.918435944612856 15.271121998738836 0 0 0
350 1 1 0.5897 2.465753241124525 22.86760331516719 15.864128182745045 0 0 0
736 1 2 -1.1794 2.367497715624904 23.132163396242543 14.085435134977711 0 0 0