LAMMPS data file via write_data, version 30 Jul 2021, timestep = 9500000

972 atoms
2 atom types
648 bonds
1 bond types
324 angles
1 angle types

-0.0009248075012529 20.000925807507805 xlo xhi
0.01316126614550761 19.986839733850037 ylo yhi
-0.10974477679683581 20.809742776804754 zlo zhi

Masses

1 1.008
2 15.999

Pair Coeffs # lj/cut/tip4p/long/omp

1 0 0
2 0.21084 3.1668

Bond Coeffs # harmonic/omp

1 450 0.9572

Angle Coeffs # harmonic/omp

1 55 104.52

Atoms # full

4 2 2 -1.1794 4.210664218328314 1.277195757720478 3.238973149260827 0 0 0
5 2 1 0.5897 4.277836092642156 0.608960337219042 2.5568977057731215 0 0 0
17 6 1 0.5897 4.136897793115464 4.529673014764771 2.8893225916326113 0 0 0
10 4 2 -1.1794 1.1336785362169732 3.9970196700388843 3.7863457919459336 0 0 0
11 4 1 0.5897 0.9114495230700997 3.2080502358832423 3.29196405314905 0 0 0
12 4 1 0.5897 2.0884852668580876 3.978028624862139 3.8521829496450053 0 0 0
16 6 2 -1.1794 3.9117681897757515 4.016901806828316 3.665654075982595 0 0 0
18 6 1 0.5897 4.06370442681302 3.1083442489471778 3.405480906409378 0 0 0
23 8 1 0.5897 2.6565294034503446 0.8263174913844684 4.333944792790498 0 0 0
31 11 2 -1.1794 0.7620986800089512 1.9469525118954558 1.9137636815388084 0 0 0
33 11 1 0.5897 1.4654381782691972 2.2552980456491523 1.3422984772998674 0 0 0
22 8 2 -1.1794 1.9928645498636022 0.7903990911484952 5.022855299407691 0 0 0
3 1 1 0.5897 3.5834707638337333 2.59804498788474 0.2584850685540303 0 0 0
236 79 1 0.5897 0.8697978905163682 0.10963592177481289 1.7377803589086855 0 1 0
6 2 1 0.5897 4.874337586907153 1.0302684487823133 3.8830941251567213 0 0 0
1 1 2 -1.1794 2.6602093679198946 2.625417316177756 0.007109401889045505 0 0 0
335 112 1 0.5897 1.0041302231630211 3.2926961780208948 10.074337319921918 0 0 0
27 9 1 0.5897 2.499288034729016 4.316598083783994 6.467630902612456 0 0 0
356 119 1 0.5897 1.542336730006748 2.104526178111738 8.423080354884744 0 0 0
325 109 2 -1.1794 2.6322564377302924 2.5485624154375905 7.0226025198877835 0 0 0
326 109 1 0.5897 2.4436013711815843 1.934462311274555 6.312970743964028 0 0 0
327 109 1 0.5897 3.571717954439564 2.452830852281404 7.17945426767465 0 0 0
330 110 1 0.5897 4.292300946891253 0.7531951989185203 9.607402191749133 0 0 0
355 119 2 -1.1794 0.8105592079029228 1.8842575459235689 8.99955713417703 0 0 0
342 114 1 0.5897 4.070388539105902 4.686256254302506 9.945315846528919 0 0 0
328 110 2 -1.1794 4.245346194424182 1.4914054778240502 10.214953420483898 0 0 0
561 187 1 0.5897 0.724981878398623 0.07764209366593106 8.961104319248786 0 1 0
357 119 1 0.5897 0.03181511885120922 2.1543789854061917 8.512798222137953 0 0 0
102 34 1 0.5897 0.08970838032035161 0.8742118414445602 5.242245397336766 1 0 0
651 217 1 0.5897 2.2446213012336607 2.3535589958391743 14.60855835590912 0 0 0
683 228 1 0.5897 4.540650095155928 2.8666702798728303 14.28578397146174 0 0 0
346 116 2 -1.1794 2.064193588044242 0.7905769127504417 11.905185679346426 0 0 0
347 116 1 0.5897 1.1325178802129732 0.8405789712755679 11.69109718768505 0 0 0
348 116 1 0.5897 2.510023358079796 1.0497139325670952 11.098705089062426 0 0 0
350 117 1 0.5897 2.5312153657246377 4.44198752284271 13.710804134391894 0 0 0
649 217 2 -1.1794 2.792060856722248 2.581733400670616 13.857181888756804 0 0 0
650 217 1 0.5897 2.5249735320615128 1.9700164389827994 13.171062752718372 0 0 0
336 112 1 0.5897 2.085416812572241 4.121169267687314 10.73502587551702 0 0 0
334 112 2 -1.1794 1.1461447835418062 4.110751479177191 10.550647048477899 0 0 0
329 110 1 0.5897 4.738104199934156 1.2019632138912568 10.982899658471108 0 0 0
340 114 2 -1.1794 3.910000411183048 4.13762306316319 10.713157327904492 0 0 0
680 227 1 0.5897 0.09335955739851491 2.2804077859951812 15.336494502657894 0 0 0
341 114 1 0.5897 4.056589250405456 3.2436033315291795 10.404131130903634 0 0 0
652 218 2 -1.1794 4.248605870156429 1.4142416981922796 17.230255003070283 0 0 0
653 218 1 0.5897 3.4040950653449316 1.2241641567427393 17.638930794002114 0 0 0
654 218 1 0.5897 4.374346102248032 0.706130979459566 16.598549168530468 0 0 0
658 220 2 -1.1794 1.132230243848747 4.146540218382675 17.68086730384693 0 0 0
659 220 1 0.5897 0.49094933455799844 4.223571932112211 18.387381715751907 0 0 0
664 222 2 -1.1794 3.8161104384651345 4.188892188208412 17.377939169792008 0 0 0
665 222 1 0.5897 2.881128136081667 4.236146628112293 17.577759026756432 0 0 0
666 222 1 0.5897 3.9941318277212012 3.2532473819604317 17.28242852942946 0 0 0
670 224 2 -1.1794 2.027531373933027 0.9944602990257853 18.81521894402242 0 0 0
671 224 1 0.5897 2.288412790310218 1.6421130116309737 19.470031911686995 0 0 0
672 224 1 0.5897 1.0752824017699976 1.0767889018247758 18.76230557221831 0 0 0
681 227 1 0.5897 0.866117347962972 2.627722375387219 16.591228372007002 0 0 0
679 227 2 -1.1794 0.8714662144418426 2.0369157792313626 15.838097309614676 0 0 0
884 295 1 0.5897 0.6659521351582727 0.21866491148235853 15.833194708565706 0 1 0
660 220 1 0.5897 0.9524454818811834 4.894314899266972 17.110976062633505 0 0 0
2 1 1 0.5897 2.518054516248247 3.525246232551537 20.63274036998409 0 0 -1
126 42 1 0.5897 4.056134279068894 9.621900899208661 3.3940366795923236 0 0 0
141 47 1 0.5897 0.819771005760169 7.795365475359889 2.186054695329771 0 0 0
139 47 2 -1.1794 0.8242796074550978 8.689807528663353 1.8451629659294535 0 0 0
20 7 1 0.5897 0.7847936346944163 5.173194843664643 2.5377028492633795 0 0 0
14 5 1 0.5897 3.9483164094724317 5.679170970752728 0.9773319199240014 0 0 0
15 5 1 0.5897 4.449592514015221 6.4684758302567085 2.16804583320009 0 0 0
19 7 2 -1.1794 0.7203961567898488 5.815830536782672 1.8311926914488692 0 0 0
140 47 1 0.5897 0.9089159545134703 9.242341068833282 2.6222371567034646 0 0 0
13 5 2 -1.1794 4.633948544080997 5.688086416209262 1.6452929868024324 0 0 0
674 225 1 0.5897 1.8371702156991907 5.609094531320876 0.45765441537655316 0 0 1
110 37 1 0.5897 2.18996845197401 9.216735440004962 0.6138757829400598 0 0 0
112 38 2 -1.1794 4.163003148554855 7.8507910234596965 3.341101943749922 0 0 0
114 38 1 0.5897 3.330379253064944 7.728711035499717 3.7973740468279837 0 0 0
111 37 1 0.5897 3.624780048964187 9.239175626442611 0.13116903755037784 0 0 0
113 38 1 0.5897 4.828804890826871 7.646970378232921 3.9979922622230015 0 0 0
132 44 1 0.5897 0.8811954921675251 7.522314551740231 4.955811636559873 0 0 0
130 44 2 -1.1794 1.8370422279129193 7.52397767738831 4.903737120799952 0 0 0
464 155 1 0.5897 1.3985723146250824 8.911533846315786 8.352288471711354 0 0 0
437 146 1 0.5897 4.20519568792716 7.309050073607938 9.412015109071028 0 0 0
468 156 1 0.5897 4.355713524119622 9.05806487851709 7.335106679096688 0 0 0
26 9 1 0.5897 1.9792965808401812 5.523213698584879 7.219754398147046 0 0 0
463 155 2 -1.1794 0.7460873063450958 8.66591244931658 9.008238523126119 0 0 0
25 9 2 -1.1794 2.548409048372046 5.272227261243907 6.4921243868105964 0 0 0
337 113 2 -1.1794 4.51901842311921 5.732115886456649 8.47755378548951 0 0 0
339 113 1 0.5897 4.06919201106034 5.480605229620208 7.670877186928313 0 0 0
343 115 2 -1.1794 0.7260768448351125 5.953277493040158 8.537184947296412 0 0 0
344 115 1 0.5897 0.9258912080576417 5.4309025259008905 9.314038370770872 0 0 0
345 115 1 0.5897 0.8001674426430804 6.860728489559059 8.832644612880353 0 0 0
433 145 2 -1.1794 2.5671903891107917 9.298958914434927 7.035562417242377 0 0 0
435 145 1 0.5897 2.3578825252681868 8.912928477522527 6.184990837848165 0 0 0
438 146 1 0.5897 4.15986886571666 8.732765950628448 9.92478534441808 0 0 0
131 44 1 0.5897 2.1068552320635847 6.764456036796745 5.420076691558566 0 0 0
443 148 1 0.5897 1.2811452318871677 9.831931819046057 10.274379546609323 0 0 0
436 146 2 -1.1794 4.012847598679923 7.826119039991782 10.194286975099415 0 0 0
757 253 2 -1.1794 2.8448985500279282 9.269414741503644 14.14050634308993 0 0 0
792 264 1 0.5897 4.667865646995369 9.119215993755033 14.212475876946506 0 0 0
533 178 1 0.5897 0.2896548148172313 7.38254583584993 12.07592362514907 1 0 0
351 117 1 0.5897 3.302913079092967 5.627722811513145 14.24982503009181 0 0 0
454 152 2 -1.1794 2.0531635760764724 7.571395727447592 12.114538060891197 0 0 0
455 152 1 0.5897 2.6765345936746257 7.638916731153015 11.391219419769916 0 0 0
456 152 1 0.5897 2.2651192650084564 6.739076091422881 12.537119092272489 0 0 0
759 253 1 0.5897 2.5177871987451153 8.818390861378573 13.36211955271098 0 0 0
668 223 1 0.5897 1.1382950870092319 5.790973663399299 14.903599550108625 0 0 0
349 117 2 -1.1794 2.486566548283848 5.393164988900658 13.80834456861169 0 0 0
789 263 1 0.5897 1.4743887227601167 8.961982218605327 15.405956221859356 0 0 0
661 221 2 -1.1794 4.618708821166034 5.931667469172692 15.520938265484595 0 0 0
787 263 2 -1.1794 0.816986165765695 8.763654120057055 16.072910019861723 0 0 0
788 263 1 0.5897 0.8936298925676939 9.478072017354455 16.705378649928015 0 0 0
663 221 1 0.5897 4.5451895143042975 6.752101766480411 16.008533008965372 0 0 0
780 260 1 0.5897 2.759183046398403 7.73286355512126 18.186413304141 0 0 0
669 223 1 0.5897 0.7177746761228955 6.938568088737491 15.79702546163825 0 0 0
675 225 1 0.5897 2.360358306841081 6.0683663284513765 20.03272262321409 0 0 0
760 254 2 -1.1794 4.283991623970306 8.16571795769264 17.087569499174464 0 0 0
761 254 1 0.5897 4.200689881433702 9.119290648065459 17.088961429700724 0 0 0
779 260 1 0.5897 2.3830715592021208 8.148247982372308 19.592864241191776 0 0 0
778 260 2 -1.1794 2.208666299331225 7.481847177115372 18.9282044488356 0 0 0
858 286 1 0.5897 0.3819396394250672 7.45689259975007 18.784440830437028 1 0 0
662 221 1 0.5897 4.302278912216647 5.262584043085113 16.12797268087884 0 0 0
762 254 1 0.5897 4.877805831496222 7.975624305238347 17.81391832747174 0 0 0
109 37 2 -1.1794 2.72735967084451 9.411334778705688 20.765458507911355 0 0 -1
673 225 2 -1.1794 2.498549661452243 5.410516096586151 20.714209507996863 0 0 0
667 223 2 -1.1794 0.5779086791081121 6.003096939736773 15.650128649453936 0 0 0
783 261 1 0.5897 1.9247286541786548 12.189209297092633 0.29972230918948733 0 0 1
118 40 2 -1.1794 1.2471672948434949 10.671277086863743 3.705367691005005 0 0 0
119 40 1 0.5897 2.2015213500678485 10.716028595173123 3.764988302778139 0 0 0
120 40 1 0.5897 1.0107230416027795 11.37882736407289 3.105576906809163 0 0 0
122 41 1 0.5897 4.55792602585672 11.64296061310044 2.1808023662103544 0 0 0
123 41 1 0.5897 4.169391568761204 12.17028606050556 0.8158518747729512 0 0 0
124 42 2 -1.1794 3.9788873455257203 10.559068095023758 3.5729184878201137 0 0 0
240 80 1 0.5897 2.6493930441876277 14.153632746124256 4.26017575181355 0 0 0
127 43 2 -1.1794 0.7062788828287905 12.558449857995729 1.7097699017953647 0 0 0
129 43 1 0.5897 0.8728495877406228 13.490510985817817 1.8503452727210388 0 0 0
220 74 2 -1.1794 4.201806824681401 14.544695129437933 3.2232012571481206 0 0 0
222 74 1 0.5897 4.398839090435838 14.113525633416728 2.3915847317019407 0 0 0
125 42 1 0.5897 4.604910267595407 10.721071510882219 4.27874427980143 0 0 0
121 41 2 -1.1794 4.843974349730373 12.242089608701152 1.4912232856557304 0 0 0
317 106 1 0.5897 0.11346990135593923 14.023955140442686 4.848244028036749 1 0 0
238 80 2 -1.1794 1.9260293178045642 14.023518963896192 4.87349176402868 0 0 0
133 45 2 -1.1794 2.419606507565441 11.986885006385217 6.74860855776364 0 0 0
134 45 1 0.5897 1.7878292534852134 12.231786779070198 7.42478606226024 0 0 0
135 45 1 0.5897 3.2737340647429845 12.165800349546288 7.142057836517228 0 0 0
239 80 1 0.5897 2.160100874024812 13.230573038068878 5.355903258459502 0 0 0
573 191 1 0.5897 0.791245508501711 14.420413466156878 9.286805695624292 0 0 0
446 149 1 0.5897 4.342728960938903 13.265274160012718 8.831550754705447 0 0 0
450 150 1 0.5897 4.380731855347813 11.29614251198034 9.616698190512494 0 0 0
451 151 2 -1.1794 0.6336191803076315 12.402658987158894 8.836111347862577 0 0 0
453 151 1 0.5897 0.8071368691755352 11.740990226153114 9.505721138230044 0 0 0
445 149 2 -1.1794 4.576210783332033 12.501069884689544 8.30453094291885 0 0 0
544 182 2 -1.1794 4.2654963137317665 14.624939020605794 10.248438560762963 0 0 0
434 145 1 0.5897 2.4543780938380335 10.24062450983078 6.90600419819536 0 0 0
448 150 2 -1.1794 4.239285682478447 10.628260364161054 10.287679496771688 0 0 0
642 214 1 0.5897 0.20853137275685835 14.122953197288856 11.898874185202024 1 0 0
564 188 1 0.5897 2.2404897027933846 14.871235164939602 12.455169787789044 0 0 0
457 153 2 -1.1794 2.457956685302228 12.010498283105054 13.697045520913747 0 0 0
458 153 1 0.5897 1.7561445837850713 12.250422844534812 14.302215000911806 0 0 0
459 153 1 0.5897 3.2597188478415897 12.300698272752097 14.132127857532879 0 0 0
758 253 1 0.5897 2.674529483681868 10.195850275761453 13.970395023992399 0 0 0
562 188 2 -1.1794 2.032122926247168 14.173379685053044 11.83398791631242 0 0 0
563 188 1 0.5897 2.189053872065388 13.364188474967277 12.320662463010963 0 0 0
449 150 1 0.5897 4.76798541867664 10.918912901746227 11.03086178040822 0 0 0
442 148 2 -1.1794 1.4809530111661293 10.623792841062139 10.77368261642667 0 0 0
545 182 1 0.5897 3.453685002240763 14.372344220155055 10.688326903695806 0 0 0
444 148 1 0.5897 2.435077023470967 10.69392879302675 10.740764150101214 0 0 0
769 257 2 -1.1794 4.569603058568548 12.604352016692852 15.30979810424827 0 0 0
546 182 1 0.5897 4.958321673102327 14.366625437556507 10.856386925361859 0 0 0
512 171 1 0.5897 0.12496046176194753 11.030540581715208 11.985427715420446 1 0 0
766 256 2 -1.1794 1.3956671678798664 10.98084071292046 17.67183539393453 0 0 0
767 256 1 0.5897 0.7610476418093279 11.089876453440846 18.38014802539356 0 0 0
768 256 1 0.5897 1.144981602307406 11.637299503291164 17.02182771473074 0 0 0
772 258 2 -1.1794 4.100024504555699 10.936191312706981 17.466028390367967 0 0 0
773 258 1 0.5897 3.1553838437853527 11.032142806382812 17.58767282984065 0 0 0
774 258 1 0.5897 4.301301837977402 11.484651370728406 16.707753120500556 0 0 0
771 257 1 0.5897 4.540611771452383 13.316449323826449 15.948826790175593 0 0 0
965 322 1 0.5897 0.37391268527991184 14.104153880048758 18.91800398651 1 0 0
868 290 2 -1.1794 4.318110999529699 14.544392493598197 17.23561689361822 0 0 0
869 290 1 0.5897 3.503365804802262 14.393204740291134 17.714862613585467 0 0 0
886 296 2 -1.1794 2.170114652373435 14.201633864076465 18.860753503130454 0 0 0
888 296 1 0.5897 2.363642506637952 13.41051278162865 19.363680974567593 0 0 0
887 296 1 0.5897 2.40341304964456 14.921608742339265 19.44683019145134 0 0 0
782 261 1 0.5897 2.6861705216650287 11.122157927672054 20.46180484020205 0 0 0
777 259 1 0.5897 0.8190365900558769 13.607133037953838 15.78852839467272 0 0 0
781 261 2 -1.1794 2.6751618922975378 12.062853306919118 20.638495126634993 0 0 0
775 259 2 -1.1794 0.6316280428473804 12.677447871909218 15.658855312197145 0 0 0
249 83 1 0.5897 1.6233606581349336 15.60687731126439 1.262006148194955 0 0 0
248 83 1 0.5897 1.0867218839248811 16.058693338234683 2.603647938372765 0 0 0
247 83 2 -1.1794 1.0166737854872578 15.355159460497251 1.9583517861327153 0 0 0
890 297 1 0.5897 1.9367991655593626 18.988770732042333 0.11967521547524931 0 0 1
226 76 2 -1.1794 1.3460669564877266 17.514313591512888 3.5219475323532725 0 0 0
227 76 1 0.5897 1.1866909845835427 18.225991578354204 2.9019488894365884 0 0 0
228 76 1 0.5897 0.6914548973112903 17.642954697874863 4.208443616392215 0 0 0
229 77 2 -1.1794 4.598084740515533 19.205604742579844 1.4889968496743715 0 0 0
230 77 1 0.5897 4.167957278079547 19.11776722520802 0.6383498817495911 0 0 0
232 78 2 -1.1794 4.129586302680043 17.301435573052885 3.4127496803152084 0 0 0
233 78 1 0.5897 4.293327800066301 17.889712794412915 2.675584141451159 0 0 0
234 78 1 0.5897 3.1934458358344737 17.393762525714635 3.5901567752336194 0 0 0
235 79 2 -1.1794 0.7392394478140801 19.18216152847286 1.4426147257137196 0 0 0
221 74 1 0.5897 4.227481976156959 15.479871504168507 3.0206351821185957 0 0 0
219 73 1 0.5897 3.5944262347705167 15.93465535895816 0.10201314804588887 0 0 0
558 186 1 0.5897 4.121075948328407 17.93054206557578 10.033043331730244 0 0 0
576 192 1 0.5897 4.426982655351437 15.552511119432065 7.302359501806175 0 0 0
572 191 1 0.5897 0.8095097514360327 15.86863628696829 9.727546737564891 0 0 0
241 81 2 -1.1794 2.560898225250714 18.549190480591264 6.756699642662575 0 0 0
242 81 1 0.5897 2.5727678340685265 17.59974016365782 6.635685151218947 0 0 0
243 81 1 0.5897 1.8735790538031805 18.699831429715374 7.405729044122057 0 0 0
541 181 2 -1.1794 2.577115560151906 15.785924394268099 6.895775481138313 0 0 0
542 181 1 0.5897 1.912266783731265 15.648159810423222 7.570561744544274 0 0 0
551 184 1 0.5897 1.0127020697868858 18.00614705847667 10.112547165291954 0 0 0
553 185 2 -1.1794 4.325119871387328 19.104773908549355 8.708010771276063 0 0 0
555 185 1 0.5897 3.7837196882281603 18.912312032979877 7.9423867499197875 0 0 0
559 187 2 -1.1794 0.6790521498724982 19.121435902282172 8.738718600965454 0 0 0
571 191 2 -1.1794 0.6900116309241613 15.313318061210794 8.957067837756375 0 0 0
543 181 1 0.5897 2.320503450026551 15.200760580692476 6.1830117223620675 0 0 0
24 8 1 0.5897 2.160397567419647 19.936956835110696 5.474595022111201 0 -1 0
867 289 1 0.5897 2.3264060742093857 15.957336535314848 14.427752378701744 0 0 0
885 295 1 0.5897 1.3224289795945603 19.121225307644778 14.988332577551356 0 0 0
866 289 1 0.5897 3.7866272781833326 15.973501111174151 14.028130028750132 0 0 0
879 293 1 0.5897 4.157218554361534 19.106959131171095 15.022845500722157 0 0 0
550 184 2 -1.1794 1.1835085748696677 17.363263473309118 10.800889161296825 0 0 0
552 184 1 0.5897 2.1363456866726267 17.35730934737289 10.892660260234921 0 0 0
565 189 2 -1.1794 2.66134779590663 18.886025755656746 13.897331610006374 0 0 0
566 189 1 0.5897 2.808381562592788 17.995056678780585 13.579824385497817 0 0 0
567 189 1 0.5897 2.5785418317965068 19.41333199543474 13.10272838469537 0 0 0
865 289 2 -1.1794 2.904790095718878 16.103554653172424 13.679133009563504 0 0 0
556 186 2 -1.1794 3.9124742089246096 17.378267646152338 10.786544736546174 0 0 0
557 186 1 0.5897 4.0946281149722745 16.48703667913083 10.488578512116343 0 0 0
896 299 1 0.5897 0.24128476235253749 15.633726068826011 15.239012145467356 0 0 0
881 294 1 0.5897 3.064058935784163 17.28222080809642 17.64439810601943 0 0 0
897 299 1 0.5897 1.1200356102131692 16.03998316295307 16.403012022314307 0 0 0
891 297 1 0.5897 2.3213658554317225 19.42299274931713 19.640703134737123 0 0 0
882 294 1 0.5897 4.175027357477663 16.270428129088977 17.45975167809697 0 0 0
874 292 2 -1.1794 1.2030285774975544 17.429676930824172 17.55666711478267 0 0 0
875 292 1 0.5897 0.5925047351766908 17.581992948726366 18.27805320668657 0 0 0
876 292 1 0.5897 1.004259820199791 18.12013799854894 16.924178489014707 0 0 0
878 293 1 0.5897 4.595744670895374 18.365746336218677 16.267994210710654 0 0 0
880 294 2 -1.1794 4.010307918851547 17.211554360192068 17.51801537931908 0 0 0
889 297 2 -1.1794 2.569975879066621 18.820010027242056 20.34134775381102 0 0 0
218 73 1 0.5897 2.627744016506415 17.00529291357099 20.561803882290157 0 0 -1
895 299 2 -1.1794 1.058775749952602 15.410683723635103 15.684316789447477 0 0 0
217 73 2 -1.1794 2.6918129869905365 16.06528385223512 20.7306781682204 0 0 -1
877 293 2 -1.1794 4.8547449691010645 19.073278921419963 15.677570754557124 0 0 0
883 295 2 -1.1794 0.642199389170325 19.253371868587948 15.648760402899299 0 0 0
69 23 1 0.5897 6.681797247585878 2.235252238371968 1.550802074857462 0 0 0
9 3 1 0.5897 5.114822002900428 4.340288154763801 4.834727895044614 0 0 0
68 23 1 0.5897 8.184839688231452 2.1630049858739095 1.383916894979333 0 0 0
67 23 2 -1.1794 7.482534342222481 1.976392097574191 2.007040731689937 0 0 0
46 16 2 -1.1794 7.990889898247847 3.956142584674059 3.846031088429388 0 0 0
47 16 1 0.5897 7.689230134080251 3.204387815965886 3.3359863560946583 0 0 0
48 16 1 0.5897 7.297392083198724 4.1036467104165855 4.4891842657151555 0 0 0
273 91 1 0.5897 7.416654854799702 0.14601508681778277 1.9324238723361757 0 1 0
34 12 2 -1.1794 5.344573668744885 2.6828117919471968 0.3938850369668807 0 0 0
53 18 1 0.5897 9.904387917423367 3.9207440034419974 3.8437318206302105 0 0 0
37 13 2 -1.1794 9.252207472592602 2.6259287094736736 0.04295495724051421 0 0 0
58 20 2 -1.1794 8.652687689730906 0.6006403808387392 4.857441689631101 0 0 0
29 10 1 0.5897 6.858161501940898 0.6166484159007782 5.035050273620902 0 0 0
36 12 1 0.5897 5.5553144772307945 3.5372019491630526 0.017243745026824797 0 0 0
8 3 1 0.5897 5.689895641331166 3.86566356189715 6.152359195602701 0 0 0
391 131 2 -1.1794 7.52453120516045 1.8228687901976162 8.877694572742081 0 0 0
393 131 1 0.5897 7.435441928381384 0.8702750927235182 8.84823266135184 0 0 0
360 120 1 0.5897 5.566535880985237 1.7281529021471917 6.575492007610264 0 0 0
361 121 2 -1.1794 9.241671992934092 2.4789127816705627 6.787620362804335 0 0 0
7 3 2 -1.1794 5.8173757990069745 4.515265212918854 5.460941514952602 0 0 0
392 131 1 0.5897 8.173672197339977 2.024165035803007 8.203577540611384 0 0 0
362 121 1 0.5897 9.094470256508295 3.3837165957826874 6.512108670363893 0 0 0
358 120 2 -1.1794 5.4348531905570985 2.430935718110464 7.211918876764436 0 0 0
359 120 1 0.5897 6.060104397411931 2.241433839662855 7.9115530367021005 0 0 0
59 20 1 0.5897 8.915154022286137 1.2962893466603218 5.460324719318779 0 0 0
371 124 1 0.5897 7.853732292265009 3.17859878521942 10.125079490984305 0 0 0
28 10 2 -1.1794 5.935877071760673 0.6364206766326218 5.290660759101588 0 0 0
352 118 2 -1.1794 5.816180243993467 0.8543776657310924 12.446379223485044 0 0 0
353 118 1 0.5897 6.718531842391794 0.9679709024079407 12.147697959443647 0 0 0
354 118 1 0.5897 5.711957838828531 1.4993245519002276 13.145991724084649 0 0 0
684 228 1 0.5897 5.781560957349756 3.5412981421574155 13.740667472028358 0 0 0
372 124 1 0.5897 7.425446040386657 4.155544730605244 11.199416008044555 0 0 0
685 229 2 -1.1794 9.123165387853115 2.797863748325773 13.708053332625473 0 0 0
382 128 2 -1.1794 8.514360551291237 0.8394072634456642 11.87848596143411 0 0 0
383 128 1 0.5897 8.794127298628245 1.5667234954872877 12.434382075035494 0 0 0
384 128 1 0.5897 9.164560886970884 0.8099406544646883 11.176551837684318 0 0 0
682 228 2 -1.1794 5.495801399490608 2.8596814854213712 14.348964214803486 0 0 0
686 229 1 0.5897 8.650834643918083 2.5757918972098843 14.510496594336928 0 0 0
377 126 1 0.5897 9.938704017004463 4.028416970268501 10.409498866097977 0 0 0
331 111 2 -1.1794 6.047372901399529 4.602330180703589 12.345851370042144 0 0 0
386 129 1 0.5897 9.06095886882768 4.695981367640249 13.663073931946489 0 0 0
332 111 1 0.5897 5.2842360404516215 4.451276927330009 11.78805501131132 0 0 0
370 124 2 -1.1794 8.077106599185296 4.025930302613291 10.51030253070489 0 0 0
716 239 1 0.5897 7.588125989480736 1.4139157264759186 16.11215708774796 0 0 0
38 13 1 0.5897 9.01569457396521 2.0418341437149037 20.241896181049597 0 0 -1
655 219 2 -1.1794 5.830472113278511 4.659767473128104 19.41093034656579 0 0 0
657 219 1 0.5897 6.662768018818534 4.534210446195434 18.95500597138893 0 0 0
676 226 2 -1.1794 5.906859442354171 0.7789207666511877 19.336199617192243 0 0 0
715 239 2 -1.1794 7.710122699063746 2.3535983857268965 15.976657257944103 0 0 0
694 232 2 -1.1794 8.074879859569338 4.399698518248234 17.781345762414908 0 0 0
695 232 1 0.5897 7.8774226268637255 3.63264000200752 17.243866819238434 0 0 0
710 237 1 0.5897 9.337374039246189 4.390037088402093 20.652985725945534 0 0 0
706 236 2 -1.1794 8.682142193394636 0.8686531399240177 18.85412990362461 0 0 0
708 236 1 0.5897 7.728931337027617 0.9559024295504354 18.864926264528094 0 0 0
677 226 1 0.5897 5.306897041658648 1.021543745261086 18.63085284042949 0 0 0
707 236 1 0.5897 8.854236250771383 0.05665553207487761 19.330902608886156 0 0 0
702 234 1 0.5897 9.826220356010861 4.104610861696797 17.987103793765165 0 0 0
35 12 1 0.5897 5.6002207900123215 2.053567979854857 20.638843050755717 0 0 -1
656 219 1 0.5897 5.1642483376520305 4.506681288400506 18.740821807027423 0 0 0
717 239 1 0.5897 6.889138987057141 2.64771965568392 15.581917496718834 0 0 0
143 48 1 0.5897 6.059651900710763 9.007566238426936 0.8486514237663645 0 0 0
176 59 1 0.5897 7.458567937281618 7.654888143008096 2.175939014771256 0 0 0
177 59 1 0.5897 8.17138640837574 8.703230966337665 1.3483512046982395 0 0 0
711 237 1 0.5897 8.76218822181001 5.500238859262702 0.5871069695874581 0 0 1
175 59 2 -1.1794 7.468450434514334 8.593557854734781 1.988811156198531 0 0 0
55 19 2 -1.1794 7.3890006733396225 5.831347937014898 1.8281820801086823 0 0 0
56 19 1 0.5897 6.464718178911942 5.631343684839782 1.6796800697365786 0 0 0
57 19 1 0.5897 7.649444675562388 5.247517219490606 2.5406501280939455 0 0 0
142 48 2 -1.1794 5.437934703553332 9.13643798041594 0.1322711016609155 0 0 0
166 56 2 -1.1794 8.573204960057444 7.335982841037632 4.704173948149919 0 0 0
138 46 1 0.5897 6.8203369635234745 7.297245432261039 5.030862332222127 0 0 0
155 52 1 0.5897 7.794741765656957 9.811121464039406 3.1456507441550547 0 0 0
145 49 2 -1.1794 9.241247359084717 9.264465895937597 -0.0608744304443425 0 0 0
149 50 1 0.5897 9.903556920325675 7.713656678119652 3.5645090365633094 0 0 0
137 46 1 0.5897 5.743503990080677 6.3098453309960005 5.427799078667964 0 0 0
61 21 2 -1.1794 9.130504977093558 5.241238818162622 6.468668570621785 0 0 0
467 156 1 0.5897 5.42409422554059 8.161678479215196 6.745907940265297 0 0 0
499 167 2 -1.1794 7.50362085646396 8.480403630536312 8.900514495268041 0 0 0
62 21 1 0.5897 8.448335884597114 5.366470023364655 7.128438436090432 0 0 0
338 113 1 0.5897 5.443887790640347 5.560318843581176 8.300201993920833 0 0 0
469 157 2 -1.1794 9.027374117285225 9.087173174031339 6.734928795907415 0 0 0
500 167 1 0.5897 7.63024717399999 9.179530042369768 9.541976218050836 0 0 0
470 157 1 0.5897 8.5840312265971 8.836666080615926 7.545495328070745 0 0 0
501 167 1 0.5897 6.73463574288878 8.751289157246328 8.398895949530656 0 0 0
381 127 1 0.5897 7.619220152532775 5.250772612682532 9.165603268422544 0 0 0
379 127 2 -1.1794 7.33165289140129 5.772669032937784 8.416454570904817 0 0 0
380 127 1 0.5897 7.389978627875898 6.678987206454994 8.718844118163137 0 0 0
466 156 2 -1.1794 5.297788349321976 8.889365471559083 7.354841345624478 0 0 0
168 56 1 0.5897 8.762794711058477 8.014215146652427 5.352510786180093 0 0 0
167 56 1 0.5897 8.826851708218857 6.517887576114032 5.1315494815974025 0 0 0
63 21 1 0.5897 9.944467712706535 5.466522578641645 6.919268245666321 0 0 0
136 46 2 -1.1794 5.903316882363845 7.244991031384916 5.300487437134274 0 0 0
471 157 1 0.5897 9.958068972389949 8.965413851892887 6.922897458830247 0 0 0
791 264 1 0.5897 6.089085764770295 9.067327415241524 14.731716479902914 0 0 0
794 265 1 0.5897 9.182466181231726 8.75960788144818 13.409695056357037 0 0 0
790 264 2 -1.1794 5.577776032281552 9.053063284534183 13.92258973325899 0 0 0
333 111 1 0.5897 6.184271761090058 5.549157669424238 12.314028609037742 0 0 0
793 265 2 -1.1794 9.460109198820074 9.29307259144091 14.154427929300144 0 0 0
385 129 2 -1.1794 9.12481005354419 5.582668964000324 14.017989472670433 0 0 0
387 129 1 0.5897 9.19439341047131 6.145404366653956 13.246764855359567 0 0 0
460 154 2 -1.1794 6.131399776888617 7.290398808252225 11.961032099855567 0 0 0
461 154 1 0.5897 5.964921841981429 7.856039030841262 12.715110849646255 0 0 0
462 154 1 0.5897 5.466915803757347 7.543204132022557 11.320033414164458 0 0 0
490 164 2 -1.1794 9.00472597365984 7.511454994331329 12.105992139824204 0 0 0
491 164 1 0.5897 9.507620789893858 7.64589608357846 11.302651947637703 0 0 0
492 164 1 0.5897 8.098360204396458 7.425578176151871 11.810228005089915 0 0 0
705 235 1 0.5897 7.789740675355641 6.0197335327962085 15.217453520066673 0 0 0
824 275 1 0.5897 8.165299764409191 9.121535457932989 15.35120608638571 0 0 0
814 272 2 -1.1794 8.76723861303446 7.42923160960858 18.97789253042958 0 0 0
786 262 1 0.5897 6.946278731733811 7.400070448548595 18.926030669109338 0 0 0
815 272 1 0.5897 9.01414540609415 6.622854182673652 19.4307317634879 0 0 0
816 272 1 0.5897 8.965149116687604 8.12606310518351 19.603616695766377 0 0 0
823 275 2 -1.1794 7.42791041698822 8.96046495483084 15.93997309638518 0 0 0
703 235 2 -1.1794 7.304538150871026 6.259187294006858 16.007119705271954 0 0 0
825 275 1 0.5897 7.439186745540069 8.014447183050034 16.08546431318912 0 0 0
784 262 2 -1.1794 6.001540998603248 7.353140268701736 19.07306656582616 0 0 0
785 262 1 0.5897 5.842452822111946 6.442890954527586 19.3228488112371 0 0 0
144 48 1 0.5897 5.612023241613005 8.412824771170406 20.449797602027402 0 0 -1
704 235 1 0.5897 6.3845165641820945 6.152978635053997 15.764981375613138 0 0 0
709 237 2 -1.1794 9.362694694360487 5.338590645472847 20.778858311225278 0 0 0
696 232 1 0.5897 7.932059686066543 5.144856861991905 17.197719117642272 0 0 0
154 52 2 -1.1794 7.929053165134544 10.50185059225218 3.794600143023513 0 0 0
819 273 1 0.5897 8.471137749132158 12.35134128457408 0.4165419226190833 0 0 1
156 52 1 0.5897 8.877456809133013 10.629959162504436 3.8159560326908077 0 0 0
163 55 2 -1.1794 7.5183180997164465 12.685268766996401 1.9772670160197867 0 0 0
164 55 1 0.5897 6.583307351777851 12.578004157269415 1.8023547092922465 0 0 0
165 55 1 0.5897 7.713432146260519 12.031526427419871 2.648715378539169 0 0 0
285 95 1 0.5897 7.694252008454081 14.597747505291576 2.035960809979462 0 0 0
276 92 1 0.5897 9.146599591147002 14.040701431822143 4.374388366731035 0 0 0
246 82 1 0.5897 5.303643889435012 13.919990222874521 4.553398536734764 0 0 0
275 92 1 0.5897 7.7835827865430645 13.944960636187751 5.026474125033494 0 0 0
116 39 1 0.5897 6.5942548251608635 10.711114683957417 5.066189910332109 0 0 0
115 39 2 -1.1794 5.835601670838663 10.964371329014394 5.592163889970427 0 0 0
169 57 2 -1.1794 9.24802235069486 11.806066088969189 7.056294597037892 0 0 0
170 57 1 0.5897 9.055042085895028 12.280414046842079 6.247554882589703 0 0 0
171 57 1 0.5897 9.18798111494867 10.88228796534487 6.812821360435198 0 0 0
117 39 1 0.5897 5.770227318824956 10.283981617044995 6.262301171105696 0 0 0
488 163 1 0.5897 7.952804396697739 12.407054018463526 8.19456073513033 0 0 0