LAMMPS data file via write_data, version 30 Jul 2021, timestep = 6000000

1296 atoms
2 atom types
864 bonds
1 bond types
432 angles
1 angle types

-10.66972686802158 12.649726868021581 xlo xhi
-9.18190914771338 12.17190714771338 ylo yhi
0.12010232273112109 21.739896677274494 zlo zhi
-9.200342068715683 1.8593283535592036 2.8968168795284166 xy xz yz

Masses

1 1.008
2 15.999

Pair Coeffs # lj/cut/tip4p/long/omp

1 0 0
2 0.21084 3.1668

Bond Coeffs # harmonic/omp

1 450 0.9572

Angle Coeffs # harmonic/omp

1 55 104.52

Atoms # full

282 94 1 0.5897 -10.527109585622874 -4.090410390515735 1.5986311550615373 1 1 0
315 105 1 0.5897 -8.702643085931907 -5.389853939742903 5.286372415775242 1 1 0
280 94 2 -1.1794 -9.66828712081994 -4.479172358861959 1.4324690589095657 1 1 0
270 90 1 0.5897 -8.461173383561922 -7.32158626299506 2.266683794387464 1 1 0
163 55 2 -1.1794 -7.089252014149793 -7.8516113409973975 1.0371067046115199 1 1 0
164 55 1 0.5897 -6.315861727710539 -8.355678676797366 1.2901914311727543 1 1 0
298 100 2 -1.1794 -5.8185041214883615 -7.1596998087304735 4.226580036456541 1 1 0
269 90 1 0.5897 -9.346736211415918 -6.094608131171833 2.3127776387713213 1 1 0
268 90 2 -1.1794 -9.230337500540465 -6.959241455465834 2.7064527638867224 1 1 0
259 87 2 -1.1794 -6.711631366843921 -5.204088172689795 0.30236372303275383 1 1 0
324 108 1 0.5897 -7.0651910445557435 -4.256895560146596 3.6399147735671775 1 1 0
73 25 2 -1.1794 -8.490223276330862 -3.720526421891985 4.69648341392446 1 0 0
314 105 1 0.5897 -9.052275203198908 -6.618431340767253 4.473968234038744 1 1 0
300 100 1 0.5897 -5.012530268460429 -7.672271951145 4.289518915044469 1 1 0
299 100 1 0.5897 -6.519528905774121 -7.811165873500045 4.246466649255488 1 1 0
323 108 1 0.5897 -6.2135326761005345 -5.498186724118132 3.479639506803229 1 1 0
275 92 1 0.5897 -10.55801906017502 -8.08241948133638 3.3541636589704082 1 1 0
260 87 1 0.5897 -6.881825608094998 -6.140621904867642 0.40262036785819 1 1 0
75 25 1 0.5897 -9.281376711458915 -3.2809151013254674 4.3848936568465495 1 0 0
261 87 1 0.5897 -6.669156988268529 -4.8706195331295055 1.1985470852687168 1 1 0
281 94 1 0.5897 -9.054291202517312 -3.7496164411142336 1.5159225945894992 1 1 0
165 55 1 0.5897 -7.531520812144606 -8.399783012622231 0.38897866262891334 1 1 0
322 108 2 -1.1794 -6.40951955206812 -4.656449634538894 3.06831850544074 1 1 0
74 25 1 0.5897 -8.208517615823016 -3.2019989060521796 5.45008569009863 1 0 0
313 105 2 -1.1794 -8.822927302086237 -6.3365878436243595 5.359470721184132 1 1 0
429 143 1 0.5897 -6.401458811809483 -7.087455005326131 8.553129425562645 1 0 0
428 143 1 0.5897 -6.5922223235964115 -7.051491974061856 10.054475345315952 1 0 0
427 143 2 -1.1794 -5.946744910812584 -6.878641337440158 9.36909718692143 1 0 0
419 140 1 0.5897 -8.887808777447143 -5.454427898882415 8.792884513734576 1 0 0
418 140 2 -1.1794 -9.625062036969444 -5.880059490546334 9.230576941319576 1 0 0
413 138 1 0.5897 -7.564858058291877 -3.6167419177504243 7.6928198915213795 1 0 0
414 138 1 0.5897 -6.700350682241757 -4.85135065419996 7.550740239263201 1 0 0
350 117 1 0.5897 -7.156844420216212 -4.284167841642048 9.93828892756361 0 0 0
627 209 1 0.5897 -10.359340625545373 -6.557965355638904 6.297335789552512 1 1 0
618 206 1 0.5897 -7.776346317914098 -7.321515044789672 6.48745874032195 1 1 0
351 117 1 0.5897 -7.091775298472914 -2.991064483285829 10.722685113967977 0 0 0
412 138 2 -1.1794 -7.40161340691781 -4.475414185632356 8.08289178918285 1 0 0
420 140 1 0.5897 -9.220331171341039 -6.4356156312791555 9.896692941441037 1 0 0
616 206 2 -1.1794 -7.393015322273907 -7.8294599666711315 7.2024445888976185 1 1 0
349 117 2 -1.1794 -7.127776249272056 -3.9413184487235284 10.831462701046483 0 0 0
626 209 1 0.5897 -10.612430156950651 -6.516754663986703 7.7893101593701966 1 1 0
633 211 1 0.5897 -5.574134108836311 -6.120080187537624 5.760741309034614 1 1 0
684 228 1 0.5897 -8.545853266189841 -6.48132597282552 14.30007337835929 0 0 0
662 221 1 0.5897 -9.250025740442872 -4.318490492906029 13.228401537262801 0 0 0
740 247 1 0.5897 -10.711961805394198 -3.329110791063508 11.886013476513371 1 0 0
652 218 2 -1.1794 -5.732125127571141 -5.448269919822701 12.781593995236948 0 0 0
682 228 2 -1.1794 -7.9241510619838404 -6.932356775261592 13.728832833380253 0 0 0
780 260 1 0.5897 -7.578620305046529 -3.898129368845911 15.230370323264985 0 0 0
779 260 1 0.5897 -7.3599409450013855 -2.896346491933878 14.11669106635545 0 0 0
778 260 2 -1.1794 -8.047814816518887 -3.3692723913373213 14.585128331769997 0 0 0
768 256 1 0.5897 -9.622606385275732 -2.5308392092502876 14.746530510264854 0 0 0
654 218 1 0.5897 -6.160892348673386 -4.883128163781748 12.13899287907917 0 0 0
653 218 1 0.5897 -6.448994603290423 -5.932334326391507 13.1915335255011 0 0 0
661 221 2 -1.1794 -9.494323077151197 -4.572387139371298 12.338454565342008 0 0 0
729 243 1 0.5897 -8.157764241604234 -7.1506712780603685 11.824739496630572 1 0 0
766 256 2 -1.1794 -10.464232057948335 -2.079109251579978 14.809074465263349 0 0 0
788 263 1 0.5897 -4.913996665496034 -4.684807119863706 15.692095917894084 0 0 0
663 221 1 0.5897 -8.728813038970259 -4.352443338709023 11.807491235063747 0 0 0
727 243 2 -1.1794 -8.13830801366038 -7.5237861264271455 10.943514163083034 1 0 0
767 256 1 0.5897 -11.112395221487466 -2.782636486158717 14.843070980726255 0 0 0
757 253 2 -1.1794 -9.773577001350965 -5.7687507062262995 15.331538198495826 0 0 0
739 247 2 -1.1794 -11.519670486372176 -2.9120158268916594 11.586153050498485 1 0 0
758 253 1 0.5897 -9.479211185742146 -5.25144934839936 16.08113672688306 0 0 0
1131 377 1 0.5897 -7.005972874203092 -1.7279247747386792 17.104114013868717 0 0 0
1097 366 1 0.5897 -9.077788195469275 -5.625454138696274 18.45036242823071 0 0 0
1143 381 1 0.5897 -8.567776092573144 -4.905497432801528 21.518058806798376 0 0 0
1110 370 1 0.5897 -10.276953714002614 -3.661640984139943 17.689134712205114 0 0 0
1152 384 1 0.5897 -6.9760464049869935 -3.929679854250306 19.78720734180671 0 0 0
1225 409 2 -1.1794 -8.132044570359959 -3.164415338735978 20.93736708219416 0 0 0
1227 409 1 0.5897 -8.961871770446079 -2.8195985749040897 20.60756680871235 0 0 0
1088 363 1 0.5897 -6.702904373609027 -5.7142631903701515 16.63611520637495 0 0 0
1109 370 1 0.5897 -8.802477577700099 -3.3723745239092455 17.503578396966294 0 0 0
1108 370 2 -1.1794 -9.42899430790484 -4.09204676435318 17.579453511974926 0 0 0
1248 416 1 0.5897 -5.875870863778208 -1.2825906324237089 20.661924557987668 0 0 0
1089 363 1 0.5897 -6.477382130987937 -4.3730457093702215 17.30086396331859 0 0 0
1150 384 2 -1.1794 -6.336369601367915 -4.292578167300803 19.174522261035168 0 0 0
1219 407 2 -1.1794 -10.408848053843416 -1.8359400055061794 20.165907775709435 0 0 0
1130 377 1 0.5897 -7.316641508580233 -1.5780070067470007 18.57814350238786 0 0 0
1151 384 1 0.5897 -6.162777146104859 -5.174578425451684 19.50325263854821 0 0 0
1129 377 2 -1.1794 -7.72148374933497 -1.7895350724665464 17.73699838805731 0 0 0
1142 381 1 0.5897 -8.625244920779146 -6.212347113727251 20.756171260147344 0 0 0
1087 363 2 -1.1794 -6.5122655456578515 -4.7963700798629905 16.443119426881836 0 0 0
1096 366 2 -1.1794 -8.969436284097995 -6.4882460770834065 18.85032544641261 0 0 0
1226 409 1 0.5897 -7.8722076086577415 -2.5493774781415857 21.62319303692048 0 0 0
1121 374 1 0.5897 -4.787341848515663 -3.5751648735669868 18.68707380872115 0 0 0
1221 407 1 0.5897 -10.766091778583077 -2.0127682456618414 19.2956944168167 0 0 0
1141 381 2 -1.1794 -8.662926589941183 -5.849893211060471 21.641248205557538 0 0 0
99 33 1 0.5897 -11.76299636298364 1.5077769010811295 5.168645538629698 1 0 0
69 23 1 0.5897 -11.036745428196229 -2.3499013905415973 3.0313192345079316 1 0 0
98 33 1 0.5897 -11.932745937827328 0.27946986569968857 4.3002700817896224 1 0 0
272 91 1 0.5897 -9.425194077168122 -1.1620151997210062 1.1349000292793059 1 1 0
271 91 2 -1.1794 -10.233640435981384 -0.725069936820022 0.866989859816967 1 1 0
59 20 1 0.5897 -13.693771563948324 -0.6205996949023316 3.2437792288121123 1 0 0
258 86 1 0.5897 -12.59283253465308 -2.6852041396307236 1.150475669214099 1 1 0
301 101 2 -1.1794 -7.99244360986118 -2.2758770451126225 1.5413625481161402 1 1 0
67 23 2 -1.1794 -10.621837992009102 -2.1188239984595256 3.8623578238483294 1 0 0
256 86 2 -1.1794 -12.147616381127909 -3.2648605862675906 1.7684926012717825 1 1 0
68 23 1 0.5897 -11.316548828731783 -2.2186105796324584 4.513283929329199 1 0 0
52 18 2 -1.1794 -12.306953847222696 0.307345513361728 2.4520407107800364 1 0 0
53 18 1 0.5897 -12.412898489631761 1.2157081717510607 2.1696031021662905 1 0 0
82 28 2 -1.1794 -9.007686384617251 0.06784485145558605 4.082209779655326 1 0 0
83 28 1 0.5897 -9.588380295738018 -0.6810201791378034 3.9473415946029506 1 0 0
54 18 1 0.5897 -11.618897440589919 -0.04148841112498225 1.8853179705163172 1 0 0
273 91 1 0.5897 -10.550241155540963 -1.2400712831002627 0.12490637131002184 1 1 0
107 36 1 0.5897 -9.484648558422785 1.5390127414760233 3.1495509509922 1 0 0
97 33 2 -1.1794 -11.968489108975573 0.573883940906244 5.210322261012168 1 0 0
84 28 1 0.5897 -8.125563565135948 -0.29381616583139625 3.9962481026797354 1 0 0
527 176 1 0.5897 -12.142823689401897 1.746232605813498 8.588228932414342 1 0 0
526 176 2 -1.1794 -12.83520807335307 1.2655290304192413 9.041864438499632 1 0 0
426 142 1 0.5897 -8.758382192375256 -1.6014819525329038 6.9695731259184175 1 0 0
411 137 1 0.5897 -13.480958917791824 0.3753060053756503 6.151899265137446 1 0 0
402 134 1 0.5897 -10.844251388601656 -0.3225284576744727 6.426048537076576 1 0 0
401 134 1 0.5897 -11.203378349285556 -1.2689825595766449 7.551640229081882 1 0 0
400 134 2 -1.1794 -10.467220925881769 -0.7893682495302894 7.1717475608820465 1 0 0
537 179 1 0.5897 -9.430854000891166 0.0254846487986633 8.61562678171637 1 0 0
536 179 1 0.5897 -9.648299612369382 0.13839482000242498 10.109514901467206 1 0 0
535 179 2 -1.1794 -8.984772727015656 0.2578323026106819 9.429997580095923 1 0 0
528 176 1 0.5897 -12.375426424229188 0.7531645540146776 9.706882162032873 1 0 0
424 142 2 -1.1794 -7.935352371995177 -2.0674922404850484 6.822045670958803 1 0 0
435 145 1 0.5897 -7.447565417128947 -0.8720367236276267 9.794339376455767 0 0 0
522 174 1 0.5897 -9.771095312922647 2.157003393796 7.664001451107112 1 0 0
410 137 1 0.5897 -13.729720290458745 0.46114434286909045 7.642697918906554 1 0 0
425 142 1 0.5897 -7.268993515571924 -1.3804166763809054 6.8113227907048035 1 0 0
520 174 2 -1.1794 -10.48881559353363 2.557312874879294 8.154829397841127 1 0 0
417 139 1 0.5897 -8.705026274156914 1.1888560025018844 5.557723637626926 1 0 0
769 257 2 -1.1794 -12.567271515034431 2.7046670557715515 12.397425734814375 0 0 0
762 254 1 0.5897 -9.279927330958627 2.2843794083696416 12.101636500587649 0 0 0
761 254 1 0.5897 -9.440973463114995 1.2837754752919253 13.226145316205823 0 0 0
760 254 2 -1.1794 -8.77789160276337 1.737694248476073 12.706013624300674 0 0 0
835 279 2 -1.1794 -11.275936432995762 -0.24212945200552305 10.979043238760193 1 0 0
792 264 1 0.5897 -11.665618129603743 0.7049336306031453 14.268750807809829 0 0 0
837 279 1 0.5897 -11.277150128563907 0.12684453259777406 11.862223702610361 1 0 0
888 296 1 0.5897 -10.701810718948462 3.2028317375919624 15.325305890499454 0 0 0
791 264 1 0.5897 -10.812397808954005 -0.5028960641045561 13.944737956773086 0 0 0
790 264 2 -1.1794 -10.972349376304285 0.4033630216998336 13.68163020439545 0 0 0
836 279 1 0.5897 -11.34337565738399 -1.1873351788041449 11.113774595000342 1 0 0
896 299 1 0.5897 -8.049401170981511 2.555048953368379 15.550089292222902 0 0 0
770 257 1 0.5897 -12.193798350615861 2.9282175982833394 13.249897545659243 0 0 0
771 257 1 0.5897 -11.836328004521736 2.7903773253167703 11.785323827397113 0 0 0
897 299 1 0.5897 -7.843251847056556 2.429438792644591 14.055615191784902 0 0 0
1101 367 1 0.5897 -10.246930696948318 -0.8631207959284808 16.324447531517393 0 0 0
866 289 1 0.5897 -12.645745049306912 1.8789505046957462 16.167091772211045 0 0 0
1009 337 2 -1.1794 -11.286294268735508 4.088690198818446 21.030508381093416 0 -1 0
1260 420 1 0.5897 -10.04327403876221 3.4315536696490696 19.849027772814665 0 0 0
1205 402 1 0.5897 -12.212643304826512 1.4884700270097895 18.500233880087958 0 0 0
1259 420 1 0.5897 -9.303916819053022 2.1610147100084376 19.487284395332086 0 0 0
1258 420 2 -1.1794 -9.374261836166083 3.0874183291044055 19.257192981381973 0 0 0
1196 399 1 0.5897 -9.70281009260649 1.4157928551640246 16.801039899086515 0 0 0
1206 402 1 0.5897 -11.364719900315471 0.26781557642675224 18.21238692697933 0 0 0
1250 417 1 0.5897 -11.71856735673123 1.080673364515409 20.602484413227305 0 0 0
1236 412 1 0.5897 -7.915782341766011 0.08310955493497829 20.23979215866303 0 0 0
1204 402 2 -1.1794 -12.010061359268365 0.6128506425577598 18.829441093640803 0 0 0
1235 412 1 0.5897 -9.40020296734674 -0.19306499424931722 20.351199532894288 0 0 0
1234 412 2 -1.1794 -8.766669650188911 0.5202962807801228 20.27393555148269 0 0 0
1195 399 2 -1.1794 -9.653000260774498 2.342494805473901 16.566823262978 0 0 0
1218 406 1 0.5897 -13.492083025417298 3.3930871610323106 17.556185521163638 0 0 0
1251 417 1 0.5897 -11.445035518549957 2.2723949699782455 21.4950239291374 0 0 0
1197 399 1 0.5897 -9.56110366560064 2.797028461568244 17.404140399132555 0 0 0
1100 367 1 0.5897 -9.151812562036461 -0.7167825362133371 17.359430043508638 0 0 0
1216 406 2 -1.1794 -12.580365804499866 3.1044578146461994 17.59858982452055 0 0 0
1099 367 2 -1.1794 -9.97754912902097 -0.3279622952826706 17.07089729648828 0 0 0
1246 416 2 -1.1794 -6.384116643331717 -0.7691542033455363 20.03403592786154 0 0 0
44 15 1 0.5897 -8.107107026684496 3.878778403043569 21.697438691966767 1 0 -1
1249 417 2 -1.1794 -11.61362030075857 1.3305604633287977 21.520467291638266 0 0 0
40 14 2 -1.1794 -15.239182679948737 3.8070536643741164 1.7311809089166261 1 0 0
177 59 1 0.5897 -14.24428617710577 4.462913344659812 3.1886031515742133 1 0 0
42 14 1 0.5897 -15.697603974514532 4.3165826377747205 1.063047820723303 1 0 0
108 36 1 0.5897 -10.250337113877592 2.815395413246163 3.42587832591593 1 0 0
190 64 2 -1.1794 -12.114089385910226 6.853716291801529 4.067451794495229 1 0 0
55 19 2 -1.1794 -13.545044504915293 6.350559566126709 0.8985192080880053 1 0 0
56 19 1 0.5897 -12.673438909070196 6.033778633221782 1.135713698073659 1 0 0
45 15 1 0.5897 -9.876130898935598 2.1681746415804426 1.0137972844216225 1 0 0
85 29 2 -1.1794 -10.963021394402698 5.183478679257558 1.4510899817892704 1 0 0
66 22 1 0.5897 -13.511351068997854 3.2974609596422138 1.5034116940352535 1 0 0
65 22 1 0.5897 -12.049541951637751 3.6518988114593647 1.3311831418914557 1 0 0
64 22 2 -1.1794 -12.64731295643668 2.905659590253501 1.3759258676176085 1 0 0
182 61 1 0.5897 -11.119196525020403 3.879820867533013 5.435017395015095 1 0 0
176 59 1 0.5897 -14.332799164260784 4.679561176883249 4.684243787951803 1 0 0
191 64 1 0.5897 -12.778457432579184 6.1655054883695914 4.102220118466436 1 0 0
175 59 2 -1.1794 -13.705044771746874 4.616538788789807 3.964368158677867 1 0 0
183 61 1 0.5897 -12.285491094895253 3.692419815254521 4.488149159859724 1 0 0
181 61 2 -1.1794 -11.458489794630697 3.293530476290277 4.758783483536357 1 0 0
192 64 1 0.5897 -11.287971705377524 6.3843098422204 3.9513022288431268 1 0 0
162 54 1 0.5897 -14.801024876470294 6.876822694521913 2.1606825998515555 1 0 0
106 36 2 -1.1794 -9.641779998677084 2.4174123352082244 2.803362889914102 1 0 0
508 170 2 -1.1794 -13.43369278737973 6.181990981689349 7.303828218991616 1 0 0
645 215 1 0.5897 -12.496865653322077 6.935878573622123 8.671060463988434 1 0 0
644 215 1 0.5897 -12.834098871220288 7.195296753683543 10.12389619056813 1 0 0
643 215 2 -1.1794 -12.113919890020036 7.237652323111746 9.49473808735343 1 0 0
509 170 1 0.5897 -14.195361319229365 5.748450650564015 7.688783943349789 1 0 0
457 153 2 -1.1794 -10.226211790172487 3.2341037650111986 10.850106539229856 0 0 0
459 153 1 0.5897 -10.098833096049143 4.18107979619545 10.794213699406866 0 0 0
532 178 2 -1.1794 -10.966613785293562 5.007303555188097 6.911194492967055 1 0 0
543 181 1 0.5897 -10.502642975828792 6.249442952691929 9.897328191504968 0 0 0
510 170 1 0.5897 -13.803175076189174 6.806871196104332 6.6800095901999965 1 0 0
521 174 1 0.5897 -10.557868705222933 3.443268385710315 7.799255724164971 1 0 0
534 178 1 0.5897 -11.838424104164732 5.395752141701172 6.984537082278007 1 0 0
636 212 1 0.5897 -15.477550513581694 7.789525116156511 9.758580375760785 1 0 0
458 153 1 0.5897 -10.369931277126145 2.9574703010690016 9.945139226558462 0 0 0
533 178 1 0.5897 -10.366609816698249 5.750454466606808 6.973825611707205 1 0 0
519 173 1 0.5897 -16.46500456722329 7.497681528694724 6.274156418420424 1 0 0
943 315 2 -1.1794 -14.546322007832437 6.77809657861987 10.87680754888995 1 0 0
887 296 1 0.5897 -10.49037773564918 4.054409816399424 14.091694999539332 0 0 0
869 290 1 0.5897 -12.639051922964073 8.10272847446467 13.172915252815908 0 0 0
876 292 1 0.5897 -12.733215611579618 4.521842512193899 14.845725586348106 0 0 0
874 292 2 -1.1794 -13.637782196188603 4.824154789560087 14.927605067971035 0 0 0
886 296 2 -1.1794 -11.172997133758924 3.6236748958728917 14.606246916139352 0 0 0
945 315 1 0.5897 -14.475416077206326 7.094150771102388 11.77749158285182 1 0 0
848 283 1 0.5897 -13.930823000381547 3.7334928034369828 11.91161787535738 1 0 0
900 300 1 0.5897 -14.859170605259436 7.638523501828502 14.139762782076106 0 0 0
899 300 1 0.5897 -14.008404376999746 6.392838858881937 14.012250701296608 0 0 0
898 300 2 -1.1794 -14.151927287224959 7.254654947556581 13.621367534436851 0 0 0
1209 403 1 0.5897 -13.593757387176048 6.225186883786451 16.30162996354147 0 0 0
875 292 1 0.5897 -14.155471539234952 4.020835843880773 14.981058137506533 0 0 0
880 294 2 -1.1794 -9.176216176836933 5.0972309444294215 13.440965124675387 0 0 0
649 217 2 -1.1794 -16.027868959653603 8.36532709099291 15.383316681485326 0 -1 0
650 217 1 0.5897 -15.782360599410346 8.899868723645337 16.138391094417436 0 -1 0
944 315 1 0.5897 -14.610656364831343 5.826811922680978 10.96066980706654 1 0 0
1018 340 2 -1.1794 -11.86809604437721 7.621536268464187 20.223010715286783 0 -1 0
1019 340 1 0.5897 -12.463765356896722 6.8746374880309595 20.1636637677459 0 -1 0
1020 340 1 0.5897 -10.993348894904871 7.234577721801145 20.185591059916167 0 -1 0
988 330 2 -1.1794 -15.07136847254732 7.7837609065982 18.849191427469275 0 -1 0
1237 413 2 -1.1794 -11.06392173942513 5.450682660430214 17.737242077185922 0 0 0
1043 348 1 0.5897 -12.295822667147828 9.241530864482662 19.623909015565346 0 -1 0
1030 344 2 -1.1794 -9.504673191917632 6.325014123444422 19.87045187086672 0 -1 0
1032 344 1 0.5897 -9.163697178225245 5.797695174627403 20.592822727535737 0 -1 0
1003 335 2 -1.1794 -13.628781964317731 5.275528102840424 20.160042249962487 0 -1 0
1034 345 1 0.5897 -14.86233845313189 7.939229700033554 20.656196725152476 0 -1 0
1239 413 1 0.5897 -10.386269540214412 5.436871190638158 17.06131345210096 0 0 0
1238 413 1 0.5897 -10.61300601795509 5.76032712785457 18.522716167089296 0 0 0
990 330 1 0.5897 -14.379073594818347 7.362326818682536 18.33988114913417 0 -1 0
1208 403 1 0.5897 -12.435953803551161 6.406096082264806 17.260113411170657 0 0 0
1207 403 2 -1.1794 -13.247257928845173 6.820473745570602 16.966252640764957 0 0 0
980 327 1 0.5897 -12.810024047701678 8.553390163839577 16.511261244132143 0 -1 0
989 330 1 0.5897 -15.20198600156423 8.630333040973152 18.422136392681203 0 -1 0
1033 345 2 -1.1794 -14.817465814654401 8.200447930039356 21.5759266708092 0 -1 0
1035 345 1 0.5897 -14.697771915464337 9.149726017283832 21.550209450225935 0 -1 0
1217 406 1 0.5897 -12.07727824096746 3.912369763847387 17.70034599785004 0 0 0
1011 337 1 0.5897 -12.114088877823015 4.390211547981053 20.656179658146335 0 -1 0
43 15 2 -1.1794 -7.99093668243123 4.82879818746083 21.706393100083908 1 0 -1
1010 337 1 0.5897 -11.081980488551784 4.731196374199154 21.70990569525054 0 -1 0
57 19 1 0.5897 -11.913254461805458 8.755678719485012 21.72925932398438 1 0 -1
152 51 1 0.5897 -13.243412428767282 8.107721482901265 0.33727557539002384 1 0 0
174 58 1 0.5897 -16.798774831466627 10.131576258044152 1.570378431777925 1 0 0
173 58 1 0.5897 -15.309015640058036 10.400654210861727 1.590272405871167 1 0 0
172 58 2 -1.1794 -15.949672649335852 9.689635594605402 1.5751871269031197 1 0 0
290 97 1 0.5897 -14.361753629550364 11.134240349790652 5.290068943040425 1 0 0
161 54 1 0.5897 -15.610544685298262 8.130941799861283 2.4129985177292355 1 0 0
285 95 1 0.5897 -17.29330237579553 11.734731134665243 3.269332486705419 1 0 0
148 50 2 -1.1794 -18.32767563968439 11.046072420498852 1.9032549519851147 1 0 0
215 72 1 0.5897 -12.410756163339807 8.599976482363836 3.3001768636467133 1 0 0
150 50 1 0.5897 -18.722397185734426 11.658570879872823 1.2826112789721134 1 0 0
216 72 1 0.5897 -13.354755954402272 9.769588286727796 3.4811158001667875 1 0 0
284 95 1 0.5897 -17.564123120566084 11.853616010797975 4.754006913960663 1 0 0
151 51 2 -1.1794 -13.016250987100896 9.036344733986148 0.2905642392373813 1 0 0
291 97 1 0.5897 -15.444859430881706 10.888322353975628 4.261331168348434 1 0 0
289 97 2 -1.1794 -14.643297028475956 10.509271365566601 4.622017663104292 1 0 0
283 95 2 -1.1794 -16.891061995794452 12.012649330460146 4.092213033305104 1 0 0
193 65 2 -1.1794 -14.14665226589484 11.883695343512638 1.5820246395732958 1 0 0
205 69 2 -1.1794 -14.862911782098912 7.8705005019977285 5.3469044987303995 1 0 0
207 69 1 0.5897 -14.921346027813172 8.821170527332956 5.252419812745681 1 0 0
525 175 1 0.5897 -11.913185894127468 8.121560032348079 5.447622018298988 1 0 0
206 69 1 0.5897 -14.903306739129956 7.537322882716769 4.450516569725658 1 0 0
160 54 2 -1.1794 -15.450007002659063 7.251909161914771 2.7559984186701745 1 0 0
194 65 1 0.5897 -13.703602995439965 11.956266157608777 2.4273743629749833 1 0 0
214 72 2 -1.1794 -12.645828541986454 9.448129459485973 2.924001789382031 1 0 0
153 51 1 0.5897 -12.828380988837104 9.283281476990357 1.196035270271671 1 0 0
640 214 2 -1.1794 -14.132214246734948 12.21681530391637 6.791478318740578 1 0 0
630 210 1 0.5897 -13.0159864334785 9.335176190058647 7.436514203091782 1 0 0
629 210 1 0.5897 -13.768796799806559 10.633184736973313 7.637080461390212 1 0 0
628 210 2 -1.1794 -13.663017499273955 9.75520576218383 8.0032533937697 1 0 0
566 189 1 0.5897 -13.330295872966932 9.805070057296426 9.904461024840277 0 0 0
634 212 2 -1.1794 -15.89813969282688 8.351459104159794 9.107817550524143 1 0 0
617 206 1 0.5897 -17.340539769680554 13.095048672221374 7.619210781338743 1 0 0
642 214 1 0.5897 -14.958921284519642 12.64349300188541 7.0169030777869175 1 0 0
635 212 1 0.5897 -15.171693301734237 8.783695163605955 8.65868701205261 1 0 0
567 189 1 0.5897 -13.16008335910648 11.020395093199728 10.790830806166243 0 0 0
327 109 1 0.5897 -13.799637128785644 13.411172116219706 9.878444963723332 0 -1 0
565 189 2 -1.1794 -13.197354681684066 10.064320264092654 10.816196325861243 0 0 0
641 214 1 0.5897 -13.46369936854348 12.877211034886901 6.973638841323154 1 0 0
325 109 2 -1.1794 -13.102331675363304 12.89740179255621 10.285924871739809 0 -1 0
658 220 2 -1.1794 -16.532374350947137 12.048858147878313 15.016978540195518 0 -1 0
870 290 1 0.5897 -12.283810886616678 9.142950465765285 12.132034208738904 0 0 0
680 227 1 0.5897 -11.093288008524853 9.749714932544933 15.568852818769559 0 -1 0
671 224 1 0.5897 -13.476290495789613 11.353716205364954 14.190555655042541 0 -1 0
868 290 2 -1.1794 -11.896041614061499 8.57645906937569 12.799026112090571 0 0 0
956 319 1 0.5897 -16.935834932026083 10.838668746372544 11.999504915892857 1 0 0
660 220 1 0.5897 -15.653597315259336 11.677794456507918 14.937103814230381 0 -1 0
879 293 1 0.5897 -14.741825958026261 9.787283372080754 11.73254526186317 0 0 0
878 293 1 0.5897 -15.124274957563435 9.97167217573687 13.185646652419162 0 0 0
877 293 2 -1.1794 -15.484780854119213 9.72772136006581 12.333188901972955 0 0 0
683 228 1 0.5897 -16.91926679892311 13.609082225709852 14.191490993128983 0 -1 0
670 224 2 -1.1794 -14.180031054342457 10.784443187397624 14.501893682595856 0 -1 0
672 224 1 0.5897 -13.767118100462191 10.234925931368991 15.167997501201743 0 -1 0
728 243 1 0.5897 -17.472366289736613 12.89175111009741 11.077196768302306 1 -1 0
659 220 1 0.5897 -17.119812931414618 11.319848037725738 14.817841045807214 0 -1 0
681 227 1 0.5897 -10.808855656880292 9.34049986482449 14.13938529544953 0 -1 0
1140 380 1 0.5897 -12.240863202590761 12.845744284884315 20.776929292976188 0 -1 0
1138 380 2 -1.1794 -12.634918602242102 13.393105831153214 20.097761024947232 0 -1 0
1128 376 1 0.5897 -14.196948358773183 14.304360456493356 20.42471662687793 0 -1 0
1127 376 1 0.5897 -15.664054680807617 13.931481636895523 20.397818972875093 0 -1 0
1022 341 1 0.5897 -13.489839886021691 12.588658936236037 18.694314085489715 0 -1 0
1119 373 1 0.5897 -15.225258572453917 11.343469016324867 20.533891898710284 0 -1 0
1117 373 2 -1.1794 -14.48393788654207 10.935245123424266 20.98115699075058 0 -1 0
1044 348 1 0.5897 -13.103511088389176 10.498934811742043 19.86552738872151 0 -1 0
1042 348 2 -1.1794 -12.47605585472364 10.107362211935339 19.257880947797346 0 -1 0
981 327 1 0.5897 -12.699058599812146 9.727612456232158 17.4602252519011 0 -1 0
1126 376 2 -1.1794 -15.074645996162838 14.678257464288034 20.503284207258538 0 -1 0
1098 366 1 0.5897 -17.55234152222766 14.411174702208424 18.277132033124992 0 -1 0
1111 371 2 -1.1794 -16.69701894480468 12.353157008674891 20.116381042485543 0 -1 0
991 331 2 -1.1794 -16.26198471294117 13.807678827033769 17.095954818508055 0 -1 0
992 331 1 0.5897 -15.457600633054584 13.486764300998747 17.50369882465184 0 -1 0
1023 341 1 0.5897 -13.23932788219727 12.507711650046542 17.203535076260447 0 -1 0
1021 341 2 -1.1794 -13.941360930372369 12.507430443543651 17.854255737735855 0 -1 0
1001 334 1 0.5897 -14.963388130431177 10.884058214367244 17.70725292893542 0 -1 0
1000 334 2 -1.1794 -15.598662175952125 10.179986048236039 17.577194512817503 0 -1 0
1013 338 1 0.5897 -11.03524067117614 10.863898862952023 18.5487386718363 0 -1 0
1002 334 1 0.5897 -16.450642852508086 10.6012234760585 17.691218124058977 0 -1 0
979 327 2 -1.1794 -12.7295391007268 9.506967216609326 16.529344697061536 0 -1 0
1118 373 1 0.5897 -14.269910626446325 11.539724173363272 21.691748055770915 0 -1 0
993 331 1 0.5897 -16.42990528161461 13.194021100836945 16.380859220730144 0 -1 0
318 106 1 0.5897 -2.672216170388136 -4.16113320916774 1.628935035436973 1 1 0
311 104 1 0.5897 -2.6636292643214468 -8.190771796070296 3.403524493940205 1 1 0
310 104 2 -1.1794 -3.3978911268720164 -8.66216196493452 3.7971290584254143 1 1 0
304 102 2 -1.1794 -1.4313681130579852 -7.097084281208851 2.708854998058701 1 1 0
317 106 1 0.5897 -1.166638745773513 -4.0426529201562005 1.522135957775821 1 1 0
316 106 2 -1.1794 -1.8714771873262652 -4.685062367640241 1.6043319283001556 1 1 0
242 81 1 0.5897 -1.2085007825596517 -6.78603259848841 4.491538117002598 0 1 0
306 102 1 0.5897 -0.6775403194747618 -7.430039907041156 2.2218377409477887 1 1 0
305 102 1 0.5897 -1.5487600036264535 -6.203128143099903 2.387645923677136 1 1 0
293 98 1 0.5897 -4.996132188531475 -3.7381188855397554 2.357156730203896 1 1 0
241 81 2 -1.1794 -1.0604314760656486 -6.523042130562336 5.399865618920654 0 1 0
3 1 1 0.5897 -1.2645181299059622 -3.5104747985779134 4.323520583520711 0 0 0
243 81 1 0.5897 -0.9122785900816943 -5.578496972614772 5.355108138129352 0 1 0
1262 421 1 0.5897 -2.082614428632562 -5.772408500225579 0.20663655167119577 0 0 1
201 67 1 0.5897 0.2525949861730403 -8.431235944973256 0.2587043660889212 1 1 0
632 211 1 0.5897 -4.4942544915844 -5.798302958486207 6.771784945253775 1 1 0
356 119 1 0.5897 1.303967970992332 -7.13219178037693 10.228723706189518 0 0 0
555 185 1 0.5897 -2.4502818877673036 -6.870749739704852 6.518715944194153 0 1 0
554 185 1 0.5897 -2.687074698957269 -6.836135898381301 8.013529512389116 0 1 0
553 185 2 -1.1794 -3.108703280029247 -7.065965626492174 7.185532817343048 0 1 0
546 182 1 0.5897 -0.17620003719167698 -7.612576308093436 6.725891211063579 0 1 0
359 120 1 0.5897 -4.558491424562778 -3.0747779726700486 8.680547547194468 0 0 0
544 182 2 -1.1794 0.31795016317123803 -8.057338584771092 7.414495583101404 0 1 0
348 116 1 0.5897 -1.3904312611257854 -6.505218102592057 10.080858063929135 0 0 0
347 116 1 0.5897 -1.059034894816243 -5.60667364440655 8.908469829426222 0 0 0
346 116 2 -1.1794 -1.796380889501357 -5.984971604735071 9.387527558403836 0 0 0
336 112 1 0.5897 -3.4132538968988104 -5.134574110089524 9.650755002362239 0 0 0
334 112 2 -1.1794 -4.257475194416533 -4.683737269946155 9.63241774394622 0 0 0
404 135 1 0.5897 -4.999166008729331 -3.784695653476266 5.717915944054782 1 0 0
335 112 1 0.5897 -4.905865334829362 -5.387847272957082 9.6388185809883 0 0 0
357 119 1 0.5897 1.3202427311598548 -7.305233640509403 8.724896463342109 0 0 0
631 211 2 -1.1794 -5.291694605614647 -5.444849249082948 6.377533750798369 1 1 0
793 265 2 -1.1794 -1.8815541680108527 -5.902776857834849 15.76261627146365 0 0 0
802 268 2 -1.1794 -2.6483877546902033 -2.3132371272472785 14.953214261953866 0 0 0
803 268 1 0.5897 -3.228378710802767 -3.071301152114847 15.02495044607083 0 0 0
795 265 1 0.5897 -2.6808691077012607 -5.50138391622905 15.42165279103466 0 0 0
787 263 2 -1.1794 -4.204415403550501 -4.5602254966716185 15.061811582836146 0 0 0
789 263 1 0.5897 -4.603091426990677 -4.746512711660827 14.211798417009945 0 0 0
678 226 1 0.5897 -4.176535807147975 -6.2501592072654955 12.327826574147153 0 0 0
718 240 2 -1.1794 -0.0243520942326505 -6.827700610984568 14.048960120470213 0 0 0
699 233 1 0.5897 -0.9874954960770275 -4.398859447958043 11.708941781713762 0 0 0
697 233 2 -1.1794 -1.5745598443464477 -4.405047860123836 12.464964041048312 0 0 0
677 226 1 0.5897 -2.7036835139714386 -5.901182294762641 12.360596416627903 0 0 0
676 226 2 -1.1794 -3.3045897644964164 -6.645063214375083 12.318796192085545 0 0 0
698 233 1 0.5897 -1.0226916309854985 -4.136346213645048 13.199427369102223 0 0 0
668 223 1 0.5897 -3.0277418953099957 -3.318152311255867 12.188531218766466 0 0 0