LAMMPS data file via write_data, version 30 Jul 2021, timestep = 2000000

1008 atoms
2 atom types
672 bonds
1 bond types
336 angles
1 angle types

-3.3173906958448303 14.92738969539886 xlo xhi
-0.10862098523918817 22.688619985246156 ylo yhi
-0.059937436351626516 19.289935436349758 zlo zhi
-0.13920528054158807 -6.461053776419446 0.3078552137998145 xy xz yz

Masses

1 1.008
2 15.999

Pair Coeffs # lj/cut/tip4p/long/omp

1 0 0
2 0.21084 3.1668

Bond Coeffs # harmonic/omp

1 450 0.9572

Angle Coeffs # harmonic/omp

1 55 104.52

Atoms # full

123 41 1 0.5897 -3.3582302560148802 3.017054104224008 2.833368122121285 1 0 0
55 19 2 -1.1794 -0.22697724202142489 4.352662650592873 3.4199718332129248 0 0 0
56 19 1 0.5897 -0.888272739190251 3.975503055194891 2.839836688995784 0 0 0
19 7 2 -1.1794 0.9499085081055609 2.780939136191746 -0.02932035738525283 0 0 0
86 29 1 0.5897 -2.2051290284157705 1.7978253725377 3.83265131322731 1 0 0
158 53 1 0.5897 -4.084708489272188 4.72577968016374 4.738770140779638 1 0 0
121 41 2 -1.1794 -2.4253474017199856 2.9979923634560737 2.6204258435947105 1 0 0
122 41 1 0.5897 -2.38159246207264 2.55560869795439 1.772639933147732 1 0 0
101 34 1 0.5897 -2.952675570304779 4.68468240043432 0.10416193009945524 1 0 0
602 201 1 0.5897 -0.9338287045751743 5.531755896846814 0.4504687054491282 1 0 1
87 29 1 0.5897 -3.084496873544902 0.941099851998715 4.718447236660362 1 0 0
85 29 2 -1.1794 -2.196444471086606 1.2901270619229213 4.644204381650877 1 0 0
163 55 2 -1.1794 -2.317812083866299 1.338654299844917 0.25839507963107555 1 0 0
603 201 1 0.5897 -0.3089636588550775 4.23077569552327 -0.00636162791230778 1 0 1
159 53 1 0.5897 -2.8250855054352924 4.802627578370633 5.574836838051202 1 0 0
133 45 2 -1.1794 -2.1716233070777244 3.466501049044563 6.457823202617871 1 0 0
69 23 1 0.5897 -2.8668617551894315 1.4960137966571878 8.359341256117462 0 0 0
134 45 1 0.5897 -1.9414311843093581 2.899244527692889 5.721916542225523 1 0 0
669 223 1 0.5897 -5.342238642130049 1.8597550832061103 8.983671354714865 1 0 0
124 42 2 -1.1794 -4.690247808562452 2.6155453469124073 7.308350698763071 1 0 0
126 42 1 0.5897 -3.845516050114594 2.995662543503997 7.067596802414757 1 0 0
98 33 1 0.5897 -4.121826639024038 5.496207417844125 8.725463284034175 1 0 0
135 45 1 0.5897 -1.387605511333823 3.9943229790619776 6.608357225769942 1 0 0
67 23 2 -1.1794 -2.387494382026047 0.7347786133206075 8.03240081300657 0 0 0
90 30 1 0.5897 -4.961567973221874 1.6417337895666229 5.765633017414661 1 0 0
125 42 1 0.5897 -5.332478244804835 3.2785699227552287 7.055283299083652 1 0 0
68 23 1 0.5897 -3.0363027069005675 0.2386723063297943 7.533399076734381 0 0 0
157 53 2 -1.1794 -3.4699107094366957 5.349038964887508 5.12557728958807 1 0 0
97 33 2 -1.1794 -4.020990675163338 5.020468440907839 9.550058375918994 1 0 0
88 30 2 -1.1794 -4.965584099905917 1.197156732957256 4.9178649914627846 1 0 0
523 175 2 -1.1794 -2.3798162361916666 2.88907976353008 9.819812675505906 0 0 0
626 209 1 0.5897 -5.288169184777654 2.2808521673911497 12.767907404517475 1 0 0
561 187 1 0.5897 -3.303093842236314 3.769888868614017 13.477673607560254 0 0 0
627 209 1 0.5897 -6.565586463735341 3.0033322509792733 12.396774993327755 1 0 0
559 187 2 -1.1794 -3.775565362356385 4.51110090364082 13.09873915778547 0 0 0
560 187 1 0.5897 -4.538197779148581 4.118024234281552 12.674585264357304 0 0 0
668 223 1 0.5897 -5.5445311501476 1.9012099887646658 10.48362608527228 1 0 0
625 209 2 -1.1794 -5.674796746712959 2.83508605177163 12.089911601733709 1 0 0
524 175 1 0.5897 -2.908389013521976 3.678063045119858 9.700375809349147 0 0 0
662 221 1 0.5897 -7.282958721152034 4.802060064339773 14.08095685855722 1 0 0
667 223 2 -1.1794 -5.385336170822873 1.2979991944497673 9.757626800449325 1 0 0
606 202 1 0.5897 -6.158418519715274 4.712030089645949 9.993922340790217 1 0 0
99 33 1 0.5897 -4.0712356908624905 5.697045173560166 10.225335632698123 1 0 0
589 197 2 -1.1794 -5.55902993540535 1.2385555512816455 14.30547367655895 1 0 0
164 55 1 0.5897 -8.332108983325956 2.041236191163586 18.859286492590762 1 0 -1
628 210 2 -1.1794 -7.967898202321232 2.625778253333068 17.046775717933443 1 0 0
637 213 2 -1.1794 -5.373961823220991 3.5051129182285146 16.064718949937365 1 0 0
20 7 1 0.5897 -5.70538000729773 2.5660704939162176 18.54252006306408 0 0 -1
630 210 1 0.5897 -8.31076134580536 1.9079361615089137 16.51451785472174 1 0 0
639 213 1 0.5897 -6.173253807143283 3.3064675781396073 16.5523223697516 1 0 0
638 213 1 0.5897 -5.622109599885729 4.219027935894732 15.477308431261083 1 0 0
590 197 1 0.5897 -5.556102378156865 1.8809552052315675 15.015117809093145 1 0 0
661 221 2 -1.1794 -6.697625273132596 5.4173448081648035 14.5224073305731 1 0 0
571 191 2 -1.1794 -5.502838552398938 0.5939757213797103 17.88121399136429 0 0 0
629 210 1 0.5897 -8.657095253971363 3.289616614961779 17.027077965453877 1 0 0
572 191 1 0.5897 -6.220971505191983 0.19238039501261128 17.392264301820553 0 0 0
591 197 1 0.5897 -4.83838457498303 0.644952811897574 14.516209129294479 1 0 0
614 205 1 0.5897 -7.5491661194530115 5.753822371753464 17.483798557738858 1 0 0
601 201 2 -1.1794 -7.5496058789872365 5.083100059197271 19.2346956899962 1 0 0
165 55 1 0.5897 -9.484472070132242 1.128703002804507 19.220936486036706 1 0 -1
593 198 1 0.5897 -7.672266701189223 0.9001433557566463 14.768602061515747 1 0 0
224 75 1 0.5897 -0.8918894042124115 11.214325145891292 4.223779438013398 0 0 0
112 38 2 -1.1794 -3.115679879646928 6.426413491272875 2.7220043268356795 1 0 0
289 97 2 -1.1794 -3.1954485766246985 10.412762056775932 2.1625766758074656 1 0 0
290 97 1 0.5897 -2.525205481522045 10.923314936291218 2.6166328081906864 1 0 0
145 49 2 -1.1794 -0.8812557483120473 6.97237121870958 1.3431363612749678 1 0 0
146 49 1 0.5897 -1.5663503136883188 6.59368804268292 1.8939573462845496 1 0 0
147 49 1 0.5897 -1.356314792748663 7.431053645731665 0.6501666232701147 1 0 0
255 85 1 0.5897 -2.2993190794197442 9.225455944715222 3.568219784505182 1 0 0
332 111 1 0.5897 -2.7090565386540244 9.448325068208568 0.3228143041529636 1 0 0
291 97 1 0.5897 -4.024728550724441 10.781533505668554 2.466524874969133 1 0 0
188 63 1 0.5897 0.6085113913943898 9.87862750642929 0.7894171052776883 0 0 0
9 3 1 0.5897 -0.3435722983862428 6.032319848469883 4.064857594155276 0 0 0
114 38 1 0.5897 -3.3057261663998756 5.7192399167706665 2.105558848194683 1 0 0
113 38 1 0.5897 -3.1799862472628826 6.016656813906472 3.5848175184168785 1 0 0
254 85 1 0.5897 -1.6772312710709893 8.113007935722072 4.385208842678825 1 0 0
7 3 2 -1.1794 -0.49206231378995113 6.805233684462798 4.609615509195149 0 0 0
253 85 2 -1.1794 -2.261709590974224 8.867711616814033 4.455400375460422 1 0 0
292 98 2 -1.1794 -4.986329541826517 10.272817511222865 7.4736176125047145 1 0 0
110 37 1 0.5897 -4.387933616167017 6.643448618555189 6.451121243504878 1 0 0
109 37 2 -1.1794 -4.422164081363145 6.964621979829754 7.352286344604935 1 0 0
302 101 1 0.5897 -2.3626312759853647 10.181598724810266 5.786331202050887 1 0 0
301 101 2 -1.1794 -2.4847565387727726 10.821412689898898 6.487749338146481 1 0 0
236 79 1 0.5897 -2.8553101522459015 7.777324894877697 8.07661775899289 0 0 0
294 98 1 0.5897 -4.952467857726791 10.033504432562083 8.399921420276419 1 0 0
293 98 1 0.5897 -4.086293901192892 10.513862210968126 7.254901711363388 1 0 0
237 79 1 0.5897 -2.207900148066499 8.93169082786407 8.81131762350825 0 0 0
111 37 1 0.5897 -5.353157618873395 7.1097601039584575 7.520181743655104 1 0 0
258 86 1 0.5897 -5.140362640260781 8.847527874098843 6.079144747431595 1 0 0
837 279 1 0.5897 -6.064074869099432 8.38489296830026 9.437726645756614 1 0 0
235 79 2 -1.1794 -2.003864088851488 8.169395266208653 8.26961695578349 0 0 0
257 86 1 0.5897 -4.31594506812783 8.603841555605257 4.8329360830393435 1 0 0
303 101 1 0.5897 -1.610866951029732 11.180929489399485 6.639456475762775 1 0 0
793 265 2 -1.1794 -6.203300968181566 10.469817010569969 12.17434650052487 1 0 0
616 206 2 -1.1794 -6.3946115270628665 6.944836649552567 12.239278844468306 1 0 0
836 279 1 0.5897 -4.75095226880576 8.534066064719685 10.175909680089596 1 0 0
663 221 1 0.5897 -6.565231288660058 6.120632422653567 13.886635444105217 1 0 0
649 217 2 -1.1794 -3.9483478027521963 7.394167914178595 11.341288841669195 1 0 0
759 253 1 0.5897 -5.6873667712881515 9.139314161250702 13.68144394367452 1 0 0
651 217 1 0.5897 -4.796310118384729 7.287290307241047 11.77213872020792 1 0 0
795 265 1 0.5897 -6.0531862263456695 10.177242383727178 11.275288895195192 1 0 0
794 265 1 0.5897 -5.496244925413859 11.091714766012592 12.345534183243233 1 0 0
650 217 1 0.5897 -3.4032248063012553 7.837200337198452 11.99146570237741 1 0 0
835 279 2 -1.1794 -5.504192172322746 9.034612442005557 9.862543635403213 1 0 0
617 206 1 0.5897 -7.0622413452864805 7.628995206189939 12.191174760331323 1 0 0
691 231 2 -1.1794 -2.3798445016345986 10.282279821113082 9.816062445742975 0 0 0
513 171 1 0.5897 -3.6855990283550826 6.046625873980487 14.215896742997032 0 0 0
693 231 1 0.5897 -2.490001426107188 10.029277364016291 10.732775503328844 0 0 0
618 206 1 0.5897 -6.792619150137966 6.190132746029943 11.805550145209201 1 0 0
613 205 2 -1.1794 -7.869432001995804 6.3386454246023565 16.79694614280171 1 0 0
739 247 2 -1.1794 -5.733820366460399 7.85004869567638 17.846579286591563 0 0 0
796 266 2 -1.1794 -8.413040703339313 10.44177900053318 16.645023653242035 1 0 0
333 111 1 0.5897 -8.879197356958215 9.76290665125679 18.186795950257732 1 0 -1
762 254 1 0.5897 -7.320666187975727 8.481207059464888 14.767852713161055 1 0 0
805 269 2 -1.1794 -5.702614600933252 10.943408720030648 16.07956082910735 1 0 0
797 266 1 0.5897 -7.473495555185731 10.616864377218942 16.695529681799833 1 0 0
740 247 1 0.5897 -6.433537127126813 7.47690069014095 17.310631455037985 0 0 0
758 253 1 0.5897 -5.270629592848047 9.341104893041791 15.122938563553395 1 0 0
741 247 1 0.5897 -6.098936922396545 8.668841757385739 18.181897755479056 0 0 0
798 266 1 0.5897 -8.498398866703372 9.7886694549756 15.950455153503453 1 0 0
807 269 1 0.5897 -5.055703185632522 11.404360185770742 16.613513279213393 1 0 0
187 63 2 -1.1794 -5.879793018409895 10.274321154960855 19.186376221486896 0 0 -1
512 171 1 0.5897 -4.173011901391564 7.448936339011214 14.511982875461465 0 0 0
760 254 2 -1.1794 -8.268694431827381 8.608714916103445 14.798299997369565 1 0 0
771 257 1 0.5897 -7.289003401691612 11.51457629647378 19.034328103213973 1 0 0
331 111 2 -1.1794 -8.835434649947986 9.206162203995438 18.964321271676347 1 0 -1
615 205 1 0.5897 -7.503616250815229 5.981590197242951 15.987588713669998 1 0 0
757 253 2 -1.1794 -5.456180774024527 8.659596899389292 14.476947705455492 1 0 0
280 94 2 -1.1794 -3.4592877484598503 13.919476708245508 2.407355190880264 1 0 0
225 75 1 0.5897 -1.301419699243283 12.669180122081878 4.309663660504667 0 0 0
315 105 1 0.5897 -0.5681356727853206 13.812423783431472 0.734937264147443 1 0 0
223 75 2 -1.1794 -1.4346554021583526 11.874587698364497 3.792887135196573 0 0 0
281 94 1 0.5897 -3.407292531468106 13.790632630614324 3.354555956893943 1 0 0
282 94 1 0.5897 -2.54770426496926 13.988870266955749 2.124112887857804 1 0 0
313 105 2 -1.1794 -0.9547245220072988 14.42218213071173 1.3634183377092879 1 0 0
314 105 1 0.5897 -0.2052622971076099 14.800722301151785 1.8228181091828066 1 0 0
500 167 1 0.5897 -1.801128094464321 15.76207983770321 0.36406744146781117 1 0 0
423 141 1 0.5897 -2.783165584889142 16.633849553579246 3.766513355615724 1 0 0
216 72 1 0.5897 0.1910449535840062 11.964245340233155 2.2723484786109327 0 0 0
421 141 2 -1.1794 -2.6157595040184543 16.201425124934477 4.60403599461424 1 0 0
499 167 2 -1.1794 -2.44941610026065 16.423711747134718 0.12308863772981363 1 0 0
770 257 1 0.5897 -2.025917009015549 12.07377665748153 0.007865053396803962 1 0 1
326 109 1 0.5897 -3.4509268993094757 12.178321227482156 5.254568977402225 1 0 0
279 93 1 0.5897 -5.466170555873381 14.296507365726892 7.710776524937286 1 0 0
404 135 1 0.5897 -1.6148543247592912 15.375745294691226 7.523491356636915 0 0 0
405 135 1 0.5897 -2.3497459199230946 16.278180771700068 8.491714074869574 0 0 0
277 93 2 -1.1794 -4.6092250439626135 13.987132913749361 7.417518541533881 1 0 0
278 93 1 0.5897 -4.000541197524187 14.674183021066689 7.688593240171293 1 0 0
403 135 2 -1.1794 -2.4378405700091035 15.458674891500161 8.005074442616763 0 0 0
425 142 1 0.5897 -4.544240513085056 15.814163471450861 5.199758585771964 1 0 0
267 89 1 0.5897 -4.188474967803595 12.590293645452878 9.045872784467791 1 0 0
327 109 1 0.5897 -4.281600722228154 13.361228088019896 5.70446593240222 1 0 0
325 109 2 -1.1794 -4.10618515593103 12.80411012039047 4.946056805865373 1 0 0
422 141 1 0.5897 -2.390312847014789 16.91440304360123 5.201517469316071 1 0 0
175 59 2 -1.1794 -0.8183497498144279 14.21478529656828 5.346157159174408 0 0 0
176 59 1 0.5897 -1.4524248309444112 14.887536381978082 5.098169823956473 0 0 0
831 277 1 0.5897 -7.733732156522783 12.12985673326325 14.307257382084103 1 0 0
1005 335 1 0.5897 -4.831101691161815 16.309271317956302 10.038628903041507 1 0 0
774 258 1 0.5897 -6.226331696141498 12.158888235329195 9.907513781003006 1 0 0
727 243 2 -1.1794 -4.190494092892555 11.835066097504612 13.202903661599553 0 0 0
819 273 1 0.5897 -3.9557308719058324 13.846925464880691 10.828641984027602 1 0 0
784 262 2 -1.1794 -6.7407716887465785 14.45654937408526 12.115127420854215 1 0 0
729 243 1 0.5897 -4.490448546640219 12.63310194378454 13.638063553016124 0 0 0
786 262 1 0.5897 -6.964089778011144 14.073899432510908 12.963753829472052 1 0 0
817 273 2 -1.1794 -4.044203882250031 14.667387593142067 11.313625829743696 1 0 0
818 273 1 0.5897 -4.881370367947406 14.587074912058927 11.770585590884098 1 0 0
1003 335 2 -1.1794 -5.634835567409121 16.670093917306065 9.664567419142308 1 0 0
925 309 2 -1.1794 -5.7193963477522 16.380355964309302 14.424907242095905 1 0 0
265 89 2 -1.1794 -4.279476298392359 12.338302488387827 9.96496476673762 1 0 0
266 89 1 0.5897 -3.7084542199760944 11.576401545596754 10.062622935900004 1 0 0
728 243 1 0.5897 -3.3105261944521107 12.047419495943597 12.892091828300261 0 0 0
773 258 1 0.5897 -6.911104293592826 13.114688019347726 10.861148455849529 1 0 0
930 310 1 0.5897 -7.465397121026228 16.451833352763035 14.313928152319251 1 0 0
679 227 2 -1.1794 -4.236801386825813 14.107623290217548 14.874478632035872 0 0 0
829 277 2 -1.1794 -7.092644728436217 12.818627210966099 14.482082344454534 1 0 0
907 303 2 -1.1794 -5.7617876481329375 15.624640317585062 17.920683005536524 0 0 0
908 303 1 0.5897 -6.3801855828836604 15.38424082687321 17.230784963063314 0 0 0
781 261 2 -1.1794 -7.913752897609676 14.40011902943462 16.89607668176035 1 0 0
782 261 1 0.5897 -7.776666906545337 13.801970819879509 17.630797135792797 1 0 0
783 261 1 0.5897 -8.825205152997892 14.679496005274615 16.980976041112434 1 0 0
830 277 1 0.5897 -7.486522488422555 13.341457918744215 15.180498214746702 1 0 0
681 227 1 0.5897 -4.143525785873793 13.503851671443597 15.611483637387428 0 0 0
806 269 1 0.5897 -5.942474822734834 11.57114763188688 15.397822203633133 1 0 0
501 167 1 0.5897 -8.64171851206094 17.02524775855876 18.60235090983752 1 0 -1
909 303 1 0.5897 -4.925939315757154 15.731533414292606 17.466770706085335 0 0 0
926 309 1 0.5897 -5.121421125654798 15.67606975056073 14.675045672762787 1 0 0
769 257 2 -1.1794 -7.58082608904144 12.42597661998416 19.05283364388996 1 0 0
927 309 1 0.5897 -5.427746451540237 17.13550870388176 14.935618342757722 1 0 0
965 322 1 0.5897 -8.242980048850239 17.22722129801281 16.142349764191827 1 0 0
449 150 1 0.5897 -3.823347130004349 20.840376640182136 1.9669551005909938 1 0 0
391 131 2 -1.1794 -1.1374502290577642 19.27761531790946 3.3621130429191983 0 0 0
495 165 1 0.5897 -3.9341304221925677 20.775428164430142 4.159186991601061 1 0 0
393 131 1 0.5897 -1.428842061722128 20.055051531197805 3.838447713024528 0 0 0
483 161 1 0.5897 -1.168756413234422 21.83012411983276 2.5739001429370285 1 0 0
459 153 1 0.5897 -2.453602799349501 18.21986255089622 2.6526749735716333 1 0 0
448 150 2 -1.1794 -3.6300815281861776 21.55148512642201 2.5778452793625095 1 0 0
937 313 2 -1.1794 -1.1027700459589602 19.916701609717055 0.02913869417428175 1 0 1
457 153 2 -1.1794 -3.1936475971844756 17.64078626652226 2.471110680206376 1 0 0
938 313 1 0.5897 -0.8984781709874534 20.477132736298486 0.7777840201318056 1 0 1
482 161 1 0.5897 -1.5551931894555602 22.59385004034457 1.3250343989674116 1 0 0
481 161 2 -1.1794 -0.8274357933587 22.12041270586852 1.7279354764906785 1 0 0
437 146 1 0.5897 -3.0684015696895175 19.838271058680572 -0.02473452320399848 1 0 0
355 119 2 -1.1794 0.617735720164601 17.72289623268334 0.14803590642391595 0 0 0
392 131 1 0.5897 -0.3114422141320845 19.54035623447428 2.956234502377115 0 0 0
458 153 1 0.5897 -3.08011671661283 17.386142934907358 1.5552925663945532 1 0 0
345 115 1 0.5897 -1.463301043140444 22.63135472328749 4.749167738118363 0 0 0
343 115 2 -1.1794 -0.9098377292785322 21.851820258040874 4.702993145021718 0 0 0
939 313 1 0.5897 -0.4863951103962121 19.187848058509008 0.09973836444793693 1 0 1
356 119 1 0.5897 0.4438996886287083 17.22347701326015 0.9460220110941668 0 0 0
462 154 1 0.5897 -5.461886933395755 17.13168010975556 6.7544693305918955 1 0 0
469 157 2 -1.1794 -2.4857139950649447 18.392694383074605 6.319453214275116 1 0 0
494 165 1 0.5897 -4.164131335070351 20.777781749966326 5.655736541748581 1 0 0
471 157 1 0.5897 -3.1507915461137475 17.918210518746672 6.8181642452848 1 0 0
445 149 2 -1.1794 -4.424950567724621 21.681359524592406 7.192714994470448 1 0 0
446 149 1 0.5897 -4.1376301765877095 21.04262004149257 7.8452610722282605 1 0 0
447 149 1 0.5897 -5.327620832669103 21.88472869804257 7.437392297739209 1 0 0
470 157 1 0.5897 -2.9851696140327006 18.949572274451786 5.722187571765642 1 0 0
460 154 2 -1.1794 -5.140229270587664 17.871290926541423 7.269894974541186 1 0 0
344 115 1 0.5897 -0.9074948988429119 21.50593300763489 5.595656998160256 0 0 0
461 154 1 0.5897 -5.781335355520733 18.565793495547727 7.119089743556786 1 0 0
493 165 2 -1.1794 -4.077847206778697 20.191464291161786 4.903997028696085 1 0 0
435 145 1 0.5897 -5.019871825348796 19.628303903968842 9.293899511737163 1 0 0
433 145 2 -1.1794 -4.109653530957184 19.923865453598445 9.303997218263481 1 0 0
1004 335 1 0.5897 -5.343890038187881 17.153789720265756 8.891405661151872 1 0 0
860 287 1 0.5897 -2.768453483752358 18.48932745867414 9.510980491366649 0 0 0
434 145 1 0.5897 -4.1155073455804665 20.699682030271184 9.864618747607956 1 0 0
897 299 1 0.5897 -3.78919272912907 18.86956160222713 13.88809547032978 0 0 0
954 318 1 0.5897 -5.586253350033331 21.55756087382344 12.015830773546728 1 0 0
961 321 2 -1.1794 -6.17585894432572 17.85021044906206 12.2218716565416 1 0 0
998 333 1 0.5897 -6.768087394493386 20.94295728139411 13.998532616901283 1 0 0
896 299 1 0.5897 -4.883954575327811 18.98310347556932 12.848653394841035 0 0 0
895 299 2 -1.1794 -4.230593689985001 19.500432435035897 13.319352963673545 0 0 0
985 329 2 -1.1794 -4.106574892155368 21.99272651008689 11.12417480165073 1 0 0
952 318 2 -1.1794 -6.459136338339329 21.29058557276136 12.303632455452613 1 0 0
963 321 1 0.5897 -6.12325048860743 17.35843810285771 11.402261944565568 1 0 0
859 287 2 -1.1794 -2.204397792495641 17.73102902109024 9.662565904734732 0 0 0
848 283 1 0.5897 -4.147813285583705 21.237540422491932 14.103577491953873 0 0 0
986 329 1 0.5897 -4.475256242204429 22.680151841135196 10.569354755607367 1 0 0
987 329 1 0.5897 -3.3999080623140436 22.42466352140564 11.60386782780045 1 0 0
953 318 1 0.5897 -7.041077584206626 21.973063383500005 11.969399007643776 1 0 0
962 321 1 0.5897 -5.97887414999729 17.205717014828004 12.901733905743649 1 0 0
941 314 1 0.5897 -6.646439489798845 19.88713880338832 10.649904020543083 1 0 0
997 333 2 -1.1794 -7.177785591709635 20.69383621488106 14.827085618168226 1 0 0
974 325 1 0.5897 -6.283002030786218 18.519400744344313 16.405595917885876 1 0 0
975 325 1 0.5897 -5.028919576126269 19.34473067671632 16.212134541050894 1 0 0
964 322 2 -1.1794 -8.038701916968744 17.761397573483098 16.909954558307945 1 0 0
973 325 2 -1.1794 -5.626151174261164 18.75606449465052 15.750767843922517 1 0 0
949 317 2 -1.1794 -7.963018532522886 22.303536210803003 16.99469012783949 1 0 0
950 317 1 0.5897 -7.739848746307194 21.876760237491883 16.167390117311264 1 0 0
951 317 1 0.5897 -7.828854758189895 21.626523518682795 17.65804362798786 1 0 0
999 333 1 0.5897 -6.623157843439196 19.99205933322468 15.167760444588303 1 0 0
966 322 1 0.5897 -8.736038894479645 18.416345889306196 16.939052536205203 1 0 0
357 119 1 0.5897 -5.9574281735355585 17.397905302325402 18.788858736769804 0 0 -1
573 191 1 0.5897 -5.417025338466401 22.74546012061146 18.551087836645053 0 -1 0
847 283 2 -1.1794 -3.8091344527833586 21.9997857931808 14.573035635049447 0 0 0
71 24 1 0.5897 3.3119602503088714 0.5640318054191358 1.7336790115199985 0 0 0
54 18 1 0.5897 3.40362258717907 3.3404511270133934 2.7467041023196024 0 0 0
18 6 1 0.5897 5.012173867490825 3.905985131027413 0.2553440209265269 0 0 0
21 7 1 0.5897 1.0192029283151394 2.140742522413124 0.6790043865755893 0 0 0
52 18 2 -1.1794 3.952739738052462 2.9194655401143192 3.4081505072935045 0 0 0
32 11 1 0.5897 1.428308871017716 1.4599122433329275 2.9861264338629434 0 0 0
70 24 2 -1.1794 4.070841291072967 0.3833554736818363 1.1790477714662377 0 0 0
46 16 2 -1.1794 2.153612269335725 4.665578539676797 2.1646325772595096 0 0 0
31 11 2 -1.1794 1.5021334471821115 1.049800745390545 2.1243091152349147 0 0 0
76 26 2 -1.1794 0.9457670654068142 2.1155877577796307 4.6036969562440415 0 0 0
6 2 1 0.5897 3.711022288826995 1.4581953326990313 4.629464904309372 0 0 0
48 16 1 0.5897 2.3555304058442816 5.403587813453396 2.7397569729418447 0 0 0
47 16 1 0.5897 2.1294767614183323 5.045298797687733 1.286162971737036 0 0 0
57 19 1 0.5897 0.5438507937597565 4.4650299381236405 2.8637670464717093 0 0 0
78 26 1 0.5897 0.3433787238483972 2.7891954879365897 4.288169248677263 0 0 0
527 176 1 0.5897 4.05011636484204 1.9796741371950786 0.3998702978878071 0 0 1
33 11 1 0.5897 0.8666147090120386 0.3344368576773614 2.1438603656051476 0 0 0
59 20 1 0.5897 1.904694859960923 3.411696805963672 5.870677727564986 0 0 0
43 15 2 -1.1794 -0.3325407033327843 5.534114328217172 7.063061733723054 0 0 0
5 2 1 0.5897 3.4135696259812436 0.06360562122123611 5.137848252799656 0 0 0
34 12 2 -1.1794 0.20425040909535275 1.3498339671344997 7.2476863357293375 0 0 0
35 12 1 0.5897 0.4430947766948625 2.0530893060625544 7.851487909153928 0 0 0
77 26 1 0.5897 0.5048727141203257 1.736169946232843 5.3639731197963485 0 0 0
36 12 1 0.5897 -0.6813069764228925 1.0989082244163768 7.510078251182585 0 0 0
45 15 1 0.5897 0.5272726436396566 5.113750168270832 7.067244446946346 0 0 0
60 20 1 0.5897 2.8050544201329153 4.118674251301959 6.861241659833261 0 0 0
58 20 2 -1.1794 2.032742796697285 4.251505374851003 6.311682153279555 0 0 0
4 2 2 -1.1794 3.8541824785556438 0.8786640240805822 5.377842818884476 0 0 0
401 134 1 0.5897 2.463538052088456 0.13080863040080587 8.820823739327611 0 1 0
402 134 1 0.5897 1.3693154836636339 0.1749116752936657 7.775588896387224 0 1 0
22 8 2 -1.1794 0.3211690580082247 3.385599974570747 9.412841307458134 0 0 0
525 175 1 0.5897 -1.5332848510335357 3.106126333678152 9.429489174824756 0 0 0
24 8 1 0.5897 0.8709005782256174 4.157424873525689 9.547390160095706 0 0 0
574 192 2 -1.1794 0.5945409495876266 0.8372948647604919 10.801246227189203 0 0 0
550 184 2 -1.1794 -1.3948635153348743 5.332018690650735 12.055081855991299 0 0 0
537 179 1 0.5897 -2.1627890090383746 1.5886242147283147 11.045646866451717 0 0 0
556 186 2 -1.1794 0.6179137572276492 3.663804680331558 12.995030279762492 0 0 0
535 179 2 -1.1794 -1.950541625917897 1.0389004960787835 11.80005361706067 0 0 0
536 179 1 0.5897 -2.024716146995961 1.6253264728239316 12.552980463797558 0 0 0
576 192 1 0.5897 -0.21044341464633876 1.0404878575374843 11.277534548605942 0 0 0
575 192 1 0.5897 1.1664402735739223 0.4375228161116459 11.456525574119858 0 0 0
557 186 1 0.5897 0.4764523911309828 2.823569011494473 13.431120125269526 0 0 0
558 186 1 0.5897 -0.2610702327599652 3.9686782754556624 12.77037142819412 0 0 0
552 184 1 0.5897 -2.2828451840146373 4.988352539641249 12.151823275058822 0 0 0
23 8 1 0.5897 0.5708551139808269 2.7873579847927776 10.11720867663252 0 0 0
580 194 2 -1.1794 -2.2430255532749763 2.5157054621720745 14.34577166297041 0 0 0
508 170 2 -1.1794 0.9153837594377299 1.2660155696043096 14.349552265486116 0 0 0
564 188 1 0.5897 -1.7233030654473591 4.585507169012353 16.240740941501365 0 0 0
547 183 2 -1.1794 -3.27525147838771 5.0834122788147695 16.886371717335493 0 0 0
526 176 2 -1.1794 -2.473006003829152 2.9748369731202615 19.086340840382313 0 0 0
563 188 1 0.5897 -0.6948821729128847 5.2835794633527575 15.376520571222033 0 0 0
562 188 2 -1.1794 -0.8660099112642428 4.460330968196188 15.833955691305016 0 0 0
538 180 2 -1.1794 -2.8832620416960966 1.350671473694679 16.727611461558638 0 0 0
539 180 1 0.5897 -2.693902784539471 1.8602984351575926 17.515479711628657 0 0 0
582 194 1 0.5897 -1.8231367405199395 3.3018886782266508 14.694588538186752 0 0 0
581 194 1 0.5897 -2.62339519135417 2.086706365179013 15.11237161040479 0 0 0
84 28 1 0.5897 -3.3264031993480163 5.803388434504871 18.511661722596145 0 0 -1
540 180 1 0.5897 -3.8049536553811105 1.1080428329558614 16.814694371208468 0 0 0
549 183 1 0.5897 -4.052618370998357 4.537682449461123 16.768711683979724 0 0 0
548 183 1 0.5897 -3.3207954651802973 5.722513805331453 16.17511539512178 0 0 0
528 176 1 0.5897 -3.379552031707245 3.2772913032022224 19.1382872150563 0 0 0
245 82 1 0.5897 0.7755444310550414 9.604945857890861 3.9944279162385516 0 0 0
222 74 1 0.5897 2.7618355011376288 10.765562273381788 2.7178118225379992 0 0 0
240 80 1 0.5897 3.4797580547602998 7.1696172471360935 1.0122434043861928 0 0 0
238 80 2 -1.1794 3.6940825860014748 7.789831320917982 1.7091250510515743 0 0 0
221 74 1 0.5897 4.166381923865124 10.204287847900856 2.7776548315763727 0 0 0
220 74 2 -1.1794 3.4619797423204197 10.541789952457975 3.3309261508520747 0 0 0
239 80 1 0.5897 3.610953618208258 8.65037161024114 1.2982372353756406 0 0 0
201 67 1 0.5897 1.9473203241602848 8.407325995243388 2.5066120096666853 0 0 0
199 67 2 -1.1794 1.0019182086674627 8.553313712824005 2.4768764146277733 0 0 0
200 67 1 0.5897 0.6913357520039085 7.973109921513533 1.781842489771701 0 0 0
696 232 1 0.5897 4.012600780344882 10.983651146281963 0.3851127937976842 0 0 1
10 4 2 -1.1794 2.2388856570722364 6.418263869632436 4.387434894398061 0 0 0
694 232 2 -1.1794 3.5260825334728985 10.160630033740807 0.3404655823674948 0 0 1
12 4 1 0.5897 1.4220315515690771 6.9165641822235795 4.409518254356217 0 0 0
244 82 2 -1.1794 0.6816660779195058 10.200671892081369 4.7378102899260295 0 0 0
174 58 1 0.5897 3.6242021724269318 9.27300213354304 4.634054847103521 0 0 0
191 64 1 0.5897 0.42839371265934734 10.36763298097468 8.760954470790956 0 0 0
44 15 1 0.5897 -0.4352071704095928 5.879395167157779 7.949978482978693 0 0 0
64 22 2 -1.1794 2.624494424881469 7.443282269278741 7.9857984245619775 0 0 0
204 68 1 0.5897 0.9132825150486124 8.362394831302321 7.513239847660218 0 0 0
203 68 1 0.5897 -0.5520105585252528 8.740864892818657 7.48205287187967 0 0 0
246 82 1 0.5897 0.3878022750764307 9.642138255639754 5.457571859442368 0 0 0
202 68 2 -1.1794 0.32248358534670096 9.084755949032681 7.300422471294666 0 0 0
172 58 2 -1.1794 3.8154375982833795 8.756039266561086 5.416711528134825 0 0 0
173 58 1 0.5897 3.431696275307493 7.897849667805557 5.237080834547563 0 0 0
8 3 1 0.5897 -0.6133507804643483 6.456716402457933 5.492963841394513 0 0 0
11 4 1 0.5897 2.0884230999495976 5.684158449824598 4.983078736953051 0 0 0
228 76 1 0.5897 1.8701394653672425 11.141277513151884 5.773349225965448 0 0 0
522 174 1 0.5897 2.4216563486486047 5.979367838487514 9.056030326342546 0 0 0
588 196 1 0.5897 -1.1451001564067864 6.910399165276072 9.116015954541878 0 0 0
65 22 1 0.5897 2.832183908719723 8.137109414601523 8.611648673911784 0 0 0
744 248 1 0.5897 0.2810103599419622 7.626881393125699 10.846797451111723 0 0 0
743 248 1 0.5897 0.7734324484857211 9.054204358254772 10.955342216170413 0 0 0
692 231 1 0.5897 -1.4776054548289586 10.596699661494123 9.76065209859811 0 0 0
705 235 1 0.5897 -1.9262376899941014 9.468153142455055 13.23766475032657 0 0 0
724 242 2 -1.1794 0.7927872898054202 10.975532723772087 13.051396313861162 0 0 0
742 248 2 -1.1794 0.6116042846423841 8.267661754918802 11.476326160179369 0 0 0
703 235 2 -1.1794 -1.9363664082241474 9.18284567297184 12.323925497583959 0 0 0
704 235 1 0.5897 -1.089937504204575 8.754589821191967 12.196818531387477 0 0 0
192 64 1 0.5897 1.3770418356578888 11.096238822107876 9.688738185281666 0 0 0
587 196 1 0.5897 -0.9993963995789361 6.087158511411712 10.378338503013426 0 0 0
726 242 1 0.5897 0.07511939228346165 11.274526169654196 12.49305586503973 0 0 0
586 196 2 -1.1794 -0.4930547558616474 6.472856577871829 9.66338366519851 0 0 0
190 64 2 -1.1794 0.5549817118922049 10.606238353884821 9.679353576738459 0 0 0
678 226 1 0.5897 0.6954209301479137 9.502193996777065 14.166281351394632 0 0 0
551 184 1 0.5897 -1.3037069903231613 5.965024592884835 12.767308029743523 0 0 0
514 172 2 -1.1794 -0.8880836135540875 6.83351923594641 14.376633477643303 0 0 0
749 250 1 0.5897 -2.5382107075991707 9.637604500888868 15.592614671683462 0 0 0
706 236 2 -1.1794 -3.093733560091535 8.824348651097802 17.39555124493282 0 0 0
708 236 1 0.5897 -2.4636124714990224 8.104198207003027 17.374254675194983 0 0 0
568 190 2 -1.1794 -0.9997631083324849 7.015257851374286 17.921018243128245 0 0 0
695 232 1 0.5897 -2.5859700475348975 10.025031485240063 18.91710214537597 0 0 0
707 236 1 0.5897 -3.9236395505793134 8.410046590210886 17.631389835264777 0 0 0
569 190 1 0.5897 -1.1838703939362514 6.280745585901182 18.506616466484033 0 0 0
189 63 1 0.5897 -4.960588784683674 10.310800065133918 18.922277390852273 0 0 -1
516 172 1 0.5897 -0.38779399744201903 7.606160854106667 14.638888279548915 0 0 0
511 171 2 -1.1794 -3.474465989159018 6.829882382743565 14.723919077398383 0 0 0