#include		in.partitions
include		in.temp
variable        temperature equal 118.27
variable	tempDamp equal 100.0
include		in.pressure
variable        pressure equal 8273.4
variable        pressureDamp equal 1000.0 # This is 1 ps
include		in.seed
variable        seed equal 745823

units		real
atom_style	full
read_restart    restart.lmp.${pid}
read_restart    restart.lmp.1
Reading restart file ...
  restart file = 30 Jul 2021, LAMMPS = 30 Jul 2021
  restoring atom style full from restart
  triclinic box = (-3.1422844 -0.057905709 0.10780533) to (14.752283 22.637905 19.122193) with tilt (-0.14034331 -6.8519051 0.11205708)
  2 by 4 by 2 MPI processor grid
  restoring pair style lj/cut/tip4p/long/omp from restart
  restoring bond style harmonic/omp from restart
  restoring angle style harmonic/omp from restart
  1008 atoms
  672 bonds
  336 angles
Finding 1-2 1-3 1-4 neighbors ...
  special bond factors lj:    0        0        0       
  special bond factors coul:  0        0        0       
     2 = max # of 1-2 neighbors
     1 = max # of 1-3 neighbors
     1 = max # of 1-4 neighbors
     2 = max # of special neighbors
  special bonds CPU = 0.001 seconds
  read_restart CPU = 0.006 seconds

include 	in.setup
variable	out_freq equal 1000
variable	out_freq2 equal 10000
variable	out_freq3 equal 1000

timestep	2.0

neigh_modify    delay 7 every 1

include		in.tip4p
# This is TIP4P/Ice

# create groups ###
group ox type 2
336 atoms in group ox
group hy type 1
672 atoms in group hy

# set charges - beside manually ###
set group ox charge -1.1794
Setting atom values ...
  336 settings made for charge
set group hy charge 0.5897
Setting atom values ...
  672 settings made for charge

# ### TIP3P Potential Parameters ###
pair_style lj/cut/tip4p/long/omp 2 1 1 1 0.1577 8.5
pair_coeff 1 1*2 0.000 0.000
pair_coeff 2 2 0.21084 3.1668
bond_style  harmonic
bond_coeff  1 450 0.9572
angle_style harmonic
angle_coeff 1 55 104.52
kspace_style pppm/tip4p/omp 1.0e-5
pair_modify tail yes

thermo          ${out_freq}
thermo          1000
thermo_style    custom step temp pe etotal epair emol press lx ly lz vol pxx pyy pzz pxy pxz pyz enthalpy

restart 	${out_freq3} restart.lmp.${pid} restart2.lmp.${pid}
restart 	1000 restart.lmp.${pid} restart2.lmp.${pid}
restart 	1000 restart.lmp.1 restart2.lmp.${pid}
restart 	1000 restart.lmp.1 restart2.lmp.1


include         in.dump
dump            myDump all atom ${out_freq2} dump.water.${pid}
dump            myDump all atom 10000 dump.water.${pid}
dump            myDump all atom 10000 dump.water.1
dump            myDump2 all dcd ${out_freq2} dump.dcd
dump            myDump2 all dcd 10000 dump.dcd
dump_modify     myDump append yes
dump_modify     myDump2 append yes


variable natoms 	equal  "count(all)"                        # NUMBER ATOMS
variable H      	equal  "enthalpy/v_natoms"                 # ENTHALPY-per-atom
variable Vol      	equal  "vol/v_natoms"                 # volume-per-atom
fix AVG all 		ave/time ${out_freq} 1 ${out_freq} v_Vol v_H file vol_enthalpy.dat
fix AVG all 		ave/time 1000 1 ${out_freq} v_Vol v_H file vol_enthalpy.dat
fix AVG all 		ave/time 1000 1 1000 v_Vol v_H file vol_enthalpy.dat



fix 		1 all shake 1e-6 200 0 b 1 a 1
       0 = # of size 2 clusters
       0 = # of size 3 clusters
       0 = # of size 4 clusters
     336 = # of frozen angles
  find clusters CPU = 0.000 seconds
fix             2 all nph tri ${pressure} ${pressure} ${pressureDamp}
fix             2 all nph tri 8273.4 ${pressure} ${pressureDamp}
fix             2 all nph tri 8273.4 8273.4 ${pressureDamp}
fix             2 all nph tri 8273.4 8273.4 1000
fix             3 all temp/csvr ${temperature} ${temperature} ${tempDamp} ${seed}
fix             3 all temp/csvr 118.27 ${temperature} ${tempDamp} ${seed}
fix             3 all temp/csvr 118.27 118.27 ${tempDamp} ${seed}
fix             3 all temp/csvr 118.27 118.27 100 ${seed}
fix             3 all temp/csvr 118.27 118.27 100 745823


run             250000
PPPM initialization ...
  extracting TIP4P info from pair style
  using 12-bit tables for long-range coulomb (../kspace.cpp:340)
  G vector (1/distance) = 0.37977183
  grid = 24 27 32
  stencil order = 5
  estimated absolute RMS force accuracy = 0.0024142566
  estimated relative force accuracy = 7.2704622e-06
  using double precision FFTW3
  3d grid and FFT values/proc = 7875 1344
Last active /omp style is kspace_style pppm/tip4p/omp
Neighbor list info ...
  update every 1 steps, delay 7 steps, check yes
  max neighbors/atom: 2000, page size: 100000
  master list distance cutoff = 10.8154
  ghost atom cutoff = 10.8154
  binsize = 5.4077, bins = 5 5 4
  1 neighbor lists, perpetual/occasional/extra = 1 0 0
  (1) pair lj/cut/tip4p/long/omp, perpetual
      attributes: half, newton on, omp
      pair build: half/bin/newton/tri/omp
      stencil: half/bin/3d/tri
      bin: standard
Per MPI rank memory allocation (min/avg/max) = 12.45 | 12.47 | 12.48 Mbytes
Step Temp PotEng TotEng E_pair E_mol Press Lx Ly Lz Volume Pxx Pyy Pzz Pxy Pxz Pyz Enthalpy 
29250000    121.46426   -5132.3577   -4889.4142   -5132.3577            0    9151.7805    17.894568     22.69581    19.014387    7722.3458    9295.6031    8255.3546    9904.3837   -207.41423   -187.89157   -100.21366   -3858.7178 
29251000    116.99616   -5142.2419   -4908.2352   -5142.2419            0    8672.7942    17.949373    22.574316    19.065776    7725.3536    8460.9178    8911.4673    8645.9977    2183.0084   -638.47382    1455.9454    -3931.103 
29252000    121.79549   -5153.1459   -4909.5399   -5153.1459            0    7626.5781     17.86876    22.761267    19.068861    7755.6032    5985.8871    8599.6559    8294.1914   -964.56205    386.36498    142.14102   -4046.9166 
29253000    117.51929   -5147.6203   -4912.5672   -5147.6203            0    8672.6477    17.728067    22.701477    19.225198    7737.2442    9045.1505     8689.714    8283.0787   -938.42669    991.49628   -378.21037   -3933.9476 
29254000    116.40115   -5155.4414   -4922.6247   -5155.4414            0    8755.3352    17.818322    22.556523    19.213609    7722.3222    8790.0629    9028.3532    8447.5894    703.84249    67.667701    991.39232     -3936.58 
29255000    113.72382   -5139.4588   -4911.9971   -5139.4588            0     5839.009    17.895193    22.892757    19.083262    7817.8457    5703.6733    5699.2547    6114.0989   -279.92795    108.70209   -474.89202    -4246.261 
29256000    121.19176   -5145.0686   -4902.6701   -5145.0686            0    7694.7681     17.85826    22.653869    19.216155     7774.062    8143.2866    6957.4328     7983.585   -1189.9335    924.64468   -1312.4163   -4030.2626 
29257000    119.39934   -5148.7366   -4909.9232   -5148.7366            0    9002.5836    17.845165    22.691173    19.102491    7735.1282    8827.2494    9623.9079    8556.5935    458.84766    582.69561    278.99915   -3894.3515 
29258000    119.15605   -5139.8194   -4901.4926   -5139.8194            0    8906.6966    17.825557    22.630408    19.152791    7726.2292     9721.271    8572.7194    8426.0995   -270.27907    71.774724   -1628.7732   -3897.8938 
29259000    121.39043   -5136.6838    -4893.888   -5136.6838            0    7583.2595    17.968954    22.764738    18.994202    7769.7402    7022.2676    7679.1271    8048.3838    586.95813   -6.4214072    26.053437   -4034.6009 
29260000    122.44456   -5142.0238   -4897.1196   -5142.0238            0     8946.548    17.793279    22.702008    19.102615     7716.371    7454.2318    8999.3196    10386.093    -315.6303   -753.99218   -1626.8671   -3890.3166 
29261000    116.67488   -5140.4458   -4907.0817   -5140.4458            0    8775.9597    17.799302    22.626754    19.210623    7736.8944    8274.7389    9840.8419    8212.2981    518.00929    980.17531    99.035637   -3916.8492 
29262000    118.89404   -5120.2656   -4882.4628   -5120.2656            0    8862.2449    17.762734    22.814026    19.054385    7721.5892    9069.3503     8730.287    8787.0975    751.69924   -124.09741    184.49807   -3884.4725 
29263000     120.0332   -5124.0348   -4883.9536   -5124.0348            0    9739.9115     17.73406    22.650686    19.216662    7719.1148    9524.5481    10007.169    9688.0174    112.66036   -241.27071   -367.58446   -3787.4794 
29264000    118.82438   -5144.2435     -4906.58   -5144.2435            0    8471.8149    17.726563    22.703595    19.231122     7739.694    8416.1894    8374.0021    8625.2533   -359.55812    314.41535    142.38529   -3950.3197 
29265000    118.10514   -5143.5171   -4907.2923   -5143.5171            0    7733.9883    17.752582    22.738375    19.247918    7769.7083     8610.716    7880.0257    6711.2232    1176.2306    1185.2073   -364.23808   -4030.9291 
29266000    121.97791   -5142.5412   -4898.5703   -5142.5412            0    8873.3344    17.907042    22.670246    19.033547    7726.8028    7329.7544    9592.2959    9697.9529    173.52042   -225.25888    457.41071   -3898.6565 
29267000    123.37745   -5150.5244   -4903.7543   -5150.5244            0    8578.4759    17.699225    22.745659    19.170693     7717.748    8298.8964    9205.1687    8231.3626    -1053.129   -390.79388   -1052.5861   -3938.2001 
29268000    119.54841   -5151.6047   -4912.4931   -5151.6047            0    8816.1318    17.896188    22.576417    19.127362    7728.0627    7162.4034    10076.263    9209.7287   -150.40709    1245.9338   -377.12291   -3918.8633 
29269000    116.56781   -5139.4795   -4906.3295   -5139.4795            0    8152.3294     17.85523    22.789039    19.024609    7741.1805    7362.6319    7884.3022    9210.0541    573.18117    164.38094    43.015305   -3985.9545 
29270000    116.06121   -5138.2015   -4906.0647   -5138.2015            0    8772.4682    17.960044    22.454607    19.178312    7734.3395     8184.633    9431.9273    8700.8443    668.70873   -60.511114    299.60045   -3916.5531 
29271000    118.17424   -5157.8398   -4921.4767   -5157.8398            0    6749.4929    17.721481     22.86626    19.201846    7781.0489    6538.7278    6339.7997    7369.9512     -363.491    244.67148    575.54086   -4155.5536 
29272000    119.28261   -5139.7281   -4901.1481   -5139.7281            0     8103.108    17.850427    22.771795     19.03311     7736.698    7996.4865    6902.0902    9410.7474    11.405132   -429.54793   -210.06476   -3986.8598 
29273000    112.77192   -5145.8367   -4920.2789   -5145.8367            0    6906.5751     17.81516    22.694331    19.192103    7759.4275    6849.6621    6659.8373     7210.226    872.80584    509.43338    1396.0558   -4138.7082 
29274000    125.14337   -5130.7299   -4880.4277   -5130.7299            0    9529.4198    17.799069    22.733445    19.095165     7726.556     9050.712     9956.237    9581.3102    -299.1394    1054.4408   -962.19178   -3806.6156 
29275000    122.76765   -5134.7383   -4889.1878   -5134.7383            0    9006.9053    17.781293     22.69567     19.14389    7725.6767    9251.6908    9100.7055    8668.3198   -42.226304    242.31245   -40.466398   -3874.3701 
29276000    118.87596   -5134.1339   -4896.3673   -5134.1339            0    8026.3157    17.843761    22.522874     19.28845    7751.8891    9068.3119      7496.11    7514.5251    911.32269   -207.98664   -31.291166   -3988.9654 
29277000    121.63153   -5135.6156   -4892.3375   -5135.6156            0    8039.4564    17.767837    22.755833    19.176511     7753.484    7666.4846    7940.9312    8510.9534    712.46766   -494.99984   -39.003691    -3983.263 
29278000    114.31028   -5136.2336   -4907.5989   -5136.2336            0    8760.5772    17.910372    22.690363     19.00067    7721.7365    7035.4905    9439.5529     9806.688    532.75471    -30.30163    664.74126   -3921.0388 
29279000    118.63503   -5142.3914   -4905.1066   -5142.3914            0    8021.6593    17.811635    22.617383    19.239353    7750.6227    7197.9327    8290.0585    8576.9868    180.69391    114.21535    906.99206   -3998.3793 
29280000    118.61378   -5131.0301   -4893.7878   -5131.0301            0     8452.626     17.64324     22.84596    19.171331    7727.5177    8949.2405    8208.8162    8199.8213    167.25158    229.81734    494.24672   -3941.1945 
29281000    124.56071   -5146.9861   -4897.8493   -5146.9861            0    7127.7231    17.874715    22.786709    19.122954    7788.8924    8021.0127    6379.4425    6982.7142   -429.03104   -666.83328   -616.64684   -4088.1898 
29282000    118.68248   -5139.0582   -4901.6786   -5139.0582            0    8028.0604    17.934994     22.55336    19.172382    7755.1206    7055.9697    8669.2403    8358.9714     292.1636    511.21176   -1831.0958   -3993.7011 
29283000    122.02612   -5145.1632   -4901.0959   -5145.1632            0    9710.7169    17.859593    22.640699    19.075824    7713.3791    8630.8044    10100.396     10400.95    771.45463    610.22513    -363.2611   -3808.7206 
29284000    113.64276   -5152.4536    -4925.154   -5152.4536            0    7156.2577    17.787619    22.812915    19.195817    7789.4214    8076.3778    6447.6319    6944.7636    692.68731    298.02482   -429.88273    -4112.198 
29285000    113.14711   -5146.5233   -4920.2151   -5146.5233            0    9242.3243    17.861768    22.612575     19.11752    7721.5769    10437.367    9748.3328    7541.2731   -194.06312   -59.498698    474.15119   -3879.4252 
29286000    114.65953   -5146.8186   -4917.4853   -5146.8186            0    8435.1701     17.79373    22.682366     19.13644    7723.5417    7810.7425    9645.4679       7849.3    523.00727    937.62751    -856.7621   -3967.3483 
29287000    124.17325   -5151.5597   -4903.1978   -5151.5597            0    7864.4239    17.805046    22.687071    19.156839    7738.2967    9141.4496    6682.0865    7769.7356   -201.44732   -422.64478    85.546238   -4015.6573 
29288000    118.10538   -5142.9308   -4906.7055   -5142.9308            0    7900.9201    17.736381    22.751294    19.151834     7728.256    8831.6848    8143.3104    6727.7652    1422.4936    307.82945   -234.10925   -4016.2031 
29289000    117.36227   -5143.0083   -4908.2693   -5143.0083            0    8464.0622     17.84293    22.704652    19.128355    7749.2315    9055.5281    8247.6096    8089.0487   -1556.2606   -108.33936   -41.763508   -3951.7068 
29290000    118.25471   -5139.8842   -4903.3601   -5139.8842            0     8441.923    17.688523    22.694257    19.283701    7741.0153    9097.8157    8162.0285    8065.9247    727.88341   -195.14333    610.88855   -3950.3112 
29291000     118.6711   -5138.6565   -4901.2996   -5138.6565            0    9146.9827    17.842555    22.602979    19.170939    7731.5422     7907.056    9016.5084    10517.384   -245.57348      -143.44    2377.4363   -3869.9169 
29292000    117.99856   -5140.0087    -4903.997   -5140.0087            0     8539.613    17.780197    22.749676      19.0981    7725.0616    9428.0028    8148.8908    8041.9454   -71.395069   -646.43989    -1092.652   -3941.9063 
29293000     119.3589   -5133.4116    -4894.679   -5133.4116            0     9338.475    17.829659    22.564567    19.176487     7715.056    9416.3146    9418.6377    9180.4728    295.47864     395.0794   -175.03877   -3843.9495 
29294000    121.05781   -5159.2409   -4917.1103   -5159.2409            0    9297.1641    17.705832    22.740332    19.119921    7698.3783     8978.772    8771.3444    10141.376    159.65219    52.304293    -1417.506   -3873.2903 
29295000    117.79385   -5157.3947   -4921.7925   -5157.3947            0    7930.4854     17.83139    22.722945    19.105408    7741.1617    9575.3496    7790.8911    6425.2156   -836.11301   -172.09672    241.52363   -4026.4652 
29296000    119.32988   -5151.5956   -4912.9211   -5151.5956            0    8476.9982    17.863796    22.590439    19.123945     7717.487    7245.6078    9325.2576    8860.1293    181.39499    363.44648   -916.11627   -3958.8211 
29297000    117.72872   -5141.2091   -4905.7371   -5141.2091            0    7777.8539    17.655151    22.807357    19.227356    7742.2285    8504.8326    7894.7001    6934.0291   -6.7405266   -543.10886    -256.8355   -4027.5205 
29298000    111.37991   -5140.1408   -4917.3672   -5140.1408            0    7237.8988    17.831539    22.820733    19.047698    7751.0567    6894.7211    7403.7285    7415.2468    888.30666    288.83922    512.02403   -4099.1864 
29299000     116.3213    -5127.943    -4895.286    -5127.943            0    8738.8979    17.845584    22.552239    19.179977    7719.1328    9343.4227    8626.5075    8246.7634   -33.919887   -324.28519   -317.19907   -3911.4991 
29300000    116.15287   -5149.2716   -4916.9515   -5149.2716            0    8358.4788    17.722068    22.764116    19.164266    7731.3866    8413.3738    8784.4317    7877.6308    311.00386    597.02443    946.56279   -3974.4967 
29301000    122.22215   -5119.9845   -4875.5251   -5119.9845            0    8322.4859    17.904133    22.574762    19.160677    7744.3921    8677.2444    8902.8718    7387.3415     667.6522    -684.0369   -296.85019   -3935.5501 
29302000     116.3174   -5151.3661   -4918.7169   -5151.3661            0    6562.8237    17.866332    22.846588     19.09646    7794.8833    6137.0294    5998.8173    7552.6244    -270.1686    299.09478    393.39608   -4172.6526 
29303000    114.44598   -5156.9989   -4928.0928   -5156.9989            0    7866.8229    17.912428    22.622856    19.152651    7761.2341    7183.3723    8306.5955    8110.5008    494.08607    -306.0688    -1225.881   -4037.6499 
29304000    120.26078   -5132.2141   -4891.6777   -5132.2141            0    6686.4044    17.695325    22.880667    19.212312    7778.6972    7279.1573    6433.3819    6346.6738   -29.371324    -97.13641    1064.6139   -4133.1431 
29305000    118.75682   -5134.3953    -4896.867   -5134.3953            0    8727.6698    17.832071    22.672868    19.123311    7731.6348    8829.8291    8980.0792    8373.1011    5.4213504    344.16866   -448.43394   -3912.7527 
29306000    124.11757   -5130.9682   -4882.7177   -5130.9682            0    7860.2467    17.943128    22.886816    18.892354    7758.3544    7306.3909     7575.316    8699.0332   -2022.0279   -682.35066    395.87833   -3993.3493 
29307000    109.88852   -5145.2695   -4925.4789   -5145.2695            0    7913.5058    17.773348    22.794837    19.144996    7756.4145    9075.6864    7077.6935    7587.1376   -202.45017   -357.51042   -764.36102   -4030.3083 
29308000    120.24694    -5148.708   -4908.1993    -5148.708            0     7859.221    17.923694    22.626738    19.123345    7755.5634    7241.5898    7996.2579    8339.8152   -541.06369    117.26987   -452.35967   -4019.2668 
29309000    114.58316    -5131.534   -4902.3535    -5131.534            0    9549.0865    17.725617    22.829458    19.045049    7706.8879    8140.5732    9891.4301    10615.256   -251.09557    340.12692    437.29294   -3829.0643 
29310000    120.76948   -5148.7995   -4907.2457   -5148.7995            0    7633.9103    17.793841    22.608831    19.262091    7749.0994     8692.704    7757.8065    6451.2205     782.4294    109.26802    1260.4836   -4044.5171 
29311000     125.1704   -5150.2369   -4899.8806   -5150.2369            0    6801.0088    17.806809    22.794369     19.18749    7788.1056    6895.4946    6477.5568    7029.9751    194.38292    94.478149    68.956115   -4127.4116 
29312000    129.35573   -5143.7358   -4885.0084   -5143.7358            0    7060.2989    17.835592    22.637108     19.26089    7776.5115    8310.1971    6588.7337     6281.966   -644.89128   -1278.6578    234.02098   -4084.2826 
29313000    120.09007   -5130.5384   -4890.3434   -5130.5384            0    8543.1509    17.817539    22.857652    19.026562    7748.8927    8197.8221    8632.9409    8798.6899   -1073.0697    510.63919   -440.06644   -3924.8849 
29314000    113.92745    -5135.945   -4908.0761    -5135.945            0    9704.0006    17.766408    22.619208    19.191132    7712.1879    10170.708    10181.661    8759.6332   -476.77549    447.23247    311.57102   -3816.6249 
29315000    114.83545   -5145.8371    -4916.152   -5145.8371            0     8787.973    17.839614    22.710304    19.100632    7738.4884    9543.2305     7858.419    8962.2694   -110.15497    366.14415   -317.63194   -3924.3597 
29316000    117.94977   -5123.5711    -4887.657   -5123.5711            0    9510.9496    17.710437     22.84117    19.086651    7721.0674    10507.057    8744.3193    9281.4728    544.50237   -536.67131   -1322.8072   -3816.6875 
29317000     116.6389   -5139.8337   -4906.5415   -5139.8337            0    9138.9101    17.869539    22.654453     19.03989    7707.8164    8589.9641    8735.6426    10091.124    176.81985   -561.14838    533.68144   -3879.2311 
29318000     117.2667   -5138.0712   -4903.5233   -5138.0712            0    8555.1366    17.871052    22.653005    19.145421    7750.6989    8516.4593    8618.1436    8530.8071   -143.37213    125.06625    1.2838808   -3936.4849 
29319000    116.56088   -5160.8099   -4927.6737   -5160.8099            0    7446.6166    17.813954    22.704298    19.214173    7771.2364    9085.9085    6736.9078    6517.0336    981.44441   -311.90921   -1063.0451   -4083.7076 
29320000    118.62464   -5140.4946   -4903.2307   -5140.4946            0    8113.2156    17.792513    22.712101    19.168941    7746.2716    8463.7277    6909.9804    8965.9389   -355.11929    208.92212   -1921.3483   -3986.6691 
29321000    118.58842   -5141.1121   -4903.9206   -5141.1121            0    8681.7382    17.934126    22.602756    19.110808    7746.7699    7134.3535    9127.2305    9783.6305    669.51935   -364.88928   -767.18718   -3923.0692 
29322000    127.38108   -5131.4834   -4876.7055   -5131.4834            0    8518.3279    17.626199     22.85386    19.196187     7732.736     9278.106    8291.8428     7985.035   -248.72477   -411.08374    788.63413   -3916.0594 
29323000    116.40357   -5158.4896    -4925.668   -5158.4896            0    7266.7976    17.922561    22.604132    19.142063    7754.9076    7102.3571    7103.0565    7594.9793   -442.31822   -1279.0512    100.06073   -4103.8123 
29324000    112.99299   -5149.6222   -4923.6222   -5149.6222            0    8374.8929    17.835746    22.702044    19.142621    7750.9981    9142.7942     7974.735    8007.1495    -373.7227     283.4513   -506.99023   -3976.9213 
29325000    121.20322   -5152.6864    -4910.265   -5152.6864            0    8158.1737    17.845268    22.620982    19.164405    7736.2389    7888.3742    9343.7626    7242.3842    1000.1221     467.2229    2025.1413   -3989.8182 
29326000    120.52363   -5141.0886   -4900.0264   -5141.0886            0    8920.9437    17.817198    22.675028    19.106792    7719.2485    8468.4662    9256.7101    9037.6549   -189.14307   -137.06703    619.19965   -3895.7305 
29327000    115.86268   -5155.3804   -4923.6407   -5155.3804            0    7950.2518    17.794295    22.832305    19.014934     7725.478    8967.7058    7102.4487     7780.601    -259.1672   -1122.7277   -452.37673   -4027.9003 
29328000    124.45646   -5134.2396   -4885.3113   -5134.2396            0    8290.2814    17.823282    22.681962    19.160549    7745.9778    9055.9142    8458.6151    7356.3149    688.65881   -76.961017     979.6426   -3948.7819 
29329000    119.28447   -5155.0777    -4916.494   -5155.0777            0    7550.6994    17.860644    22.791276    19.056164    7757.1332    7182.8127    7389.0566     8080.229     1311.036    5.8617494    288.36388   -4062.2847 
29330000    119.80851   -5127.5564   -4887.9246   -5127.5564            0    9229.7461    17.946798    22.462083    19.171995    7728.6621    8528.2813    9751.2966    9409.6603   -297.61963    325.20617    700.08458   -3847.5973 
29331000    122.45495     -5151.08   -4906.1549     -5151.08            0    7375.1802    17.791767    22.861877    19.095597    7767.1949    7825.3569    6723.3183    7576.8654    1100.0868    -127.7829    763.85493   -4070.7198 
29332000     117.6197   -5151.4207   -4916.1667   -5151.4207            0    9194.4883    17.880297    22.587865    19.123427    7723.5266    10000.799    8704.3733    8878.2925     493.1336   -730.12038    655.37647   -3880.5022 
29333000    122.15134   -5146.4383   -4902.1205   -5146.4383            0    7431.3286    17.815834    22.825474     19.09516    7765.1396    5827.9086     8289.952    8176.1252   -797.10457    216.44393   -980.72499   -4060.5479 
29334000    118.38818   -5128.3705   -4891.5795   -5128.3705            0    8057.7125     17.81648     22.62962    19.236601    7755.8162    8317.4297    7851.6011    8004.1067     830.8705   -410.55743    523.93133   -3980.1666 
29335000    119.45031   -5152.5005   -4913.5851   -5152.5005            0    8419.2649    17.773428     22.72948    19.117425     7723.072    9655.0869    7838.3526    7764.3551     -682.408   -649.88888    365.34014   -3965.2973 
29336000    119.40239   -5155.1235   -4916.3039   -5155.1235            0    7822.1576    17.832098    22.689016    19.171191    7756.5254    7896.0641    7001.5225    8568.8861   -1578.1337    126.97315    58.604662   -4031.4539 
29337000    118.35781   -5150.4278   -4913.6975   -5150.4278            0    8304.5915    17.824017    22.729822    19.126602    7748.8891    7910.6577    8868.4488    8134.6679    640.72902    483.30823    252.90099    -3975.199 
29338000    114.20774   -5132.3022   -4903.8726   -5132.3022            0    8367.5995    17.847563    22.584307    19.176284    7729.4774    7317.3359    9518.0046    8267.4579    1414.6288    1071.5456    588.18178   -3960.6224 
29339000    109.01851   -5147.0674   -4929.0169   -5147.0674            0    7158.7626    17.880861    22.651657    19.183006    7769.7144     6620.068    7859.5357    6996.6841   -255.96059    898.30523    86.322087   -4117.8338 
29340000    115.54141   -5140.1584   -4909.0613   -5140.1584            0    8707.2208    17.792498    22.843896    19.048519    7742.2698    9249.2211    8308.8321    8563.6093    561.80273   -75.198365   -72.914881   -3925.9023 
29341000    113.66797   -5141.7754   -4914.4254   -5141.7754            0    7823.1081    17.862833     22.52084    19.262099     7748.873    8133.8173    8208.3406    7127.1662    17.088857   -311.96303    -760.2003    -4030.341 
29342000    116.83349   -5147.2789   -4913.5975   -5147.2789            0    7715.9578    17.846231    22.719709    19.103242    7745.6232    7027.2176    7915.9576    8204.6981    152.94824    112.64007    923.20273   -4041.9877 
29343000    123.73707   -5142.5679   -4895.0785   -5142.5679            0    8268.6857    17.871415    22.650518    19.117471    7738.6913    8607.9193    8453.2361    7744.9018   -257.48237    136.03962     295.8927   -3961.8674 
29344000    121.68013   -5150.3455   -4906.9702   -5150.3455            0    8212.9469    17.894794    22.646932    19.122349    7749.5648    7812.0678    8165.0412    8661.7318   -166.99606   -500.38399   -837.35287   -3978.7474 
29345000    114.72803   -5155.0855   -4925.6153   -5155.0855            0    8392.2231    17.858704    22.755466    19.058869    7745.2026    7136.1559     8371.043    9669.4703   -217.79032    200.33981   -825.67522   -3977.6647 
29346000    122.36515   -5147.0492   -4902.3037   -5147.0492            0    8141.4219    17.866534     22.71453    19.101862    7752.1072    7875.3203    7431.2802    9117.6653    528.30515   -553.40898    944.43216   -3981.8628 
29347000     118.4633   -5145.7451   -4908.8038   -5145.7451            0    8313.9694    17.836727    22.577239    19.182508    7724.8736    8322.2079    8014.8472     8604.853   -846.34844   -729.71258   -769.75204   -3972.1574 
29348000    119.31015   -5145.2727   -4906.6377   -5145.2727            0    8111.3792     17.71376    22.957518    19.058444    7750.3822    9248.6351    8292.0344    6793.4682    141.13013    1191.3513   -449.63094   -3989.7974 
29349000    114.00486   -5138.0432   -4910.0194   -5138.0432            0    7836.5352    17.966991    22.535084    19.173188    7762.9866    6982.0633    7644.5618    8882.9805    1153.0554   -971.23865   -159.35274   -4022.8045 
29350000    117.66627   -5144.9638   -4909.6167   -5144.9638            0    8742.3948    17.697843    22.849629     19.12697    7734.7389    9373.5748    8723.0349    8130.5748   -661.22018   -866.27975    54.485169   -3923.4463 
29351000    113.08003   -5158.7511   -4932.5771   -5158.7511            0    6885.0544    17.992505    22.559027    19.173797    7782.5175    6324.7107    7091.1705    7239.2821    168.32431    174.20386    -48.44442   -4151.1232 
29352000    115.17061   -5133.2644   -4902.9089   -5133.2644            0    8011.1553    17.602047    23.042231    19.095459    7744.9354    9172.5417    7470.1006    7390.8238     308.4582   -316.73297   -54.298091   -3998.0334 
29353000     117.8536   -5132.0742   -4896.3525   -5132.0742            0    8907.6023    17.869338    22.490322    19.234378    7730.0495     8332.644    9385.8661    9004.2967    702.31603    208.79144   -447.28978   -3892.1553 
29354000    120.67569    -5142.169   -4900.8027    -5142.169            0    7655.1414     17.75015    22.908927    19.062906    7751.6811    8352.7603    7440.2184    7172.4454    27.272408    451.29264   -629.45439   -4035.3866 
29355000    122.60261   -5134.0006   -4888.7802   -5134.0006            0    8246.8857    17.925164    22.544045    19.232838    7772.0992    8387.9319    8307.6617    8045.0635   -1451.1743   -554.61803   -952.16712   -3954.0114 
29356000    113.22785   -5140.1361   -4913.6664   -5140.1361            0    9695.5619    17.667683    23.072213    18.898552    7703.6647    10532.461    8862.3138    9691.9112    651.34993    121.81777    128.57284   -3824.3696 
29357000    118.37838   -5143.5476   -4906.7762   -5143.5476            0    7590.6489    17.922111    22.454259      19.3238    7776.4327    8040.8676    7797.4006    6933.6785     -43.5535   -614.43568    349.10892   -4045.9109 
29358000    123.84907   -5146.2815   -4898.5681   -5146.2815            0    8640.5273    17.687556    22.848206    19.115243    7725.0225    9031.0559    8640.1963    8250.3298    282.47556    521.45709    516.37462    -3925.113 
29359000    118.82321   -5146.4106   -4908.7495   -5146.4106            0    8590.4929      17.8388    22.595238    19.176885     7729.664    9168.5589    8394.4488    8208.4711   -323.18066   -170.27081   -701.10521     -3940.35 
29360000    123.05591   -5143.0874   -4896.9604   -5143.0874            0    8728.5849    17.699155    22.835744    19.140885    7736.2362    9778.3377    8358.2023    8049.2146    141.22569   -260.06513     492.7709   -3912.1572 
29361000    121.42444   -5134.6632   -4891.7993   -5134.6632            0    8136.5344    18.018213    22.449831    19.195479    7764.6832     7123.801    9093.4981    8192.3041    224.83033    168.35434    2240.6561   -3970.4187 
29362000    122.38333   -5146.1399   -4901.3581   -5146.1399            0    9292.7967    17.744547    22.825563    19.045077    7713.8135    10076.171     8531.288    9270.9311    287.98707   -294.45959    309.41636   -3855.9365 
29363000    119.66693   -5150.5912   -4911.2425   -5150.5912            0    8662.5767    17.888448    22.610234    19.079341     7716.868    7574.8901    8493.2105    9919.6293    -293.6961     141.8785    844.75903   -3936.3336 
29364000    123.06052   -5145.6151   -4899.4789   -5145.6151            0    7996.1393    17.758448    22.887765    19.037603    7737.8563    8469.2401    7140.0258     8379.152   -187.48697    159.21168   -377.00754    -3997.125 
29365000    114.84819   -5139.3215    -4909.611   -5139.3215            0    7586.6284    17.855542      22.7382    19.106637    7757.3493    7940.4913    7425.4137    7393.9803   -470.81001   -38.550851   -1094.9335   -4051.3131 
29366000    113.12237    -5149.293   -4923.0343    -5149.293            0    7850.9868    17.894118     22.73625    19.092291    7767.6059    6428.5224    8130.8862    8993.5517    -401.4068   -521.99954    271.08522   -4033.6544 
29367000    112.74743   -5144.9354   -4919.4266   -5144.9354            0     9373.463    17.880786    22.568819    19.112848    7712.9559    8220.2062    9744.2589    10155.924     377.3693    641.54171    -784.4019   -3865.0474 
29368000    117.12625   -5149.5246   -4915.2576   -5149.5246            0    8508.5251    17.753304    22.808791    19.078795    7725.6031    8001.9102    8483.9811     9039.684   -855.51612    624.19021   -440.64098   -3956.6021 
29369000    117.03488   -5146.4632   -4912.3789   -5146.4632            0     9284.621     17.92276    22.356998    19.208744    7696.9263    8681.2784    10333.191     8839.394   -859.66932    539.39193   -267.82892   -3870.1637 
29370000    118.90299   -5146.9708   -4909.1501   -5146.9708            0    8713.1371    17.762452    22.690444     19.18921    7733.9793    9160.3392    8862.6256    8116.4465   -4.8526909   -205.04056   -1675.3418   -3926.3766 
29371000       118.36   -5152.3585   -4915.6239   -5152.3585            0    8943.7401    17.765156    22.672115    19.209095    7736.9175    9162.4347    8817.3646    8851.4211     296.0854    468.92415   -333.88786   -3906.4569 
29372000    123.54863   -5144.6562   -4897.5437   -5144.6562            0     8790.987    17.917749    22.700429    19.059888      7752.43    8261.6541    9058.6668    9052.6401   -217.25176    258.64655   -1552.0199   -3903.6238 
29373000    119.54165   -5140.2458   -4901.1477   -5140.2458            0    9217.7788    17.804555    22.557537    19.172467    7700.1787    10164.877    8598.1132    8890.3459   -667.19434   -875.32093   -113.58578   -3865.9985 
29374000    119.40707   -5141.4601   -4902.6312   -5141.4601            0    7589.2217    17.695371    22.846678    19.168067    7749.2748    7556.7808    7686.3677    7524.5165   -161.11026    515.19187   -1296.9732   -4044.9336 
29375000    119.25029   -5133.9202   -4895.4048   -5133.9202            0    8318.8458    17.881747    22.511572    19.262577     7754.078    9384.1068    8586.5301    6985.9005    -1106.894   -467.57095    658.23332   -3954.6659 
29376000    115.45831   -5147.5478   -4916.6169   -5147.5478            0    7422.0735    17.872816    22.776011    19.058697    7758.2512    7396.7077     7165.788    7703.7247   -237.25812    318.65087    1241.1704   -4076.8379 
29377000    117.76312   -5150.5366   -4914.9959   -5150.5366            0    8489.1192    17.889933    22.559083     19.14014     7724.587     7463.725    9415.0854    8588.5473   -489.03517      513.893    320.58328   -3958.6526 
29378000    118.77021   -5147.9874   -4910.4323   -5147.9874            0    9442.8122     17.70362    22.646629    19.181661    7690.4516      10192.5    9340.0924    8795.8441    526.35992   -271.70106    21.965713   -3851.3515 
29379000    123.74145   -5133.0139   -4885.5157   -5133.0139            0    8207.3505    17.869831    22.698919    19.092137    7744.2642    8992.0004     8052.314    7577.7373   -674.78207   -262.89185   -249.28424   -3958.5599 
29380000    113.86121   -5150.3875    -4922.651   -5150.3875            0    8046.2897    17.742658    22.830013    19.114316    7742.5425    8879.7024    7948.0271    7311.1396   -36.798806   -138.38369   -1.5934325   -4014.0878 
29381000    114.24582   -5153.1171   -4924.6113   -5153.1171            0    8598.1102    17.947712    22.514006    19.129746    7729.8502    9077.9553    8202.1518    8514.2236   -883.54688     475.0477    591.61963   -3955.3297 
29382000    121.82028   -5137.5487   -4893.8931   -5137.5487            0    8610.9144    17.729035    22.864259    19.105527    7744.6403    10054.706    7857.3248     7920.712     324.6705   -234.41576   -1213.5651   -3921.3107 
29383000    115.15053   -5130.4734   -4900.1581   -5130.4734            0      7285.88    17.850191    22.526995    19.344175    7778.5084    7227.5664    8286.9892    6343.0845   -1080.6672    440.76402    364.50145   -4073.6365 
29384000    112.70016   -5139.0274   -4913.6132   -5139.0274            0    9219.0327    17.856502    22.802417    18.905343     7697.715    8534.6697    8272.1049    10850.324   -1244.5974   -327.18511    -1271.958   -3878.6543 
29385000     115.6574   -5144.0885   -4912.7594   -5144.0885            0    8095.5973    17.897625    22.517414    19.211657    7742.4558    7824.6568    9308.6814    7153.4537   -667.66274    531.69996    484.69192   -3998.6388 
29386000    123.27438    -5147.338    -4900.774    -5147.338            0    7549.6819     17.86292    22.822325     19.06275     7771.375     6699.998    7680.4905    8268.5574    450.56811    1214.5089    135.67811   -4045.1116 
29387000    114.85796   -5142.0258   -4912.2957   -5142.0258            0     8143.093    17.995731    22.555245    19.096656    7751.2969    6700.7671    9375.2819    8353.2299     114.5006    396.80589   -571.48737   -3991.7621 
29388000    121.32897   -5149.5011   -4906.8282   -5149.5011            0    9084.8185    17.798343    22.744941    19.065212    7718.0221    9948.2056    8002.5744    9303.6754   -280.17386   -712.80361   -123.62391   -3884.2461 
29389000    115.59131   -5158.0266   -4926.8297   -5158.0266            0    8195.4022    17.805659     22.76636    19.130597    7754.9705    7900.5901    8212.7789    8472.8378   -616.47791    270.01398   -274.17825   -3999.9437 
29390000    123.31693    -5151.524    -4904.875    -5151.524            0    8485.1269    17.837984    22.622006    19.200593    7748.0344    9311.3506    8466.8886    7677.1416    344.80587   -165.36101    281.03882   -3946.0799 
29391000    118.30217   -5148.4943   -4911.8753   -5148.4943            0    8587.1208     17.86264    22.693478    19.077935    7733.5358    9149.2923    8377.6547    8234.4153    387.45613    233.77995    1027.8067    -3943.371 
29392000    115.82187   -5138.5638   -4906.9057   -5138.5638            0    8515.9286    17.823135    22.703679    19.105768    7731.1629    9102.1553    8295.1722    8150.4582   -810.49543   -595.44049   -456.91018   -3946.7256 
29393000    115.66852   -5147.9191   -4916.5678   -5147.9191            0    6909.8249    17.724189    22.784512    19.257683    7776.9649    7111.3892    7046.3253    6571.7602     777.3573   -863.13418    468.33656    -4132.862 
29394000    120.70697    -5152.348   -4910.9191    -5152.348            0    7574.3202    17.889472     22.66666    19.158024    7768.4749    8238.4094    7015.2315    7469.3196    1771.3615   -45.915101    776.71103   -4052.7847 
29395000     116.3222   -5147.9333   -4915.2745   -5147.9333            0    7731.5402    17.838459    22.854665    19.019499    7754.0978    7930.2525    7530.1194    7734.2487    450.83464   -11.835317    740.81594   -4040.9489 
29396000    120.80009   -5154.3583   -4912.7432   -5154.3583            0     8202.825    17.908586    22.624133    19.082081    7731.4151    8609.2853    8595.1826    7404.0071   -899.25201    204.27873    633.42079   -3987.8356 
29397000    118.42818   -5158.8885   -4922.0175   -5158.8885            0    8169.7762    17.811271    22.674689    19.120716    7722.1889    8015.9021    8343.1545     8150.272   -311.18935    566.16259   -198.04596   -4001.9356 
29398000    122.95382   -5160.6852   -4914.7624   -5160.6852            0    7359.2512    17.907172    22.691391    19.077279    7751.8356    6189.5385    7766.1478    8122.0673    382.39553    158.80609    364.92502   -4082.7801 
29399000    124.77547    -5139.937   -4890.3706    -5139.937            0    9592.2978    17.811626    22.743066    19.045726    7715.2517     9228.812    9738.6121    9809.4694    476.55504    558.68375    374.43289   -3811.0545 
29400000     116.3557   -5146.3182   -4913.5924   -5146.3182            0    7892.9819    17.874232     22.65567    19.136843    7749.5162    7905.3667    7747.1361    8026.4428   -440.32045   -292.68071   -781.18432   -4021.5375 
29401000     119.5849   -5126.3715   -4887.1869   -5126.3715            0    7614.4919    17.722032    22.955823     19.06268    7755.1527    7815.4681    7161.3046     7866.703    79.828147    431.62024   -70.712343   -4025.9807 
29402000    120.91751   -5149.9273   -4908.0774   -5149.9273            0    7580.3356    17.956674    22.476667    19.265513    7775.6803    8353.5934     7377.293    7010.1204    119.90191   -586.22207    80.768927   -4048.4649 
29403000    116.49298   -5139.4576   -4906.4573   -5139.4576            0    6973.5674    17.812473    22.893487    19.115281    7795.0133    6762.7506    7017.4586     7140.493   -60.203099    704.02278   -59.201672   -4113.6863 
29404000    114.04326   -5140.2269   -4912.1263   -5140.2269            0     7611.996    17.940619    22.597183    19.121729    7752.0911     7387.677    7973.1473    7475.1637    637.36339   -96.608447    760.20351   -4051.5422 
29405000     118.9182    -5148.836   -4910.9849    -5148.836            0    7931.7203    17.729892    22.816244    19.103974    7728.1219    7427.0065    8216.7527    8151.4018   -410.25468    1185.7796   -358.95146   -4017.0266 
29406000    112.24724   -5148.7209   -4924.2125   -5148.7209            0    7983.7773    17.927403    22.629349     19.12021    7756.7908    7552.2245    8016.5578    8382.5495    1363.8976   -807.45498   -71.836691    -4021.049 
29407000    122.51639   -5157.5784   -4912.5305   -5157.5784            0    7798.9328    17.839014     22.75597    19.096277    7752.0202    8571.9626    7110.8018    7714.0341    690.71373   -581.98588    381.64238   -4030.8201 
29408000    116.22158   -5159.5559   -4927.0984   -5159.5559            0     7047.908    17.888726    22.685708    19.129652    7763.1652    6315.7132    6369.2662    8458.7445   -458.59781   -315.45411   -1609.5351   -4129.1497 
29409000    116.53836    -5152.148   -4919.0569    -5152.148            0    8972.2773    17.807532    22.693075    19.119298    7726.2545    9302.4454    9073.8064    8540.5801   -1043.1659   -145.71256   -733.64656   -3908.0652 
29410000    121.95138    -5140.179   -4896.2612    -5140.179            0    9326.6022    17.832355    22.658704    19.078588     7708.857    9241.3038    9226.1146    9512.3881    623.84826    -502.5079    1261.3419   -3847.7108 
29411000    119.03358   -5158.2069    -4920.125   -5158.2069            0    9029.2727    17.770302     22.65361    19.189694    7725.0319    10485.279    9042.2759     7560.263   -1071.8024   -247.16008   -874.34905   -3902.8721 
29412000    116.19505   -5143.1088   -4910.7043   -5143.1088            0    8347.6559    17.809462    22.738083    19.134382     7748.526    7658.6177    8592.7737    8791.5763   -840.81823      515.243   -538.75838   -3967.3833 
29413000    116.16578   -5149.9672   -4917.6213   -5149.9672            0    7238.6074    17.846014    22.703243     19.24412    7796.9937    7244.5265    7359.5246    7111.7711    23.028576    888.19968    882.54368   -4094.5109 
29414000    119.53496   -5153.3207    -4914.236   -5153.3207            0     8218.693    17.826015    22.698233    19.113638    7733.7418    8484.9232    7977.0517    8194.1041    209.31347    -179.1475   -976.83495   -3987.2604 
29415000    115.95321   -5145.8266   -4913.9058   -5145.8266            0    7476.3028    17.839758    22.739537    19.140816    7764.8135    7674.7089    7334.6382    7419.5614   -22.625437   -1043.9091    78.747728   -4067.2755 
29416000    124.35283   -5133.8428   -4885.1218   -5133.8428            0    9163.3808    17.757553    22.784974    19.084169    7721.5577    9092.0648     9617.448    8780.6297    714.78034   -89.509361    526.10243   -3853.2243 
29417000    122.34322    -5157.425   -4912.7234    -5157.425            0    8503.5685    17.811618    22.725655    19.094749    7729.1853    8776.3637    8144.2664    8590.0754    -275.2941   -687.22674    258.38589   -3954.1821 
29418000    119.48882   -5133.4589   -4894.4665   -5133.4589            0    8450.7042    17.918768    22.636278    19.045327    7725.0556    7733.5203    8740.9149    8877.6775   -48.259901    163.16714   -83.019306   -3942.3931 
29419000    121.08561   -5131.5025   -4889.3163   -5131.5025            0    8459.3965    17.831968    22.754467    19.099882    7749.9094    8091.4716    8317.0756    8969.6423   -740.83257    266.73383    81.747649   -3933.1974 
29420000    116.63341   -5138.0658   -4904.7845   -5138.0658            0    8940.6187    17.883427     22.68264    19.038379    7722.7913    9020.5771    8391.6356    9409.6435    717.03797   -538.36002    321.73955   -3897.8117 
29421000    125.41564   -5155.1196   -4904.2728   -5155.1196            0    7546.7801    17.735441    22.922384    19.084213    7758.4691     8292.422     6625.355    7722.5632    371.07019   -324.59524   -374.05522   -4050.3598 
29422000     119.2102   -5151.9721    -4913.537   -5151.9721            0    8352.1062    17.990573    22.514346    19.061374     7720.733     8078.882     8368.591    8608.8457   -95.887774   -540.98216    51.614888   -3973.0984 
29423000    119.25879   -5161.9256   -4923.3933   -5161.9256            0    7338.7848    17.831471    22.711471    19.153239    7756.6583    7466.2155    7264.5489      7285.59    1371.9923    1021.6884    192.51121   -4093.2087 
29424000    121.48754   -5157.4785   -4914.4884   -5157.4785            0    7874.7483    17.768585    22.749026    19.113556    7726.0438    7635.5163     7565.781    8422.9477    580.01353   -388.68381    1821.5306   -4027.1899 
29425000    121.98529   -5153.7722   -4909.7865   -5153.7722            0    8348.2451    17.798073    22.705598    19.099117    7718.2566       9139.4    8102.2672     7803.068   -141.70784     29.09591   -1194.4329   -3970.0842 
29426000    111.88896   -5131.2533   -4907.4615   -5131.2533            0    10182.619    17.798065    22.672399      19.0977    7706.3962    10114.104    9355.4651    11078.289 0.0095960252   -327.69601   -289.02824   -3763.0381 
29427000    121.30168   -5134.0018   -4891.3835   -5134.0018            0    9611.0277    17.738512    22.817836    19.039846    7706.4626    10087.891     8818.526    9926.6661     355.9522   -218.30662   -902.56205   -3811.1919 
29428000    123.89522   -5150.8063   -4903.0005   -5150.8063            0    7957.2218    17.932342    22.646046     19.13013    7768.6817    7209.0593    7850.4291    8812.1771   -831.45499   -372.83433     357.5626   -4001.4612 
29429000    118.51055   -5131.7449   -4894.7091   -5131.7449            0    9290.0002    17.734661    22.753878    19.092632    7704.4943    10388.284    8769.6492    8712.0669    994.03417    531.91193    270.35274   -3850.8648 
29430000    115.35374   -5135.3106   -4904.5888   -5135.3106            0    8821.4576    17.870234    22.501305    19.215788    7726.7374    8659.5334    9150.2744    8654.5651   -849.68096   -106.36448     764.5347   -3910.5293 
29431000    116.48896   -5145.2042   -4912.2119   -5145.2042            0    8848.5675    17.709865    22.887419    19.069587    7729.5352    9877.9694    7913.6127    8754.1204   -151.58205    400.37586   -1789.7149   -3914.7364 
29432000    125.31592   -5153.9208   -4903.2735   -5153.9208            0    9484.1133    17.946624    22.486988    19.140096    7724.2829    8636.4586    10498.552    9317.3294    -949.5856    285.07803    319.04975   -3834.8811 
29433000    115.01022   -5148.2507   -4918.2161   -5148.2507            0    8387.1732    17.774815    22.862324    19.028646    7732.7388    9825.7586    7353.2727    7982.4884   -507.22219    207.38117   -1005.0011   -3972.3605 
29434000    110.24376   -5140.3347   -4919.8336   -5140.3347            0    8474.8096    17.895456    22.567569     19.15072     7734.151    8662.2421     9114.445    7647.7417    37.265616     661.3222   -38.123423   -3963.9203 
29435000    122.96852    -5136.464   -4890.5117    -5136.464            0    9711.8711     17.87317    22.564093    19.170519    7731.3148    10179.277    9365.6168    9590.7194    685.69085    294.68635   -1333.8233   -3795.4662 
29436000     123.8674   -5150.8025   -4903.0524   -5150.8025            0    7144.5907    17.855296    22.878138    19.015765    7767.8627    6576.6088    6659.7428    8197.4206   -344.03157   -661.09777    1344.8164   -4093.6681 
29437000    114.58056   -5147.7288   -4918.5535   -5147.7288            0    6935.5773    17.868947    22.606904    19.224358    7765.9017    5263.0495    8255.2447    7288.4377    1336.2586    123.28292       824.12   -4133.0459 
29438000    114.67716   -5124.4972   -4895.1287   -5124.4972            0    7947.2824    17.711338     22.85587    19.117945    7739.0981    8685.6736    7485.8368    7670.3368     67.01465   -761.67948      1203.46   -3998.1444 
29439000    118.12034   -5158.5961   -4922.3408   -5158.5961            0    8074.2253    17.811351    22.706862     19.13216    7737.8087    7719.3673    8263.9447    8239.3637    352.04752    118.13331   -154.07262   -4011.1806 
29440000    124.42671    -5137.731   -4888.8623    -5137.731            0    8525.2426    17.746588    22.643733    19.261857     7740.358    9928.3006    8116.3028    7531.1243   -527.94836    -75.03296   -65.109779   -3926.4887 
29441000    119.14119   -5140.0956   -4901.7985   -5140.0956            0    8882.7357    17.801519    22.754552    19.113014    7742.0247    8111.6012     9331.549    9205.0569   -623.42343    360.48614   -633.44702   -3898.8534 
29442000    119.06248   -5139.1851   -4901.0454   -5139.1851            0    8573.9962    17.882309    22.446789    19.249028    7726.5675    7428.5921     10117.58     8175.817   -6.5499093    309.43471   -935.67244   -3934.8927 
29443000    113.01784   -5140.3377   -4914.2881   -5140.3377            0    7258.4198    17.752399    22.953464    19.059463    7766.3321    7824.7282    7045.1764    6905.3547    537.02935    667.87667   -269.45125   -4092.1705 
29444000    118.79739   -5144.8308   -4907.2213   -5144.8308            0    7012.3431    17.931557    22.607942    19.202085    7784.4407    7495.1921    6720.2219    6821.6154   -1016.2404   -437.86035   -363.73507   -4111.1234 
29445000    121.26035    -5143.464   -4900.9283    -5143.464            0    9680.4923    17.836858    22.802135    18.922679    7696.2027    10580.206     8524.451    9936.8201    -223.2662    194.49179    -410.6851    -3814.378 
29446000    115.10914   -5143.9947   -4913.7622   -5143.9947            0    8374.5374    17.820706    22.564837    19.263761    7746.3689     9070.208    8395.0258    7658.3783   0.49613137    550.66312    893.66599   -3967.6669 
29447000     115.5273   -5136.1995   -4905.1306   -5136.1995            0    7756.2217    17.730801    22.976707    18.977141    7731.2006     7327.092    7592.4136    8349.1595    338.34464    849.73122     606.6318    -4030.604 
29448000    120.41937   -5146.2757   -4905.4221   -5146.2757            0    9280.6138    17.851438    22.509669    19.181462    7707.6857     9547.994    9686.6746    8607.1729    200.83358    240.44289   -1042.3118   -3862.2005 
29449000    118.68573   -5132.9274   -4895.5413   -5132.9274            0    9122.5799    17.644986    22.832853    19.166807    7722.0265    9168.1857    8951.9575    9247.5965    433.64566    830.04415   -2650.9218   -3868.1761 
29450000    116.37358   -5149.5312   -4916.7697   -5149.5312            0    7621.5618    17.974771    22.598667    19.126202    7769.1752    7319.4844    7736.1389     7809.062   -520.04236     185.8128   -635.59819   -4053.2052 
29451000    116.97229   -5145.0825   -4911.1234   -5145.0825            0    8108.6171    17.810467    22.753944    19.146678    7759.3512     8321.512    8129.8154    7874.5238    148.21219   -38.290369    124.68092   -3993.5347 
29452000    116.18736   -5146.2804   -4913.8914   -5146.2804            0    7692.5264    17.969372    22.631322    19.088277    7762.6421    7092.7325    8564.6103    7420.2365     216.6486    827.09508    1660.6772   -4043.0191 
29453000    114.40077   -5150.2041   -4921.3884   -5150.2041            0    6961.3911     17.93308    22.871608    18.965941    7779.0397    5879.1846    6526.3143    8478.6743   -266.85895   -323.45269   -242.84397   -4131.6234 
29454000    111.27537   -5142.0949   -4919.5304   -5142.0949            0    8638.8707    17.753073    22.731251     19.14418    7725.6254    9441.4101    8605.1299     7870.072    -412.9165   -613.47584    1073.2577   -3946.1861 
29455000    114.54216   -5148.2218   -4919.1233   -5148.2218            0    8075.5392    17.838681    22.728447    19.060838     7728.131    7034.5284    8219.2638    8972.8254   -375.87316    521.55293    1323.7943   -4008.9546 
29456000    119.44997   -5159.1565   -4920.2418   -5159.1565            0    8440.1792    17.723106    22.738011    19.267653     7764.636    8612.5224    8503.6535    8204.3618   -259.05468    248.99563   -803.22456   -3964.4822 
29457000    118.38829   -5138.2143   -4901.4231   -5138.2143            0    10400.842     17.78711    22.615524    19.120654    7691.5664    10044.547    10689.575    10468.405     919.6202    735.90256    94.436874   -3734.7231 
29458000    116.46592   -5128.4914   -4895.5452   -5128.4914            0    9342.6761    17.910378    22.514036    19.173458    7731.4071    9050.3482    9812.3651    9165.3151    314.64715    312.73485    482.31736   -3842.1151 
29459000    115.82976    -5136.151   -4904.4772    -5136.151            0    8500.3338    17.793789     22.74483    19.106843    7732.8586    7020.1144    8714.3062    9766.5807    364.65144   -117.09791    618.44004   -3945.8451 
29460000     121.2529   -5143.1436   -4900.6229   -5143.1436            0    8117.9208    17.812298    22.618308    19.219834    7743.3646     7956.712    8359.8754    8037.1751   -898.71651   -953.57035   -611.13869   -3983.8739 
29461000    111.99018   -5123.9955   -4900.0013   -5123.9955            0    9748.0484    17.755322    22.786374     19.08155    7720.0026    9020.6231    9220.9463    11002.576   -574.00861    220.03444    -1289.686   -3802.4849 
29462000    121.79581   -5147.0087   -4903.4021   -5147.0087            0    9794.3959    17.899034    22.480161    19.190915    7721.9093    10249.949     9789.912    9343.3264    -214.2689    82.832894   -971.84522   -3800.3951 
29463000    119.86946   -5150.2711   -4910.5173   -5150.2711            0    7939.4244    17.839119    22.858168    19.023835    7757.3412     8220.422    6782.0903    8815.7609   -204.44631    123.09328   -1642.7663   -4012.3075 
29464000    121.49086   -5155.5464   -4912.5497   -5155.5464            0    7671.0605    17.901442    22.694174    19.055085    7741.2892    6790.1771    7695.5738    8527.4307   -978.26507   -890.93019   -875.38475   -4046.4964 
29465000    112.37377   -5148.9197   -4924.1582   -5148.9197            0    9203.3545    17.689845    22.716786    19.157369    7698.5115     8679.344    9355.1006    9575.6189   -228.85656    257.33664   -563.82507   -3890.8526 
29466000    118.65721   -5156.0165   -4918.6875   -5156.0165            0    6220.1821    17.966572    22.646072     19.18393    7805.4092    4960.4084    7501.2402    6198.8979    83.267006    1026.7386    476.99118   -4210.6199 
29467000     115.9029   -5152.4118   -4920.5917   -5152.4118            0    9099.8947    17.722347    22.782283    19.104638    7713.6031    9607.5207    9064.7971    8627.3663    51.806365    1123.5507    617.66449   -3896.8991 
29468000    115.60494   -5134.1795   -4902.9553   -5134.1795            0    8356.0214    17.980621    22.564281    19.136142    7763.9116     8318.426    8115.7596    8633.8788    997.22478   -28.348982    358.21367    -3956.814 
29469000    116.18579   -5143.8112   -4911.4252   -5143.8112            0    7678.0493    17.727594    22.965943    19.017413    7742.5769    8089.9419    7008.3959      7935.81   -559.39531   -343.10372   -975.63994   -4044.4388 
29470000    114.81024   -5154.3872   -4924.7525   -5154.3872            0    8743.9455    17.975827    22.481655    19.162438     7744.046    8120.2186    9018.0963    9093.5215   -480.85599   -132.42023    831.43644   -3937.2203 
29471000    115.52904   -5143.7604    -4912.688   -5143.7604            0    8070.6892     17.77479    22.902692    19.012389    7739.7635    7783.1034    8713.9918    7714.9724    775.36216    744.98871    443.03058   -4001.6968 
29472000    109.77624   -5152.2709   -4932.7049   -5152.2709            0    7367.4976    17.894264     22.69782    19.167939    7785.2651    7396.5838    7938.0501    6767.8588   -26.412557    172.30999    553.54491   -4096.1984 
29473000      111.765   -5141.6067   -4918.0629   -5141.6067            0    9660.1105    17.734496    22.703725    19.152484    7711.5389    9789.3559    9949.1729    9241.8029   -733.79358    74.183681    167.88729   -3831.6397 
29474000    115.29753   -5143.4257   -4912.8164   -5143.4257            0    7009.0919    17.822206    22.805802     19.15705    7786.3768    6389.1031    7161.7216    7476.4509   -232.24102   -1031.1238   -504.79643   -4116.8897 
29475000    120.78136   -5160.0312   -4918.4536   -5160.0312            0    8544.2763    17.797073    22.670177    19.165702    7732.6476    8559.7668    8349.8767    8723.1855    -95.00083   -224.62828    922.06356   -3954.8922 
29476000    113.16102   -5139.3745   -4913.0385   -5139.3745            0    8688.2542    17.880839    22.651229    19.123766    7745.5647    8468.4461    9224.5437    8371.7727    603.10079    1153.4897   -88.533324   -3931.6036 
29477000    125.08159   -5134.3972   -4884.2186   -5134.3972            0    7661.1244    17.819097     22.71334    19.183855    7764.3047    6894.3015    8574.6725    7514.3992    1883.5365    41.976221    36.413425   -4016.7156 
29478000    120.67829   -5140.7315     -4899.36   -5140.7315            0    8559.0178    17.851996    22.727629    19.079785    7741.3085    7981.0441    8247.4758    9448.5334   -1350.6711   -355.55232   -1224.4483   -3933.0551 
29479000    118.96525   -5143.6286   -4905.6834   -5143.6286            0    6856.9163     17.93386    22.727964    19.126309    7795.8857     6695.843    6596.3589     7278.547   -975.94974    377.68465   -1290.9804   -4126.0863 
29480000     124.1404   -5142.4173   -4894.1212   -5142.4173            0    6987.3541    17.916742    22.658109    19.135967    7768.4274    7538.8952    6444.6526    6978.5144    292.69527   -893.58124    42.248861   -4102.4921 
29481000    126.81837   -5147.1246   -4893.4722   -5147.1246            0    9071.0024    17.861329     22.78024    18.980572    7722.9168    8938.2482    8390.3282    9884.4307     228.5367   -243.62157    197.09086   -3871.7977 
29482000    115.99042   -5139.7138   -4907.7186   -5139.7138            0    7745.8369    17.794086    22.697652    19.203207    7755.8673     6231.253    8740.3101    8265.9475    771.99633    7.8378223    346.19983   -4031.5764 
29483000    119.72279   -5160.8329   -4921.3725   -5160.8329            0    7502.4595    17.833883     22.65256    19.213128    7761.7796    8056.1049    7453.8521    6997.4215    473.23293   -982.07606    1501.3324   -4072.1122 
29484000    123.19512   -5139.3312   -4892.9258   -5139.3312            0    10116.858    17.820441    22.715241    19.023976    7700.8222    9160.6139    9720.9556    11469.003    -307.5486    225.83506     1076.989   -3756.7157 
29485000    118.62814   -5158.1423   -4920.8713   -5158.1423            0    7807.9117    17.896501    22.529091    19.219252    7749.0469    8186.8483    7686.8862    7550.0007   -547.81009   -122.96647   -1331.5497   -4038.4844 
29486000     119.0512   -5151.8436   -4913.7265   -5151.8436            0    7785.5001    17.748381    22.807264    19.101834    7732.2697    9147.7365    7476.7549     6732.009   -1052.2509   -465.57966   -651.84646   -4035.7773 
29487000    113.92239   -5141.9223   -4914.0634   -5141.9223            0    8274.3058    17.840387    22.538781    19.264095    7746.1034    8151.8359    8492.0339    8179.0476   -442.70611    493.63524    104.61473   -3979.3236 
29488000    118.58614   -5133.9995   -4896.8126   -5133.9995            0    9504.2353    17.789961    22.783914    19.035422    7715.5312    9344.6593    9416.3617    9751.6848      1284.11    390.76523    1124.9234   -3827.3665 
29489000    118.58394   -5144.4872   -4907.3047   -5144.4872            0    7890.3767    17.932322    22.603152     19.15086    7762.3606    7208.9257    8002.4825    8459.7218    224.26608    873.63216   -1761.0202   -4014.0662 
29490000    118.28193   -5138.9382   -4902.3597   -5138.9382            0    8806.3836    17.807009    22.732439    19.112422    7736.6463    9136.0914    8761.5094      8521.55    1137.5929    185.13864     433.1542   -3908.7262 
29491000    118.79666   -5156.0728   -4918.4648   -5156.0728            0    7647.3026    17.837067    22.607076    19.225891    7752.7242    6799.5392     8638.673    7503.6958   -247.72023    181.93874   -1728.1808   -4053.8185 
29492000    117.23739   -5151.8199   -4917.3306   -5151.8199            0    7785.4381     17.75713    22.704424    19.228529    7752.2774    7521.8866     8298.831    7535.5965    792.75789    252.74066    819.33323   -4037.1166 
29493000    129.76937   -5152.6426   -4893.0878   -5152.6426            0    8578.9129    17.786153    22.776311    19.083582    7730.8155    9607.0082     8171.084    7958.6464   -628.27188   -700.71283   -114.72652   -3925.8496 
29494000    117.98377   -5132.6672   -4896.6851   -5132.6672            0     8113.466    17.902594    22.636904    19.103629    7741.9233    7147.1746    8570.1375    8623.0859   -21.909963    507.30076    962.18129   -3980.6098 
29495000     119.8569   -5131.0118   -4891.2832   -5131.0118            0    8709.2179    17.774345    22.710031    19.199501    7749.9926    9278.9069    8400.0511    8448.6958    737.39662     281.3241      1036.88   -3906.9178 
29496000    117.91281   -5149.7173   -4913.8771   -5149.7173            0    7977.0223    17.985104    22.584795    19.111762    7763.0041    9283.4772     6702.823    7944.7667   -1663.9824   -1313.0981   -935.12436   -4010.7549 
29497000    117.01741   -5144.9115   -4910.8622   -5144.9115            0    7327.8351    17.808089    22.777659    19.119409    7755.3407    8222.1664    6480.0619    7281.2771    778.42392   -985.19411    999.46888   -4082.0571 
29498000    121.87755   -5137.9572   -4894.1871   -5137.9572            0    8871.3176     17.80953    22.616676    19.177737    7724.6462    9600.8537    9132.5226    7880.5766   -7.4062836    -566.2275   -1001.5294   -3894.7795 
29499000    117.52868   -5152.0943   -4917.0224   -5152.0943            0    6868.8577    17.764161     22.83658    19.122494    7757.4736     7390.535    6645.9145    6570.1237   -553.52493   -487.19933    260.54597   -4139.9156 
29500000    124.21284    -5141.435    -4892.994    -5141.435            0    7646.1923    17.811315    22.637196    19.214153    7747.1125    7442.4768    7610.9383    7885.1617    315.35343    -182.0673    92.055448    -4029.099 
Loop time of 526.122 on 64 procs for 250000 steps with 1008 atoms

Performance: 82.110 ns/day, 0.292 hours/ns, 475.175 timesteps/s
371.9% CPU use with 16 MPI tasks x 4 OpenMP threads

MPI task timing breakdown:
Section |  min time  |  avg time  |  max time  |%varavg| %total
---------------------------------------------------------------
Pair    | 42.217     | 43.862     | 46.486     |  15.7 |  8.34
Bond    | 1.5508     | 1.6989     | 2.3907     |  14.4 |  0.32
Kspace  | 251.82     | 259.41     | 272.21     |  38.2 | 49.31
Neigh   | 1.3089     | 1.4264     | 1.5654     |   7.6 |  0.27
Comm    | 62.668     | 76.105     | 83.261     |  59.2 | 14.47
Output  | 0.67186    | 0.67222    | 0.67366    |   0.0 |  0.13
Modify  | 113.08     | 116.43     | 120.82     |  18.2 | 22.13
Other   |            | 26.52      |            |       |  5.04

Nlocal:        63.0000 ave          67 max          59 min
Histogram: 1 0 2 3 0 4 3 2 0 1
Nghost:        3477.19 ave        3487 max        3468 min
Histogram: 1 2 1 2 4 1 1 2 0 2
Neighs:        21571.7 ave       23015 max       20313 min
Histogram: 1 0 3 2 4 2 2 1 0 1

Total # of neighbors = 345147
Ave neighs/atom = 342.40774
Ave special neighs/atom = 2.0000000
Neighbor list builds = 3146
Dangerous builds = 0

unfix		3
unfix		2
unfix		1

write_data	data.final.${pid}
write_data	data.final.1
System init for write_data ...
PPPM initialization ...
  extracting TIP4P info from pair style
  using 12-bit tables for long-range coulomb (../kspace.cpp:340)
  G vector (1/distance) = 0.38002396
  grid = 24 27 32
  stencil order = 5
  estimated absolute RMS force accuracy = 0.0023772724
  estimated relative force accuracy = 7.1590851e-06
  using double precision FFTW3
  3d grid and FFT values/proc = 7875 1344
Last active /omp style is kspace_style pppm/tip4p/omp
WARNING: Not all mixed pair coeffs generated from mixing. Use write_data with 'pair ij' option to store all pair coeffs. (../write_data.cpp:312)

write_restart   restart.lmp.${pid}
write_restart   restart.lmp.1
System init for write_restart ...
PPPM initialization ...
  extracting TIP4P info from pair style
  using 12-bit tables for long-range coulomb (../kspace.cpp:340)
  G vector (1/distance) = 0.38002396
  grid = 24 27 32
  stencil order = 5
  estimated absolute RMS force accuracy = 0.0023772724
  estimated relative force accuracy = 7.1590851e-06
  using double precision FFTW3
  3d grid and FFT values/proc = 7875 1344
Last active /omp style is kspace_style pppm/tip4p/omp
Total wall time: 0:08:46
