LAMMPS data file via write_data, version 30 Jul 2021, timestep = 1500000

972 atoms
2 atom types
648 bonds
1 bond types
324 angles
1 angle types

0.011181125678227488 19.988819874322406 xlo xhi
0.05775476244036959 19.942246237562394 ylo yhi
0.1022096475596257 20.597788352443914 zlo zhi

Masses

1 1.008
2 15.999

Pair Coeffs # lj/cut/tip4p/long/omp

1 0 0
2 0.21084 3.1668

Bond Coeffs # harmonic/omp

1 450 0.9572

Angle Coeffs # harmonic/omp

1 55 104.52

Atoms # full

236 79 1 0.5897 0.9665450338939185 0.34605554587318427 2.092278809502807 0 1 0
32 11 1 0.5897 0.1042845234301879 2.567248446152105 1.3686343473165214 0 0 0
23 8 1 0.5897 2.6171995538634767 0.8959862166978484 4.048767407854357 0 0 0
10 4 2 -1.1794 1.891957811651248 4.422018308657436 3.569154170286362 0 0 0
11 4 1 0.5897 1.5622310168911162 3.842244413129683 2.8825717265635253 0 0 0
12 4 1 0.5897 2.8405770822988763 4.295155561693007 3.555283260897013 0 0 0
272 91 1 0.5897 7.160930122935823 0.15880420544808832 1.7359367570772664 0 1 0
31 11 2 -1.1794 0.9469224497830667 2.2955611542384546 1.7324453989834243 0 0 0
33 11 1 0.5897 1.5743896317631318 2.450902210682125 1.026488898323794 0 0 0
16 6 2 -1.1794 4.574310588947427 3.9628765787585785 3.255197622542969 0 0 0
53 18 1 0.5897 9.953000733332667 3.8779478081758354 3.913161813515499 0 0 0
41 14 1 0.5897 9.811710219905807 0.9344569534956195 3.8247910259953106 0 0 0
4 2 2 -1.1794 4.1491348497076155 1.032068907980971 3.0247862223795687 0 0 0
18 6 1 0.5897 4.383993964391529 3.0951852082262534 2.898602079231718 0 0 0
68 23 1 0.5897 8.103525481764928 2.3235434894813616 1.5568817894198732 0 0 0
48 16 1 0.5897 7.6523695584764875 4.0006669711854475 4.590647121497675 0 0 0
67 23 2 -1.1794 7.371409751973365 1.983510785292027 2.0712405820354824 0 0 0
47 16 1 0.5897 7.765859374521305 3.094191979733297 3.383444182743083 0 0 0
69 23 1 0.5897 6.591019272281242 2.279071820264469 1.602385071681792 0 0 0
46 16 2 -1.1794 8.206040988294827 3.816233388504476 3.8319395753211865 0 0 0
6 2 1 0.5897 4.799648490882563 0.9503729825680438 3.722186150733199 0 0 0
102 34 1 0.5897 0.2753569382310043 0.8006154772454058 4.824174728931428 1 0 0
5 2 1 0.5897 4.287940714675612 0.26050858386232134 2.4755299498993795 0 0 0
9 3 1 0.5897 5.325798102802213 4.318412416209684 4.682197779611708 0 0 0
81 27 1 0.5897 0.6831744896703408 4.46070100893945 4.819833082833531 1 0 0
17 6 1 0.5897 4.812883452483829 4.488989410486024 2.4919548470866655 0 0 0
34 12 2 -1.1794 5.345813059307052 2.686684543611399 0.3708393124161472 0 0 0
22 8 2 -1.1794 1.952369588175978 0.8368008268246027 4.73485867654424 0 0 0
357 119 1 0.5897 0.08813742670313829 2.2863078436719397 8.14446928456587 0 0 0
325 109 2 -1.1794 2.7589806269065296 2.7511845732645597 6.603258107208545 0 0 0
326 109 1 0.5897 2.5024275549940174 2.201024117546125 5.863155620783705 0 0 0
327 109 1 0.5897 3.6492343017215876 2.4698166765816842 6.814165403925848 0 0 0
8 3 1 0.5897 5.57799519532858 3.9096255005864684 6.117886271002149 0 0 0
355 119 2 -1.1794 0.9157825375384381 2.23639035582606 8.622694599485452 0 0 0
356 119 1 0.5897 1.5881431759402855 2.3540762219148554 7.9516584598675415 0 0 0
341 114 1 0.5897 4.143811284703309 3.7566943371274655 10.09717520078146 0 0 0
360 120 1 0.5897 5.45390845484388 1.943178871158496 6.551063930949073 0 0 0
330 110 1 0.5897 4.174777586141752 0.5074463082021992 9.668848135758687 0 0 0
7 3 2 -1.1794 5.864652166823098 4.52735593592891 5.445208199811586 0 0 0
359 120 1 0.5897 5.968682451981711 2.3365077249120887 7.919326436790466 0 0 0
358 120 2 -1.1794 5.313251295064428 2.5689090851968386 7.261624149822173 0 0 0
362 121 1 0.5897 9.366544726401287 3.5834633954273047 6.626695622619479 0 0 0
393 131 1 0.5897 7.589683224359599 1.0464313752382437 8.676434452162955 0 0 0
392 131 1 0.5897 8.024136063329255 2.378161192125206 8.102223036852575 0 0 0
335 112 1 0.5897 1.0429621506271511 3.7154955406706076 9.807983165985663 0 0 0
391 131 2 -1.1794 7.4274848465314705 1.9876122404054983 8.740694886809896 0 0 0
361 121 2 -1.1794 9.345644190375925 2.693153925743223 6.977669006525961 0 0 0
27 9 1 0.5897 2.3342120457895006 4.73891966186663 6.537304100764827 0 0 0
381 127 1 0.5897 7.831011820684187 5.024579630168482 9.346340254845675 0 0 0
59 20 1 0.5897 8.894674975412515 1.54444675144338 5.871172276042933 0 0 0
561 187 1 0.5897 0.9579640766043643 0.4804670052339472 8.93558771175823 0 1 0
328 110 2 -1.1794 4.028180607409189 1.2114689390473157 10.300612843992038 0 0 0
24 8 1 0.5897 2.2222155685132416 0.08801766196474667 5.266584012257376 0 0 0
340 114 2 -1.1794 3.7838191093779128 4.624534236983535 10.280239577095951 0 0 0
28 10 2 -1.1794 5.830303507540806 0.5985518278108282 5.335268626564536 0 0 0
334 112 2 -1.1794 1.1669525558873555 4.499692019148303 10.342712283755189 0 0 0
29 10 1 0.5897 6.780394591715275 0.4836851231217322 5.317344713263582 0 0 0
58 20 2 -1.1794 8.645427020335502 0.8532174413769359 5.257716680539745 0 0 0
384 128 1 0.5897 9.685136255617596 0.7937219031376135 11.175472838038024 0 0 0
352 118 2 -1.1794 6.457150805047758 0.7196123008662858 11.840693505573178 0 0 0
685 229 2 -1.1794 9.104826928668002 2.3672640904307065 13.97000784175356 0 0 0
649 217 2 -1.1794 2.751926059807592 3.0106606541779204 13.940829343283877 0 0 0
650 217 1 0.5897 2.2131442963036614 2.575174858130691 13.280321750233455 0 0 0
336 112 1 0.5897 2.114231875932851 4.6366839776519715 10.351749047627887 0 0 0
405 135 1 0.5897 0.0854458794396778 4.472804369870757 11.63534191092205 1 0 0
382 128 2 -1.1794 9.156062609741166 0.4753828636555214 11.906875729589034 0 0 0
350 117 1 0.5897 2.969065439604576 4.813562817375486 13.706397044195704 0 0 0
683 228 1 0.5897 4.673368466095577 2.7516638568222143 14.25363516300715 0 0 0
651 217 1 0.5897 2.3586945092329255 2.757823567104473 14.77609591191906 0 0 0
383 128 1 0.5897 9.193819212236736 1.179169715696194 12.554581957883087 0 0 0
348 116 1 0.5897 1.8046541996463141 1.2769677870909 11.294337963597043 0 0 0
386 129 1 0.5897 9.210445863309426 4.106924303935586 13.444871530197856 0 0 0
354 118 1 0.5897 6.277119255080678 1.4152895653345003 12.473058441539473 0 0 0
684 228 1 0.5897 5.764714257394059 3.5137441650516665 13.53247971755035 0 0 0
370 124 2 -1.1794 7.933299747134081 3.699975755790861 11.106633598323928 0 0 0
385 129 2 -1.1794 9.57740578701043 4.990598773550263 13.417834608371857 0 0 0
332 111 1 0.5897 4.997816258202661 4.911572900053482 11.407906861679185 0 0 0
686 229 1 0.5897 8.643754404882822 2.4127884394847703 14.807608172742745 0 0 0
346 116 2 -1.1794 1.3649853637388754 0.9719264122740239 12.087984798231322 0 0 0
329 110 1 0.5897 4.765628708815444 1.146814466591173 10.907403985981043 0 0 0
353 118 1 0.5897 7.4068455802061095 0.7418653286681318 11.723328923197139 0 0 0
682 228 2 -1.1794 5.541064930287443 2.644104728291155 13.864099002114997 0 0 0
347 116 1 0.5897 0.4318203084649668 1.032199397363252 11.883612576649563 0 0 0
372 124 1 0.5897 7.243333659188489 4.200715171337306 11.541854162784963 0 0 0
680 227 1 0.5897 0.13889484142259167 2.5169129158928847 15.355328671796181 0 0 0
377 126 1 0.5897 9.620146407119906 4.394499799739126 10.58410749416991 0 0 0
371 124 1 0.5897 7.470925377437803 2.9869808637368114 10.66606265136735 0 0 0
689 230 1 0.5897 9.819682244815418 1.0222918643051382 17.320964756550765 0 0 0
654 218 1 0.5897 4.1575612224264935 0.5266750616546589 16.206832500134674 0 0 0
652 218 2 -1.1794 3.8997904755847097 1.3566611284499257 16.607980062472436 0 0 0
653 218 1 0.5897 3.1260512036910884 1.1414202677284777 17.128705493790385 0 0 0
676 226 2 -1.1794 5.520090838528791 0.6495680387167974 18.971676251828352 0 0 0
659 220 1 0.5897 1.2054917882479106 4.2498933732340225 18.098983201798337 0 0 0
664 222 2 -1.1794 4.5590697481889855 4.157131462342615 17.269904425922597 0 0 0
677 226 1 0.5897 5.189828909644243 0.8268669738000335 18.090918019395517 0 0 0
666 222 1 0.5897 4.548400505415194 3.2969713670573304 16.85003743777617 0 0 0
670 224 2 -1.1794 2.0802994704391744 0.732889235886038 18.6578679840918 0 0 0
671 224 1 0.5897 2.359598704594727 1.477079199432696 19.19118130670213 0 0 0
665 222 1 0.5897 3.635333210924663 4.375072203541841 17.394041234351505 0 0 0
657 219 1 0.5897 7.237786434922459 4.499802933453268 18.755400649513483 0 0 0
706 236 2 -1.1794 8.353993154100355 1.0692333243130345 18.801401316357357 0 0 0
884 295 1 0.5897 1.1765431016973793 0.4008570168470559 15.58812490728815 0 1 0
655 219 2 -1.1794 6.412950338063117 4.6615578333499 19.213317032824314 0 0 0
36 12 1 0.5897 5.594488848389995 3.4510360191996714 20.346649284823748 0 0 -1
656 219 1 0.5897 5.754823387432192 4.202186642348583 18.691707965592265 0 0 0
681 227 1 0.5897 1.0973523303235784 2.8884657077810916 16.4666640803117 0 0 0
715 239 2 -1.1794 7.463009267647447 2.127710699942344 16.158978621255834 0 0 0
716 239 1 0.5897 7.510775439055286 1.1800056952065752 16.284898164799422 0 0 0
672 224 1 0.5897 1.1240031539076645 0.7637355957892318 18.68490999827218 0 0 0
694 232 2 -1.1794 8.543352771225559 4.159038212351681 17.51704320994158 0 0 0
695 232 1 0.5897 8.03787158355264 3.448548250582019 17.122147139009844 0 0 0
658 220 2 -1.1794 1.852026012420367 4.210464554498962 17.39425962129663 0 0 0
708 236 1 0.5897 7.399805919023253 0.9938307661023803 18.805070382130104 0 0 0
38 13 1 0.5897 8.976982525135913 2.4675602576177393 19.69633575689359 0 0 -1
710 237 1 0.5897 8.909639990172812 4.83323678185903 20.418654000862855 0 0 0
35 12 1 0.5897 5.565550696553075 1.9377677831555156 20.31224577755785 0 0 -1
679 227 2 -1.1794 0.926039707542607 2.2149018479321363 15.808502622152776 0 0 0
696 232 1 0.5897 8.439948882404567 4.892755813519652 16.911067001618715 0 0 0
2 1 1 0.5897 2.60052856773398 3.701108190622529 20.092975848449182 0 0 -1
660 220 1 0.5897 1.5223027018127508 4.817640461882367 16.73180849699886 0 0 0
707 236 1 0.5897 8.656187445369076 0.3160358838394828 19.308978141478928 0 0 0
37 13 2 -1.1794 9.236325066771334 3.039380746054943 20.418801349695965 0 0 -1
1 1 2 -1.1794 2.685173410688805 2.752411420430274 20.18829044775272 0 0 -1
3 1 1 0.5897 3.563969663546543 2.6245442502380936 20.5454214657124 0 0 -1
717 239 1 0.5897 6.710994393176445 2.2553741385142905 15.580713838847052 0 0 0
13 5 2 -1.1794 4.705975016096251 5.936957943567985 1.3955810166289095 0 0 0
21 7 1 0.5897 0.10313990086372483 6.357316664514595 1.5411757461390871 0 0 0
143 48 1 0.5897 5.419775343411878 9.015622565170991 1.078166107362817 0 0 0
110 37 1 0.5897 1.7122973569431 9.139773628487601 1.3208403188851896 0 0 0
14 5 1 0.5897 4.044497557252585 6.131287424679666 0.7315764046456048 0 0 0
166 56 2 -1.1794 8.601447078107869 7.66972758886114 5.102869797871954 0 0 0
132 44 1 0.5897 0.959474732262505 7.623630592018066 4.781542171257988 0 0 0
130 44 2 -1.1794 1.905257139454501 7.594431196263973 4.925894812008208 0 0 0
112 38 2 -1.1794 4.18843657952188 7.784882385344557 3.340671071313633 0 0 0
114 38 1 0.5897 3.4033887949447132 7.586981936357826 3.851308013210805 0 0 0
113 38 1 0.5897 4.907493514785293 7.712605891456102 3.968326226586502 0 0 0
20 7 1 0.5897 1.152367021421466 5.8454797653757575 2.5050064241143364 0 0 0
15 5 1 0.5897 4.654596042920562 6.67116863246851 2.0075939130588285 0 0 0
140 47 1 0.5897 0.7794310817845577 9.441998428235738 3.363252633728299 0 0 0
56 19 1 0.5897 6.471785142904267 5.807437169842157 1.8553333587013605 0 0 0
55 19 2 -1.1794 7.334324341123598 6.026406860478476 2.2078702754313007 0 0 0
57 19 1 0.5897 7.511249473224063 5.341048789786275 2.852255639514629 0 0 0
19 7 2 -1.1794 1.026161636865465 6.4527198019182626 1.775919434513387 0 0 0
177 59 1 0.5897 7.81003459701898 9.015675270911666 1.503971862210505 0 0 0
139 47 2 -1.1794 0.3553951686360807 8.9929197407273 2.6319807183614192 0 0 0
175 59 2 -1.1794 7.095796014177535 8.86976022083843 2.124266750784383 0 0 0
176 59 1 0.5897 7.058891456612353 7.918947207232627 2.2284592446874694 0 0 0
674 225 1 0.5897 1.8581494177379332 5.608471386568924 0.28793315919406637 0 0 1
141 47 1 0.5897 0.7775908846297184 8.134431596725197 2.6001833319105203 0 0 0
711 237 1 0.5897 8.409663385548246 5.917399325387442 0.8539306073647326 0 0 1
142 48 2 -1.1794 4.646131844120118 8.784279858312642 0.5642003941131637 0 0 0
111 37 1 0.5897 2.9844793117451105 9.259067210651052 0.5089868200104071 0 0 0
126 42 1 0.5897 4.396118259057769 9.38321469273928 3.499704304931364 0 0 0
109 37 2 -1.1794 2.0592335191611273 9.504220382533484 0.5065658561674103 0 0 0
155 52 1 0.5897 8.105886782672128 9.754672648530065 3.4770508042022295 0 0 0
145 49 2 -1.1794 9.156976213298035 9.643380390051847 0.31891799068373317 0 0 0
437 146 1 0.5897 3.736152658882467 7.676030884162882 9.557019797325829 0 0 0
337 113 2 -1.1794 4.644252835478024 6.364037260054926 8.434044962080671 0 0 0
433 145 2 -1.1794 2.5656792590041793 9.416809855684328 6.973183573962049 0 0 0
468 156 1 0.5897 4.455859246020835 9.424522741791128 7.443430672080193 0 0 0
467 156 1 0.5897 5.344041596128388 8.453093574743422 6.695511121533788 0 0 0
464 155 1 0.5897 1.3798199604929522 8.98736413196616 8.170022116388306 0 0 0
338 113 1 0.5897 5.504050773949828 5.981878123287263 8.258246688856108 0 0 0
345 115 1 0.5897 0.5336272113684165 7.146016158584781 8.618479385722836 0 0 0
62 21 1 0.5897 8.408398709407793 5.341524336590859 7.027258023983253 0 0 0
344 115 1 0.5897 0.6172926893355145 5.72119037324737 9.123315250319067 0 0 0
25 9 2 -1.1794 2.5881177011416345 5.657491516396518 6.626839298450117 0 0 0
136 46 2 -1.1794 5.938545922175186 7.2761644320924255 5.381580054443728 0 0 0
380 127 1 0.5897 7.378896478693574 6.423212686662512 8.983894260066354 0 0 0
463 155 2 -1.1794 0.6056907285785393 9.003707658978199 8.73274951072707 0 0 0
339 113 1 0.5897 4.133177043738757 6.177515678115329 7.646493000327828 0 0 0
379 127 2 -1.1794 7.465652708977872 5.539373449331339 8.626790982850464 0 0 0
466 156 2 -1.1794 5.359811600469925 9.11489703869609 7.386910579043179 0 0 0
26 9 1 0.5897 1.8749882931135557 6.056151570753411 7.125499727531466 0 0 0
61 21 2 -1.1794 9.17218325547506 5.434926932390556 6.4579448401641235 0 0 0
343 115 2 -1.1794 0.5469807590761055 6.2366661410752 8.319837471611503 0 0 0
500 167 1 0.5897 7.521629366900784 9.222120418053866 9.673372488218954 0 0 0
471 157 1 0.5897 9.714175446304441 9.43871346517023 7.26874808024784 0 0 0
435 145 1 0.5897 2.215684468603405 8.913748093050726 6.2378845467797595 0 0 0
501 167 1 0.5897 6.644847593161337 8.678876634045054 8.565221745066088 0 0 0
470 157 1 0.5897 8.30323227339361 9.12038458856087 7.715387801567294 0 0 0
499 167 2 -1.1794 7.42258960701595 8.474191278040191 9.084286318502265 0 0 0
469 157 2 -1.1794 8.796469299079861 9.604810218811917 7.053440743860341 0 0 0
342 114 1 0.5897 3.952306934900678 5.12726892813414 9.483299127001805 0 0 0
137 46 1 0.5897 6.088469472671392 6.332728751654164 5.442707278561886 0 0 0
436 146 2 -1.1794 3.1952292354726204 8.30594066830873 10.033275478596307 0 0 0
438 146 1 0.5897 3.649360988328032 9.141709261049083 9.926064208987432 0 0 0
63 21 1 0.5897 9.884668379243498 5.6760552031772535 7.049923493075669 0 0 0
168 56 1 0.5897 8.694721367146157 8.297629840855759 5.819303543348204 0 0 0
167 56 1 0.5897 8.939437035964755 6.847815756692142 5.458528971688153 0 0 0
138 46 1 0.5897 6.814907990564171 7.660421861254081 5.404422263240799 0 0 0
131 44 1 0.5897 2.0373853931774075 6.83899927615969 5.498722811878515 0 0 0
349 117 2 -1.1794 3.049042452825079 5.7430619298421295 13.920634670358165 0 0 0
795 265 1 0.5897 9.329430734433588 9.971050822818599 13.362614672101369 0 0 0
491 164 1 0.5897 8.919058929588466 7.410042562799033 10.887091856921522 0 0 0
387 129 1 0.5897 8.99305335731875 5.475420315369247 12.834984878061467 0 0 0
790 264 2 -1.1794 5.260632922538262 9.25142915248571 14.296539868911566 0 0 0
759 253 1 0.5897 2.1402905556693157 9.017132889471473 13.481880938401682 0 0 0
454 152 2 -1.1794 1.745670438221612 7.710163300242066 12.34355396306914 0 0 0
455 152 1 0.5897 2.3381989292666976 7.906700762031161 11.617951536539175 0 0 0
456 152 1 0.5897 2.1355187305172083 6.948246099246302 12.772166614891885 0 0 0
704 235 1 0.5897 7.222155177186779 6.0950078437501105 15.343594132004322 0 0 0
492 164 1 0.5897 7.637300536065956 7.29785953442998 11.684804094471636 0 0 0
462 154 1 0.5897 5.016223903407426 8.084510966377708 11.375288755172754 0 0 0
490 164 2 -1.1794 8.538093313810027 6.97601499302874 11.650458529718303 0 0 0
792 264 1 0.5897 4.327800118896183 9.230893331468584 14.509938392244646 0 0 0
757 253 2 -1.1794 2.379234803121273 9.650422879266241 14.158716725562606 0 0 0
461 154 1 0.5897 5.358168636691211 8.284714677018767 12.836420349753043 0 0 0
793 265 2 -1.1794 9.395829473811995 9.051925252656696 13.621562996493957 0 0 0
794 265 1 0.5897 9.398437727034505 8.569303372635995 12.794942213373991 0 0 0
460 154 2 -1.1794 5.629738907702648 7.804162162021163 12.05439882653869 0 0 0
705 235 1 0.5897 8.570998654547767 5.620136773732902 14.846645176353725 0 0 0
351 117 1 0.5897 3.8662951580674636 5.805959409292197 14.414952607212818 0 0 0
333 111 1 0.5897 5.636295719135598 6.064202379832484 12.153390435010689 0 0 0
791 264 1 0.5897 5.701742509634949 9.121264705713175 15.135989907669812 0 0 0
668 223 1 0.5897 1.4560485318963916 6.016280424480831 14.903984847558203 0 0 0
824 275 1 0.5897 8.090106615915628 8.680774567985434 15.038592254139909 0 0 0
661 221 2 -1.1794 5.390672305686393 5.830276624209506 15.335843220187547 0 0 0
331 111 2 -1.1794 5.66264415482715 5.1112531637591045 12.06693470379077 0 0 0
760 254 2 -1.1794 4.250237217069435 7.836861762859092 16.992533866305646 0 0 0
788 263 1 0.5897 0.8770655071688676 9.319543359527133 16.962556401764324 0 0 0
797 266 1 0.5897 9.74951573549804 7.467300252997679 17.78858101378529 0 0 0
662 221 1 0.5897 5.230441800342534 5.144497147849747 15.984132888817625 0 0 0
778 260 2 -1.1794 2.1415869431752586 7.779396796370618 18.71398090270215 0 0 0
779 260 1 0.5897 2.287341410785451 8.418940451210682 19.41109694265987 0 0 0
780 260 1 0.5897 2.941375404539167 7.810145705004447 18.189022403778694 0 0 0
669 223 1 0.5897 0.8179907201195074 7.003759028953249 15.857768618718772 0 0 0
789 263 1 0.5897 1.410858255959423 9.011634724268875 15.579742513341804 0 0 0
762 254 1 0.5897 4.89774416183986 7.671401218516181 17.67778609826455 0 0 0
786 262 1 0.5897 6.690951844048788 7.921019720970987 18.88166627239087 0 0 0
785 262 1 0.5897 6.008188832597414 6.685793036566517 19.42929353651905 0 0 0
787 263 2 -1.1794 0.7121969182231679 8.777841676877838 16.190816262617165 0 0 0
815 272 1 0.5897 8.593034228216172 7.1878482054409805 19.45528786712034 0 0 0
784 262 2 -1.1794 5.8329109265329215 7.578621180031723 19.132031115781793 0 0 0
823 275 2 -1.1794 7.516507147943398 8.635705811678811 15.803561250378847 0 0 0
814 272 2 -1.1794 8.462343839268419 7.859099933141474 18.785507232963937 0 0 0
825 275 1 0.5897 7.797369714889747 7.847254001956249 16.26802678529301 0 0 0
816 272 1 0.5897 8.756969508570686 8.670810343109483 19.19850627942619 0 0 0
761 254 1 0.5897 4.30548901820715 8.779003095170632 16.832586499923604 0 0 0
675 225 1 0.5897 2.211660100365382 6.147258570241259 19.413642252807495 0 0 0
663 221 1 0.5897 4.998256707782061 6.6162883918503255 15.715918029150618 0 0 0
673 225 2 -1.1794 2.4266228291969463 5.447558565287521 20.030436572972636 0 0 0
709 237 2 -1.1794 8.873694144329608 5.78406180247822 20.523011705121522 0 0 0
667 223 2 -1.1794 0.9017614393948742 6.06640685630954 15.682748560397611 0 0 0
144 48 1 0.5897 4.983722375125316 8.236253023220609 20.351309048417416 0 0 -1
703 235 2 -1.1794 8.125008931080087 5.950255081887912 15.626615829438592 0 0 0
858 286 1 0.5897 0.25134267672719923 7.360406631528627 18.63842763413864 1 0 0
276 92 1 0.5897 8.94148640950228 14.200361911940496 4.783443029987884 0 0 0
120 40 1 0.5897 1.477304828220464 11.366634852184703 3.656985248591521 0 0 0
220 74 2 -1.1794 3.6642708352239652 14.171541958668298 3.3478272108883513 0 0 0
782 261 1 0.5897 2.235728391436108 11.358436733367476 0.5538227883087278 0 0 1
127 43 2 -1.1794 0.6814327791132614 12.796047580064952 2.5120694209839303 0 0 0
119 40 1 0.5897 2.6011468746883977 10.532792051068755 4.234523438875395 0 0 0
122 41 1 0.5897 4.6717279280316575 11.320291891173683 2.0690139259358693 0 0 0
819 273 1 0.5897 8.681732938818865 12.325103748848818 0.3106833663798749 0 0 1
125 42 1 0.5897 5.203466004346308 10.502122952783562 4.122731143123488 0 0 0
156 52 1 0.5897 9.42937599891816 10.395524979586886 3.8369321352052284 0 0 0
123 41 1 0.5897 4.3893170232890375 12.191097478272237 0.8632484199386692 0 0 0
240 80 1 0.5897 2.495690844179405 14.173710476605525 4.753186350208918 0 0 0
222 74 1 0.5897 3.4422114227599354 13.99152463601467 2.434308089742365 0 0 0
121 41 2 -1.1794 5.100094214601402 11.750589379378646 1.329029506763118 0 0 0
129 43 1 0.5897 0.685954424182451 13.709455672670513 2.7983313445569227 0 0 0
124 42 2 -1.1794 4.449983202307957 10.337245419909145 3.555907138858379 0 0 0
783 261 1 0.5897 1.723148690881206 12.672455564887638 1.103852067707468 0 0 1
154 52 2 -1.1794 8.483218089037363 10.519057391415684 3.912483087106452 0 0 0
163 55 2 -1.1794 7.69473866098989 12.712987595122836 1.8832029266516657 0 0 0
164 55 1 0.5897 6.808118737343335 12.573573665927965 1.5505663713795221 0 0 0
165 55 1 0.5897 7.817433182551117 12.02344448293201 2.5356650463242145 0 0 0
118 40 2 -1.1794 1.6501742923949192 10.6396256031125 4.255125430362691 0 0 0
246 82 1 0.5897 5.039448373940314 13.537183107389222 4.508098308704098 0 0 0
285 95 1 0.5897 7.7374522754598605 14.714702976877485 2.4743283243078555 0 0 0
116 39 1 0.5897 7.142912436391272 10.839165374367493 5.1280374273608 0 0 0
275 92 1 0.5897 7.516270896756824 13.931437925492062 5.217268570440385 0 0 0
781 261 2 -1.1794 2.424030280812482 12.296796212760995 0.5710891204779397 0 0 1
188 63 1 0.5897 0.05000186200867888 11.197256634933666 5.166432877865193 1 0 0
133 45 2 -1.1794 2.654011407165857 11.883920861180306 6.749796685632769 0 0 0
134 45 1 0.5897 2.093182800113595 12.263685945763434 7.426137365974315 0 0 0
135 45 1 0.5897 3.544905860566569 12.086223611531091 7.035388429765704 0 0 0
115 39 2 -1.1794 6.283044048426032 11.055338590104308 5.488707955848254 0 0 0
544 182 2 -1.1794 4.039748592385812 14.137456866986392 10.085042506298949 0 0 0
573 191 1 0.5897 0.8354456842945572 14.481511676808024 9.213811652126791 0 0 0
239 80 1 0.5897 2.2040370880172073 13.437744978206375 6.043631267893085 0 0 0
446 149 1 0.5897 4.391649735734375 13.171011130909466 8.64460811124434 0 0 0
447 149 1 0.5897 5.746890272174943 12.595042190706021 8.293308833649167 0 0 0
170 57 1 0.5897 9.330146825271711 12.978506751009746 6.510188714546098 0 0 0
480 160 1 0.5897 8.054141354387086 11.200763849959426 9.916459193496582 0 0 0
171 57 1 0.5897 9.483876101979046 11.543257792021256 6.966726252098257 0 0 0
451 151 2 -1.1794 0.8284892295246902 12.639336039211463 8.907683324038409 0 0 0
489 163 1 0.5897 7.4833192364249 13.408401135490495 9.178391570348102 0 0 0
487 163 2 -1.1794 7.422411029600801 12.547427671694331 8.764530638319854 0 0 0
488 163 1 0.5897 8.227255830659265 12.469905039972653 8.252275655354898 0 0 0
169 57 2 -1.1794 9.60300511037867 12.447192060695725 7.258189544216215 0 0 0
445 149 2 -1.1794 4.812691973619251 12.499357665623535 8.108113805690259 0 0 0
453 151 1 0.5897 1.1926005787593408 11.967764327438807 9.484436389446786 0 0 0
450 150 1 0.5897 4.684078836816074 11.259998445989595 9.504162418999243 0 0 0
117 39 1 0.5897 6.183300511145962 10.469386389064129 6.239015876219421 0 0 0
443 148 1 0.5897 1.1894496731941582 10.073039779735865 10.093762548931473 0 0 0
448 150 2 -1.1794 4.279207979175069 10.68816272764824 10.156339909293877 0 0 0
274 92 2 -1.1794 8.383712029444991 14.147284089188089 5.559519904995606 0 0 0
575 192 1 0.5897 5.342455803397271 14.754540718152922 6.690638461103642 0 0 0
245 82 1 0.5897 5.827714543051975 12.712313818968436 5.503155525686928 0 0 0
238 80 2 -1.1794 1.9271011495828527 14.191734625657096 5.5229919863473125 0 0 0
452 151 1 0.5897 0.01678009185084761 12.255979154670609 8.575480106869117 0 0 0
317 106 1 0.5897 0.16067247785264627 14.189145588910046 5.669696269906245 1 0 0
434 145 1 0.5897 2.4254240268969376 10.331099008792322 6.7268754448214745 0 0 0
244 82 2 -1.1794 5.627576522816947 13.616006107826605 5.259170325529113 0 0 0
495 165 1 0.5897 9.990514815251181 11.997922139455454 13.870121826947388 0 0 0
758 253 1 0.5897 2.4901704996804233 10.475751835096736 13.686743637595482 0 0 0
457 153 2 -1.1794 2.4130616652755217 12.147642296277164 13.526292392215217 0 0 0
458 153 1 0.5897 1.8353529552336347 12.19464481260164 14.288042293423747 0 0 0
459 153 1 0.5897 3.2935343431487833 12.084583880910799 13.896388643849008 0 0 0
769 257 2 -1.1794 4.894162888453993 12.367070886129406 15.040716015944385 0 0 0
562 188 2 -1.1794 1.910608756839407 14.239575753386985 11.865116878314376 0 0 0
563 188 1 0.5897 2.205376387268749 13.510082558290263 12.41028362394002 0 0 0
570 190 1 0.5897 6.898105264930498 14.197834587806852 11.699231534311108 0 0 0
770 257 1 0.5897 5.824346042873602 12.588195373473026 15.085868047342899 0 0 0
442 148 2 -1.1794 1.4999581662987502 10.757798677981715 10.686172600439587 0 0 0
478 160 2 -1.1794 8.179473697058311 10.565095370332637 10.621038739293965 0 0 0
545 182 1 0.5897 3.202202681462347 14.092954702437583 10.546279444544215 0 0 0
440 147 1 0.5897 6.687159479217376 11.073175599328177 11.764184670436656 0 0 0
439 147 2 -1.1794 5.943310249739927 11.346754153464522 12.30089917029184 0 0 0
569 190 1 0.5897 5.955348200890435 13.309652081792304 12.48295678619357 0 0 0
449 150 1 0.5897 4.734575797320217 10.894871013607311 10.97251457947833 0 0 0
494 165 1 0.5897 8.513916648994229 12.184653660714927 14.146873229492686 0 0 0
568 190 2 -1.1794 6.025500053105068 14.180682293451598 12.092240291611269 0 0 0
493 165 2 -1.1794 9.126628132428749 11.894524558537043 13.471121447176477 0 0 0
444 148 1 0.5897 2.4262227836835204 10.861639218819228 10.468387986844538 0 0 0
598 200 2 -1.1794 8.769638436083115 14.027135513767169 11.579031712743424 0 0 0
599 200 1 0.5897 8.931479281269965 13.181819959592225 11.997973392469502 0 0 0
512 171 1 0.5897 0.26895551239793297 11.066930076481242 12.457172052940598 1 0 0
546 182 1 0.5897 4.697915648352664 14.10892472864548 10.779412581082239 0 0 0
479 160 1 0.5897 9.092186711384901 10.677806750147449 10.88642479479559 0 0 0
441 147 1 0.5897 5.977927234929918 10.775399245850407 13.068112135462803 0 0 0
600 200 1 0.5897 8.8407639004687 14.664631465982614 12.289489071784699 0 0 0
642 214 1 0.5897 0.026300145031843795 14.220547603704075 11.891898018486112 1 0 0
869 290 1 0.5897 2.8606095296471503 13.86758652896553 17.170716834124278 0 0 0
813 271 1 0.5897 8.075658210315867 12.448424583916001 16.184424460771243 0 0 0
773 258 1 0.5897 3.5187291241122116 10.804274083402037 17.47459302777268 0 0 0
768 256 1 0.5897 1.3822568832907305 11.434363375138085 17.144777526797263 0 0 0
818 273 1 0.5897 9.020230153556152 12.994292788403573 19.491140428400904 0 0 0
888 296 1 0.5897 2.123112209501269 13.112966580355247 19.409112866722754 0 0 0
774 258 1 0.5897 4.668892537532729 11.172230276236201 16.5615830920109 0 0 0
887 296 1 0.5897 2.0616286567939732 14.62047115888949 19.283921298046316 0 0 0
765 255 1 0.5897 5.800575542877371 11.177987184862829 20.184907662178393 0 0 0
803 268 1 0.5897 7.755934200609445 11.143271951047918 17.817874831542113 0 0 0
924 308 1 0.5897 9.16450441394213 14.056042254635567 17.95790659342544 0 0 0
868 290 2 -1.1794 3.530753525773313 14.121953988656603 16.536349684826284 0 0 0
802 268 2 -1.1794 8.270540025641404 10.942899587819882 17.036040083572747 0 0 0
766 256 2 -1.1794 1.7467587155120081 10.8734973778191 17.82946929412287 0 0 0
886 296 2 -1.1794 1.9529700404932195 13.813978142396278 18.779912651064354 0 0 0
252 84 1 0.5897 5.613116305313552 14.81430451042238 19.84981567678225 0 0 -1
893 298 1 0.5897 6.538940276138609 14.18552370213917 18.160840497624736 0 0 0
767 256 1 0.5897 1.0658344152399664 10.841615959718727 18.501386829087732 0 0 0
772 258 2 -1.1794 4.361778292100823 10.484986916243246 17.152871715808637 0 0 0
775 259 2 -1.1794 0.9732294286630779 12.517003686611536 15.767239504826932 0 0 0
922 308 2 -1.1794 8.35837302706491 14.409324802564537 18.334110220200497 0 0 0
894 298 1 0.5897 5.769489216351615 12.980670048609628 18.65902227585097 0 0 0
804 268 1 0.5897 7.8768685566341405 10.142739994572134 16.688145063350337 0 0 0
764 255 1 0.5897 5.454571495810724 10.796822407523091 18.761224843961596 0 0 0
763 255 2 -1.1794 6.079127310590839 11.305744670918797 19.278090197424547 0 0 0
892 298 2 -1.1794 5.653318573194599 13.883178527854188 18.361970306180787 0 0 0
870 290 1 0.5897 4.3404356622724105 14.161047607894526 17.04531138009126 0 0 0
146 49 1 0.5897 9.184061985329587 10.518376412284791 20.427307796471005 0 0 -1
812 271 1 0.5897 7.623571925714961 13.845879264630687 15.81735327298775 0 0 0
817 273 2 -1.1794 9.195499321206011 12.207434263954632 20.007270248509197 0 0 0
777 259 1 0.5897 1.1414246110946518 13.457585870020411 15.824588099998874 0 0 0
776 259 1 0.5897 0.04718498099603382 12.452622384500948 15.53391811450994 0 0 0
811 271 2 -1.1794 7.660089849661908 12.949754196226925 15.482840913356167 0 0 0
771 257 1 0.5897 4.462380723659248 13.036400999966798 15.571550994658285 0 0 0
235 79 2 -1.1794 0.9244301312370227 19.27620915786911 2.031118881140395 0 0 0
228 76 1 0.5897 0.9545445229919488 17.745366874362084 4.756847867661028 0 0 0
221 74 1 0.5897 3.922210108676712 15.093324639636874 3.3549518882288907 0 0 0
251 84 1 0.5897 5.947007378926921 15.230578656208708 0.770977338865401 0 0 0
254 85 1 0.5897 8.459189707099753 16.036192535258884 0.8515500138338733 0 0 0
284 95 1 0.5897 7.8419598971592475 16.160866809885917 2.909876505714576 0 0 0
247 83 2 -1.1794 0.7928842088574396 15.48630671389347 2.434061827978288 0 0 0
231 77 1 0.5897 5.224905256591495 18.919389369453768 1.2068883976950093 0 0 0
234 78 1 0.5897 3.276810846147997 17.114867208014758 3.874974827044972 0 0 0