#include		in.partitions
include		in.temp
variable        temperature equal 266.47
variable	tempDamp equal 100.0
include		in.pressure
variable        pressure equal 7872.3
variable        pressureDamp equal 1000.0 # This is 1 ps
include		in.seed
variable        seed equal 745823

units		real
atom_style	full

read_restart	restart.lmp.${pid}
read_restart	restart.lmp.1
Reading restart file ...
  restart file = 30 Jul 2021, LAMMPS = 30 Jul 2021
  restoring atom style full from restart
  orthogonal box = (0.060352506 -0.039675218 0.094138547) to (19.939648 20.039676 20.605859)
  2 by 4 by 4 MPI processor grid
  restoring pair style lj/cut/tip4p/long/omp from restart
  restoring bond style harmonic/omp from restart
  restoring angle style harmonic/omp from restart
  972 atoms
  648 bonds
  324 angles
Finding 1-2 1-3 1-4 neighbors ...
  special bond factors lj:    0        0        0       
  special bond factors coul:  0        0        0       
     2 = max # of 1-2 neighbors
     1 = max # of 1-3 neighbors
     1 = max # of 1-4 neighbors
     2 = max # of special neighbors
  special bonds CPU = 0.002 seconds
  read_restart CPU = 0.008 seconds
include 	in.setup
variable	out_freq equal 1000
variable	out_freq2 equal 10000
variable	out_freq3 equal 1000

timestep	2.0

neigh_modify    delay 7 every 1

include		in.tip4p
# This is TIP4P/Ice

# create groups ###
group ox type 2
324 atoms in group ox
group hy type 1
648 atoms in group hy

# set charges - beside manually ###
set group ox charge -1.1794
Setting atom values ...
  324 settings made for charge
set group hy charge 0.5897
Setting atom values ...
  648 settings made for charge

# ### TIP3P Potential Parameters ###
pair_style lj/cut/tip4p/long/omp 2 1 1 1 0.1577 8.5
pair_coeff 1 1*2 0.000 0.000
pair_coeff 2 2 0.21084 3.1668
bond_style  harmonic
bond_coeff  1 450 0.9572
angle_style harmonic
angle_coeff 1 55 104.52
kspace_style pppm/tip4p/omp 1.0e-5
pair_modify tail yes

thermo          ${out_freq}
thermo          1000
thermo_style    custom step temp pe etotal epair emol press lx ly lz vol pxx pyy pzz pxy pxz pyz enthalpy

restart 	${out_freq3} restart.lmp.${pid} restart2.lmp.${pid}
restart 	1000 restart.lmp.${pid} restart2.lmp.${pid}
restart 	1000 restart.lmp.1 restart2.lmp.${pid}
restart 	1000 restart.lmp.1 restart2.lmp.1


include         in.dump
dump            myDump all atom ${out_freq2} dump.water.${pid}
dump            myDump all atom 10000 dump.water.${pid}
dump            myDump all atom 10000 dump.water.1
dump            myDump2 all dcd ${out_freq2} dump.dcd
dump            myDump2 all dcd 10000 dump.dcd
dump_modify     myDump append yes
dump_modify     myDump2 append yes


variable natoms 	equal  "count(all)"                        # NUMBER ATOMS
variable H      	equal  "enthalpy/v_natoms"                 # ENTHALPY-per-atom
variable Vol      	equal  "vol/v_natoms"                 # volume-per-atom
fix AVG all 		ave/time ${out_freq} 1 ${out_freq} v_Vol v_H file vol_enthalpy.dat
fix AVG all 		ave/time 1000 1 ${out_freq} v_Vol v_H file vol_enthalpy.dat
fix AVG all 		ave/time 1000 1 1000 v_Vol v_H file vol_enthalpy.dat


timer           timeout 02:55:00 every 1000
New timer settings: style=normal  mode=nosync  timeout=02:55:00

fix 		1 all shake 1e-6 200 0 b 1 a 1
       0 = # of size 2 clusters
       0 = # of size 3 clusters
       0 = # of size 4 clusters
     324 = # of frozen angles
  find clusters CPU = 0.001 seconds
fix             2 all nph aniso ${pressure} ${pressure} ${pressureDamp}
fix             2 all nph aniso 7872.3 ${pressure} ${pressureDamp}
fix             2 all nph aniso 7872.3 7872.3 ${pressureDamp}
fix             2 all nph aniso 7872.3 7872.3 1000
fix             3 all temp/csvr ${temperature} ${temperature} ${tempDamp} ${seed}
fix             3 all temp/csvr 266.47 ${temperature} ${tempDamp} ${seed}
fix             3 all temp/csvr 266.47 266.47 ${tempDamp} ${seed}
fix             3 all temp/csvr 266.47 266.47 100 ${seed}
fix             3 all temp/csvr 266.47 266.47 100 745823


run             250000
PPPM initialization ...
  extracting TIP4P info from pair style
  using 12-bit tables for long-range coulomb (../kspace.cpp:340)
  G vector (1/distance) = 0.3716759
  grid = 24 24 24
  stencil order = 5
  estimated absolute RMS force accuracy = 0.0035724763
  estimated relative force accuracy = 1.0758406e-05
  using double precision FFTW3
  3d grid and FFT values/proc = 3211 432
Last active /omp style is kspace_style pppm/tip4p/omp
Neighbor list info ...
  update every 1 steps, delay 7 steps, check yes
  max neighbors/atom: 2000, page size: 100000
  master list distance cutoff = 10.8154
  ghost atom cutoff = 10.8154
  binsize = 5.4077, bins = 4 4 4
  1 neighbor lists, perpetual/occasional/extra = 1 0 0
  (1) pair lj/cut/tip4p/long/omp, perpetual
      attributes: half, newton on, omp
      pair build: half/bin/newton/omp
      stencil: half/bin/3d
      bin: standard
Per MPI rank memory allocation (min/avg/max) = 10.18 | 10.18 | 10.19 Mbytes
Step Temp PotEng TotEng E_pair E_mol Press Lx Ly Lz Volume Pxx Pyy Pzz Pxy Pxz Pyz Enthalpy 
 1250000    261.87014   -4624.5718   -4119.5332   -4624.5718            0    7739.2473    19.879296    20.079351    20.511721    8187.5277    9565.0869    6945.7069    6706.9481   -650.99934     270.1328    1308.6692   -3195.4152 
 1251000    273.15828   -4711.1631   -4184.3544   -4711.1631            0    6216.6413    19.920109    20.013688    20.635216    8226.7415    6368.9264    6581.8192    5699.1784   -350.20175   -217.42179   -85.020717   -3438.4906 
 1252000    264.56376    -4669.599   -4159.3656    -4669.599            0    8004.6353    19.921744    19.869683    20.724118    8203.4088    9437.7767    7500.0835    7076.0458    2.4457207   -785.60275   -1887.8418   -3201.7046 
 1253000    261.83447   -4675.0818    -4170.112   -4675.0818            0     7545.013    19.709466    19.762276    20.972658    8168.9325    8459.6419    7371.3843    6804.0128   -218.06861     828.4802   -25.561147   -3271.2331 
 1254000    270.19481   -4720.4024    -4199.309   -4720.4024            0    7678.8363    19.994237    19.630373    20.533536    8059.2966    6417.9786    8448.6869    8169.8435    797.70738    773.19153   -1025.0623   -3296.7649 
 1255000    266.18211   -4675.2527   -4161.8981   -4675.2527            0    5451.1598    19.961614     20.04176    20.548808    8220.8766    4507.5316    6057.9378      5788.01   -86.367251    1058.1058   -1407.1267   -3508.3419 
 1256000    268.01034   -4655.6533   -4138.7728   -4655.6533            0    7073.6999    19.831876    20.078236    20.400122    8123.1059     6279.895    5725.4656     9215.739    94.407982   -142.27165   -516.45593   -3300.7716 
 1257000    263.12877   -4659.3824   -4151.9165   -4659.3824            0    7986.4425     19.95939    19.811459    20.534522    8119.8556    7985.6218    8422.0652    7551.6405    86.757361   -1107.2901   -926.07361   -3206.1638 
 1258000    268.62807   -4672.9994   -4154.9276   -4672.9994            0    8395.2528    20.049195    19.983251    20.318309    8140.4916    7811.7887    8311.8891    9062.0805    43.741861    20.537769     -1129.11   -3158.2371 
 1259000    281.54181   -4679.4353   -4136.4582   -4679.4353            0     6525.182     20.02189    19.984144    20.557798     8225.593    5699.7856    7616.3236    6259.4367   -1030.7811   -784.44443    816.83252   -3353.6854 
 1260000    269.06494   -4656.8188   -4137.9044   -4656.8188            0    8836.4003    19.953203    19.680051    20.683505    8121.9997    7900.7469    9394.1045    9214.3496   -613.85953   -1150.3695   -533.68733   -3091.2236 
 1261000     266.0236   -4687.7349    -4174.686   -4687.7349            0    6846.7113    19.854466    19.947409    20.663445    8183.6575    7639.6846    5871.4577    7028.9914   -96.256286   -874.50778   -141.95805   -3357.5293 
 1262000    275.82505   -4633.5809   -4101.6291   -4633.5809            0    6015.7653    20.224458     19.88904    20.290509    8161.7574    4825.7366    6812.8694    6408.6899   -86.323428   -1703.0011    187.05928   -3385.5674 
 1263000    274.88695   -4659.3468   -4129.2042   -4659.3468            0    6095.9009    19.930177     19.89898     20.76989    8237.1349    4391.5503    8990.3646     4905.788    322.56613   -326.37923   -769.80012   -3396.9026 
 1264000    274.96716   -4712.0853    -4181.788   -4712.0853            0    7154.6902    19.951806    19.906254    20.550572    8161.9824    5459.7947    7633.2957    8370.9802   -1278.4667   -660.12179    644.62658   -3330.1356 
 1265000    267.70358   -4696.3186   -4180.0297   -4696.3186            0     5905.397    19.915517    20.072599    20.643831    8252.4992    5534.4398    5438.2074    6743.5437    784.17451   -1319.2001    339.96697   -3469.2902 
 1266000    271.54612   -4677.8118   -4154.1123   -4677.8118            0     7480.867    20.000234    19.659238    20.652854    8120.4821    7507.1764    7379.6935    7555.7311    133.27577   -1043.4409    1236.0765   -3268.1614 
 1267000    268.10516   -4675.4805   -4158.4172   -4675.4805            0    8819.6844     19.79179    19.880812    20.750547    8164.8598    8689.1625    9078.2302    8691.6606    255.06663   -1637.4223   -549.23742   -3108.2035 
 1268000    255.56176   -4680.3766   -4187.5042   -4680.3766            0    7571.9812    20.155678    19.707312    20.411396    8107.6971     6036.151    7449.9275    9229.8651   -179.81403    909.75208   -849.88354   -3292.1746 
 1269000      268.346    -4662.301   -4144.7732    -4662.301            0     9893.451    19.788745    19.837087    20.468022    8034.7438    9113.2834     10528.71    10038.359    -257.7701   -836.03651   -1671.1735   -2985.4735 
 1270000    254.88457    -4649.386   -4157.8197    -4649.386            0    8282.3317    19.739146    19.753846     20.74829     8090.257    10216.042    8442.8329    6188.1204   -913.36297   -63.566004    570.21141   -3180.6031 
 1271000    270.01815   -4717.5225   -4196.7698   -4717.5225            0     6870.005    20.000739    19.860888    20.588465    8178.4061    5487.0658    7463.3719    7659.5774   -1230.9238   -229.25901   -948.64102   -3377.3592 
 1272000    261.33414   -4663.3173   -4159.3124   -4663.3173            0    6162.2465    19.772906    20.167928    20.561294    8199.4025    9963.5236    2927.4349    5595.7809    237.85377    1419.9032    593.77837   -3422.4317 
 1273000    253.99551   -4686.9346   -4197.0829   -4686.9346            0    6870.4774    19.949268    19.961201    20.615917    8209.4919    6102.0811    7829.5633    6679.7879    216.34129   -1380.8214   -50.516729   -3374.5011 
 1274000    270.08906   -4622.4164   -4101.5269   -4622.4164            0    10725.023    19.886348    19.731619    20.714605    8128.2004    10893.352    11791.449    9490.2686   -12.236933     415.4052   -738.16208    -2830.167 
 1275000    281.79368   -4675.8149    -4132.352   -4675.8149            0    6483.2084    19.915478    19.914476    20.553503    8151.6491    5194.1927    7849.1026    6406.3299    181.64001    546.61309    429.36025   -3361.6059 
 1276000    271.92357   -4645.6492   -4121.2218   -4645.6492            0    7846.8319    19.883426     20.05647    20.427269    8146.2177    7145.1965    8871.5929    7523.7064   -47.505158   -351.20765    404.18201   -3188.9849 
 1277000    281.54672   -4653.6326   -4110.6461   -4653.6326            0    7890.4318    19.717276    19.899098    20.764881    8147.2259    8071.2503    7616.2942    7983.7508   -425.69692   -2371.1721   -192.90798   -3173.1134 
 1278000    264.94927   -4681.5418   -4170.5649   -4681.5418            0    8329.9599     19.91715    19.824203    20.503133    8095.4904    8488.5359    7897.6987     8603.645    473.90259    954.19906   -172.83922    -3187.093 
 1279000    267.09892    -4681.176   -4166.0533    -4681.176            0    7102.6497    20.063386      19.9264    20.551559    8216.3296    7672.5857    6990.0102    6645.3533   -685.94184    75.981708    1350.3925   -3314.9659 
 1280000    273.62003   -4669.9979   -4142.2987   -4669.9979            0    5238.7888    19.831269    20.091689    20.741976    8264.5096    7071.6527    3009.6388    5635.0749    404.42703    498.25074   -1371.9792   -3510.8706 
 1281000    269.40387   -4655.2927   -4135.7247   -4655.2927            0    7667.8947    20.094022    19.910241    20.444526    8179.3811    9198.6202    6531.8991    7273.1647    261.97976    804.19249    608.71112   -3221.0377 
 1282000    271.13047   -4665.7813   -4142.8834   -4665.7813            0    7270.4838    19.992731    19.576501    20.813739    8146.2418    6497.9403    7509.8433    7803.6679    336.21355    784.87287   -13.862758   -3279.1166 
 1283000    269.59891   -4680.2481    -4160.304   -4680.2481            0      8191.71    20.117114    19.707184    20.567158    8153.8845    8288.0594    8551.3553    7735.7153   -631.08399    476.79615     1330.691   -3186.1782 
 1284000    264.58051   -4682.2956   -4172.0299   -4682.2956            0    9537.0026    19.857087    20.016181    20.278191    8059.8318    8728.4879     9308.113    10574.407   -359.26765   -853.54238   -794.51667   -3051.0088 
 1285000     254.6583   -4704.3835   -4213.2535   -4704.3835            0    7257.0286    19.947253    19.869829    20.623563    8174.1186    7236.5436    7726.2234    6808.3188   -513.86205   -1638.1762   -3.1932805   -3348.1349 
 1286000    261.70522   -4695.0062   -4190.2857   -4695.0062            0     7753.796    19.925552    19.747278    20.712977    8150.0471    9446.8091    7672.7755    6141.8035     481.9986   -504.53486    858.23261   -3268.6689 
 1287000    267.59356   -4681.9716   -4165.8949   -4681.9716            0    9220.3123     19.62561    20.152034    20.458637    8091.3082    11521.547    6500.7008    9638.6893    540.68584    1677.5498    572.58167   -3077.8664 
 1288000    262.79245   -4644.2913   -4137.4739   -4644.2913            0     8508.531    20.038878     19.77124    20.487165    8116.8808    7551.5916    8466.3353    9507.6663   -514.40185    165.26699   -704.72194   -3130.2648 
 1289000    256.51972    -4682.782   -4188.0622    -4682.782            0    7274.9846     20.01657    20.046167    20.340452    8161.7183    5432.3947    8159.3141     8233.245   -1009.1494   -1352.0797   -1928.5002   -3322.1187 
 1290000     271.6337    -4695.343   -4171.4745    -4695.343            0    8063.7499    19.930129    19.980596    20.523668    8172.8497    7838.8267    7718.7424    8633.6807     857.8864   -253.52333   -642.21945    -3210.335 
 1291000    270.36295   -4687.8829   -4166.4652   -4687.8829            0    7838.9639    19.937695    19.896097     20.66877    8198.9355    7893.9449    7852.6913    7770.2554   -310.71396    335.30739   -604.91479   -3229.1363 
 1292000    268.29537   -4680.8123   -4163.3821   -4680.8123            0    8508.6723    20.094622     19.66633    20.510982    8105.6831    7722.6275    9234.8424    8568.5471   -602.04869   -1071.5544   -271.79453   -3157.5458 
 1293000     256.9821   -4636.8757   -4141.2641   -4636.8757            0    7244.4721    19.913281     19.85952    20.691658    8182.8927    5244.4422    10185.216    6303.7578    1074.6637   -402.05826   -7.0372313   -3276.7153 
 1294000    256.28859   -4682.9178   -4188.6437   -4682.9178            0    8315.7222    19.739968    19.860952    20.651642    8096.5701    8318.6103    7153.4487    9475.1075   -484.40381    1094.5715   -486.20178   -3206.7218 
 1295000    253.69732   -4695.7482   -4206.4716   -4695.7482            0    7394.8428    19.908991    19.878638    20.537579    8128.0268    6817.2605    6755.7199    8611.5481   -534.15254    483.77539    157.49375   -3329.8948 
 1296000     260.1794   -4673.9305   -4172.1527   -4673.9305            0    8264.7866    20.020544    19.777346    20.498509    8116.4507    8367.0004    8550.1631    7877.1961    378.09282    534.69608    -2615.706    -3193.849 
 1297000    267.12828    -4682.577   -4167.3976    -4682.577            0     7893.457    19.817317    19.814434    20.831637    8179.9365    8778.0787    9335.6657    5566.6266   -1061.6623    1519.2358   -377.39369   -3225.7399 
 1298000    254.68626   -4683.5633   -4192.3794   -4683.5633            0    8735.9447    20.105948      19.7884    20.369842    8104.4383     7780.002    8563.6311    9864.2011    628.38717    10.390431   -1584.5317   -3159.8351 
 1299000    266.37076   -4665.1261   -4151.4077   -4665.1261            0    7166.6025    19.765403    20.028272      20.6105    8159.0138    7234.2533    7346.3032    6919.2509    157.14287    184.53036     622.0466   -3298.6476 
 1300000    259.12805   -4685.8763   -4186.1261   -4685.8763            0    7999.5237    20.135797    19.676546      20.6179    8168.8724    9466.8627     7367.797    7163.9114   -7.0540227    841.01328   -246.68799   -3233.1058 
 1301000    291.58098   -4653.4956   -4091.1571   -4653.4956            0    7264.1801    19.732705    20.054641    20.659634    8175.6848      9222.44    5477.7086    7092.3917    -690.2761    201.94917    1307.0583     -3225.02 
 1302000    265.15511   -4685.1691   -4173.7951   -4685.1691            0    8786.0282    19.877817    19.799311    20.552786    8088.8997    9793.0704    8157.7894    8407.2247    706.00161   -140.46768   -2427.9649   -3137.3223 
 1303000    248.50004   -4673.8742    -4194.621   -4673.8742            0    8135.3539    19.988634    19.733297    20.550886    8106.1256    8857.0498    8684.9226    6864.0892    188.43689    298.09271    1296.2313   -3232.8633 
 1304000    275.64121   -4666.2126   -4134.6153   -4666.2126            0    8714.9504    19.673264    19.885508    20.915436    8182.3871    11005.657    7319.2293    7819.9652    247.33368    497.71576   -600.64132   -3094.6453 
 1305000    275.67678   -4682.9346   -4151.2688   -4682.9346            0    8762.8502    19.749175    19.934042    20.579541     8101.772    8370.4804    9855.4811    8062.5892   -255.77334    61.201531    1119.9802   -3115.8852 
 1306000      280.983   -4643.1801   -4101.2808   -4643.1801            0    9690.9937    19.869246    19.991708    20.356573    8086.0414     8801.161    10801.253    9470.5671    -285.6933     1788.991   -922.35736   -2958.4546 
 1307000    260.92826   -4685.8212   -4182.5991   -4685.8212            0    8329.2048    19.917187    19.877392    20.406827    8079.0981    8178.0356     8072.511    8737.0678   -276.22227   -686.07304    217.64014   -3201.2075 
 1308000    259.72111   -4667.8152   -4166.9212   -4667.8152            0    6540.7021    19.771883    20.020507     20.74198    8210.5703    7522.8911    4329.4404    7769.7748    86.516662   -153.43694   -1366.8313   -3383.7196 
 1309000    260.05764   -4667.9371   -4166.3941   -4667.9371            0    8338.7663    20.024744    19.739334    20.458921    8086.9027    8800.2563    8237.4465    7978.5962    303.36399    1624.2184    53.435263   -3182.9268 
 1310000    254.07215   -4656.6885    -4166.689   -4656.6885            0    7458.6151    19.993745    19.941655    20.498791    8173.0397    6095.3014    9228.4531    7052.0908    278.87474    -1459.247   -490.02651   -3277.6564 
 1311000    280.17492   -4686.9785   -4146.6376   -4686.9785            0     7094.073    19.940391    19.867715    20.551609    8141.9315     7274.186    7018.7546    6989.2782   -372.01701    754.77452   -87.635831   -3304.2752 
 1312000    291.92204   -4678.7496   -4115.7534   -4678.7496            0    6932.0895    19.887161    19.781637    20.771065    8171.3493     6654.543    7908.8346    6232.8908    474.70288    -391.2708   -285.41846   -3289.6511 
 1313000    274.74402   -4665.3793   -4135.5123   -4665.3793            0    6538.5968    19.961638    19.913911    20.620613    8196.9882    7125.5624    7308.1584    5182.0695    528.53686   -285.23978    -181.0812    -3353.858 
 1314000    270.21156   -4667.2047    -4146.079   -4667.2047            0    8790.9545    20.009082    19.850022    20.344583     8080.476    9851.2992    6465.0388    10056.526   -247.83216    225.78604   -755.00525    -3110.105 
 1315000    255.00465   -4638.6596   -4146.8617   -4638.6596            0    11180.829    19.967287    19.748722    20.231591    7977.8912     8915.281    10690.734    13936.471    164.54717   -146.24991    1593.9117   -2845.9794 
 1316000     279.0336   -4651.1364   -4112.9967   -4651.1364            0    7362.6026    20.022875    19.825709    20.532415    8150.7056     6583.786    7475.8986    8028.1232     58.48802   -219.68116   -484.71263   -3237.8064 
 1317000    258.39714    -4675.434   -4177.0933    -4675.434            0    7933.9905    19.694309    19.850162     20.84367    8148.5247     7740.037    8848.2717    7213.6626    105.87073   -17.290662   -1151.2757   -3234.2348 
 1318000    261.11508   -4651.9271   -4148.3447   -4651.9271            0    8121.2448    19.880053    19.784346    20.628894    8113.6299     7395.236    7657.9695    9310.5288    232.77185   -1322.5636     843.6284   -3187.3662 
 1319000    265.12523   -4714.3341   -4203.0178   -4714.3341            0    7898.0713    19.939671    19.846001    20.549871    8132.0507    7387.1674    8145.9975    8161.0489   -427.78017   -1563.1001   -404.97044   -3266.3254 
 1320000    258.61947   -4639.7033    -4140.934   -4639.7033            0    6737.5185    19.869015    19.943967     20.52834    8134.7033    6866.1503    7208.8844    6137.5209    519.16478    381.33567    1465.2336   -3341.6197 
 1321000    269.58494   -4668.4307   -4148.5134   -4668.4307            0    9627.1255     19.98702    19.703733    20.578606    8104.2439    10831.702    9951.1601    8098.5141   -372.14867     -904.974    1110.7897   -3010.6634 
 1322000    274.97379   -4635.8946   -4105.5845   -4635.8946            0    9327.8283    19.690784    19.928403    20.733482    8135.9405    9752.7417    10039.239    8191.5044   -1180.1799    1136.9054     853.8974   -2998.7971 
 1323000    259.07864   -4692.7881   -4193.1331   -4692.7881            0    7961.9812    19.792454     19.81443    20.643694    8095.9653    6895.5589    9074.0569    7916.3277   -104.99366    775.06989    690.04333   -3253.0513 
 1324000     257.9951   -4678.9022   -4181.3369   -4678.9022            0    7260.5873    19.877288    19.699801    20.736218    8119.8594    6761.5624    7569.0162    7451.1834    150.50725   -51.187084    971.47422   -3321.5395 
 1325000     254.3786    -4667.799   -4177.2085    -4667.799            0    7367.0818    19.924324    19.945603    20.544948    8164.6169    5014.9156    7932.5971    9153.7327   -366.57077    -374.3536    -543.0539   -3299.9912 
 1326000     272.2096   -4696.3908   -4171.4116   -4696.3908            0    6791.2699    20.042301    19.944015    20.444726     8172.247     7851.263    4691.4425    7831.1043    -428.2313    -1422.724   -167.13798    -3362.002 
 1327000    243.26066   -4673.9796   -4204.8309   -4673.9796            0    9304.2523     20.02733    19.814014     20.37469     8085.121    8014.3195    9383.1296    10515.308   -161.01454   -128.67792    566.85651   -3107.7368 
 1328000    277.58459   -4657.9559   -4122.6107   -4657.9559            0    7146.2513    19.985602    19.845555    20.627495     8181.388      6177.48    7148.9521    8112.3219    102.23791    279.76559    44.374128   -3269.9404 
 1329000    261.94558   -4677.3307   -4172.1466   -4677.3307            0    8965.8793    19.773858    19.895756    20.568094    8091.8147    11891.033    6910.2513    8096.3539   -201.02178    2052.8599    678.30476   -3114.0758 
 1330000    278.76043   -4659.6025   -4121.9896   -4659.6025            0    8346.1471    19.954931    19.931337     20.43382    8127.1119    9024.5503    8347.1601    7666.7307    -1378.441    682.04139    66.203688   -3132.7576 
 1331000    269.80108   -4665.6271    -4145.293   -4665.6271            0    7212.5043    20.072264    19.885569    20.502795    8183.6577    6930.6832    7212.4508    7494.3789   -298.51099    1467.8536    2172.8222   -3284.4788 
 1332000    255.04418    -4677.757   -4185.8829    -4677.757            0    7624.0689    19.849076    19.785554    20.663145    8114.9329    8453.4229    6861.0532    7557.7305   -249.73639    2483.7472    751.34112   -3283.5898 
 1333000    268.91319   -4667.6082   -4148.9865   -4667.6082            0     7731.197    19.998184    19.931571    20.496995    8170.0045    8590.5135    5928.6814     8674.396   -1506.7066    1168.6543   -826.84605   -3227.8056 
 1334000     277.7201   -4661.9884   -4126.3819   -4661.9884            0    6535.5153    20.151894    19.830807    20.640685    8248.6023    7094.9915    6052.2673    6459.2871    -17.72055   -895.14522     3077.919   -3340.1764 
 1335000    264.93046   -4692.3365   -4181.3959   -4692.3365            0    7072.5491    19.815158    19.929426    20.599331    8134.7733    7839.8438    6985.0932    6392.7102   -417.60793    112.93048     173.3173   -3342.3276 
 1336000    257.63157    -4673.161   -4176.2968    -4673.161            0    7766.2305    20.150569    19.765321    20.491829    8161.5358    6851.7108    8329.7369    8117.2437   -225.45216    1706.6552   -366.09284   -3251.9008 
 1337000    265.47181   -4691.0779   -4179.0932   -4691.0779            0    7586.9474    19.668911     20.12483    20.604335    8155.8857    9510.5512     6314.238    6936.0528    334.63238   -1396.5333   -28.345845    -3276.662 
 1338000    274.95094   -4690.5115   -4160.2455   -4690.5115            0    7587.1177    19.885056    19.858366    20.451006      8075.79     6666.631     7623.599     8471.123     57.61821    1151.0737    146.33006   -3266.6567 
 1339000    253.76705   -4702.5518   -4213.1407   -4702.5518            0    7891.7798    19.654265    19.999532    20.639712    8112.9774    7551.8148    6758.2208    9365.3037   -804.13284   -410.61765   -315.74299   -3279.3896 
 1340000    266.68578   -4692.5362   -4178.2103   -4692.5362            0    7847.0153    19.913581    19.749661    20.683651    8134.5999    8079.4788    8728.7235    6732.8435    881.96423    1903.6104   -1440.1408   -3247.2812 
 1341000    261.99381   -4690.4418   -4185.1647   -4690.4418            0    8634.3415    20.095899    19.858623    20.465098    8167.1473    7525.2146    9752.5507     8625.259   -563.72545    30.110926   -360.75012   -3156.7329 
 1342000    267.01876   -4691.7759   -4176.8078   -4691.7759            0    8237.4579    19.957939    19.887338    20.540039     8152.553    8186.5093    7964.3971    8561.4673   -14.738034   -232.23959    1063.8083   -3197.4019 
 1343000      269.987   -4658.5207   -4137.8281   -4658.5207            0    8229.7995    19.841024    20.013706    20.549475    8160.0405    8916.6216    7397.8712    8374.9056   -180.60549    303.61115    239.44253    -3158.434 
 1344000     257.7441   -4661.8396   -4164.7584   -4661.8396            0     8030.165    20.060771    19.729105    20.515338    8119.5825    7667.5261    9803.4846    6619.4843     231.8936    -113.8911    228.82884   -3213.8601 
 1345000    248.21956   -4681.6607   -4202.9484   -4681.6607            0    8836.8961    19.785844    20.099705     20.35505     8094.992    10209.416    7066.9915    9234.2812   -1372.2197    703.71926    882.82471   -3159.6896 
 1346000    277.95844   -4673.6323   -4137.5661   -4673.6323            0    8006.5709     19.94915    19.604839    20.687761    8090.9807    6704.6511    9387.2108    7927.8506    1274.6583    449.91873    1267.4458   -3192.8015 
 1347000    272.00364   -4674.2963   -4149.7144   -4674.2963            0    7846.3675    19.741639    19.678101    20.830857    8092.3288    9059.5874    7778.0427    6701.4723    337.60892    91.298468    -996.0979   -3223.6994 
 1348000    271.86572   -4688.0073   -4163.6914   -4688.0073            0    8148.7272    20.000523    19.720875    20.609717    8129.0455    7278.1001    9414.8075    7753.2739     563.0439   -1168.2684   -931.61752   -3197.6289 
 1349000    265.81982   -4688.9736   -4176.3177   -4688.9736            0    6946.1211    20.214993    19.778777    20.417305    8163.4068    5118.5106    7424.3976    8295.4551    342.74032   -372.63919   -379.74473   -3349.3478 
 1350000    268.45468   -4676.2016   -4158.4642   -4676.2016            0    7917.0789    19.827859    20.000598    20.493751    8127.1873    9096.6672    6057.4031    8597.1664    341.16445    536.98281     925.3743    -3220.079 
 1351000    251.74415   -4699.0297   -4213.5199   -4699.0297            0    7737.8083    20.056558    19.790443    20.560122    8160.8914    6577.6775     9380.401    7255.3465    -723.6599   -1271.0307    933.93854   -3292.5797 
 1352000    266.02173   -4676.6184   -4163.5731   -4676.6184            0    6095.2338    19.786846    19.992138    20.696601    8187.1895    8613.9021    4184.2756    5487.5236   -459.14386   -386.89217   -149.78619   -3435.7915 
 1353000    265.35448   -4657.9467   -4146.1882   -4657.9467            0    7142.1865    19.992999    19.718882    20.742436    8177.4895    6067.8749    7531.9651    7826.7196    194.57568   -605.04184    1409.4538    -3294.409 
 1354000    280.02558   -4687.6425   -4147.5896   -4687.6425            0    6511.0754    20.105714    19.856495    20.417272    8151.1671    7253.5814    6017.3236    6262.3213   -896.85433    210.86553    252.41562   -3373.5763 
 1355000    274.56306   -4641.2862   -4111.7683   -4641.2862            0    8531.1348    19.904428     19.69721    20.805997    8157.2349    8661.1159    8257.2559    8675.0326   -953.24296    776.51146   -1193.4306   -3096.8626 
 1356000     265.2143   -4692.9748   -4181.4867   -4692.9748            0    8081.7609    20.002366    19.845652    20.321245    8066.7209    8200.6002    7442.8334     8601.849   -327.59712    223.99608    675.41256   -3230.7092 
 1357000    264.66712   -4669.2407   -4158.8079   -4669.2407            0    7428.7221    20.032711    19.844835    20.485562    8143.9502    7489.5566    8777.4286    6019.1811    234.69799    1266.5041    224.81925   -3276.4899 
 1358000    266.34166   -4642.2138   -4128.5515   -4642.2138            0    10037.053    19.821409    19.830269    20.516262    8064.2015    12496.271     7802.855    9812.0327    251.88082    637.43898    1093.2713   -2948.1127 
 1359000    269.02459   -4683.9531   -4165.1165   -4683.9531            0    7193.4455    19.979452    19.727136    20.703603    8160.0639    8707.5779    7252.2443    5620.5143    280.77558    2121.4621   -976.98428   -3309.0522 
 1360000    264.70084   -4639.4799   -4128.9821   -4639.4799            0    8993.1847    19.812753    19.752188    20.666693    8087.8117    8394.6745    11049.139    7535.7403    921.18406    917.85581   -1193.7218    -3068.214 
 1361000    283.53611   -4685.9388   -4139.1155   -4685.9388            0    6715.4726    19.905849    19.972355    20.520328    8158.1985    5681.7777    7511.3578    6953.2823    -449.5934   -804.14853   -1567.0581   -3340.1156 
 1362000    264.34814   -4662.1499   -4152.3323   -4662.1499            0    7940.9877    19.822844    20.112229    20.504681    8174.8387    7518.2935    6701.6614    9603.0083    473.73472    848.87389   -366.05482   -3205.5947 
 1363000    265.48181   -4696.1548   -4184.1508   -4696.1548            0    9707.7024    19.912431    19.711632    20.642915    8102.4786    10532.821    9695.2622    8895.0236    242.27191   -1724.3917    498.55829   -3037.0272 
 1364000    271.89635   -4674.0173   -4149.6424   -4674.0173            0    6219.9854    19.843458    19.936223    20.644794    8167.1545    5670.7795    6662.8347     6326.342   -483.63916    1032.7745   -710.02646   -3408.7826 
 1365000     272.9764   -4692.4297   -4165.9718   -4692.4297            0    6557.2535    20.060053    19.568261    20.829288    8176.3359    6505.2068    7707.2801    5459.2735   -355.15244   -29.735611   -178.42029   -3384.0621 
 1366000    253.31165      -4686.9   -4198.3672      -4686.9            0    8233.6185    19.722284    20.033326    20.556451     8121.914    9250.9119     7865.564    7584.3797   -686.24137   -1667.7183    405.24917   -3223.0969 
 1367000    263.83698   -4698.1535   -4189.3216   -4698.1535            0    8825.7493    19.958932    19.743341    20.552881     8098.986    9801.3818    7483.6327    9192.2335     671.6306   -318.23016    785.10319   -3146.8647 
 1368000    255.49857   -4671.7575    -4179.007   -4671.7575            0    8005.9686    19.901128    19.929795    20.558214    8153.9098    8071.1562    8039.7586    7906.9911    117.56971     174.8795   -132.56544    -3226.966 
 1369000    261.78598     -4697.23   -4192.3538     -4697.23            0    6929.3016    19.927487    19.725742     20.70079    8137.1588    6437.0556    7168.2337    7182.6155   -488.49773   -1049.1341   -951.75389   -3370.0389 
 1370000    265.48341   -4668.6093   -4156.6022   -4668.6093            0    9022.6809    19.735885    19.941201    20.608058    8110.4508    9216.4569     8300.599    9550.9868   -229.07108   -590.54837   -746.03068    -3089.376 
 1371000    258.85783   -4704.0106   -4204.7815   -4704.0106            0    7580.5513    19.916162    20.044332    20.404548    8145.6214    8826.0219    7156.5139     6759.118   -257.07665   -527.56198   -580.05705   -3304.2459 
 1372000    278.44413    -4676.094    -4139.091    -4676.094            0    6771.5183    19.890222    20.058314    20.515736    8185.0463    7290.6033    7403.1132    5620.8385    878.79078   -935.95547    313.67506   -3330.7715 
 1373000     268.1085   -4677.2111   -4160.1413   -4677.2111            0    8291.2748       20.076    19.720392    20.514022    8121.6362    8072.0197    8853.2771    7948.5276    819.02505   -171.91347    365.36897   -3178.0752 
 1374000    256.76695   -4653.6217   -4158.4251   -4653.6217            0    9326.6832    19.731201    20.077489    20.618198    8167.9603    9594.6858    8207.8139     10177.55   -489.23929    984.57978    1288.0024   -3047.4182 
 1375000    271.15055   -4653.4509   -4130.5143   -4653.4509            0    8229.9582    19.874068    19.847077    20.617243    8132.3099    6350.5122    9166.3039    9173.0586    1597.1529    968.22577    -867.7207   -3154.4297 
 1376000    263.12795   -4713.1267   -4205.6623   -4713.1267            0    7818.2827    19.736667     19.90261    20.815749    8176.6589    10153.744    7026.2872    6274.8167   -701.69723   -50.433694   -958.45117   -3273.3463 
 1377000    258.74898   -4661.5137   -4162.4946   -4661.5137            0    8738.2845    19.820188    19.920403    20.471926    8082.8514    9024.4765    7444.9675    9745.4095    368.49596    1899.4676     1864.626   -3132.4248 
 1378000    268.60512   -4694.2306    -4176.203   -4694.2306            0    7525.0413    20.142775    19.778833    20.392558    8124.4068    6756.2716    8032.5888    7786.2636    677.63725   -160.81388    649.43991   -3284.5899 
 1379000     270.5464   -4636.6863   -4114.9149   -4636.6863            0    8228.6416    19.997753    19.733949    20.618993    8136.9687    9321.2184    6094.6711    9270.0352    156.96123   -758.71788    736.76338   -3138.4274 
 1380000    266.23887   -4711.8651    -4198.401   -4711.8651            0    8639.1306    20.005527    19.847593    20.352603    8081.2366    7168.3225    8908.1065    9840.9629    651.15256   -541.16143   -1321.7118   -3180.2229 
 1381000    255.05015    -4707.781   -4215.8953    -4707.781            0    6656.1644    20.044145    19.883017    20.565926    8196.3048    6593.2764    7871.5517     5503.665    301.43156   -25.693988    1357.7856   -3420.2527 
 1382000    262.97458   -4639.2581   -4132.0895   -4639.2581            0    5698.9346     20.00091     19.62529    20.822629    8173.3746    4962.4002    7680.5855    4453.8182    8.8330769    -736.8513   -1.2981028   -3452.7749 
 1383000    274.62613   -4654.7054   -4125.0658   -4654.7054            0    8287.1439      19.8869    19.871659    20.667256    8167.4037    7244.8866    8345.7442    9270.8011     179.0998    552.37731   -332.51062   -3137.9575 
 1384000    264.70387   -4698.2138   -4187.7101   -4698.2138            0    7572.9148    19.755102    20.058822    20.408317    8087.0827    7959.4786    6465.1142    8294.1517   -232.89705    917.58656   -105.80941   -3294.5469 
 1385000    269.05875    -4691.355   -4172.4526    -4691.355            0    7705.6165     19.85123    19.699028    20.802406    8134.7793    8377.7193    6980.0678    7759.0625   -165.39404    3.9776129   -62.847588   -3258.2782 
 1386000     291.5808   -4715.5953   -4153.2572   -4715.5953            0    7175.4678    19.927792    19.579301    20.833346    8128.5933    6401.6122    8326.9564    6797.8348    721.98296    99.282614   -31.913207   -3302.6256 
 1387000    273.14153   -4699.4024   -4172.6259   -4699.4024            0    9821.8426    19.917567     19.85651    20.400284    8068.1768    8212.7769    10958.366    10294.385     175.0889    1111.9771    2116.0409   -3016.9282 
 1388000    267.43842   -4687.2037   -4171.4262   -4687.2037            0    9632.7322    19.809506    20.094265    20.337475    8095.4835    9486.2498    9447.5605    9964.3862    1.9287636   -596.84752    482.44523   -3034.1442 
 1389000    248.17689   -4694.7027   -4216.0727   -4694.7027            0    7033.5552    19.776237    19.964681    20.669578    8160.8922    7870.5967    5810.5081    7419.5608    244.15154    1532.6809   -296.86782   -3378.9513 
 1390000    268.73668   -4675.7411   -4157.4598   -4675.7411            0    6405.1588    20.132767    19.731275    20.702786    8224.0815    3881.6893    8966.0139    6367.7731    140.16916   -1100.5623   -605.48018   -3389.2264 
 1391000    255.17686   -4663.1389   -4171.0088   -4663.1389            0    6905.3512    19.950191     19.96775    20.478955    8158.0052    6823.7323    7017.8458    6874.4757    206.51824    1717.7971    588.22864   -3349.4368 
 1392000    248.92912   -4652.2188    -4172.138   -4652.2188            0    6703.2624    19.706475     20.08171    20.600739    8152.5307     7848.634     6649.063    5612.0903   -823.24539   -1270.1755    277.04203   -3375.1449 
 1393000    259.45788    -4664.093   -4163.7067    -4664.093            0    8431.6027     19.87607    19.820777    20.505983    8078.5202    10666.781    7385.3314    7242.6958   -486.84051   -2294.0636    -341.4045   -3170.3211 
 1394000    271.42193   -4674.0388   -4150.5788   -4674.0388            0    8074.9813    19.697005    19.956798    20.611599    8102.1958    7460.3474    9384.4677    7380.1289   -369.20369    1281.3517   -556.52427   -3196.4211 
 1395000    263.86854   -4669.7318   -4160.8391   -4669.7318            0    8585.0108    20.023035    19.888492    20.474865    8153.6638    7119.5539    9754.8558    8880.6228    -156.8304    456.37161   -845.21683   -3139.9713 
 1396000    260.20558   -4685.9058   -4184.0775   -4685.9058            0    7489.6845    19.715661    19.971643    20.555222    8093.7038    8786.7887    5311.6744    8370.5904     1586.876   -503.17646   -308.87003   -3300.0073 
 1397000    244.81661   -4683.7241   -4211.5746   -4683.7241            0    7600.5175    19.818911    19.976806    20.787816    8230.2817    6856.1062    8569.7926    7375.6537   -166.00792    382.75145    368.97156   -3299.2829 
 1398000    271.70981    -4702.985   -4178.9698    -4702.985            0    8456.4803    19.843575    19.872285    20.549533    8103.4453    8703.0124    8908.5562    7757.8721   -645.84498   -292.41063    589.05908   -3179.5793 
 1399000    267.51846   -4655.3572   -4139.4254   -4655.3572            0    8121.2517    19.965909    20.143637      20.2889    8159.9118    7262.2503    9210.8184    7890.6862    361.99282    1331.2135    917.63239   -3172.9644 
 1400000    255.53845   -4670.8979   -4178.0705   -4670.8979            0    7785.6763    20.095866    19.888089    20.429464    8165.0107    7642.1604    8614.3012    7100.5673    97.966136   -271.19175   -613.72506   -3250.9654 
 1401000    275.18189   -4647.3029   -4116.5915   -4647.3029            0    8982.3169    19.896175    19.979387    20.416222    8115.7212    7262.0587    9443.8183    10241.074    528.48547   -681.69451   -1388.3463   -3053.4492 
 1402000    272.59685   -4671.2523   -4145.5263   -4671.2523            0    8916.4151    19.832221     19.74781    20.726703    8117.4669    9382.2269    7997.5957    9369.4227    583.31165    1265.6465    1134.7537   -3089.9571 
 1403000    269.51475   -4694.0866   -4174.3047   -4694.0866            0     8429.895    19.949625    19.733269    20.627678    8120.5253    4978.2136    11013.134     9298.338    573.79018   -182.06254    1187.8556   -3175.9562 
 1404000    274.64497   -4696.6245   -4166.9486   -4696.6245            0     7767.646    19.807404    19.954402    20.583404    8135.4853      5312.96    9370.6721    8619.3058   -39.383852   -631.53941    822.00993   -3245.3352 
 1405000    273.60589   -4686.3283   -4158.6564   -4686.3283            0    7784.5117    19.987932    19.613692    20.621234    8084.2895    6247.2859    8550.6468    8555.6023   -282.79674    129.18288    100.27458   -3240.8541 
 1406000    253.56559   -4680.8415    -4191.819   -4680.8415            0    7813.4558    19.640988    19.896211    20.824213    8137.7119    8677.2592    6504.3491    8258.7591    552.76964    647.03472    72.016591   -3264.5166 
 1407000    268.56955    -4660.808    -4142.849    -4660.808            0    10159.624    19.750285    19.893729    20.471607    8043.4338    12919.736    5840.1896    11718.945   -690.96322   -558.54045   -601.76881    -2951.072 
 1408000    265.92261   -4719.0136   -4206.1595   -4719.0136            0    6131.9037    19.993369    19.764597    20.568333    8127.8005    6277.5483    6294.8737    5823.2892   -446.47492    727.76706   -165.91754   -3479.3104 
 1409000    257.57547    -4694.103   -4197.3471    -4694.103            0    8028.2978    19.953429    20.014293    20.498322    8186.0822    9039.8125    7431.3532    7613.7278   -457.26952   -731.64282   -118.90962   -3238.8838 
 1410000    270.61634   -4688.4941   -4166.5878   -4688.4941            0    6977.5282    20.126678    19.916616    20.464422    8203.2723    5924.6507    7810.0635    7197.8704    648.96002    -596.9363    1249.6618    -3331.822 
 1411000    261.12804   -4681.8345   -4178.2271   -4681.8345            0    7736.7935    19.863281     19.94788    20.558382    8145.8547    6138.0861    9552.1042    7520.1902   -1158.3347    185.46116      -334.45   -3259.1043 
 1412000    277.26178   -4693.7872   -4159.0645   -4693.7872            0    6795.9793    19.997991    19.968926    20.495853    8184.7809    4840.5463    8041.1653    7506.2263    482.90915     1670.856    596.75478   -3347.8513 
 1413000    269.63693   -4678.3639   -4158.3464   -4678.3639            0     5935.085    19.882014    19.977658    20.682281    8214.9212    6183.1907    6352.2125    5269.8517   -447.81957    296.00112    1614.1239   -3447.2864 
 1414000    283.89399   -4730.2674    -4182.754   -4730.2674            0    6884.5169    19.932858    19.927385    20.491621     8139.471    5893.0158    7754.4062    7006.1287   -477.06972    792.32917   -528.84364   -3365.5216 
 1415000      267.204   -4694.4328   -4179.1074   -4694.4328            0     6909.909    19.988169    19.895787    20.593896    8189.7877    5809.6347    7216.5646    7703.5278    338.72636    655.72715   -554.77362   -3353.7902 
 1416000    266.53936   -4660.2086   -4146.1651   -4660.2086            0    7797.8567    19.874104    19.722477    20.731334    8125.9897    7683.9119    8068.3201     7641.338    520.47426    -1703.483    435.27812   -3222.0471 
 1417000     271.9756   -4679.9837   -4155.4558   -4679.9837            0    10474.803    19.769596    19.811996    20.557899    8052.0185    12494.564    9313.0766    9616.7677   -1015.5548   -1111.1509   -758.37984   -2925.3952 
 1418000    276.01988   -4657.8942   -4125.5667   -4657.8942            0    7240.6703    19.939978    19.840974    20.512756    8115.4327    7775.7491     6957.884    6988.3777   -706.99906    51.634737   -587.02198   -3268.5952 
 1419000    272.07657   -4650.0899   -4125.3673   -4650.0899            0     9255.737    19.889813    20.145092    20.373849    8163.4367    12677.042    7557.9674    7532.2019    511.92666   -863.56167   -371.86513   -3023.4223 
 1420000    263.87688   -4657.3452   -4148.4364   -4657.3452            0    6278.2876    19.840393    19.890801    20.717522      8175.99    4307.2996    7593.0323    6934.5309   -52.584066   -119.14443    664.93237   -3399.8233 
 1421000    272.82848   -4683.5042   -4157.3316   -4683.5042            0    6833.3562    20.037563    19.856549    20.700487    8236.2444    6794.8483    6276.1707    7429.0496    1028.3414   -306.36428   -67.874154   -3336.5281 
 1422000    269.00259   -4711.2332   -4192.4391   -4711.2332            0    5962.5484    20.103334    19.866614    20.723953    8276.8392     4710.372    6898.0004    6279.2727     1286.003   -708.49349    -278.4143   -3472.7046 
 1423000    253.00414   -4679.2045   -4191.2647   -4679.2045            0    8188.1082    19.697503    20.021715     20.58809    8119.4851    10002.989    5881.1334    8680.2025   -1332.0623   -696.66368    315.97201   -3221.6751 
 1424000    258.90528   -4653.5497   -4154.2291   -4653.5497            0    11006.116    19.928582    19.622136    20.735445    8108.4164    10496.196    12045.969    10476.183   -827.21166   -695.87914   -468.35602   -2852.7236 
 1425000    266.86252   -4680.9406   -4166.2737   -4680.9406            0    8276.1605    19.589026    20.049314    20.673476     8119.436    8664.8631    7935.5009    8228.1174    588.50009    426.03721   -455.25122   -3186.2634 
 1426000    256.52069   -4695.3318   -4200.6101   -4695.3318            0    6028.6714    20.075011    19.898723     20.58071     8221.316    6221.6527    6046.4266    5817.9349   -551.69045    339.71634    880.39386   -3477.7756 
 1427000    268.21096   -4670.6363   -4153.3689   -4670.6363            0    8703.3923    19.854637    19.935501    20.449153    8094.0231    9292.5334    7336.0392    9481.6045    269.17176   -210.75965   -274.21302   -3125.9941 
 1428000    258.69836   -4662.2688   -4163.3472   -4662.2688            0    8101.2137    19.917961    19.902565    20.498378    8125.9364    6089.7398    9243.6305    8970.2709    601.52338   -241.90824    772.52883    -3203.285 
 1429000    264.54056   -4652.2145   -4142.0258   -4652.2145            0    6759.1262    19.897755    19.849507    20.720741    8183.8769    6580.3866     5586.453     8110.539     82.31704    1482.2238   -800.39704   -3335.3008 
 1430000     265.7134   -4662.7057   -4150.2551   -4662.7057            0    6771.1996    20.071173    19.694688    20.678973    8174.3043    6571.4189    8190.0904    5552.0895    51.511864    1168.1937   -196.41123   -3343.0344 
 1431000    261.83714   -4687.2206   -4182.2457   -4687.2206            0    7115.3328    19.857043    20.053025    20.547745    8181.9843    7283.4294     6919.766    7142.8031   -85.547419    611.98285    58.746442   -3333.2026 
 1432000    260.84749   -4669.0534   -4165.9871   -4669.0534            0     8878.007     19.96571    19.960788    20.416103    8136.4564    9757.2709    8039.3761    8837.3742   -327.66866     -1121.12    1161.5147   -3112.5062 
 1433000    272.67664   -4726.5733   -4200.6934   -4726.5733            0    7172.1019    19.724957    20.018153    20.672186    8162.5614    8501.2476    6641.3628    6373.6954    718.29414   -574.28047   -702.60107   -3346.9079 
 1434000    262.25612    -4696.224    -4190.441    -4696.224            0    8614.3388    19.937663    19.818296    20.680665    8171.5616    6976.7763    10736.322    8129.9185    63.230281    121.02557   -1233.5752   -3163.8371 
 1435000    278.49243   -4681.0699   -4143.9738   -4681.0699            0    6933.4371    20.295924    19.612957    20.516577    8166.8919    5839.5855    8294.5824    6666.1434    1048.4946    709.03899    1723.3495   -3318.1617 
 1436000    271.15151   -4660.8658   -4137.9273   -4660.8658            0    8477.4788    19.906333    19.904222    20.622689    8171.1234    9414.0627    8122.3622    7896.0115    654.72918    1272.7047    1005.5069   -3127.6877 
 1437000    247.81228   -4669.4893   -4191.5625   -4669.4893            0    6711.0608    20.062016    19.877288    20.572294    8203.7878    6265.5936    7076.8495    6790.7393   -386.93396    600.23317    462.21667   -3388.6255 
 1438000    264.63494   -4664.9817    -4154.611   -4664.9817            0     7984.222    19.803152    19.852384    20.658271    8121.5881    9841.4468    6687.8105    7423.4086   -17.157718    448.80076    135.95125   -3208.9196 
 1439000    265.12203   -4719.2939   -4207.9838   -4719.2939            0    6694.0925    19.791623    19.836747    20.843202    8183.0706    6563.6563    7617.9548    5900.6664    -480.9056   -891.34852    424.15777   -3409.0994 
 1440000    284.16978   -4674.0348   -4125.9894   -4674.0348            0    8908.0447    19.713486    20.012924    20.640742    8143.2782    10191.424    7453.4366    9079.2731   -36.432929   -216.32815   -779.37504   -3068.0579 
 1441000    264.28548   -4676.5355   -4166.8387   -4676.5355            0    6857.9504    19.992432    20.129841    20.376647    8200.4693    8148.1441    6587.5691     5838.138    191.98036    727.35981   -38.637811   -3346.6592 
 1442000    269.47658    -4664.205   -4144.4968    -4664.205            0    7386.2487    20.032867    19.942023    20.354332    8131.4719    6160.5485     7355.417    8642.7806     -252.336     50.42598   -140.55063   -3268.5676 
 1443000    270.78965   -4679.0782   -4156.8376   -4679.0782            0    8551.7598    19.801386    19.949155    20.568613     8125.032    8577.4354    8496.3688    8581.4753    765.81452    288.24115   -1492.8222   -3143.4946 
 1444000      279.948   -4682.4117   -4142.5085   -4682.4117            0    7339.3723    19.922418    19.780538     20.62448    8127.6151    8013.5586    6634.8765    7369.6817    463.97488    240.49049   -1113.8829   -3272.5512 
 1445000    265.75909   -4677.2322   -4164.6935   -4677.2322            0    7484.7836    19.828716    20.057925     20.58896    8188.7008    7280.9618    8101.2733    7072.1157    -511.7461    587.42214   -699.11017   -3270.8322 
 1446000    257.15025   -4660.1863   -4164.2504   -4660.1863            0    9078.9788    19.963184    19.719256    20.583908    8103.0436    6732.6917    11928.214     8576.031   -120.76827    865.26069   -76.845542   -3091.3459 
 1447000    273.32983   -4690.4022   -4163.2626   -4690.4022            0    8737.6725    19.793238    19.861391    20.622373    8107.0926     10116.86    8045.3999    8050.7573   -294.63624   -319.57653    -781.2503   -3130.1758 
 1448000    266.63805   -4672.0694   -4157.8355   -4672.0694            0    7316.2293    19.983756    19.805266    20.683728    8186.2805    7063.9134    6909.2087    7975.5659   -15.861674   -810.89388    650.71136   -3284.3619 
 1449000    272.13842   -4663.7717   -4138.9299   -4663.7717            0    7642.9886    19.660097    19.913295     20.81679    8149.7174    9051.5338    7597.3323    6280.0999   -440.21157   -354.14951    847.99577   -3230.5204 
 1450000    267.67541   -4693.1868   -4176.9522   -4693.1868            0    7613.8482    19.743038    19.904403    20.743557    8151.6657    8782.0845    6473.6185    7585.8414    15.752118   -1504.3134    -839.7892   -3271.7899 
 1451000    260.33753   -4676.3352   -4174.2523   -4676.3352            0    7094.7828     20.10882    19.834999    20.516887    8183.3336    6153.5791     6957.421    8173.3485    198.21181    312.41717   -822.53992   -3327.5217 
 1452000    275.85153   -4706.5212   -4174.5183   -4706.5212            0     7955.177     19.61641    20.066359    20.720648    8156.2672     8481.831     8277.239    7106.4608    598.21898   -137.54801    539.65692   -3228.2437 
 1453000     248.0963    -4669.061   -4190.5865    -4669.061            0    9398.7409    19.851123    19.823119    20.679858     8137.755    9498.5615    9220.9848    9476.6764    433.10859   -584.47921   -877.66305   -3075.1363 
 1454000    271.01239   -4715.3786   -4192.7084   -4715.3786            0     9337.425    20.142614    19.610611     20.47731    8088.7213    7669.8832    9579.4323    10762.959    149.48506    4.7417222   -434.66356   -3091.2125 
 1455000    253.27416   -4680.2918   -4191.8313   -4680.2918            0    9735.4534    19.711067    19.928331    20.583285     8085.293    11606.516    6520.9113    11078.932    371.42335   -1749.8034   -557.38714   -3043.8684 
 1456000    257.48537    -4681.069   -4184.4868    -4681.069            0    6701.2903    20.036348     19.97284    20.309387    8127.4669    4066.2863      7581.05    8456.5347   -40.260308    844.43174   -1405.4694   -3390.1777 
 1457000    276.24349   -4707.6191   -4174.8603   -4707.6191            0    5790.9728    19.857837    20.095326    20.643291    8237.6994    4876.1658     5260.792    7235.9606    88.096662     194.7144    51.806379   -3479.1421 
 1458000    264.10181   -4659.8634   -4150.5208   -4659.8634            0    8981.3451    19.985423    19.820862    20.593322    8157.5978    9544.9478    8392.4145    9006.6728    190.36892   -956.46284    1170.5503   -3082.0084 
 1459000    270.97833   -4687.2748   -4164.6703   -4687.2748            0    8011.4473    19.755692    19.708969    20.724119    8069.2323    9583.0634    8140.6505    6310.6281    235.94014     1009.532    571.15039   -3221.8714 
 1460000    275.90057   -4665.9057   -4133.8082   -4665.9057            0     7529.385    20.118593    19.600614    20.687933    8158.0129    6061.4019    8996.2921    7530.4609   -140.61252   -87.124358    444.55813   -3237.9902 
 1461000    273.79167   -4694.0799   -4166.0497   -4694.0799            0    7684.3453    19.739114    20.149264     20.48573    8147.7611    10250.047    4976.0037     7826.985    63.299039    679.18275   -315.01194    -3252.944 
 1462000    261.94612   -4676.8497   -4171.6646   -4676.8497            0    8048.6306      19.9885    19.889255    20.487709    8145.0192    9289.0168    7081.4969    7775.3782    375.68269    719.37175    -1676.018   -3215.5939 
 1463000    281.79906   -4680.3594   -4136.8862   -4680.3594            0    7790.7692    19.939311    19.801195    20.673339    8162.2927    7511.8989    8167.4321    7692.9765    794.41324    -94.42355    173.69565   -3209.4835 
 1464000    269.33849   -4665.9233   -4146.4814   -4665.9233            0    8484.0602    19.756516    19.862604    20.633793    8097.0273    8244.9134     8129.725    9077.5421   -243.23176   -1563.2814    754.80133   -3144.6255 
 1465000    253.78241   -4710.2691   -4220.8284   -4710.2691            0    8806.2645    19.863889    19.797643    20.656888    8123.4906    9052.8366    9684.0377    7681.9192    318.58238    489.12404    48.388546   -3177.5258 
 1466000    256.85051   -4674.2689   -4178.9111   -4674.2689            0    8839.8381     20.13052    19.831096    20.367648    8130.9743    7816.3507    8744.1838    9958.9798   -785.87944   -852.00972   -353.24392   -3130.6661 
 1467000    252.51887   -4685.7355   -4198.7316   -4685.7355            0    5979.5734    20.043317    19.667937     20.82338    8208.7993     6658.908      5465.52    5814.2923    489.72019   -1270.1675   -1069.5771   -3482.8755 
 1468000    272.43891   -4662.8211   -4137.3998   -4662.8211            0    9104.6901    19.735991    19.864223    20.776956    8145.4006    9800.0999    10030.617    7483.3537    192.81941    1083.1262    1581.6916   -3055.8326 
 1469000    260.85629   -4647.6184   -4144.5351   -4647.6184            0    7679.5707    19.923312    20.015606    20.485779     8169.261     6056.899    7519.8815    9461.9318    690.29832   -960.85395    278.44027   -3229.5887 
 1470000    257.02368   -4677.0699   -4181.3781   -4677.0699            0    10057.325    19.925894    19.771057    20.443355    8053.7817     9691.873    10277.894    10202.208    719.44876    461.41596   -529.94082   -3000.0835 
 1471000    263.19393   -4682.8065   -4175.2149   -4682.8065            0    7887.5313    19.766171    19.861349    20.703518    8127.8455    5542.3038    8885.8439    9234.4461   -839.00381   -397.34206    1836.2961   -3240.2562 
 1472000    261.75478   -4695.4559   -4190.6398   -4695.4559            0    7743.3184     19.84972    19.840554    20.729439    8163.8633    8856.2191    7740.0548    6633.6813    51.367527   -2295.7085   -1031.3733   -3268.7081 
 1473000    257.94764   -4673.1546   -4175.6809   -4673.1546            0    10047.691    20.001958    19.866547    20.243909    8044.3187    9733.4068    9843.2918    10566.374   -175.38854    1040.0592   -189.11785   -2996.9045 
 1474000    268.56932   -4692.2712   -4174.3127   -4692.2712            0    7634.9507    19.907321    19.945342    20.592997     8176.621    5520.2057    10345.605    7039.0413    453.79083    555.51758    -286.7248   -3263.8629 
 1475000    261.02945   -4690.1348   -4186.7175   -4690.1348            0    6939.0407    19.904346    19.803147    20.816797    8205.3298    8214.4176    7727.7598    4874.9447   -1057.4398   -789.18288   -195.36332   -3356.3481 
 1476000    279.00716     -4700.66   -4162.5713     -4700.66            0    8160.1744    19.922541    19.788132     20.65252      8141.84    8470.3168    8406.9745    7603.2321    400.80661    -575.8434   -248.14911    -3193.629 
 1477000    287.76946   -4655.9253   -4100.9377   -4655.9253            0     6799.759    20.011947    19.976189    20.512321    8200.0554     6460.813    7175.4783    6762.9855    51.393568   -519.37776   -903.71429   -3287.7586 
 1478000    284.45992   -4687.8741   -4139.2692   -4687.8741            0    6804.0049    20.094608    19.867431    20.451122    8164.6652    5245.6042    7536.9884     7629.422    135.56052   -322.71901    464.80018   -3329.0941 
 1479000    284.49001   -4703.3843   -4154.7214   -4703.3843            0    7549.9884    19.946241    19.812355    20.721605    8188.8053    7603.5944    9945.7698     5100.601    143.87465    409.32936    1869.5505   -3253.0616 
 1480000    260.30125   -4622.2097   -4120.1968   -4622.2097            0    7953.8654      19.8556    19.985765    20.491407    8131.5919    8152.6386    7163.5401    8545.4175     435.6561    601.93956    124.41333   -3176.9406 
 1481000    290.73795   -4702.6467   -4141.9341   -4702.6467            0    9247.1921    19.829165    19.799999    20.713565    8132.5069    10787.436    7841.8436    9112.2966    391.49659   -430.58828    474.35008   -3045.1776 
 1482000    266.81366   -4672.5935   -4158.0209   -4672.5935            0     6632.032     19.97904    19.918715     20.52873    8169.5481    7374.7216    4666.8184    7854.5559   -137.65778   -927.24914    398.59789   -3367.8509 
 1483000    266.59669   -4685.8453   -4171.6911   -4685.8453            0    8458.9953    19.914629    19.842058    20.566232    8126.6897    7428.7977    9274.3208    8673.8675    160.30229   -480.39009    562.63685   -3169.1358 
 1484000    275.98254   -4674.1407   -4141.8852   -4674.1407            0    7615.3928    19.901664    19.852632    20.676787    8169.4071    7313.7756    8895.7473    6636.6556     362.0581    1319.2654    299.16825   -3234.5688 
 1485000    266.06471    -4703.237   -4190.1088    -4703.237            0    8971.5563    19.837402    19.922882    20.471559    8090.7329    9171.3875    8571.2787    9172.0028   -597.50211    214.50657   -258.25013   -3131.5097 
 1486000    259.88895   -4693.3284   -4192.1107   -4693.3284            0    7412.3061    20.067078    20.011116    20.387677      8186.97    7217.2641    6661.5812     8358.073   -317.00016    -524.3643   -434.88879   -3307.0921 
 1487000    263.84767   -4682.4673   -4173.6149   -4682.4673            0    8814.2813    19.899047     20.14879    20.378645    8170.6486    9864.0049    7440.0935    9138.7456   -742.83443   -375.90732    220.48343   -3123.3005 
 1488000    272.52646   -4678.7715   -4153.1813   -4678.7715            0    7598.0437    19.822226    19.818188    20.709067    8135.3622    7885.5535    8652.8473    6255.7303   -171.12239   -358.91051    362.39163   -3251.7045 
 1489000    262.32097   -4678.5845   -4172.6765   -4678.5845            0     6215.492    19.615542    20.082284    20.701669    8154.9023    7883.0785    5958.7684    4804.6291    242.64566    69.607598    846.53384   -3433.4625 
 1490000    264.36052   -4671.2926   -4161.4511   -4671.2926            0    7537.4619    20.034596     19.92216    20.550663     8202.436    7301.7445     7530.248    7780.3934    37.664134    10.205517    43.510416   -3259.7889 
 1491000    263.21617   -4693.6329   -4185.9984   -4693.6329            0    8451.2678    20.014142    19.860028    20.515504    8154.5316    8141.4151    8526.1477    8686.2405   -1139.6819    374.78793   -260.72234   -3180.9274 
 1492000    281.65533   -4712.3662   -4169.1702   -4712.3662            0    5659.0019    19.794922    19.862874    20.892976    8214.7847    6321.4215    6078.3636    4577.2205   -356.99593   -158.97985     75.49318    -3491.198 
 1493000    270.51427   -4663.7601   -4142.0505   -4663.7601            0    8679.3653    20.103579    19.765991    20.530657    8158.2091    8822.2496    8535.2065    8680.6397   -596.03353   -198.78603   -119.21334   -3109.3874 
 1494000    277.20178    -4681.066    -4146.459    -4681.066            0    9312.4543    19.995553    19.873162    20.434083    8119.9912    10786.858    7060.1228    10090.382    147.36657   -453.69633    288.12441    -3043.662 
 1495000    282.91792   -4672.0116   -4126.3806   -4672.0116            0    8031.0024     20.10494    19.967212     20.40791    8192.5432    8184.6809    7541.7122    8366.6142    -465.1922    1463.9983   -168.29676   -3166.8377 
 1496000    279.02329   -4684.7017   -4146.5819   -4684.7017            0    7951.2646    19.921569    19.718382    20.738676    8146.5899    8050.8036    8000.3025    7802.6875   -777.05658    880.24614    250.13122   -3201.8948 
 1497000    267.00505    -4691.438   -4176.4963    -4691.438            0    7635.3024    19.840028    19.953614    20.607902    8158.2614    7503.5561    8469.9923    6932.3587    410.04625   -1182.6363   -291.85857    -3268.049 
 1498000    273.96544   -4667.3316   -4138.9662   -4667.3316            0    6501.1767    20.114064    19.881101    20.402938    8158.9256    5077.4942     6490.399    7935.6368   -428.09398    671.23618    429.89848    -3365.394 
 1499000    261.77945   -4690.8538   -4185.9901   -4690.8538            0    7902.1031    19.876674    20.192265    20.406546    8190.2705    9716.5794    7203.6318    6786.0982   -23.818047    442.42081   -739.97027     -3242.11 
 1500000    270.02748   -4636.2219   -4115.4512   -4636.2219            0    8041.6897    19.977639    19.884491    20.495579      8141.77    6939.4356    8966.9285    8218.7051    598.87642   -218.55465   -321.68394   -3160.5861 
Loop time of 416.087 on 64 procs for 250000 steps with 972 atoms

Performance: 103.825 ns/day, 0.231 hours/ns, 600.836 timesteps/s
192.3% CPU use with 32 MPI tasks x 2 OpenMP threads

MPI task timing breakdown:
Section |  min time  |  avg time  |  max time  |%varavg| %total
---------------------------------------------------------------
Pair    | 30.331     | 36.361     | 45.909     |  59.7 |  8.74
Bond    | 1.0046     | 1.1488     | 1.3675     |   8.8 |  0.28
Kspace  | 179.16     | 192.8      | 199.46     |  30.4 | 46.34
Neigh   | 3.0077     | 3.3036     | 3.4726     |   6.9 |  0.79
Comm    | 77.139     | 80.304     | 85.874     |  23.3 | 19.30
Output  | 0.66902    | 0.67025    | 0.67186    |   0.1 |  0.16
Modify  | 81.777     | 84.265     | 86.267     |  12.7 | 20.25
Other   |            | 17.24      |            |       |  4.14

Nlocal:        30.3750 ave          38 max          25 min
Histogram: 3 1 5 6 9 1 4 1 1 1
Nghost:        2641.78 ave        2680 max        2605 min
Histogram: 2 4 2 3 8 3 2 2 2 4
Neighs:        9648.47 ave       12596 max        7476 min
Histogram: 2 4 4 7 4 4 3 2 0 2

Total # of neighbors = 308751
Ave neighs/atom = 317.64506
Ave special neighs/atom = 2.0000000
Neighbor list builds = 8537
Dangerous builds = 0

unfix		3
unfix		2
unfix		1

write_data	data.final.${pid}
write_data	data.final.1
System init for write_data ...
PPPM initialization ...
  extracting TIP4P info from pair style
  using 12-bit tables for long-range coulomb (../kspace.cpp:340)
  G vector (1/distance) = 0.37182869
  grid = 24 24 24
  stencil order = 5
  estimated absolute RMS force accuracy = 0.0035531851
  estimated relative force accuracy = 1.0700311e-05
  using double precision FFTW3
  3d grid and FFT values/proc = 3211 432
Last active /omp style is kspace_style pppm/tip4p/omp
WARNING: Not all mixed pair coeffs generated from mixing. Use write_data with 'pair ij' option to store all pair coeffs. (../write_data.cpp:312)

write_restart   restart.lmp.${pid}
write_restart   restart.lmp.1
System init for write_restart ...
PPPM initialization ...
  extracting TIP4P info from pair style
  using 12-bit tables for long-range coulomb (../kspace.cpp:340)
  G vector (1/distance) = 0.37182869
  grid = 24 24 24
  stencil order = 5
  estimated absolute RMS force accuracy = 0.0035531851
  estimated relative force accuracy = 1.0700311e-05
  using double precision FFTW3
  3d grid and FFT values/proc = 3211 432
Last active /omp style is kspace_style pppm/tip4p/omp
Total wall time: 0:06:56
