LAMMPS data file via write_data, version 30 Jul 2021, timestep = 25250000

972 atoms
2 atom types
648 bonds
1 bond types
324 angles
1 angle types

0.019136908880954095 19.980864091113112 xlo xhi
0.1816412236175804 19.818359776361447 ylo yhi
0.07070856876003617 20.629289431246384 zlo zhi

Masses

1 1.008
2 15.999

Pair Coeffs # lj/cut/tip4p/long/omp

1 0 0
2 0.21084 3.1668

Bond Coeffs # harmonic/omp

1 450 0.9572

Angle Coeffs # harmonic/omp

1 55 104.52

Atoms # full

10 4 2 -1.1794 1.246372287946476 4.19062718576742 3.8520239362242874 0 0 0
11 4 1 0.5897 1.0183866684573182 3.4659255387260988 3.269776850800687 0 0 0
31 11 2 -1.1794 0.7810967481105217 2.170258374836362 2.153633314591201 0 0 0
33 11 1 0.5897 1.469387753092254 2.322289287183574 1.506055179637606 0 0 0
23 8 1 0.5897 2.80670552926665 1.1152903039950375 3.99401147601985 0 0 0
12 4 1 0.5897 2.1901922674076073 4.103157214162788 3.9858508080976955 0 0 0
16 6 2 -1.1794 4.091864987506213 4.188615393836887 3.646023051155796 0 0 0
18 6 1 0.5897 4.155610838235974 3.2556578074785745 3.44148155444609 0 0 0
4 2 2 -1.1794 4.2778714401278615 1.5302635018687722 3.063992040184107 0 0 0
236 79 1 0.5897 0.9064718098847758 0.3167669178670586 1.839204669307798 0 1 0
6 2 1 0.5897 4.937885060617306 1.2649261754217904 3.7044377220763973 0 0 0
46 16 2 -1.1794 8.078691096147914 4.1069246268496205 3.858176037020528 0 0 0
17 6 1 0.5897 4.209138819650084 4.627619029810479 2.8036387592498144 0 0 0
41 14 1 0.5897 9.994452426494652 1.213816858964742 3.804575937245664 0 0 0
58 20 2 -1.1794 8.759120576260779 0.49250490698829164 4.778371473208704 0 0 0
5 2 1 0.5897 4.464858488372884 0.9965783600619729 2.2917665097198245 0 0 0
69 23 1 0.5897 6.674233884180804 2.2751980565596557 1.559923077661526 0 0 0
34 12 2 -1.1794 5.31766060463535 2.6215004886522206 0.39272446726282567 0 0 0
68 23 1 0.5897 8.172765016421057 2.1432860662101287 1.389007197626307 0 0 0
3 1 1 0.5897 3.5779673534249223 2.6548647772827247 0.3481906253094309 0 0 0
67 23 2 -1.1794 7.458644701204714 1.9375018290824515 1.9922697001025471 0 0 0
48 16 1 0.5897 7.343756971705454 4.259639533848243 4.452136179969446 0 0 0
47 16 1 0.5897 7.74219516665981 3.482058656552443 3.2159105789957145 0 0 0
29 10 1 0.5897 6.961692459229862 0.8441377819996941 4.766530342150165 0 0 0
53 18 1 0.5897 9.874536817327984 4.393403327960131 3.9995039703914523 0 0 0
1 1 2 -1.1794 2.638506887231663 2.767176420566778 0.20265897384539452 0 0 0
28 10 2 -1.1794 6.079995987386965 0.7301217626348379 5.121402665632137 0 0 0
9 3 1 0.5897 5.216570454525047 4.76527419084103 4.893316733584603 0 0 0
22 8 2 -1.1794 2.1435629496359625 0.9951590978091018 4.673712077824825 0 0 0
102 34 1 0.5897 0.31663969691600363 1.1134789635940756 5.066040840573344 1 0 0
2 1 1 0.5897 2.5075865210407313 3.7154282795477376 0.20093050287213288 0 0 0
325 109 2 -1.1794 2.783194717764362 2.4419899532060616 6.877449575658777 0 0 0
326 109 1 0.5897 2.7988471537689206 1.8417045709522253 6.132093749173023 0 0 0
327 109 1 0.5897 3.7057083555701698 2.5891908941814226 7.086428780958485 0 0 0
355 119 2 -1.1794 0.8924770469163906 2.213998394855509 8.83208662032 0 0 0
356 119 1 0.5897 1.5583281272792622 2.3539989641684764 8.158854241195595 0 0 0
27 9 1 0.5897 2.277126710951493 4.320864808141227 6.513025930292076 0 0 0
392 131 1 0.5897 8.145891873867203 2.3302405853928687 8.263777868746047 0 0 0
561 187 1 0.5897 0.6915187079443013 0.4539132973247562 8.885719580510594 0 1 0
59 20 1 0.5897 8.789348348998596 1.1785667613283748 5.445139495841507 0 0 0
357 119 1 0.5897 0.0597394196364781 2.313885744009234 8.370705385947392 0 0 0
359 120 1 0.5897 6.206662431585984 2.4515088492814545 7.792577863055724 0 0 0
330 110 1 0.5897 4.267218277696964 0.7857708710324746 9.310693027560475 0 0 0
8 3 1 0.5897 5.774497667554838 4.204988543183576 6.184197287819435 0 0 0
360 120 1 0.5897 5.818736562273729 2.000377977795563 6.400638747291817 0 0 0
393 131 1 0.5897 7.419228307944222 1.160050508202898 8.8919859777315 0 0 0
361 121 2 -1.1794 9.29775104524672 2.5390160553499945 6.715049193010031 0 0 0
358 120 2 -1.1794 5.650049027994481 2.6837090035200086 7.049320940439975 0 0 0
391 131 2 -1.1794 7.541430046761508 2.106145991788524 8.971301453047273 0 0 0
362 121 1 0.5897 9.148640296115696 3.4331695707936936 6.407584285754977 0 0 0
7 3 2 -1.1794 5.897036020099337 4.911703474091916 5.550387671295845 0 0 0
328 110 2 -1.1794 4.04792118341355 1.5843015710869903 9.79080244380315 0 0 0
371 124 1 0.5897 7.864233768072513 3.411574343492605 10.305697064902438 0 0 0
342 114 1 0.5897 4.00952912141846 5.0110255863812245 9.407209319170272 0 0 0
335 112 1 0.5897 1.1512217580653945 3.3313266184802925 10.214848903237277 0 0 0
341 114 1 0.5897 3.9046154334130425 3.5377494066769715 9.739669823611704 0 0 0
340 114 2 -1.1794 3.9237272419885034 4.405433254986465 10.143439243349471 0 0 0
649 217 2 -1.1794 2.4377514922885077 2.7333238453457245 13.96395823185328 0 0 0
650 217 1 0.5897 2.242415188578161 2.1506823297324713 13.230119999506835 0 0 0
348 116 1 0.5897 2.534908106942763 1.112843878470737 11.015384791737615 0 0 0
651 217 1 0.5897 1.8278113150283943 2.465912376276427 14.651442779383835 0 0 0
346 116 2 -1.1794 2.0606522117609987 0.8773110102102064 11.812704520049019 0 0 0
683 228 1 0.5897 4.182712984345056 2.816732632901443 14.279604107935278 0 0 0
336 112 1 0.5897 2.31365542014771 4.117222188993562 10.783362024564829 0 0 0
350 117 1 0.5897 2.4110998163080493 4.537728453890691 13.5767355139234 0 0 0
347 116 1 0.5897 1.137143452668278 0.9753361599731681 11.580583750455853 0 0 0
332 111 1 0.5897 5.2403669144698535 4.594860522262915 11.49000902193493 0 0 0
331 111 2 -1.1794 5.82566448415152 4.652252534257795 12.245186025295089 0 0 0
370 124 2 -1.1794 8.110155185186494 4.23410348284533 10.72906358669185 0 0 0
386 129 1 0.5897 8.980169128294504 4.625966993062805 13.784954046647826 0 0 0
686 229 1 0.5897 8.397087529912408 2.7800493804576747 14.438829762170764 0 0 0
682 228 2 -1.1794 5.135604966405119 2.8778359969820553 14.211425551918946 0 0 0
329 110 1 0.5897 4.648277044817747 1.5885211628669558 10.53626645355935 0 0 0
382 128 2 -1.1794 8.421341219353932 0.7724654559585906 11.690475315583566 0 0 0
383 128 1 0.5897 8.544766276387419 1.4849998430810163 12.317570786806417 0 0 0
685 229 2 -1.1794 8.942128237396712 2.7924082951342504 13.652123682139923 0 0 0
354 118 1 0.5897 5.492862535967123 1.7490429425800706 12.852915865301041 0 0 0
684 228 1 0.5897 5.291221178665133 3.7076636782690127 13.760400822516468 0 0 0
353 118 1 0.5897 6.618689685608478 1.2213618768885348 11.989184343568322 0 0 0
384 128 1 0.5897 9.087430704630334 0.9247682969780173 11.020168670773945 0 0 0
372 124 1 0.5897 7.391040210896611 4.417089915841084 11.333687328308558 0 0 0
352 118 2 -1.1794 5.674540328026104 1.1490246803941655 12.129648604774351 0 0 0
334 112 2 -1.1794 1.3652457809028506 4.009235055544 10.855794142141317 0 0 0
687 229 1 0.5897 9.828606335196358 2.623493730179768 13.971438787157812 0 0 0
377 126 1 0.5897 9.964894495284044 4.310591814497663 10.580105957506449 0 0 0
717 239 1 0.5897 6.527913459348368 2.5138893261472965 15.465516361609453 0 0 0
405 135 1 0.5897 0.09267915487882306 4.636574568750706 11.976028410887125 1 0 0
658 220 2 -1.1794 1.3033321904879407 4.158975004265928 17.564259999843202 0 0 0
664 222 2 -1.1794 4.003517058608462 4.062128828791822 17.218529472319435 0 0 0
671 224 1 0.5897 2.3469103404687037 1.8262880894424112 19.246991502662265 0 0 0
653 218 1 0.5897 3.45249074287617 1.1190132177644638 17.34802786805403 0 0 0
670 224 2 -1.1794 2.080612439608901 1.194577173323714 18.57901200554886 0 0 0
652 218 2 -1.1794 4.273963758504845 1.2910483762565643 16.887717345985664 0 0 0
672 224 1 0.5897 1.1513807751013714 1.0412448515929924 18.75046238762992 0 0 0
665 222 1 0.5897 3.0615741701213146 4.137752750284809 17.37135488540177 0 0 0
666 222 1 0.5897 4.141672046889851 3.1347421201491628 17.025712685172007 0 0 0
681 227 1 0.5897 0.8270001511262285 2.6367561281212244 16.48199744339635 0 0 0
884 295 1 0.5897 0.49993374237283555 0.3412579225408302 15.640764298537198 0 1 0
659 220 1 0.5897 0.5013696996604131 4.377421780955745 18.039053092122725 0 0 0
679 227 2 -1.1794 0.6368684183010713 2.064735085701132 15.738503459912778 0 0 0
654 218 1 0.5897 4.457669013629664 0.48012855150080036 16.41350148814939 0 0 0
689 230 1 0.5897 9.920155594883415 1.320893105143288 17.525400491024353 0 0 0
677 226 1 0.5897 5.400322519508046 1.0462939116555856 18.17027315654355 0 0 0
676 226 2 -1.1794 5.873539548094673 0.8211868931872665 18.971220047903493 0 0 0
660 220 1 0.5897 1.289759358683842 4.728984957679877 16.795478693849304 0 0 0
716 239 1 0.5897 7.4427293731227575 1.4316659901396407 15.9984146777939 0 0 0
657 219 1 0.5897 6.291871748712675 4.5170302713408805 18.750412895467626 0 0 0
695 232 1 0.5897 7.609379251110586 3.494260076041166 17.47520167511913 0 0 0
696 232 1 0.5897 7.66454790718555 5.000075561526107 17.328286844917738 0 0 0
38 13 1 0.5897 8.966000633224535 2.0783632575468802 19.761591260252203 0 0 -1
694 232 2 -1.1794 7.7912564771849295 4.29646296966312 17.964730419867184 0 0 0
708 236 1 0.5897 7.6288403152643545 0.7368898137404426 18.648946419133246 0 0 0
706 236 2 -1.1794 8.580749880805069 0.7305026892107204 18.547875245238195 0 0 0
656 219 1 0.5897 4.778005389548479 4.509706726802068 18.771504036371685 0 0 0
702 234 1 0.5897 9.625996154594695 4.4889822095818115 17.997457616545066 0 0 0
655 219 2 -1.1794 5.54094455769789 4.777668250067568 19.2837497521133 0 0 0
35 12 1 0.5897 5.533721647176906 1.9280461090764953 20.327895001650187 0 0 -1
715 239 2 -1.1794 7.37570514568079 2.380321249576919 15.889456374644299 0 0 0
37 13 2 -1.1794 9.189868321419839 2.515567675687845 20.583077355091458 0 0 -1
36 12 1 0.5897 5.2474876294377 3.412090567467922 20.41626596040099 0 0 -1
710 237 1 0.5897 8.98298313631331 4.349589848635817 20.536921008201134 0 0 0
142 48 2 -1.1794 5.618212203442831 9.02439336103231 0.6691279488843423 0 0 0
15 5 1 0.5897 4.480070308472151 6.654273872540137 1.9423407028766173 0 0 0
175 59 2 -1.1794 7.818630661184485 8.691881004292904 2.336617907924573 0 0 0
140 47 1 0.5897 1.1207178428983025 9.75364162397558 2.587381706425756 0 0 0
13 5 2 -1.1794 4.616958592612513 5.789812679603766 1.5547416786945696 0 0 0
674 225 1 0.5897 1.7808551432487578 5.88470739239152 0.637228694987673 0 0 1
113 38 1 0.5897 4.95316379819711 7.842073294321414 4.210166133736806 0 0 0
114 38 1 0.5897 3.502632371742068 8.012562621768094 3.8112867865619156 0 0 0
14 5 1 0.5897 3.9561595336203825 5.728802199717199 0.8649436638913968 0 0 0
110 37 1 0.5897 2.357507357920689 9.353705479431913 0.5550412829863574 0 0 0
139 47 2 -1.1794 1.022805182218376 9.182150226381037 1.82584268637301 0 0 0
141 47 1 0.5897 1.0678835093427226 8.29546698490987 2.183665305828465 0 0 0
112 38 2 -1.1794 4.392584308504517 8.038752034936438 3.459688871619607 0 0 0
19 7 2 -1.1794 0.9190382892900604 6.497076002587857 2.3154174094379507 0 0 0
711 237 1 0.5897 8.498772394323963 5.593274152841434 0.6930130494435014 0 0 1
55 19 2 -1.1794 7.471515697076264 6.028351035715339 2.0470226349437417 0 0 0
111 37 1 0.5897 3.850728647135143 9.33329307981988 0.3058577066006262 0 0 0
155 52 1 0.5897 7.92804104112849 9.84926314070496 3.6977140686288403 0 0 0
56 19 1 0.5897 6.557928860558919 5.885789413944807 1.799230306426995 0 0 0
20 7 1 0.5897 1.1147836499364567 5.821265387228797 2.9643749243123323 0 0 0
177 59 1 0.5897 8.433068242245787 8.875096272664571 1.6259230895623118 0 0 0
176 59 1 0.5897 7.7113095747093565 7.740784689101816 2.3219116728279214 0 0 0
143 48 1 0.5897 6.337918061473478 8.955506616606595 1.2964305418664779 0 0 0
57 19 1 0.5897 7.60434589292614 5.464229378981781 2.8087698619368004 0 0 0
126 42 1 0.5897 4.450558234401062 9.800841606246314 3.5797020924131666 0 0 0
130 44 2 -1.1794 2.0707210534373983 7.655881869800557 4.972121032044279 0 0 0
166 56 2 -1.1794 8.881266476578237 7.52644080253804 5.157618311904136 0 0 0
132 44 1 0.5897 1.1286564291793206 7.818046262346665 5.023130606339007 0 0 0
21 7 1 0.5897 0.03985902469656111 6.2826073644182685 2.003344004542604 0 0 0
145 49 2 -1.1794 9.332088287344595 9.369997927484789 0.1713603400268928 0 0 0
464 155 1 0.5897 1.681077737839403 8.996862477376606 8.294257934619164 0 0 0
25 9 2 -1.1794 2.3710395667111737 5.27265050763715 6.55311021737611 0 0 0
62 21 1 0.5897 8.428149507704502 5.588572245905365 7.342767952574065 0 0 0
381 127 1 0.5897 7.3910032600909386 5.259574122547496 9.422341128845906 0 0 0
137 46 1 0.5897 6.0433201125277165 6.734644023483415 5.69778453354186 0 0 0
167 56 1 0.5897 8.966793028897476 6.744919743100946 5.703635833235289 0 0 0
26 9 1 0.5897 1.705510032114114 5.553227671519153 7.181261023426899 0 0 0
339 113 1 0.5897 3.897612970658775 5.9795513010650225 7.34638584916846 0 0 0
468 156 1 0.5897 4.463017600960204 9.532843987948196 7.523185672252626 0 0 0
463 155 2 -1.1794 1.0192442470121557 8.595899603273807 8.857690894311963 0 0 0
345 115 1 0.5897 0.9776747134295399 6.79739581733348 8.836874813782408 0 0 0
435 145 1 0.5897 2.5069875086544893 9.002936747776644 6.127037538407441 0 0 0
433 145 2 -1.1794 2.6731183406359733 9.589258090265306 6.865119731901636 0 0 0
343 115 2 -1.1794 0.8214399737496692 5.861841289969708 8.707887353195295 0 0 0
437 146 1 0.5897 4.330473457352234 7.402835777463135 9.462982937225583 0 0 0
337 113 2 -1.1794 4.4253798462237075 6.256310038800324 8.095403220113512 0 0 0
344 115 1 0.5897 1.0170182245756683 5.466480634757596 9.557301468388593 0 0 0
338 113 1 0.5897 5.321980760054586 6.01939726080537 7.858030883743739 0 0 0
501 167 1 0.5897 6.659165002415095 8.788233844004807 8.693485379849237 0 0 0
380 127 1 0.5897 7.206039269973157 6.7108978420402 9.033091059989024 0 0 0
467 156 1 0.5897 5.622957519325447 8.761009781246182 6.930837388358342 0 0 0
379 127 2 -1.1794 7.152705115533949 5.820948711597724 8.684627604126481 0 0 0
500 167 1 0.5897 7.634327180038727 9.205784370284581 9.773545336923908 0 0 0
61 21 2 -1.1794 9.146683223680038 5.332613372645577 6.764463351092739 0 0 0
469 157 2 -1.1794 9.17218537482759 9.382325264394925 7.177824327045203 0 0 0
499 167 2 -1.1794 7.436355208129559 8.491995402057555 9.167313239514542 0 0 0
470 157 1 0.5897 8.605079362398135 9.024805513435334 7.861027393439985 0 0 0
466 156 2 -1.1794 5.4084192142920235 9.406380159188927 7.604363493614532 0 0 0
168 56 1 0.5897 8.973252355980636 8.257486976071663 5.7686000123508325 0 0 0
438 146 1 0.5897 4.301213191733767 8.780398702894006 10.090229856679446 0 0 0
131 44 1 0.5897 2.205631939102425 6.860671681061268 5.48756162159398 0 0 0
436 146 2 -1.1794 4.374063399784796 7.851010832725205 10.307565223507149 0 0 0
136 46 2 -1.1794 6.239392119473996 7.669133973717809 5.62991799355932 0 0 0
63 21 1 0.5897 9.93695357809091 5.620744880489146 7.221344266003176 0 0 0
443 148 1 0.5897 1.2013055913678186 9.77467667201299 10.348705757898806 0 0 0
465 155 1 0.5897 0.1838772985440329 8.880292436205352 8.486761851110662 0 0 0
138 46 1 0.5897 7.175965518122013 7.704322936612065 5.435115577732413 0 0 0
668 223 1 0.5897 1.1826847975489725 5.82958504787414 14.943959174497705 0 0 0
385 129 2 -1.1794 9.037185785656634 5.5402025811538325 14.062826353434314 0 0 0
758 253 1 0.5897 2.8285560532361207 9.830579076566282 13.725422900733319 0 0 0
792 264 1 0.5897 4.679301934808659 9.128723736642954 14.240260472169949 0 0 0
757 253 2 -1.1794 2.8761756232309295 8.922604309338006 14.024757034536256 0 0 0
759 253 1 0.5897 2.7578504008700855 8.401509542625734 13.230672821650202 0 0 0
455 152 1 0.5897 3.0039174180199364 7.582019928422286 11.26122612449411 0 0 0
492 164 1 0.5897 8.360063542693727 7.364754923284417 11.695449161999994 0 0 0
456 152 1 0.5897 2.388596640888858 6.675767327295386 12.30615699769958 0 0 0
454 152 2 -1.1794 2.202871080725238 7.444485894779683 11.766893210051864 0 0 0
490 164 2 -1.1794 9.249471500390257 7.411763015592327 12.04628523591812 0 0 0
790 264 2 -1.1794 5.6163437768561675 9.074921059405018 14.052042247155958 0 0 0
387 129 1 0.5897 9.150494236672472 6.031736593944609 13.24940135133121 0 0 0
462 154 1 0.5897 5.856332243294962 7.611339715832746 11.424966719414028 0 0 0
349 117 2 -1.1794 2.3962995614859404 5.492164610475182 13.648499230137555 0 0 0
333 111 1 0.5897 5.893940408353854 5.589939980944799 12.42516545973778 0 0 0
791 264 1 0.5897 6.028834680749226 8.98297733045527 14.910805604818693 0 0 0
351 117 1 0.5897 3.1213204247144937 5.699773713962253 14.237984755605579 0 0 0
794 265 1 0.5897 9.17734362187358 8.692341684040388 13.424103736220959 0 0 0
491 164 1 0.5897 9.793942654138393 7.634730791033867 11.29130800675259 0 0 0
793 265 2 -1.1794 9.10659429292686 9.277317813446013 14.178380054627294 0 0 0
460 154 2 -1.1794 6.390391555984961 7.318667058301653 12.16339990260188 0 0 0
461 154 1 0.5897 6.129667460445835 7.8870074024086785 12.888085977201099 0 0 0
533 178 1 0.5897 0.4095490922362935 7.508007062145664 11.995122878530912 1 0 0
705 235 1 0.5897 7.869187607162658 5.93217942704422 15.355761807398666 0 0 0
789 263 1 0.5897 1.7928724187373044 8.731896787472609 15.380417629051724 0 0 0
661 221 2 -1.1794 4.6998623573542195 5.763168156892566 15.10843193139173 0 0 0
824 275 1 0.5897 7.903581326102295 8.908163121389492 15.396338553302837 0 0 0
804 268 1 0.5897 7.731998520978301 9.945385345644164 17.255683222019165 0 0 0
669 223 1 0.5897 0.8823438977055461 6.938219874850315 15.930123244551432 0 0 0
787 263 2 -1.1794 1.1007222335433577 8.718505887146337 16.041438222763286 0 0 0
675 225 1 0.5897 2.3145750021587315 6.092503652576702 19.794590199944164 0 0 0
815 272 1 0.5897 8.82313447353607 6.692800126671055 19.467479830366333 0 0 0
788 263 1 0.5897 1.3149797991053835 9.444067123146548 16.627840273794497 0 0 0
760 254 2 -1.1794 4.3073456009657605 7.957508726460481 17.008528923921865 0 0 0
778 260 2 -1.1794 2.074210607581129 7.546059719041436 18.6960281250962 0 0 0
780 260 1 0.5897 2.569979721277454 7.679998340836375 17.888314154224346 0 0 0
779 260 1 0.5897 2.4477910594378054 8.174579714667598 19.31376049480189 0 0 0
761 254 1 0.5897 4.473280018989749 8.900089997128946 16.990588479112656 0 0 0
785 262 1 0.5897 5.964048161715209 6.435032693175563 19.398811596339115 0 0 0
663 221 1 0.5897 4.5935737199733575 6.629833080447703 15.50068496657512 0 0 0
762 254 1 0.5897 4.809368800199973 7.639701562886327 17.75894148257585 0 0 0
786 262 1 0.5897 6.971507634758139 7.500527251375812 19.02227029649983 0 0 0
816 272 1 0.5897 9.04865398121583 8.18893173642011 19.52034785103261 0 0 0
825 275 1 0.5897 7.197983521391524 7.848555251306838 16.2156609460437 0 0 0
703 235 2 -1.1794 7.282960537383199 6.087861299205317 16.096216326289056 0 0 0
823 275 2 -1.1794 7.265323865040664 8.796500100180575 16.100854567923967 0 0 0
814 272 2 -1.1794 8.782198735690127 7.483958859346316 18.93026862604835 0 0 0
784 262 2 -1.1794 6.04655990521595 7.374362706449271 19.234117356597825 0 0 0
109 37 2 -1.1794 3.0090805905742286 9.407320509017334 20.41450773261988 0 0 -1
704 235 1 0.5897 6.416682644485779 5.84015580565317 15.772878772675792 0 0 0
858 286 1 0.5897 0.20009849352211434 7.462222138960886 18.57186286884075 1 0 0
662 221 1 0.5897 4.515828935166506 5.152418776206572 15.82206868550169 0 0 0
667 223 2 -1.1794 0.6480181859987195 6.036480742887921 15.710416004320336 0 0 0
673 225 2 -1.1794 2.3827684958341813 5.511317604495027 20.55201836883226 0 0 0
144 48 1 0.5897 5.79504743808928 8.338853590423694 20.583538049885902 0 0 -1
709 237 2 -1.1794 9.114470561279385 5.296719653187143 20.58139459594304 0 0 0
240 80 1 0.5897 2.4437075186571997 14.383033345190265 4.293440517450162 0 0 0
129 43 1 0.5897 0.7525674737350455 13.609255971542067 1.9481806586413348 0 0 0
120 40 1 0.5897 1.219458477055767 11.509832958867436 3.3024272171601057 0 0 0
118 40 2 -1.1794 1.437342365381815 10.82694697327434 3.9367672463525767 0 0 0
119 40 1 0.5897 2.3799559234837298 10.695563782324834 3.8337849273362017 0 0 0
127 43 2 -1.1794 0.6075306172772342 12.665471296712786 2.015505996964314 0 0 0
124 42 2 -1.1794 4.2066056822745805 10.72237183265017 3.666847572036375 0 0 0
123 41 1 0.5897 4.1732584132670265 12.341852341985318 0.6087665008154328 0 0 0
819 273 1 0.5897 8.336161512463026 12.203955267502831 0.6432726665287053 0 0 1
276 92 1 0.5897 9.70554007224675 14.007778701672606 4.205910939879235 0 0 0
222 74 1 0.5897 4.100125449948262 13.963138475517027 2.5483263169922616 0 0 0
275 92 1 0.5897 8.213271825710091 14.133006875036267 4.428894379195076 0 0 0
122 41 1 0.5897 4.320307464770517 11.749014400859323 1.993837018093471 0 0 0
246 82 1 0.5897 5.334546330740824 14.169702630882831 4.428528789243669 0 0 0
121 41 2 -1.1794 4.647012266273547 12.452572416394577 1.4330340801856816 0 0 0
125 42 1 0.5897 4.754974333336601 11.049368823741993 4.379971853875092 0 0 0
220 74 2 -1.1794 3.953621495600231 14.477023599388945 3.3424155414218566 0 0 0
156 52 1 0.5897 8.949173637697879 10.737116103507978 4.37672892939808 0 0 0
783 261 1 0.5897 1.8046142933884597 12.192077688529322 0.2483601206149262 0 0 1
154 52 2 -1.1794 8.007196514837357 10.579729032149277 4.3111887290356545 0 0 0
163 55 2 -1.1794 7.391641671392495 12.22024147426327 2.132435258895216 0 0 0
165 55 1 0.5897 7.4982485382325965 11.596362546905647 2.850458850968912 0 0 0
164 55 1 0.5897 6.4600987575203845 12.179845603468365 1.915731906625869 0 0 0
285 95 1 0.5897 7.45996277479283 14.070091839756628 2.116172658073573 0 0 0
238 80 2 -1.1794 1.774695012643274 14.28844308074703 4.971429701448953 0 0 0
274 92 2 -1.1794 8.997011784184394 13.70522495388334 4.773975096272065 0 0 0
244 82 2 -1.1794 6.05636514564443 14.087213454390644 5.051748948929136 0 0 0
188 63 1 0.5897 0.03954655639978401 11.01269540423647 5.06592411827178 1 0 0
133 45 2 -1.1794 2.7571212776807466 12.265911988048396 6.420534822909063 0 0 0
134 45 1 0.5897 2.1152411478015085 12.201045958266569 7.127623231209753 0 0 0
135 45 1 0.5897 3.590280406136155 12.42018901481786 6.865900338491628 0 0 0
453 151 1 0.5897 1.0241341992660373 11.705272551378513 9.27806312810734 0 0 0
451 151 2 -1.1794 0.8389705817137131 12.15365233758513 8.452980861469506 0 0 0
450 150 1 0.5897 4.190929493361267 11.212745799973876 9.37687093576146 0 0 0
446 149 1 0.5897 4.482532982249175 13.189114983696573 8.840697241780477 0 0 0
573 191 1 0.5897 1.000156092473999 14.095286569743994 9.121350006227331 0 0 0
445 149 2 -1.1794 4.74770242722462 12.486000915874724 8.247821535203807 0 0 0
245 82 1 0.5897 5.996193892321975 13.186725312976158 5.370780663168476 0 0 0
169 57 2 -1.1794 9.067574366252266 12.071160250323304 6.957780539809297 0 0 0
115 39 2 -1.1794 5.907605978822769 11.376817876441466 5.732729160423776 0 0 0
239 80 1 0.5897 2.094835033946398 13.577600416088144 5.52680296396535 0 0 0
170 57 1 0.5897 9.01280475219968 12.464619140193859 6.086996633053674 0 0 0
488 163 1 0.5897 7.878217461148244 12.26709066482602 8.193466968912524 0 0 0
117 39 1 0.5897 5.774118072829441 10.837213086019622 6.511916591418965 0 0 0
171 57 1 0.5897 9.01350949220066 11.128692532581113 6.799216297515548 0 0 0
447 149 1 0.5897 5.6827873115816425 12.369617834494688 8.41648651677762 0 0 0
487 163 2 -1.1794 7.30769857810787 12.478180041329885 8.932452583390438 0 0 0
489 163 1 0.5897 7.385592290010167 13.426992764941692 9.032416722569193 0 0 0
434 145 1 0.5897 2.718477225340836 10.461485911263756 6.473414284886431 0 0 0
544 182 2 -1.1794 4.0320622859942645 14.330678625159745 10.141016366333735 0 0 0
480 160 1 0.5897 7.866427634804698 11.469721812391558 10.218548425283185 0 0 0
579 193 1 0.5897 9.162418126471701 14.764940607401318 6.20023351167921 0 0 0
448 150 2 -1.1794 3.9987568148689983 10.600429439576326 10.087008936363791 0 0 0
116 39 1 0.5897 6.585494246884675 10.918058350542413 5.236469999467063 0 0 0
457 153 2 -1.1794 2.7457925077536425 11.54460767886603 13.382714237706947 0 0 0
458 153 1 0.5897 2.1121742873544016 11.897570972876753 14.007343390918491 0 0 0
459 153 1 0.5897 3.594637947067786 11.84921225544085 13.703681897220898 0 0 0
562 188 2 -1.1794 1.950603767644112 13.7855377053668 11.82516575522519 0 0 0
563 188 1 0.5897 2.3234664803918013 12.985686978993847 12.195962982913539 0 0 0
546 182 1 0.5897 4.8058359543237765 14.092548249037192 10.65173356469408 0 0 0
479 160 1 0.5897 9.10537642309009 10.758838331354344 10.720356158512258 0 0 0
769 257 2 -1.1794 4.977425718491798 12.492299220087835 14.806013009986222 0 0 0
569 190 1 0.5897 5.925630685223933 12.902664992815556 12.057493126999395 0 0 0
642 214 1 0.5897 0.19721673080762775 13.825148193321208 12.073767469044101 1 0 0
449 150 1 0.5897 4.731603317673498 10.700175884573033 10.694626237575793 0 0 0
564 188 1 0.5897 2.073413907778995 14.44612495201527 12.506859902572643 0 0 0
442 148 2 -1.1794 1.3297485011043737 10.582382649161161 10.846029072258471 0 0 0
478 160 2 -1.1794 8.150525142457948 10.693408176324846 10.701122581748203 0 0 0
600 200 1 0.5897 8.87835954136011 14.593898689705773 12.225069999516766 0 0 0
439 147 2 -1.1794 5.853191766296282 11.132651870147972 12.113203422767008 0 0 0
444 148 1 0.5897 2.279463838639277 10.699563696125619 10.872380713622917 0 0 0
570 190 1 0.5897 6.889698816662803 14.017731163269662 11.712079880490858 0 0 0
441 147 1 0.5897 5.773471671185116 10.584931156774545 12.894082035990532 0 0 0
493 165 2 -1.1794 9.013473040686309 11.894600809506947 13.487253403524623 0 0 0
568 190 2 -1.1794 5.988856971141461 13.855592666019389 11.99230630504375 0 0 0
598 200 2 -1.1794 8.617799306032763 13.898345973814317 11.621311735892034 0 0 0
440 147 1 0.5897 6.713975778430176 10.915831171398029 11.754905211367298 0 0 0
599 200 1 0.5897 8.70875898687455 13.092478590622035 12.129769673525917 0 0 0
494 165 1 0.5897 8.455420069770286 11.97994438245147 14.260199875947125 0 0 0
770 257 1 0.5897 5.9212128404349915 12.490276224244637 14.96602863242099 0 0 0
545 182 1 0.5897 3.292780491446794 14.044837364681895 10.677683745605401 0 0 0
771 257 1 0.5897 4.636231165237743 13.168876539848753 15.390843077665576 0 0 0
775 259 2 -1.1794 0.9676419692980065 12.521393908154126 15.157403786373665 0 0 0
795 265 1 0.5897 9.076058378621818 10.155633960245037 13.799047131744441 0 0 0
495 165 1 0.5897 9.889620977175813 12.124177988978946 13.797089398435277 0 0 0
777 259 1 0.5897 1.1256424901779747 13.418590723408947 15.451269597098475 0 0 0
888 296 1 0.5897 1.9417036600741826 13.223039937844508 18.833544519817004 0 0 0
768 256 1 0.5897 1.1837586947428882 11.5369587934785 16.59455705444878 0 0 0
773 258 1 0.5897 3.5909295255787432 10.77424583052053 17.08666191419974 0 0 0
766 256 2 -1.1794 1.5722414096244892 10.983868602061637 17.272317098422175 0 0 0
886 296 2 -1.1794 1.7783279648685213 14.093034463231056 18.469274431530053 0 0 0
772 258 2 -1.1794 4.544753844496992 10.697508498381405 17.05994418489669 0 0 0
146 49 1 0.5897 9.038845015743854 10.245888735922316 20.478698275602596 0 0 -1
774 258 1 0.5897 4.817553687269091 11.326787867204338 16.392282508246677 0 0 0
781 261 2 -1.1794 2.4936271829847776 12.06415013774559 20.154949314566075 0 0 0
767 256 1 0.5897 0.9410337510992497 11.006767679201847 17.991509191449502 0 0 0
869 290 1 0.5897 3.1549404135065013 14.152740990840075 17.246604294046765 0 0 0
924 308 1 0.5897 9.302336642411145 14.162159856845177 17.933260609360474 0 0 0
870 290 1 0.5897 4.6596326054998105 14.12216666768746 17.411644220481698 0 0 0
817 273 2 -1.1794 8.925234432796795 12.015073167969138 20.471459090338648 0 0 0
765 255 1 0.5897 5.717316025257625 10.499331999225108 19.975079152971855 0 0 0
764 255 1 0.5897 5.335429522225101 11.078487723147504 18.629611665309152 0 0 0
812 271 1 0.5897 7.6931861764797365 13.234532517832763 15.92787755179268 0 0 0
887 296 1 0.5897 1.9524791762055909 14.693397973300856 19.19411001249816 0 0 0
868 290 2 -1.1794 3.9716592710502785 14.164953021988815 16.747506357231902 0 0 0
818 273 1 0.5897 8.733140053369526 12.695510843314063 19.826250029218393 0 0 0
892 298 2 -1.1794 5.8119954427696845 13.949083613995025 18.82422247555793 0 0 0
802 268 2 -1.1794 8.04637176918527 10.638022803423475 17.83674134392461 0 0 0
894 298 1 0.5897 5.814134120033178 13.074483292370072 19.213251241358368 0 0 0
922 308 2 -1.1794 8.523395059393453 14.140037350817098 18.489140361341402 0 0 0
813 271 1 0.5897 7.817287486736163 11.820211370278177 16.45355058511739 0 0 0
763 255 2 -1.1794 5.935021100805776 11.204092186512854 19.36506330514732 0 0 0
893 298 1 0.5897 6.720600059254831 14.097277412007388 18.56192413916595 0 0 0
803 268 1 0.5897 7.332763221849538 10.769733079718282 18.460956513659642 0 0 0
782 261 1 0.5897 2.5924980736223318 11.114006119217695 20.093508039403524 0 0 0
923 308 1 0.5897 8.681951036678296 14.812930413447248 19.151149695718683 0 0 0
811 271 2 -1.1794 7.550099385657202 12.320418721029084 15.682489345591213 0 0 0
810 270 1 0.5897 9.87425906873663 10.724265670033214 17.87369660573623 0 0 0
965 322 1 0.5897 0.06613977353202166 13.829765467428246 18.813963637338457 1 0 0
252 84 1 0.5897 5.3427135967249155 14.786223724975663 20.3973643380029 0 0 -1
927 309 1 0.5897 8.821268028514137 18.733908921021467 0.5124793715956275 0 0 1
890 297 1 0.5897 2.113436875625265 18.71631891093061 0.1683744377896737 0 0 1
229 77 2 -1.1794 4.8206868768207185 19.047733308390875 1.3362443694840909 0 0 0
228 76 1 0.5897 1.0134824599592318 17.6621034172256 4.39538251009092 0 0 0
227 76 1 0.5897 1.4807210147147853 18.110147841712703 3.0270126380861777 0 0 0
230 77 1 0.5897 4.405340575166859 18.745682639906256 0.5285468839002445 0 0 0
233 78 1 0.5897 4.5915102240553205 17.82287842169584 2.7049067807235363 0 0 0
249 83 1 0.5897 1.4651719101827023 15.655575595316883 1.3993809713243863 0 0 0
232 78 2 -1.1794 4.401452082179103 17.18701131036817 3.3946336930504355 0 0 0
248 83 1 0.5897 1.0073129843695874 16.164483602419974 2.7495381890294586 0 0 0
284 95 1 0.5897 7.489082188446072 15.433858491689218 2.772888802412586 0 0 0
226 76 2 -1.1794 1.6956716328567667 17.510397409825657 3.7413163441332555 0 0 0
234 78 1 0.5897 3.4709427077696624 17.30881443025259 3.5835631959371166 0 0 0