LAMMPS data file via write_data, version 30 Jul 2021, timestep = 2000000

1296 atoms
2 atom types
864 bonds
1 bond types
432 angles
1 angle types

-10.742465175806654 12.722465175806654 xlo xhi
-9.293922069160786 12.283920069160786 ylo yhi
-0.02717770336068348 21.887176703357508 zlo zhi
-9.363804862236648 1.6722682772739372 2.6336600515948043 xy xz yz

Masses

1 1.008
2 15.999

Pair Coeffs # lj/cut/tip4p/long/omp

1 0 0
2 0.21084 3.1668

Bond Coeffs # harmonic/omp

1 450 0.9572

Angle Coeffs # harmonic/omp

1 55 104.52

Atoms # full

280 94 2 -1.1794 -9.618220782934918 -4.55059580955449 1.3310453730901763 1 1 0
73 25 2 -1.1794 -8.52942725889034 -4.013554131382172 4.930439668653535 1 0 0
324 108 1 0.5897 -7.2762498269185265 -4.511510579785179 3.3025940717315967 1 1 0
270 90 1 0.5897 -8.548077507443564 -7.442159259997009 1.6693528690965413 1 1 0
269 90 1 0.5897 -9.376688269696068 -6.26762060554044 2.144530837675856 1 1 0
268 90 2 -1.1794 -9.1140745384286 -7.155814383740363 2.3861626838525605 1 1 0
282 94 1 0.5897 -10.535800255382256 -4.278768839814526 1.3554403313668388 1 1 0
298 100 2 -1.1794 -5.829267477663554 -7.285101057954276 3.7692170070916173 1 1 0
107 36 1 0.5897 -9.433292906070047 1.497249348359059 3.0131663022283783 1 0 0
314 105 1 0.5897 -8.586108189218974 -6.958390828271444 4.3650210390436195 1 1 0
299 100 1 0.5897 -6.5296935078566465 -7.909222135095396 3.9594993632138666 1 1 0
258 86 1 0.5897 -12.563881112609923 -3.032381137069227 0.8015940123109093 1 1 0
163 55 2 -1.1794 -6.9478053404164175 -8.174034614477382 0.6477875676422129 1 1 0
164 55 1 0.5897 -6.284265238714564 -8.539357963014993 1.2330828277830446 1 1 0
323 108 1 0.5897 -6.258525133167362 -5.613894007570526 3.0999205114906636 1 1 0
75 25 1 0.5897 -9.206879900182578 -3.6517106980802234 4.359084488413792 1 0 0
59 20 1 0.5897 -13.719473802520655 -0.7854184148188263 3.0527469442175454 1 0 0
281 94 1 0.5897 -9.126966001830079 -3.731782478793745 1.264061522457322 1 1 0
301 101 2 -1.1794 -8.208848530859074 -2.0197971211884367 1.3972133128059652 1 1 0
417 139 1 0.5897 -9.213810491265832 1.0362135199129234 5.360725600435239 1 0 0
322 108 2 -1.1794 -6.554073687329486 -4.779972804353917 2.7345824641697365 1 1 0
68 23 1 0.5897 -11.200299740065894 -2.4220639969869797 4.429266153665358 1 0 0
53 18 1 0.5897 -12.304360833493645 1.0342402051835062 2.159395679305184 1 0 0
272 91 1 0.5897 -9.757530101191003 -1.01571833861383 0.9442071368836256 1 1 0
256 86 2 -1.1794 -12.248394380630861 -3.561043049915064 1.5345132284676044 1 1 0
84 28 1 0.5897 -8.393057600522402 -0.5043290195533565 3.9265205694929457 1 0 0
54 18 1 0.5897 -11.840175993497072 -0.37606200911564436 1.8636964633833661 1 0 0
82 28 2 -1.1794 -9.24823316737367 -0.08740021979222945 4.032547368579916 1 0 0
83 28 1 0.5897 -9.875562579123788 -0.808096518853306 3.974634449143383 1 0 0
271 91 2 -1.1794 -10.607909717809614 -0.9178953080148169 0.5156203831312781 1 1 0
98 33 1 0.5897 -12.10697836198586 0.40725152451561364 4.241951481702181 1 0 0
52 18 2 -1.1794 -12.330072967818433 0.14118875805400144 2.5029309767521135 1 0 0
67 23 2 -1.1794 -10.622483457792113 -2.404221238794948 3.6664068604328897 1 0 0
69 23 1 0.5897 -11.17507684116387 -2.6931151564912366 2.9402150373484277 1 0 0
261 87 1 0.5897 -7.075180163086861 -5.033133790623287 0.9329464259349605 1 1 0
99 33 1 0.5897 -11.979500290823802 1.572923614066962 5.199328020190019 1 0 0
97 33 2 -1.1794 -12.039014087443604 0.6179462513177558 5.173103670563515 1 0 0
260 87 1 0.5897 -6.990724386514639 -6.3630967249172485 0.21478750915338832 1 1 0
315 105 1 0.5897 -8.446414914914682 -5.849059757098685 5.385541105085872 1 1 0
275 92 1 0.5897 -10.660715096684406 -7.830904984429171 2.886662633556776 1 1 0
313 105 2 -1.1794 -8.632050240850589 -6.784619829937733 5.305086291832196 1 1 0
633 211 1 0.5897 -5.786541357011389 -6.436283453456738 5.2228237051296835 1 1 0
259 87 2 -1.1794 -7.032950469578055 -5.419707731689764 0.05839909447001977 1 1 0
367 123 2 -1.1794 -12.880540618168041 -2.6890919780115237 5.369008492535788 1 0 0
165 55 1 0.5897 -7.121911028683801 -8.872398818616977 0.016837121003206917 1 1 0
302 101 1 0.5897 -7.772615292504948 -1.962238841731062 2.2472379351768756 1 1 0
1010 337 1 0.5897 -13.226819719758502 1.454004706380589 -0.017283739430459025 0 -1 1
369 123 1 0.5897 -12.868590925253802 -2.319243377241837 6.25168263804855 1 0 0
420 140 1 0.5897 -9.296725744026357 -6.688122392655675 9.63035207939447 1 0 0
618 206 1 0.5897 -7.700614028055631 -7.8003940839674835 6.593025709970849 1 1 0
413 138 1 0.5897 -7.5951694207557185 -3.9467384418683693 7.54885761641689 1 0 0
419 140 1 0.5897 -8.986493316848575 -5.668505827633033 8.555231026225528 1 0 0
418 140 2 -1.1794 -9.700585551272844 -6.0026734405882 9.098082347102348 1 0 0
414 138 1 0.5897 -6.911045323560639 -5.264676218425737 7.254048098325864 1 0 0
427 143 2 -1.1794 -6.133218093452488 -7.054618019772798 9.579038868628865 1 0 0
350 117 1 0.5897 -7.172106950545661 -4.877427801369219 9.981357997231827 0 0 0
412 138 2 -1.1794 -7.6131236404920735 -4.876390721005252 7.776116915158578 1 0 0
429 143 1 0.5897 -6.555417401141625 -7.424237353351187 8.803614142620388 1 0 0
425 142 1 0.5897 -7.697975761600518 -1.3579851046383808 6.815238148369482 1 0 0
428 143 1 0.5897 -6.786553527657517 -7.143140275674215 10.272970291802375 1 0 0
411 137 1 0.5897 -13.617312265332682 -0.10207904195944728 5.981859610338169 1 0 0
627 209 1 0.5897 -10.196590397196443 -6.789049239323649 6.278821431192312 1 1 0
626 209 1 0.5897 -10.594529722918303 -6.607570663763712 7.7280260759410435 1 1 0
410 137 1 0.5897 -13.761752309510669 0.26573468468977346 7.443122045456417 1 0 0
527 176 1 0.5897 -12.173129591834504 1.706180607007978 8.270002726863925 1 0 0
526 176 2 -1.1794 -12.911999170262167 1.224249777605385 8.64167257699404 1 0 0
426 142 1 0.5897 -9.064418316336713 -1.8996217974607505 7.178224471971503 1 0 0
402 134 1 0.5897 -10.964676263677468 -0.3898936136896882 6.494951816773285 1 0 0
401 134 1 0.5897 -11.423229774877111 -0.977856342549476 7.812399489555965 1 0 0
400 134 2 -1.1794 -10.646416130832145 -0.8599402431019207 7.265631585375528 1 0 0
537 179 1 0.5897 -9.362149422579098 -0.5321479231135182 8.771640724345504 1 0 0
536 179 1 0.5897 -9.704533815183916 0.029254305197039088 10.13511717201832 1 0 0
535 179 2 -1.1794 -8.962574705252695 -0.20347052804375565 9.576893507554072 1 0 0
528 176 1 0.5897 -12.540478617073935 0.7536032270904869 9.387762520044701 1 0 0
424 142 2 -1.1794 -8.145858326546247 -2.1561861598208463 7.0954546313993285 1 0 0
351 117 1 0.5897 -6.8684836537584335 -3.490047787706862 10.505530711607395 0 0 0
349 117 2 -1.1794 -7.102442183405003 -4.372966939701287 10.791742429467591 0 0 0
435 145 1 0.5897 -7.488951905934815 -1.2979497387968841 9.934109854073489 0 0 0
616 206 2 -1.1794 -7.491777626024232 -8.262213484267733 7.404971976487824 1 1 0
415 139 2 -1.1794 -9.025057926779038 1.6638867395540995 6.058226410528424 1 0 0
835 279 2 -1.1794 -11.37536768473171 -0.03960152019044294 10.777608985937349 1 0 0
408 136 1 0.5897 -11.26514172236254 -5.141454341559054 9.575207038652481 1 0 0
631 211 2 -1.1794 -5.648272105703818 -5.901295504899419 6.004320935845673 1 1 0
836 279 1 0.5897 -11.489439020400555 -0.980186148460124 10.913641061144851 1 0 0
74 25 1 0.5897 -8.339224989757533 -3.310913297773487 5.5519239204822535 1 0 0
652 218 2 -1.1794 -5.85430510099004 -5.826850232643386 12.9339925016832 0 0 0
780 260 1 0.5897 -7.800172671498279 -4.18757567910572 15.230888339579156 0 0 0
779 260 1 0.5897 -7.432775423683014 -3.3558451421394784 14.020545567549359 0 0 0
778 260 2 -1.1794 -8.159081890301923 -3.83872257044547 14.415028106316436 0 0 0
768 256 1 0.5897 -9.752665441493807 -2.8627418599402183 15.061428769294006 0 0 0
654 218 1 0.5897 -6.213533514766004 -5.327985620837598 12.200309092663277 0 0 0
653 218 1 0.5897 -6.622984429908396 -6.127981348330082 13.418526364979574 0 0 0
791 264 1 0.5897 -10.894573635099603 -0.7484482528651029 13.999690939706579 0 0 0
662 221 1 0.5897 -9.331793612361334 -4.354160057637783 12.942844202097938 0 0 0
865 289 2 -1.1794 -13.132180816939222 1.0677648117018261 15.367278051034598 0 0 0
767 256 1 0.5897 -11.2548858208479 -2.961624253243066 14.900165206834993 0 0 0
661 221 2 -1.1794 -9.755712157554141 -4.66109003895035 12.141445816335038 0 0 0
740 247 1 0.5897 -11.24757216693605 -3.227966898971948 12.07009134702229 1 0 0
663 221 1 0.5897 -9.09890165608433 -4.53037458251415 11.457529873874135 0 0 0
727 243 2 -1.1794 -8.430381269542561 -7.787993534720919 11.036769107624476 1 0 0
896 299 1 0.5897 -8.081921087681483 2.5606524892669693 15.820376331910161 0 0 0
766 256 2 -1.1794 -10.537494950069851 -2.3289076749871604 14.937148784110269 0 0 0
684 228 1 0.5897 -8.885359777144163 -6.985244909150518 14.321823671688787 0 0 0
888 296 1 0.5897 -11.043670490155963 3.248688279245565 15.156590018279749 0 0 0
1101 367 1 0.5897 -10.59319338176666 -1.1727037213332618 16.245945811402848 0 0 0
837 279 1 0.5897 -11.255436964971564 0.3173193866921835 11.657541103246464 1 0 0
790 264 2 -1.1794 -11.122802431882219 0.07702867144480585 13.572232923137713 0 0 0
866 289 1 0.5897 -13.024096087933536 1.6118561929511586 16.14725493662442 0 0 0
792 264 1 0.5897 -11.798585485382006 0.45868413023107024 14.132500221907062 0 0 0
762 254 1 0.5897 -9.56426801690714 2.311061925155288 12.392647210111113 0 0 0
761 254 1 0.5897 -9.697696666864111 1.186520529609675 13.39731011127474 0 0 0
760 254 2 -1.1794 -9.052790178456842 1.7639511611771557 12.988739913193358 0 0 0
729 243 1 0.5897 -8.237700048457187 -7.450798949656166 11.911553017959179 1 0 0
682 228 2 -1.1794 -8.123689243448446 -7.263165244594377 13.812988458999403 0 0 0
769 257 2 -1.1794 -12.577691477957803 2.771976958356408 12.169087307044547 0 0 0
758 253 1 0.5897 -9.963647345300515 -5.711159124283499 16.09743755364923 0 0 0
739 247 2 -1.1794 -11.83943251179242 -2.7645924877951993 11.477406941982606 1 0 0
788 263 1 0.5897 -5.480999470508683 -4.544804702420306 15.899526344857636 0 0 0
1196 399 1 0.5897 -9.953183337191785 1.2488856938537243 16.348519220283656 0 0 0
1195 399 2 -1.1794 -10.043343736046609 2.1962273823017746 16.24540674585561 0 0 0
772 258 2 -1.1794 -6.263997542276673 -2.190213856119157 13.646903881349315 0 0 0
789 263 1 0.5897 -5.265331207056762 -4.745027757371064 14.414667184273158 0 0 0
857 286 1 0.5897 -13.6248386399396 1.0793568805225568 12.293480524698797 1 0 0
770 257 1 0.5897 -12.342884402197058 3.0462243625428407 13.055503954739256 0 0 0
1099 367 2 -1.1794 -10.32785266937548 -0.5372019273126067 16.910670661227478 0 0 0
1150 384 2 -1.1794 -6.333030325992795 -4.993632842641754 19.37233585510672 0 0 0
1131 377 1 0.5897 -7.436731544361964 -1.9153129062172667 17.458451367148093 0 0 0
1121 374 1 0.5897 -5.13702640736708 -3.691054680751253 18.715305163253753 0 0 0
1108 370 2 -1.1794 -9.70908336793856 -4.5397948694016 17.467908090624903 0 0 0
1152 384 1 0.5897 -6.9704805845767215 -4.5523826551389295 19.93375026042238 0 0 0
1227 409 1 0.5897 -9.326595749103442 -3.635263222280031 20.91213766068703 0 0 0
1251 417 1 0.5897 -11.909148826595569 1.7286054955998829 21.470128727256913 0 0 0
1218 406 1 0.5897 -13.565981118313093 2.750396475622569 17.592624604348245 0 0 0
1109 370 1 0.5897 -9.037622542527416 -3.887537235495362 17.667949750898607 0 0 0
1130 377 1 0.5897 -7.820426393850023 -1.847330072430898 18.92120211808193 0 0 0
1089 363 1 0.5897 -6.658472879489533 -4.914007169785574 17.631894591311323 0 0 0
1219 407 2 -1.1794 -10.738692311128947 -2.6657711808297275 20.540204790353023 0 0 0
1151 384 1 0.5897 -6.126290005642847 -5.805281036285441 19.83570291649201 0 0 0
1246 416 2 -1.1794 -6.642840498063814 -1.057345391725768 20.16557677575475 0 0 0
1129 377 2 -1.1794 -8.175696959968452 -2.0409504115140296 18.05379013142933 0 0 0
1087 363 2 -1.1794 -6.923739344170161 -4.851844463920761 16.714355222868768 0 0 0
1204 402 2 -1.1794 -12.220872053412231 0.16292615779215325 18.760816207770333 0 0 0
1097 366 1 0.5897 -9.631384874066384 -6.060833089661056 18.499961529340375 0 0 0
1009 337 2 -1.1794 -11.700330007066857 3.5116711860684298 21.146688153010864 0 -1 0
1225 409 2 -1.1794 -8.399731480014477 -3.81452438944408 21.07098940380027 0 0 0
1110 370 1 0.5897 -10.53212271205649 -4.051384927802676 17.488909288744154 0 0 0
1143 381 1 0.5897 -8.750709020238357 -5.642188972302293 21.48134222422371 0 0 0
1250 417 1 0.5897 -12.048078076286162 0.5510348803444778 20.529041341523694 0 0 0
1260 420 1 0.5897 -10.298812435999727 2.848942966198573 20.079352418571318 0 0 0
1259 420 1 0.5897 -9.658707277274972 1.5697832099288078 19.58351607272803 0 0 0
1258 420 2 -1.1794 -9.693141305449707 2.5121240110036034 19.41911691759971 0 0 0
1217 406 1 0.5897 -12.136939578227148 3.1785474376922203 17.85122547816372 0 0 0
1248 416 1 0.5897 -6.163906202796489 -1.7177164429244165 20.666373911040104 0 0 0
1236 412 1 0.5897 -8.319852132177926 -0.6790161428340511 20.382776231697534 0 0 0
1216 406 2 -1.1794 -12.65786786268285 2.4873130415171083 17.442508644028557 0 0 0
1235 412 1 0.5897 -9.771479612781782 -1.0935964004597984 20.49805143392244 0 0 0
1234 412 2 -1.1794 -9.188739848438598 -0.3410620620221252 20.600041022517203 0 0 0
1197 399 1 0.5897 -10.318760808345672 2.506360026020886 17.10797644759078 0 0 0
1100 367 1 0.5897 -9.593423809386287 -0.9539518577407389 17.361544135755793 0 0 0
1206 402 1 0.5897 -11.540872264793231 -0.2763190670111886 18.250012779116425 0 0 0
273 91 1 0.5897 -8.975467681455669 0.9898586769369473 21.807411251707165 1 1 -1
1205 402 1 0.5897 -12.357007558156589 0.9973018909154714 18.3119379612951 0 0 0
1226 409 1 0.5897 -8.115607393918715 -3.110622328125915 21.65404096373048 0 0 0
1229 410 1 0.5897 -8.320997697962039 3.5082750478578504 18.804423863743843 0 0 0
1249 417 2 -1.1794 -12.070092521898324 0.7851355977582628 21.456811598146025 0 0 0
1096 366 2 -1.1794 -9.34063573431109 -6.910617427695341 18.830990191808276 0 0 0
1141 381 2 -1.1794 -8.99626852746184 -6.567097650685479 21.50311783764549 0 0 0
1221 407 1 0.5897 -11.062574524047179 -2.7060669805050637 19.640428148415687 0 0 0
1011 337 1 0.5897 -12.4115669696753 3.92767371340282 20.65942567349893 0 -1 0
44 15 1 0.5897 -8.542250395109185 3.457230232767527 21.883742598632494 1 0 -1
1088 363 1 0.5897 -7.232224526117713 -5.730682194830352 16.493684939052145 0 0 0
40 14 2 -1.1794 -15.23626662147949 3.639395778519944 1.603823287161894 1 0 0
149 50 1 0.5897 -19.095800218876786 10.848482331468343 2.095750558457677 1 0 0
216 72 1 0.5897 -13.49898856538504 9.9737766608798 3.268081787069192 1 0 0
177 59 1 0.5897 -14.246199530947473 4.260851692258436 3.0810036008416497 1 0 0
153 51 1 0.5897 -13.18390180215659 9.38377378640202 0.999445975730838 1 0 0
56 19 1 0.5897 -12.800392024050133 5.961656887450671 1.1204425414039267 1 0 0
284 95 1 0.5897 -17.83007473859748 11.917459806139721 4.401244315765115 1 0 0
66 22 1 0.5897 -13.655650558353475 2.9624564559521414 1.5441188211896093 1 0 0
65 22 1 0.5897 -12.204429205408632 3.3643434182807184 1.3865352467974026 1 0 0
64 22 2 -1.1794 -12.779575211266081 2.5996115752715028 1.4128329071426504 1 0 0
181 61 2 -1.1794 -11.49533076348636 3.4452043690390255 4.698591230129469 1 0 0
167 56 1 0.5897 -16.901896270947788 6.165912903728712 3.3310630388470264 1 0 0
191 64 1 0.5897 -12.965929470258569 6.083238116994336 4.116342387752792 1 0 0
183 61 1 0.5897 -12.397808799049846 3.6426169459736357 4.4476033799779895 1 0 0
175 59 2 -1.1794 -13.820767922594595 4.594303119761436 3.8709189967942104 1 0 0
206 69 1 0.5897 -15.296581965867182 7.448642773262662 4.689526147432697 1 0 0
85 29 2 -1.1794 -11.310882365433773 4.924540661525429 1.394019792169059 1 0 0
285 95 1 0.5897 -17.454259634898975 11.86651991199751 2.935756233948739 1 0 0
176 59 1 0.5897 -14.526355853420496 4.658026265899224 4.514607408769213 1 0 0
55 19 2 -1.1794 -13.580465701554484 6.384577588676706 0.7612720786390097 1 0 0
160 54 2 -1.1794 -15.400517765166633 7.349620173378295 2.659398741262105 1 0 0
194 65 1 0.5897 -13.987098565362999 12.03043386646993 2.6287277879996083 1 0 0
174 58 1 0.5897 -16.919903292457818 10.233739708608155 1.3820761087080555 1 0 0
173 58 1 0.5897 -15.469652864295188 10.469536485001154 1.7475580311393155 1 0 0
172 58 2 -1.1794 -16.095354689484672 9.774684763381636 1.5426619672247384 1 0 0
161 54 1 0.5897 -15.739406728002024 8.130585656692123 2.2217990803600247 1 0 0
192 64 1 0.5897 -11.511961597231494 6.40538091375427 3.843256764203782 1 0 0
148 50 2 -1.1794 -18.440155855232167 11.180889969749561 1.4826518453225388 1 0 0
42 14 1 0.5897 -15.512217328757696 4.0005956920708545 0.7614878576724643 1 0 0
108 36 1 0.5897 -10.168545436078542 2.817276792990503 3.1075858576015354 1 0 0
150 50 1 0.5897 -18.94932732413602 11.507825887787483 0.7409749671406538 1 0 0
162 54 1 0.5897 -14.76535403670216 6.985503623039108 2.0428177169253443 1 0 0
283 95 2 -1.1794 -17.1585098331623 12.20275799245854 3.7816770052823214 1 0 0
291 97 1 0.5897 -15.771843815408516 10.974314167291478 4.421124785561053 1 0 0
289 97 2 -1.1794 -14.957692128445071 10.490181501246315 4.559576671770194 1 0 0
215 72 1 0.5897 -12.71988400873405 8.680654408536316 3.381402763906734 1 0 0
190 64 2 -1.1794 -12.317398754569536 6.782654582463255 4.197152106727495 1 0 0
57 19 1 0.5897 -13.969660636695838 5.723687870739246 0.18862563560980256 1 0 0
152 51 1 0.5897 -13.26565496024038 8.072537104623667 0.24735546695835686 1 0 0
193 65 2 -1.1794 -14.205918342718917 11.768334165970387 1.7345815087500533 1 0 0
207 69 1 0.5897 -14.928109041855386 8.795979223419373 5.273207069570452 1 0 0
45 15 1 0.5897 -9.78935890856117 2.074421426523754 0.7085013577967645 1 0 0
1118 373 1 0.5897 -16.15584738058095 8.463794091237077 0.24916476719580782 0 -1 1
151 51 2 -1.1794 -13.157992184692688 9.014649027801973 0.11676495728401498 1 0 0
290 97 1 0.5897 -14.498149482982587 10.982734973204238 5.239570661259147 1 0 0
508 170 2 -1.1794 -13.85960541940262 6.166359770236115 7.260232184699831 1 0 0
567 189 1 0.5897 -13.5823918092429 11.27571249628527 10.89241884108687 0 0 0
644 215 1 0.5897 -12.89249464401093 7.230789980407394 10.114608474095041 1 0 0
643 215 2 -1.1794 -12.193369857133035 7.152739079333806 9.465476717639476 1 0 0
521 174 1 0.5897 -10.968656292206564 3.6380879678056353 7.494662922953587 1 0 0
510 170 1 0.5897 -14.32147600104566 6.791713551645856 6.701786082792542 1 0 0
617 206 1 0.5897 -17.69774229836405 12.982154750882092 7.714697883552369 1 0 0
509 170 1 0.5897 -14.55269119548448 5.728989857852406 7.754821010375172 1 0 0
458 153 1 0.5897 -10.581133629341428 2.886461053997605 9.853229387797304 0 0 0
532 178 2 -1.1794 -11.274511679109331 5.197849098724074 6.761517225150173 1 0 0
636 212 1 0.5897 -15.546281141700721 7.961362843510102 9.837507461742339 1 0 0
534 178 1 0.5897 -12.144632817280126 5.589380636925583 6.684007338319123 1 0 0
543 181 1 0.5897 -10.715299342456305 5.954793102921341 9.566624977320819 0 0 0
565 189 2 -1.1794 -13.76344172954797 10.335818081340442 10.898545429497085 0 0 0
645 215 1 0.5897 -12.64566349563145 6.932014964405514 8.651305530271422 1 0 0
519 173 1 0.5897 -16.84674171663753 7.124381395169216 6.5029437320772665 1 0 0
635 212 1 0.5897 -15.18617301533029 8.945367874652483 8.744905287292408 1 0 0
522 174 1 0.5897 -10.15000389662613 2.389197940551508 7.245621249086515 1 0 0
634 212 2 -1.1794 -15.930221559016115 8.487406205732853 9.136019136653452 1 0 0
640 214 2 -1.1794 -14.373433932221648 12.14399576583169 6.820040730341977 1 0 0
630 210 1 0.5897 -13.134310069168631 9.405368015045916 7.639716578845279 1 0 0
629 210 1 0.5897 -13.990837105227827 10.653685209350833 7.631110151139127 1 0 0
628 210 2 -1.1794 -13.798607046828707 9.871116975914234 8.147679202694155 1 0 0
566 189 1 0.5897 -13.870695870715837 10.106086937623669 9.975624979476919 0 0 0
642 214 1 0.5897 -15.275319405453391 12.425901942261198 6.97348892617639 1 0 0
533 178 1 0.5897 -10.671522001950182 5.938791864062436 6.70062469531984 1 0 0
520 174 2 -1.1794 -10.758592268076669 2.783221545684512 7.870563042955703 1 0 0
459 153 1 0.5897 -10.050206887533447 4.0861352407589 10.608645708331874 0 0 0
641 214 1 0.5897 -13.858578522337735 12.949509273683876 6.86844637126438 1 0 0
327 109 1 0.5897 -13.965845261656305 13.353738072148825 9.723463724297488 0 -1 0
457 153 2 -1.1794 -10.314489249683819 3.173712734792719 10.726428752468173 0 0 0
205 69 2 -1.1794 -15.089528790650593 7.884321320083533 5.516207187332131 1 0 0
525 175 1 0.5897 -11.79562887143117 7.997135088086441 5.518190936559248 1 0 0
182 61 1 0.5897 -11.34424154653449 3.9708516230462862 5.484047477068615 1 0 0
879 293 1 0.5897 -15.229782427331443 10.2397384856489 11.93190034119785 0 0 0
876 292 1 0.5897 -13.173286701366267 4.487210470495011 14.569077186484176 0 0 0
771 257 1 0.5897 -11.881464882601406 3.1264363205889403 11.615995750285181 0 0 0
874 292 2 -1.1794 -14.086580167926948 4.773228603078383 14.54625744954867 0 0 0
898 300 2 -1.1794 -14.419101996057307 7.461669132143857 13.895735708934453 0 0 0
945 315 1 0.5897 -14.47716979929782 7.315252795860481 11.954442400249134 1 0 0
900 300 1 0.5897 -15.122643044662814 7.750448406433428 14.477002432844117 0 0 0
899 300 1 0.5897 -14.372228097307495 6.514773252668073 14.027693968359198 0 0 0
956 319 1 0.5897 -17.3634451265308 10.988386564689868 12.077932421097747 1 0 0
943 315 2 -1.1794 -14.530168936799694 7.021239637829986 11.045161168732283 1 0 0
683 228 1 0.5897 -17.224828147649713 13.483543160882807 14.208522989839219 0 -1 0
877 293 2 -1.1794 -15.91885217561957 10.023082169035192 12.559987880089441 0 0 0
869 290 1 0.5897 -12.904876651196101 8.439410437454775 13.262314057309188 0 0 0
870 290 1 0.5897 -12.683357600432938 9.384024973897063 12.100278060954476 0 0 0
868 290 2 -1.1794 -12.214677064741728 8.869673039784566 12.757545295549193 0 0 0
848 283 1 0.5897 -14.024961069415264 3.8847834827923577 11.909623933844006 1 0 0
878 293 1 0.5897 -15.565900205353296 10.295882536747833 13.406799891595194 0 0 0
658 220 2 -1.1794 -16.983100792911575 11.93997742306987 15.128190604995378 0 -1 0
672 224 1 0.5897 -14.04986824658619 10.271024976082657 15.34782327132969 0 -1 0
671 224 1 0.5897 -13.619222509830031 11.138934028262128 14.184636456976287 0 -1 0
670 224 2 -1.1794 -14.395637991311766 10.78181190615462 14.615884400654126 0 -1 0
660 220 1 0.5897 -16.118565475521393 11.62618923038562 14.862673499283115 0 -1 0
944 315 1 0.5897 -14.6411211758805 6.072435556506045 11.105817293741548 1 0 0
887 296 1 0.5897 -10.602321616835464 4.284850877551547 14.144981669269796 0 0 0
886 296 2 -1.1794 -11.383410189331627 3.8814915272830355 14.523855832943214 0 0 0
680 227 1 0.5897 -11.433523712050803 9.337594977741198 15.591147959019423 0 -1 0
659 220 1 0.5897 -17.549873259222004 11.171962579580981 15.056058205334566 0 -1 0
728 243 1 0.5897 -17.976799005713392 12.860128899649037 11.17277021230052 1 -1 0
847 283 2 -1.1794 -14.846037302474747 4.300211464772174 11.64571510214903 1 0 0
681 227 1 0.5897 -11.297526753509498 9.479611015205325 14.09021462399189 0 -1 0
875 292 1 0.5897 -14.592973859298608 3.9687967404670452 14.65905155924236 0 0 0
1209 403 1 0.5897 -13.638411132934241 5.507356003419112 16.3163195037856 0 0 0
1018 340 2 -1.1794 -12.200103517144788 7.087182838482342 20.615425818363782 0 -1 0
1019 340 1 0.5897 -12.728987323213504 6.430055447518779 20.162992997480515 0 -1 0
1020 340 1 0.5897 -11.31793794904458 6.715791918126875 20.631624545936198 0 -1 0
1098 366 1 0.5897 -18.08521480422093 14.352202905652838 18.172564251437016 0 -1 0
1113 371 1 0.5897 -17.259200729437246 11.830790934636788 19.74612227945392 0 -1 0
1030 344 2 -1.1794 -9.64987412640141 5.9525933573784044 20.006719055670466 0 -1 0
1207 403 2 -1.1794 -13.396434884836138 6.132915009071269 16.99913864263806 0 0 0
1237 413 2 -1.1794 -11.04686753294472 4.717277884561671 17.873175444399536 0 0 0
1208 403 1 0.5897 -12.605873244840295 5.764102089130809 17.393314371501745 0 0 0
1238 413 1 0.5897 -10.7809182652102 5.115279298217072 18.702003130152974 0 0 0
1239 413 1 0.5897 -10.36313961975268 4.973012336540489 17.25401367470007 0 0 0
990 330 1 0.5897 -14.589770558204556 7.089151666959651 18.814729900660048 0 -1 0
991 331 2 -1.1794 -16.60163253018282 13.756370669868303 17.120997716963352 0 -1 0
1043 348 1 0.5897 -12.65232634648473 8.662172030842203 19.636664996122462 0 -1 0
1042 348 2 -1.1794 -12.643131339099918 9.552902920139577 19.286332862335826 0 -1 0
992 331 1 0.5897 -15.793820563638691 13.477674608699658 17.55245460056002 0 -1 0
1140 380 1 0.5897 -12.47425545909978 12.364899986440228 20.38519566953824 0 -1 0
1126 376 2 -1.1794 -15.203291909047014 14.137613749451553 20.380789946875176 0 -1 0
1128 376 1 0.5897 -14.400088760248325 13.720505509432375 20.06898973609195 0 -1 0
980 327 1 0.5897 -13.304407362199601 7.897814365124177 16.638726487313434 0 -1 0
1002 334 1 0.5897 -16.805679737974287 10.09916794298913 18.053326936344362 0 -1 0
1138 380 2 -1.1794 -12.828886548742538 12.826775550845458 19.6255440685677 0 -1 0
1117 373 2 -1.1794 -14.767732631838562 10.666797118949127 21.357355391507085 0 -1 0
1127 376 1 0.5897 -15.82083248176999 13.414991554749953 20.493807489269024 0 -1 0
1022 341 1 0.5897 -13.97333128758266 12.308499005923693 18.463065443900256 0 -1 0
1119 373 1 0.5897 -15.57425476118533 11.121333953586749 21.113800669650786 0 -1 0
1003 335 2 -1.1794 -13.854013498133245 5.031741910089627 19.987808242899916 0 -1 0
1044 348 1 0.5897 -13.227859171318933 10.043899709275227 19.863590192303747 0 -1 0
1111 371 2 -1.1794 -16.940814709647434 12.0083232051043 20.63112328315657 0 -1 0
1000 334 2 -1.1794 -15.912013493789164 9.759225322791906 18.006271525053492 0 -1 0
1001 334 1 0.5897 -15.366535066036073 10.53507303838009 17.87664516623277 0 -1 0
1032 344 1 0.5897 -9.173613897522804 5.305047927333257 20.526463267505648 0 -1 0
1023 341 1 0.5897 -13.81913854197969 12.205081030653407 16.96074259921989 0 -1 0
1021 341 2 -1.1794 -14.431981585246923 12.022725182866477 17.673040588374114 0 -1 0
981 327 1 0.5897 -13.007710575376706 9.194004142225985 17.362300277547114 0 -1 0
1142 381 1 0.5897 -18.175314653851842 14.69256670688775 20.619554878504623 0 -1 0
650 217 1 0.5897 -16.332667854297476 8.787378087949765 16.688524912528877 0 -1 0
1005 335 1 0.5897 -14.221089309014882 4.643259631174889 19.19379163199649 0 -1 0
989 330 1 0.5897 -15.497876793233115 8.300178926572812 18.785730835831707 0 -1 0
988 330 2 -1.1794 -15.429010442827297 7.414046098587768 19.141041277006728 0 -1 0
1013 338 1 0.5897 -11.320321743222374 10.443181741275176 18.458777884607102 0 -1 0
993 331 1 0.5897 -16.77053167773897 13.078372550685561 16.466853035849084 0 -1 0
1035 345 1 0.5897 -14.925395676142173 8.85491774052602 21.80689859086533 0 -1 0
1033 345 2 -1.1794 -15.027001081660666 7.903279321430517 21.823483223711335 0 -1 0
43 15 2 -1.1794 -8.16375366187075 4.325676266710886 21.74671204613758 1 0 -1
979 327 2 -1.1794 -13.044087023136765 8.806500563708624 16.48790110319888 0 -1 0
303 101 1 0.5897 -7.505795500952184 -1.9020200374697032 0.7584036705690564 1 1 0
242 81 1 0.5897 -1.1510692790175057 -6.671492087302703 4.45454102034741 0 1 0
309 103 1 0.5897 -2.5926406832055253 -1.4468314129099893 0.3515988905724512 1 1 0
305 102 1 0.5897 -1.5110761870452762 -6.195290654256964 2.295435654641124 1 1 0
1177 393 2 -1.1794 -2.9575560332853907 -8.965786429403241 0.10983804530938274 0 0 1
318 106 1 0.5897 -2.774698064216911 -4.112269804249832 1.6747694921010539 1 1 0
304 102 2 -1.1794 -1.349542079916855 -7.045854995909849 2.7036878758548935 1 1 0
88 30 2 -1.1794 -4.615386784324259 0.04383462041224995 2.6996593484741043 1 0 0
311 104 1 0.5897 -2.7244176415549504 -8.159176983332252 3.5042359660431974 1 1 0
104 35 1 0.5897 -3.654046578369428 -2.661465568559093 4.585441976316989 1 0 0
306 102 1 0.5897 -0.6223289464953119 -7.417535309521599 2.204431005023894 1 1 0
316 106 2 -1.1794 -1.87438520452298 -4.433676003043951 1.6241576766100185 1 1 0
26 9 1 0.5897 -4.3355947344474 0.5046650426576988 4.388587331948517 0 0 0
94 32 2 -1.1794 -6.756003624453554 -1.4420976524380373 3.6749198966849312 1 0 0
293 98 1 0.5897 -5.334451711444336 -3.6594541828049456 1.8858201162719188 1 1 0
95 32 1 0.5897 -5.997632623093224 -1.0516975141385743 3.240430692981288 1 0 0
310 104 2 -1.1794 -3.4377198696906923 -8.645489178379245 3.9177755674211703 1 1 0
96 32 1 0.5897 -6.3854331536669635 -1.9361433725875834 4.406223993390675 1 0 0
294 98 1 0.5897 -4.8190920725835955 -2.7882710841403124 0.7601296423860315 1 1 0
103 35 2 -1.1794 -2.934594871949331 -2.2798547008872463 4.082396738647666 1 0 0
90 30 1 0.5897 -3.9182156605444654 -0.26306289277637696 2.1199907671708877 1 0 0
105 35 1 0.5897 -3.225208669290687 -2.3306175292617466 3.171865024607411 1 0 0
292 98 2 -1.1794 -4.528523754980286 -3.2993527554189592 1.5154754084909232 1 1 0
89 30 1 0.5897 -4.827242378138522 0.9199073517692842 2.377410734899598 1 0 0
27 9 1 0.5897 -4.071841145368893 1.7036392838948906 5.274325939816227 0 0 0
3 1 1 0.5897 -1.3929895506254688 -3.2817397869159883 4.591255979033066 0 0 0
241 81 2 -1.1794 -1.2237309012530293 -6.3834483030684925 5.364368257390562 0 1 0
300 100 1 0.5897 -5.027011838789297 -7.806125490389906 3.8054154900270554 1 1 0
25 9 2 -1.1794 -4.486677248048589 0.8409955089319094 5.271825351057296 0 0 0
243 81 1 0.5897 -1.078230303227354 -5.438040019226552 5.3291149763697385 0 1 0
317 106 1 0.5897 -1.3340190184286627 -3.6614898699729315 1.791500462535497 1 1 0
199 67 2 -1.1794 0.34258274508344044 -8.10962255268744 0.6831166163408817 1 1 0
464 155 1 0.5897 -2.154690738232322 -0.07851630746158733 10.211637537856072 0 0 0
359 120 1 0.5897 -4.61164063112585 -3.2805476510789457 8.730247691974926 0 0 0
334 112 2 -1.1794 -4.200782291163107 -4.7454901513282515 9.48192007843386 0 0 0
335 112 1 0.5897 -4.884217980090558 -5.405884555021702 9.367358981443022 0 0 0
555 185 1 0.5897 -2.872725914466689 -6.856485104775211 6.075398239939716 0 1 0
554 185 1 0.5897 -3.0429338988337244 -6.95136280516878 7.576558685841966 0 1 0
553 185 2 -1.1794 -3.49824652090747 -7.117656428815264 6.751207839472096 0 1 0