LAMMPS data file via write_data, version 30 Jul 2021, timestep = 4250000

972 atoms
2 atom types
648 bonds
1 bond types
324 angles
1 angle types

-0.08966020336045233 20.089661203360592 xlo xhi
-0.03946429625032444 20.039465296252747 ylo yhi
-0.27900528697527527 20.97900328697564 zlo zhi

Masses

1 1.008
2 15.999

Pair Coeffs # lj/cut/tip4p/long/omp

1 0 0
2 0.21084 3.1668

Bond Coeffs # harmonic/omp

1 450 0.9572

Angle Coeffs # harmonic/omp

1 55 104.52

Atoms # full

10 4 2 -1.1794 0.8761391283378652 4.398773202029627 3.6951837550899365 0 0 0
11 4 1 0.5897 0.8103551577975968 3.67629566320056 3.070709409959456 0 0 0
12 4 1 0.5897 1.7936331031628663 4.397695771407518 3.9676761153879028 0 0 0
4 2 2 -1.1794 3.81136633453698 1.1976401708138964 3.473357482052904 0 0 0
18 6 1 0.5897 3.7014785978959854 3.0775412706017984 3.558636351678925 0 0 0
31 11 2 -1.1794 0.7731977883088257 2.267228282287247 2.1263126092133566 0 0 0
32 11 1 0.5897 -0.036872980219618635 2.320640416933662 1.6192922769479396 0 0 0
126 42 1 0.5897 4.304752146592958 9.234763183562057 3.5539453315653016 0 0 0
236 79 1 0.5897 0.7772906546801952 0.45362506269287045 1.768651474563184 0 1 0
33 11 1 0.5897 1.4696931931931236 2.3502632603408506 1.4750184169423384 0 0 0
112 38 2 -1.1794 4.374799432096084 7.648828607143712 3.1990750353483577 0 0 0
1 1 2 -1.1794 2.788225479158887 2.5039019099105784 -0.03737840383623017 0 0 0
140 47 1 0.5897 0.7573849041661905 9.192570885104045 2.3481171298963734 0 0 0
5 2 1 0.5897 4.016797759200502 0.5411108037314294 2.807747998527307 0 0 0
110 37 1 0.5897 1.8043566321053763 9.27722363649649 0.36232422811345943 0 0 0
20 7 1 0.5897 0.5847244232711276 5.502466405000988 2.5054375380093323 0 0 0
23 8 1 0.5897 2.304863220940518 1.1318561226383155 4.514458327214128 0 0 0
674 225 1 0.5897 1.8633820693942895 5.349259026531981 0.3872130443830837 0 0 1
17 6 1 0.5897 4.196817862665645 4.303332146763463 2.8210527327854056 0 0 0
114 38 1 0.5897 3.514413571391046 7.502668273168931 3.5921090101174373 0 0 0
139 47 2 -1.1794 0.6734572321026625 8.811615481376961 1.4739512618987303 0 0 0
16 6 2 -1.1794 3.874232451110552 4.01195002041815 3.6738995468221787 0 0 0
15 5 1 0.5897 4.435262290887811 6.21525567180595 1.6251087671481512 0 0 0
19 7 2 -1.1794 0.4142679005326806 6.044664653942471 1.7351976674105596 0 0 0
141 47 1 0.5897 0.6236162055170276 7.868065148764177 1.6271538029900625 0 0 0
13 5 2 -1.1794 4.491010391374489 5.35545797751888 1.2080848454507929 0 0 0
14 5 1 0.5897 4.025793181103334 5.46060083909641 0.378149061172797 0 0 0
2 1 1 0.5897 2.6653166026936352 3.435360553144923 -0.22047879747892027 0 0 0
109 37 2 -1.1794 2.4826657778971497 9.60362507471346 -0.2288900805269341 0 0 0
3 1 1 0.5897 3.6878704810233685 2.4389388988341363 0.28278581991041707 0 0 0
111 37 1 0.5897 3.294828560364419 9.221756929610274 0.10379865896193502 0 0 0
6 2 1 0.5897 4.545846886307085 1.1566153659959664 4.085749481154718 0 0 0
132 44 1 0.5897 1.2111185989645448 7.629869580332089 4.980323325845853 0 0 0
325 109 2 -1.1794 2.675322107638855 2.738543173018215 7.23289926166175 0 0 0
326 109 1 0.5897 2.51253970202464 2.1228334793835018 6.518278128651445 0 0 0
327 109 1 0.5897 3.5985415981680284 2.6131932095931405 7.452024516869926 0 0 0
355 119 2 -1.1794 0.903840985868956 1.9763239455233377 8.943953738921035 0 0 0
356 119 1 0.5897 1.6024511264053514 2.299167964562408 8.374832114545049 0 0 0
131 44 1 0.5897 2.343604024228547 6.8520985805023145 5.616092732789058 0 0 0
27 9 1 0.5897 2.5398873306894476 4.488423648247508 6.575795481882056 0 0 0
345 115 1 0.5897 0.6021899470444899 6.348340344188617 8.979368120137819 0 0 0
464 155 1 0.5897 1.407759476346465 8.573767722723348 8.238357795056569 0 0 0
26 9 1 0.5897 1.5078626181425108 5.462203932927619 7.103422537275194 0 0 0
328 110 2 -1.1794 4.045824785924558 1.2725254167438884 10.282442589143615 0 0 0
344 115 1 0.5897 0.5508551976537887 4.95071701150314 9.559014757831482 0 0 0
342 114 1 0.5897 3.7744689372113593 4.524979988693646 10.084792775417336 0 0 0
433 145 2 -1.1794 2.749688318514241 9.381241218570517 7.261285496239436 0 0 0
25 9 2 -1.1794 2.288028565946282 5.411565387178908 6.551232219959042 0 0 0
463 155 2 -1.1794 0.7401631907000195 8.16757052169447 8.791063114657655 0 0 0
437 146 1 0.5897 4.020525330442866 7.486193920775714 9.981001405994439 0 0 0
343 115 2 -1.1794 0.3543963330346561 5.44883102618966 8.765541067355022 0 0 0
435 145 1 0.5897 2.4870076393466833 8.888931767604273 6.483507208916662 0 0 0
337 113 2 -1.1794 4.031597658084726 5.938599651178851 8.710960947842866 0 0 0
338 113 1 0.5897 4.937558223711117 5.7945300227125065 8.43791728871032 0 0 0
468 156 1 0.5897 4.603215906081187 9.560978089396688 7.517325290881496 0 0 0
330 110 1 0.5897 3.9369932658510907 0.512991866552702 9.710134574944504 0 0 0
339 113 1 0.5897 3.5441899484492962 6.020833574839566 7.891235283393183 0 0 0
357 119 1 0.5897 0.09804827995712903 2.1537114226078717 8.45881346816104 0 0 0
130 44 2 -1.1794 2.1532498803652764 7.663613102046664 5.1455079448825725 0 0 0
22 8 2 -1.1794 1.6581147039914965 0.9979211726754391 5.207273593135522 0 0 0
24 8 1 0.5897 1.8893945710782292 0.15219311623189494 5.591346544146389 0 0 0
443 148 1 0.5897 0.9692434407198449 9.686540658194245 10.166794305853792 0 0 0
561 187 1 0.5897 0.8825481981240942 0.18432725604715086 8.752555268965182 0 1 0
649 217 2 -1.1794 2.371474483903104 2.3890972156318857 14.549689727640688 0 0 0
650 217 1 0.5897 2.3733833121072956 1.7835757705037794 13.808333582512645 0 0 0
455 152 1 0.5897 2.214674103893094 7.525013798894609 11.498130199933856 0 0 0
438 146 1 0.5897 3.870911169085993 8.89429189477873 10.516592878193661 0 0 0
350 117 1 0.5897 2.3596954380504798 4.159586905805201 14.245901628496958 0 0 0
336 112 1 0.5897 1.9279570169920182 4.053033482562257 11.203660374324214 0 0 0
683 228 1 0.5897 4.276229871832039 2.5986721219637396 14.648758021686845 0 0 0
651 217 1 0.5897 1.85956524536308 1.9418618313216813 15.223609108113962 0 0 0
454 152 2 -1.1794 1.496537731285872 7.201827546156156 12.042136040162426 0 0 0
351 117 1 0.5897 2.9975646232791893 5.514542567354491 14.467177823089914 0 0 0
792 264 1 0.5897 4.843995194845301 9.129977511869466 14.440159116177194 0 0 0
759 253 1 0.5897 2.5234582895438256 8.20040025722304 13.415869368453764 0 0 0
349 117 2 -1.1794 2.3633801334788083 5.057620579868542 13.914713485958607 0 0 0
334 112 2 -1.1794 1.0269343275200995 3.889307803156256 10.925450269518057 0 0 0
757 253 2 -1.1794 2.9434596208015478 8.766906298005066 14.063083101621125 0 0 0
668 223 1 0.5897 1.0423989321064666 5.621105361991872 15.235810924266676 0 0 0
456 152 1 0.5897 1.8065349054985052 6.358775999352444 12.372911317520566 0 0 0
347 116 1 0.5897 0.8858096314521715 0.9460347373936411 11.904899604354569 0 0 0
348 116 1 0.5897 2.2395273806096636 0.6969839416575118 11.274855981050917 0 0 0
346 116 2 -1.1794 1.8157606719405233 0.8655763483824782 12.116453212318353 0 0 0
789 263 1 0.5897 1.7880052067877834 8.657313221550544 15.57248899657527 0 0 0
436 146 2 -1.1794 3.919035281146537 7.979717346937775 10.79489569761365 0 0 0
335 112 1 0.5897 1.0824407468770108 3.1027006989549375 10.38284343458337 0 0 0
340 114 2 -1.1794 3.7389402828137146 4.132841324964071 10.957320174199928 0 0 0
341 114 1 0.5897 3.7742844917473977 3.189631575547661 10.798124941911398 0 0 0
329 110 1 0.5897 4.758599415574489 1.0281515201737712 10.872667254691718 0 0 0
758 253 1 0.5897 2.8294009373702145 9.652102880910414 13.71721288873583 0 0 0
652 218 2 -1.1794 4.4559096427584945 1.1714196713916984 17.432689269297917 0 0 0
653 218 1 0.5897 3.689773094649011 1.0166757739426162 17.9851780301679 0 0 0
664 222 2 -1.1794 3.8990980200006518 3.984977925788452 17.539559568756047 0 0 0
671 224 1 0.5897 2.2405179314640367 1.3300132338474333 19.631718548285093 0 0 0
670 224 2 -1.1794 2.131703556385511 0.6049379651296901 19.016387417453103 0 0 0
681 227 1 0.5897 0.44134432866895323 2.1260644036902887 16.981045993418192 0 0 0
666 222 1 0.5897 3.8815088084974314 3.0517802169879094 17.327253153398807 0 0 0
672 224 1 0.5897 1.2143086444616373 0.6535870065104593 18.747922882517074 0 0 0
659 220 1 0.5897 0.2816535361188818 3.796561235688439 18.401458440705667 0 0 0
654 218 1 0.5897 4.45513465838628 0.44294593142566446 16.811736373353746 0 0 0
658 220 2 -1.1794 1.119415315123821 3.739109234666723 17.94214948693333 0 0 0
665 222 1 0.5897 3.0202864086160397 4.17276568699819 17.868964927252286 0 0 0
787 263 2 -1.1794 1.077508478903734 8.547847802926402 16.204460951376355 0 0 0
660 220 1 0.5897 1.1343016377937003 4.50850741978543 17.37285803128875 0 0 0
679 227 2 -1.1794 0.3812632539987334 1.5484014053815744 16.22011614932495 0 0 0
675 225 1 0.5897 2.262656970778149 6.103590451746759 20.394787648321035 0 0 0
788 263 1 0.5897 1.329588763917076 9.09721156654029 16.946692180799722 0 0 0
761 254 1 0.5897 4.210919594948242 8.998240276858342 17.203296100545472 0 0 0
662 221 1 0.5897 4.152594941145629 5.269438590370422 16.334968903559364 0 0 0
780 260 1 0.5897 2.577811726863935 7.37248418663565 18.552069396950273 0 0 0
779 260 1 0.5897 1.835591201681725 8.118904931144963 19.640134995736375 0 0 0
778 260 2 -1.1794 1.824499936106379 7.303705966883273 19.138528449593622 0 0 0
760 254 2 -1.1794 3.996300015237958 8.107096885009923 17.47903690027072 0 0 0
667 223 2 -1.1794 0.5266944913947816 5.837018546980708 16.012780764046234 0 0 0
858 286 1 0.5897 0.004528676784963742 7.478095311186322 18.881511387518067 1 0 0
762 254 1 0.5897 4.703700375884986 7.863615514071207 18.076073798338257 0 0 0
669 223 1 0.5897 0.8431655251301838 6.700376722061748 16.27865432239946 0 0 0
663 221 1 0.5897 4.085212913746147 6.780169059259822 16.26386054677755 0 0 0
661 221 2 -1.1794 4.236697078128056 6.003080518057416 15.725880378008908 0 0 0
673 225 2 -1.1794 2.355312949207578 5.255797517965205 20.829427290215108 0 0 0
248 83 1 0.5897 1.2336942473051191 16.237886771527634 2.55748932613352 0 0 0
120 40 1 0.5897 1.0395376153581628 11.418102281145899 2.9157249041529902 0 0 0
129 43 1 0.5897 0.7009404317951645 13.687114838988906 2.1158746860123694 0 0 0
118 40 2 -1.1794 1.198692344820988 10.69156757534593 3.518284251254833 0 0 0
123 41 1 0.5897 3.7932911494511536 11.635014190970194 0.6506082795005381 0 0 0
228 76 1 0.5897 0.7507656633336207 17.583446743790013 4.094497272510415 0 0 0
119 40 1 0.5897 2.151534886893061 10.605204218039864 3.5436192512776654 0 0 0
122 41 1 0.5897 4.346980834133704 11.142137849312018 1.9706738897369624 0 0 0
890 297 1 0.5897 1.8741259208986247 18.964277205542693 -0.005811262257179928 0 0 1
127 43 2 -1.1794 0.6210664752865008 12.76812488348835 1.8602639817027642 0 0 0
233 78 1 0.5897 4.504681216030668 18.117434100777906 2.8249279133931147 0 0 0
220 74 2 -1.1794 3.9141154724467055 14.239104494728723 2.7882036313340723 0 0 0
234 78 1 0.5897 3.417833575319808 17.14581482865092 3.2327990220565814 0 0 0
222 74 1 0.5897 4.162161944819032 13.524058194970063 2.2021471612869203 0 0 0
124 42 2 -1.1794 4.130796603292472 10.170347912101532 3.6572021694114425 0 0 0
249 83 1 0.5897 1.757016124442351 15.439022352733764 1.3827597053138716 0 0 0
783 261 1 0.5897 1.7678552765798894 12.473170927353204 0.3863629062014393 0 0 1
247 83 2 -1.1794 0.9964836409261673 15.531629115703108 1.9564987247664112 0 0 0
221 74 1 0.5897 4.199250890815199 15.031795142458387 2.333680860897692 0 0 0
235 79 2 -1.1794 0.6101681345192058 19.64613158885613 1.4484152360363847 0 0 0
240 80 1 0.5897 2.430169261251284 13.950728639142241 4.111154957453811 0 0 0
232 78 2 -1.1794 4.3689283315075835 17.248521554413244 3.2028364985755413 0 0 0
121 41 2 -1.1794 4.448831520410174 11.835517821700568 1.318636713954655 0 0 0
226 76 2 -1.1794 1.4407233258330223 17.7544814670663 3.45350747282437 0 0 0
227 76 1 0.5897 1.0513909882526784 18.38046940564017 2.842930933665224 0 0 0
229 77 2 -1.1794 4.5055969250214805 19.400631908451942 1.6766419786277877 0 0 0
125 42 1 0.5897 4.8098797664737605 10.475800438266148 4.2586342014025815 0 0 0
230 77 1 0.5897 4.048784272110237 19.263844487516337 0.8466767682407259 0 0 0
238 80 2 -1.1794 1.7826495177656332 13.979527589515232 4.81547557153046 0 0 0
219 73 1 0.5897 3.9926352684180175 15.704494270719316 -0.038017610400116 0 0 0
217 73 2 -1.1794 3.05196981760954 15.877745084638814 -0.07234415217473103 0 0 0
188 63 1 0.5897 -0.06787190734615933 11.005810694836253 4.940583666299108 1 0 0
218 73 1 0.5897 2.987076898467099 16.813642830228147 -0.2624553016085187 0 0 0
133 45 2 -1.1794 2.374121109487883 12.098404235068914 6.716321704941818 0 0 0
134 45 1 0.5897 1.7956709547078191 12.363959802136405 7.431222709114432 0 0 0
135 45 1 0.5897 3.23247550743879 12.44369528470527 6.961434559772225 0 0 0
571 191 2 -1.1794 0.6079608280879762 15.48123348067301 8.747937386053616 0 0 0
242 81 1 0.5897 2.407619354679479 18.022792891834122 6.385351252959378 0 0 0
558 186 1 0.5897 4.039157008864541 17.513571324131973 9.630006964946105 0 0 0
553 185 2 -1.1794 4.318577924208963 18.93554094736014 8.518255447132209 0 0 0
573 191 1 0.5897 0.5975131755829486 14.54513950988438 8.94762864432766 0 0 0
434 145 1 0.5897 2.7301590338844877 10.296977189723872 6.983567614366571 0 0 0
572 191 1 0.5897 0.6632383657331089 15.908365383105455 9.602826570328665 0 0 0
453 151 1 0.5897 0.44853140368946776 11.997887995870592 9.474377963071028 0 0 0
542 181 1 0.5897 1.7016345616305493 16.021040615675517 7.333802208239141 0 0 0
445 149 2 -1.1794 4.768687608042563 12.566537570464108 7.9784138851683295 0 0 0
543 181 1 0.5897 2.2239698481907775 15.592003790705597 5.97910981319685 0 0 0
559 187 2 -1.1794 0.7295798941674053 19.31848531142753 8.73730722745755 0 0 0
576 192 1 0.5897 4.307917440863817 15.689056019188595 6.797384905973649 0 0 0
451 151 2 -1.1794 0.36626589736455417 12.703866915691677 8.833197038923691 0 0 0
450 150 1 0.5897 4.542892511768639 11.061813687356706 9.583781033789872 0 0 0
241 81 2 -1.1794 2.372945816757732 18.952583134998946 6.610177133513402 0 0 0
243 81 1 0.5897 1.8145290963844696 18.991088841029693 7.3866698477937325 0 0 0
541 181 2 -1.1794 2.4419192067930493 16.133719330347198 6.737623556682626 0 0 0
555 185 1 0.5897 3.9011596409312164 18.894067567261153 7.657830020326341 0 0 0
446 149 1 0.5897 4.540382411695898 13.120049545828582 8.72526393352745 0 0 0
239 80 1 0.5897 2.0179716559235232 13.24933173330278 5.387930477055188 0 0 0
557 186 1 0.5897 3.9666544271600674 16.10339016077181 10.175998257321174 0 0 0
544 182 2 -1.1794 3.9730507914600572 14.25448828759925 10.053873818727983 0 0 0
551 184 1 0.5897 0.8180657088261831 18.06742267227058 10.143722307910425 0 0 0
448 150 2 -1.1794 3.96088267742771 10.680621632298642 10.24118194504153 0 0 0
457 153 2 -1.1794 2.371385524229188 11.46820790726383 13.91521571938025 0 0 0
458 153 1 0.5897 1.647508564563913 11.443394327740384 14.54095269783628 0 0 0
459 153 1 0.5897 3.074925462338504 11.920867666764986 14.380192867219153 0 0 0
563 188 1 0.5897 2.1969042798193077 13.071809777519897 12.556292899271146 0 0 0
562 188 2 -1.1794 2.067126502293285 13.820002954952466 11.973493790138468 0 0 0
444 148 1 0.5897 1.9616897337905455 10.80001572052459 10.425426113464864 0 0 0
867 289 1 0.5897 2.2060345370388696 15.890362218806041 14.530593800754078 0 0 0
442 148 2 -1.1794 1.0235480951172609 10.611270627835145 10.407926275718937 0 0 0
769 257 2 -1.1794 4.529655784620787 12.48910374589673 15.314414246294069 0 0 0
866 289 1 0.5897 3.6154042778303555 15.797703950364795 13.98596430801764 0 0 0
545 182 1 0.5897 3.1622150367558204 14.120390331899145 10.544474245064741 0 0 0
879 293 1 0.5897 4.230394275696211 19.186245790533548 15.235848937486818 0 0 0
449 150 1 0.5897 4.294097163158937 11.009131953592917 11.076260660674732 0 0 0
564 188 1 0.5897 2.417201693385145 14.566484177804734 12.45973013090531 0 0 0
865 289 2 -1.1794 2.726026749571865 16.0557947796443 13.74414653989187 0 0 0
567 189 1 0.5897 2.4270505650841083 19.463151522390618 13.249642966869818 0 0 0
642 214 1 0.5897 0.3050206471763154 14.019628567170042 12.038989996042817 1 0 0
565 189 2 -1.1794 2.7866648966268213 18.974357143088845 13.989940315727786 0 0 0
566 189 1 0.5897 2.722543386041238 18.056650246378737 13.725441038993178 0 0 0
550 184 2 -1.1794 0.9576986289835083 17.36084331295529 10.774217767343707 0 0 0
885 295 1 0.5897 1.4167513539575354 18.81756186021409 15.055168314296251 0 0 0
552 184 1 0.5897 1.8917887148746257 17.162552080694823 10.709417088156853 0 0 0
556 186 2 -1.1794 3.789979571165069 17.015028101276272 10.40825717829854 0 0 0
546 182 1 0.5897 4.666960550024012 14.155172508811182 10.705655100792441 0 0 0
896 299 1 0.5897 0.16178858814208358 15.41032581477521 15.183128245833302 0 0 0
891 297 1 0.5897 2.497448192280144 19.169024828527448 19.88778209793145 0 0 0
768 256 1 0.5897 1.6454161466635497 11.227521713649404 17.270214524547207 0 0 0
888 296 1 0.5897 2.2869534525820034 13.41442687661572 19.3878188928094 0 0 0
886 296 2 -1.1794 2.374493838328357 14.300722633647995 19.036995018638777 0 0 0
878 293 1 0.5897 4.436137827919485 18.344511715447965 16.477328511829853 0 0 0
897 299 1 0.5897 0.820872671550608 15.65377808162051 16.524157696244657 0 0 0
773 258 1 0.5897 3.695578155878998 10.616592217744774 17.780402519480667 0 0 0
772 258 2 -1.1794 4.589193528463373 10.720353084280541 17.453658262089704 0 0 0
889 297 2 -1.1794 2.5538041546156607 18.62226617709066 20.67148008079314 0 0 0
887 296 1 0.5897 2.453293377759404 14.85845975785017 19.810969559053326 0 0 0
869 290 1 0.5897 3.695628032529537 14.554479455637287 18.01243972268246 0 0 0
782 261 1 0.5897 2.020854383596707 11.360418930586201 20.649471552587237 0 0 0
965 322 1 0.5897 0.5760311600047996 14.046467617149219 19.160116265657045 1 0 0
868 290 2 -1.1794 4.607614640857649 14.654701155436197 17.7399325604866 0 0 0
881 294 1 0.5897 2.67681240162966 17.209677048132356 17.81454667186619 0 0 0
877 293 2 -1.1794 4.811514062218171 19.076942312098573 15.988572812493574 0 0 0
766 256 2 -1.1794 1.7001497557966228 10.51320146942528 17.905077469972973 0 0 0
774 258 1 0.5897 4.510055608682631 11.344588990888973 16.732300773805214 0 0 0
882 294 1 0.5897 3.978237745522917 16.442274849245372 17.9091093273042 0 0 0
874 292 2 -1.1794 0.806443012763331 17.087856540440093 17.782251793030845 0 0 0
880 294 2 -1.1794 3.6266056809731966 17.32763801304055 17.815749155034865 0 0 0
876 292 1 0.5897 0.6775628463841389 17.719821832609817 17.074940391476616 0 0 0
895 299 2 -1.1794 0.9384718253550139 15.187772803703698 15.696305957204554 0 0 0
875 292 1 0.5897 0.28041965133191904 17.427316057728852 18.506327444161826 0 0 0
771 257 1 0.5897 4.339190108261239 13.169159387094703 15.960586080172119 0 0 0
767 256 1 0.5897 0.8882222872688501 10.5763070652886 18.407998583454713 0 0 0
884 295 1 0.5897 0.6658527377839694 19.797420391513143 15.931486322813443 0 0 0
873 291 1 0.5897 4.771563034317314 17.915099578320024 19.38625354052207 0 0 0
781 261 2 -1.1794 2.2037492561758145 12.28564694727723 20.81303325506154 0 0 0
777 259 1 0.5897 0.6972220372423339 13.320582102732065 15.961039311878691 0 0 0
775 259 2 -1.1794 0.5606197379003559 12.373193397219504 15.962253654457287 0 0 0
883 295 2 -1.1794 0.7307091706372282 18.86592266928446 15.720888933958953 0 0 0
35 12 1 0.5897 5.68534804324715 1.665120689033282 -0.19669971581714663 0 0 0
145 49 2 -1.1794 9.336240152931419 9.285741557476769 -0.013793057639733208 0 0 0
48 16 1 0.5897 7.609697278101407 4.096223515025305 4.582735683345469 0 0 0
67 23 2 -1.1794 7.665962552266917 2.1962064323086423 2.1134281770436494 0 0 0
46 16 2 -1.1794 8.208173203585222 4.252645496197591 3.8522895996073316 0 0 0
69 23 1 0.5897 6.831200733453253 2.3310888919265405 1.664982334871939 0 0 0
68 23 1 0.5897 8.328390553961945 2.41495507377305 1.4580526120200765 0 0 0
47 16 1 0.5897 8.055518485020183 3.519828299662716 3.2557057872005646 0 0 0
710 237 1 0.5897 8.29968966194534 5.784062149738676 0.6261614891534872 0 0 1
36 12 1 0.5897 5.626821184126655 3.174302695913486 -0.09236914542393618 0 0 0
57 19 1 0.5897 7.556046258013335 5.8556012247090505 2.8623319340551423 0 0 0
175 59 2 -1.1794 7.404442333598432 8.870144451891235 1.9274173880754817 0 0 0
56 19 1 0.5897 6.426941766248728 5.730572132090301 1.8616965147961047 0 0 0
177 59 1 0.5897 8.083880970629695 8.816498180470067 1.255356669567743 0 0 0
176 59 1 0.5897 7.256818239939006 7.962290341368249 2.1924472244948783 0 0 0
55 19 2 -1.1794 7.211762102370676 6.242374278921856 2.0572434592937743 0 0 0
711 237 1 0.5897 8.911912675961512 4.568252839444492 -0.03630504892946895 0 0 1
34 12 2 -1.1794 5.45254625884365 2.373967951703752 0.40297052238759856 0 0 0
143 48 1 0.5897 5.8433415169704475 8.923177952333841 0.9844977629401093 0 0 0
273 91 1 0.5897 7.393685094256021 0.27801350854742685 1.5577585886849175 0 1 0
142 48 2 -1.1794 5.129507065479669 8.745914003614452 0.3719721181188924 0 0 0
37 13 2 -1.1794 9.419655024193831 2.679712253568007 -0.14407520140410274 0 0 0
58 20 2 -1.1794 8.682380337652562 0.928865714046676 4.8839040208047075 0 0 0
29 10 1 0.5897 6.824413143780298 0.747440391375788 4.984021563119571 0 0 0
149 50 1 0.5897 9.908873268451977 7.632441693833746 3.5466512068903224 0 0 0
113 38 1 0.5897 4.983159917936915 7.624516354576091 3.9376834801664717 0 0 0
9 3 1 0.5897 5.283019511524711 4.273282496753649 4.941503746757711 0 0 0
166 56 2 -1.1794 8.71908124244345 7.558148624975906 4.955799012049674 0 0 0
709 237 2 -1.1794 8.815787642061204 5.515599780931476 -0.13396390446048098 0 0 1
144 48 1 0.5897 5.509406054836654 8.149810733263893 -0.2734673674539607 0 0 0
7 3 2 -1.1794 6.085792152199047 4.137299530809453 5.44465063702648 0 0 0
466 156 2 -1.1794 5.535099197684666 9.38461350593354 7.3888300691014726 0 0 0
359 120 1 0.5897 5.811230218099106 2.289449310520611 8.468412062018748 0 0 0
392 131 1 0.5897 7.453014226908101 1.4055563565289482 9.222241015490834 0 0 0
391 131 2 -1.1794 7.534552390561844 2.3465279516694375 9.37750666440361 0 0 0
380 127 1 0.5897 6.936355518799799 6.978784878941566 9.248863820005738 0 0 0
500 167 1 0.5897 7.715940014728638 9.441986509874987 9.835202438151617 0 0 0
136 46 2 -1.1794 6.216517828984013 7.038999575744654 5.388330031603045 0 0 0
358 120 2 -1.1794 5.323007256665138 2.415507177928968 7.654763115030103 0 0 0
470 157 1 0.5897 8.561835468760425 8.940465557466261 7.759831462573731 0 0 0
363 121 1 0.5897 9.848635779817679 2.5711029532389 7.151858277975801 0 0 0
361 121 2 -1.1794 8.926766899352852 2.8168875046254436 7.075641257319549 0 0 0
381 127 1 0.5897 7.073034521690595 5.5070055924102865 9.576185643641919 0 0 0
59 20 1 0.5897 8.661441461955942 1.5605458985583733 5.602814965950374 0 0 0
360 120 1 0.5897 5.594230024574837 1.6866630700035243 7.096670315826336 0 0 0
362 121 1 0.5897 8.943570896829746 3.7533862887634335 6.878290711923223 0 0 0
63 21 1 0.5897 9.746991921545273 5.602291574325903 7.410524845617624 0 0 0
61 21 2 -1.1794 8.86238128840641 5.593167692018215 7.045186801431362 0 0 0
379 127 2 -1.1794 6.892122820224441 6.1081335689832255 8.853539448782676 0 0 0
62 21 1 0.5897 8.289636018900717 5.727717297157827 7.800241407231317 0 0 0
499 167 2 -1.1794 7.480353420046493 8.697477396058495 9.281601059423036 0 0 0
393 131 1 0.5897 7.920603033215251 2.690111416497331 8.571815430753256 0 0 0
28 10 2 -1.1794 5.9233364611386445 0.6518331157145972 5.292223631270045 0 0 0
501 167 1 0.5897 6.8057299322177425 9.038846720508387 8.694625440758141 0 0 0
467 156 1 0.5897 5.558059896278574 8.574103778900053 6.880120692044944 0 0 0
469 157 2 -1.1794 8.95230314808716 9.27799858783075 6.953680471331772 0 0 0
167 56 1 0.5897 8.863694302565204 6.7691045917253145 5.478061538848613 0 0 0
168 56 1 0.5897 8.943267980312399 8.279487802771053 5.543747046739108 0 0 0
60 20 1 0.5897 9.01171586660408 0.12309653742670643 5.282028346427394 0 0 0
137 46 1 0.5897 6.213729270774737 6.089261353906519 5.507574738782232 0 0 0
8 3 1 0.5897 5.791609918135483 3.7354588219896354 6.2621355493819735 0 0 0
138 46 1 0.5897 7.1424181084781155 7.268253311446992 5.309530767811455 0 0 0
471 157 1 0.5897 9.894108639268905 9.158142315565037 7.074837943602323 0 0 0
384 128 1 0.5897 9.531347911067266 0.9874731150153859 11.05889924234895 0 0 0
793 265 2 -1.1794 9.555810690242213 9.300358803175527 14.31943476560266 0 0 0
684 228 1 0.5897 5.4586184506236775 3.2100235410428826 13.927736992048251 0 0 0
490 164 2 -1.1794 9.041850125214449 7.331443037726385 12.088120084397305 0 0 0
372 124 1 0.5897 7.211488425831979 4.320725257422583 11.916759647156374 0 0 0
383 128 1 0.5897 8.997914352223422 1.5164629463856074 12.37332179996671 0 0 0
791 264 1 0.5897 6.20991599728798 9.20017201301975 15.088912954555934 0 0 0
370 124 2 -1.1794 7.801690366066327 4.39167967337738 11.166567978845004 0 0 0
686 229 1 0.5897 8.676188744004863 2.7654467894832684 14.436563412213646 0 0 0
354 118 1 0.5897 5.764055776079922 1.148085600012721 13.058873121978872 0 0 0
685 229 2 -1.1794 9.237293389365849 2.6797471591826176 13.665817158126295 0 0 0
353 118 1 0.5897 6.937036351581899 0.8229769687950781 12.158794930836185 0 0 0
460 154 2 -1.1794 6.238034173709429 7.396195626993298 12.303774901892334 0 0 0
331 111 2 -1.1794 5.713100643808717 4.735180322056881 13.072431237922165 0 0 0
717 239 1 0.5897 6.644751646085124 2.7614555635726945 15.355518964597195 0 0 0
705 235 1 0.5897 7.296882395459387 6.0480941413762 15.401581140361206 0 0 0
333 111 1 0.5897 5.84273402165361 5.668983984449896 12.90683985607893 0 0 0
461 154 1 0.5897 6.285368678495189 8.04617111786608 13.004903970277358 0 0 0
382 128 2 -1.1794 8.851226442481908 0.83686070917319 11.715358325679905 0 0 0
387 129 1 0.5897 9.066012466946875 6.2746650603147005 13.378727553468131 0 0 0
462 154 1 0.5897 5.503586208223799 7.682090089862951 11.760618485508354 0 0 0
492 164 1 0.5897 8.167262769496128 7.641227181290365 11.853253631673311 0 0 0
352 118 2 -1.1794 6.0102209061632 0.6265993055567934 12.294844562262607 0 0 0
386 129 1 0.5897 9.171132757357594 4.878249287247027 13.954012638098174 0 0 0
794 265 1 0.5897 9.25535067795872 8.749808014350391 13.59630881222199 0 0 0
491 164 1 0.5897 9.56701914973634 7.476298183278409 11.30106720136646 0 0 0
385 129 2 -1.1794 8.991856610837775 5.786149837098469 14.19859482030546 0 0 0
682 228 2 -1.1794 5.141254346084951 2.3865119675039166 14.29833921611223 0 0 0
790 264 2 -1.1794 5.761642036336022 9.327080606277736 14.252716384964948 0 0 0
332 111 1 0.5897 5.083801922133028 4.458451695639095 12.406414904237735 0 0 0
377 126 1 0.5897 9.847792019074179 4.005460537111757 10.958218733096961 0 0 0
371 124 1 0.5897 7.61317385159296 3.6158241996045133 10.638587245257034 0 0 0
824 275 1 0.5897 8.157410328461346 9.082717601835059 15.554456784794342 0 0 0
704 235 1 0.5897 5.892624849499727 6.204046923386972 15.94494590475165 0 0 0
784 262 2 -1.1794 6.060474267577439 7.273756966667167 19.317591762372864 0 0 0
38 13 1 0.5897 9.35751839293399 2.303732253394241 20.235806864337363 0 0 -1
815 272 1 0.5897 9.010449943835084 6.6891084409150325 19.640935980410624 0 0 0
816 272 1 0.5897 8.959433309434644 8.200890303885567 19.70289825586353 0 0 0
696 232 1 0.5897 7.35597833431968 5.112450011012719 17.352231240759885 0 0 0
657 219 1 0.5897 6.49611380075181 4.286898857387187 19.2981982039733 0 0 0
785 262 1 0.5897 6.012848208854365 6.377647330198837 19.650739348871845 0 0 0
708 236 1 0.5897 7.981579594842968 0.744865758895274 18.96619104158244 0 0 0
694 232 2 -1.1794 7.699252635491227 4.358289633454265 17.83144483741573 0 0 0
695 232 1 0.5897 7.63797679064066 3.63173701234525 17.211256132161566 0 0 0
825 275 1 0.5897 7.306519490600918 8.103751992062627 16.335143920095014 0 0 0
706 236 2 -1.1794 8.93356954691381 0.7345862927523429 18.867908875788224 0 0 0
655 219 2 -1.1794 5.678473258805311 4.609504523469276 19.677013900214178 0 0 0
715 239 2 -1.1794 7.501792101942629 2.6405983215214737 15.764150737967599 0 0 0
702 234 1 0.5897 9.423472663840998 4.167703408001878 17.6785600094912 0 0 0
676 226 2 -1.1794 6.313729826827016 0.616560513460018 19.69310750501615 0 0 0
786 262 1 0.5897 6.9936018670816145 7.424690068070088 19.167431953023495 0 0 0
919 307 2 -1.1794 7.30140451929641 -0.03142907229361924 15.829090490648289 0 1 0
707 236 1 0.5897 9.23646664319015 0.11327213815267545 19.530091375849473 0 0 0
814 272 2 -1.1794 8.771327222261364 7.460138291059945 19.12654763793921 0 0 0
823 275 2 -1.1794 7.513316629608306 9.035390428563105 16.26091408338712 0 0 0
716 239 1 0.5897 7.586049045389242 1.6929266222306545 15.869294026902116 0 0 0
677 226 1 0.5897 5.648338346209539 0.9193213168716228 19.07522441739345 0 0 0
656 219 1 0.5897 5.040729630376917 4.538808215038471 18.966750578988645 0 0 0
703 235 2 -1.1794 6.813285335082132 6.30078076823543 16.188028366102706 0 0 0
246 82 1 0.5897 5.3385496896806375 14.093376605973514 3.83623560139433 0 0 0
271 91 2 -1.1794 7.256451908285689 19.436874422221614 1.3322841890269062 0 0 0
254 85 1 0.5897 9.167873422378767 16.20349446358903 0.24314266931883 0 0 0
284 95 1 0.5897 7.964359515737465 16.164561532127266 2.588381551442913 0 0 0
163 55 2 -1.1794 7.193794686222743 12.915058568265628 1.9364758936101252 0 0 0
164 55 1 0.5897 6.449732522103468 12.50354330236688 1.496974741509063 0 0 0
165 55 1 0.5897 7.5091521079168455 12.249753110441247 2.5481717468484404 0 0 0
264 88 1 0.5897 8.70123679083784 17.77125403355764 3.86415734417061 0 0 0
251 84 1 0.5897 6.509419734929287 15.829344542329546 1.0760401541293367 0 0 0
231 77 1 0.5897 5.430490292563365 19.451837811923014 1.4357759531185996 0 0 0
285 95 1 0.5897 8.03097522450364 14.712090144926643 2.166752314898153 0 0 0
262 88 2 -1.1794 7.762411135184837 17.77291393620898 3.6779689846818835 0 0 0
272 91 1 0.5897 7.572694078580795 18.95309453020584 2.0952960360153945 0 0 0
263 88 1 0.5897 7.347002793250198 17.722573218741154 4.538896529499105 0 0 0
156 52 1 0.5897 9.161584987028892 11.098862946933053 3.6301226803040394 0 0 0
927 309 1 0.5897 8.67535179234851 19.349059485800602 0.2607743863592695 0 0 1
154 52 2 -1.1794 8.213193049288137 10.971377964652145 3.647870348385759 0 0 0
283 95 2 -1.1794 8.206826352615758 15.599711437887027 1.8546062899520375 0 0 0