LAMMPS data file via write_data, version 30 Jul 2021, timestep = 30500000

1920 atoms
2 atom types
1280 bonds
1 bond types
640 angles
1 angle types

-0.013145297258137845 24.743146297252636 xlo xhi
-0.001729160784993411 24.73173016077719 ylo yhi
0.048946143698060496 22.7610538563047 zlo zhi

Masses

1 1.008
2 15.999

Pair Coeffs # lj/cut/tip4p/long/omp

1 0 0
2 0.21084 3.1668

Bond Coeffs # harmonic/omp

1 450 0.9572

Angle Coeffs # harmonic/omp

1 55 104.52

Atoms # full

1 1 2 -1.1794 4.499701656518137 1.512268846027455 4.356947139938503 0 0 0
2 1 1 0.5897 4.682336240089218 2.2607305490712895 4.924967001640633 0 0 0
3 1 1 0.5897 5.2477931357698555 1.4751166412652599 3.7609232764595646 0 0 0
4 2 2 -1.1794 2.8534308094054057 1.4428798516022 2.0837683152157234 0 0 0
5 2 1 0.5897 3.2221630387646574 1.5081888817795461 2.9647104601837526 0 0 0
6 2 1 0.5897 1.907187409475687 1.5043115352677217 2.214520879205137 0 0 0
10 4 2 -1.1794 3.232876300915333 4.517710868750506 3.5296064269747953 0 0 0
11 4 1 0.5897 2.9838742513752865 5.304380519354269 4.0147261868949435 0 0 0
12 4 1 0.5897 2.8075452168478128 4.616338212880496 2.67775344878959 0 0 0
13 5 2 -1.1794 1.3435916720103445 3.121777002287172 5.070301820208601 0 0 0
14 5 1 0.5897 2.0900782585038913 3.3065443245254724 4.500319575388718 0 0 0
15 5 1 0.5897 1.2784225669468197 2.166880966387282 5.078404858648756 0 0 0
22 8 2 -1.1794 1.4399517213649788 4.483657328114254 1.4750550662553654 0 0 0
24 8 1 0.5897 1.3634319442013714 5.2254033609363075 0.8749244364937757 0 0 0
23 8 1 0.5897 0.7351007362795663 4.614412672832043 2.1093709809392287 0 0 0
20 7 1 0.5897 3.788652354869904 2.797012620128429 1.2422044528799998 0 0 0
9 3 1 0.5897 5.062821098733914 4.395474533924071 3.5547500184116494 0 0 0
19 7 2 -1.1794 4.5585412035467545 3.293420315295264 0.9645868198192091 0 0 0
21 7 1 0.5897 5.284676815501209 2.9012376737087355 1.4495194338768078 0 0 0
27 9 1 0.5897 4.686359081277382 5.0546268774896435 0.7890552908698996 0 0 0
7 3 2 -1.1794 6.0197986833567905 4.411659674776971 3.5681842591024484 0 0 0
98 33 1 0.5897 0.35430457908826646 5.512314001944724 3.9099447239376266 1 0 0
28 10 2 -1.1794 1.552940221744697 0.2787843739633184 4.982247053526167 0 0 0
16 6 2 -1.1794 0.14628327933164897 1.7472379832163223 2.072352864751672 0 0 0
387 129 1 0.5897 4.070407473053593 0.03967245080190977 1.2421360947921498 0 1 0
47 16 1 0.5897 6.034027957820395 0.8491152459133883 1.8648672946856315 0 0 0
25 9 2 -1.1794 4.739464260667688 6.000242021405529 0.6507304343390261 0 0 0
867 289 1 0.5897 4.67241518174248 0.3758403491563539 5.671669514025748 0 1 0
99 33 1 0.5897 0.06822329133586838 4.042243526067518 4.130692761436759 1 0 0
1455 485 1 0.5897 1.3307979272825061 3.216655928685183 0.11072912977470646 0 0 1
29 10 1 0.5897 2.321877321992524 -0.0007599645671909627 4.485416501090977 0 0 0
386 129 1 0.5897 5.014754029326761 0.3208119796742175 0.09271432541606117 0 1 0
1470 490 1 0.5897 1.7916824643718754 0.07841993596721153 0.22969643377563997 0 0 1
8 3 1 0.5897 6.239481226239099 5.187391596869816 4.084102266251015 0 0 0
46 16 2 -1.1794 6.416044643946321 1.5904014637383275 2.3347185897017466 0 0 0
31 11 2 -1.1794 10.88391338613966 1.6063053466787325 4.290613394935944 0 0 0
32 11 1 0.5897 10.726398608633247 2.4126101388173526 4.781779331902823 0 0 0
34 12 2 -1.1794 9.220930074143979 1.478057186716207 2.090981076903308 0 0 0
36 12 1 0.5897 9.502694071423397 2.1712198571399077 1.4940360236063137 0 0 0
39 13 1 0.5897 11.063904404916881 4.676606864247534 3.4763239679139044 0 0 0
40 14 2 -1.1794 9.35846970836972 4.931908614049558 3.521296170994373 0 0 0
41 14 1 0.5897 8.910623393760515 5.03172542177034 2.6812037994910245 0 0 0
42 14 1 0.5897 8.964450874186593 4.152052258335006 3.912143005285512 0 0 0
43 15 2 -1.1794 7.920397730247545 2.932049122929388 4.944525773494404 0 0 0
45 15 1 0.5897 7.1633713886212345 3.2817409712446404 4.474557540648058 0 0 0
48 16 1 0.5897 7.361005868521945 1.4477989490736949 2.280340548741376 0 0 0
49 17 2 -1.1794 10.761492252230731 3.482768020087297 0.9283792757308016 0 0 0
52 18 2 -1.1794 7.599338985048714 5.03896909275478 1.3862134278772311 0 0 0
53 18 1 0.5897 7.549289060191826 4.241317869506973 0.859493517880024 0 0 0
54 18 1 0.5897 6.940776929214694 4.916761660501665 2.0700498492291124 0 0 0
35 12 1 0.5897 9.619751016475737 1.707372469742519 2.9304055628189993 0 0 0
33 11 1 0.5897 10.597490627711483 0.9073912396389266 4.878572062457015 0 0 0
59 20 1 0.5897 7.727618250935299 1.192613067018426 5.073142553388875 0 0 0
50 17 1 0.5897 11.409314848108277 3.029706188677671 1.4681025033434802 0 0 0
56 19 1 0.5897 10.772115728107991 5.251457813057406 0.8305653202926278 0 0 0
58 20 2 -1.1794 7.698138232087973 0.2359616954088034 5.082637534866951 0 0 0
78 26 1 0.5897 12.08917631557901 1.6512933681640243 2.8943835577876826 0 0 0
37 13 2 -1.1794 11.99346452185586 4.466734567223451 3.5664620095663344 0 0 0
77 26 1 0.5897 12.097635124017598 1.0789466312905323 1.4928322339126068 0 0 0
416 139 1 0.5897 10.274786989307634 0.3782035245268807 1.2886084442016263 0 1 0
180 60 1 0.5897 8.287887523684025 6.0927998695060515 4.42266281046064 0 0 0
38 13 1 0.5897 12.361238860552287 5.2077730321243845 4.047917315663066 0 0 0
51 17 1 0.5897 10.850833062940607 3.085600551228813 0.06203966193369581 0 0 0
496 166 2 -1.1794 0.15483458808906647 1.8311004925591945 7.786816821141215 0 0 0
578 193 1 0.5897 0.3227094416636617 3.9088004728851855 9.495108991136348 1 0 0
579 193 1 0.5897 0.03732901383943153 5.35274143964225 9.849070316003726 1 0 0
629 210 1 0.5897 2.240192120635117 6.027382669059149 10.160555005857407 0 0 0
494 165 1 0.5897 1.5040826298110894 2.036057460267279 10.726279706620993 0 0 0
504 168 1 0.5897 1.596543283431454 4.338445199551968 6.371293396729513 0 0 0
501 167 1 0.5897 4.7631507857825195 4.394778134660181 6.410798834291015 0 0 0
499 167 2 -1.1794 4.905077085432478 3.4502194661613386 6.47250171669103 0 0 0
483 161 1 0.5897 4.562920737901573 2.2929648453789437 10.611980121828003 0 0 0
492 164 1 0.5897 2.8018628638105594 4.038263413079691 9.72618760773185 0 0 0
493 165 2 -1.1794 1.6171834762702133 2.9763787616891926 10.587886421215536 0 0 0
491 164 1 0.5897 2.7597908502297845 4.860409040150997 8.45565574527142 0 0 0
485 162 1 0.5897 3.171489149126907 1.7012485719966715 8.530905562368865 0 0 0
481 161 2 -1.1794 4.485918179897543 1.5651914448298234 9.99502885413374 0 0 0
482 161 1 0.5897 5.301673176934611 1.5873349213558248 9.49471646948566 0 0 0
502 168 2 -1.1794 1.695236135144525 5.004635058641663 7.051490942778836 0 0 0
500 167 1 0.5897 4.137708867731535 3.1223853978886953 6.941453427027001 0 0 0
490 164 2 -1.1794 3.264303401261048 4.734219965538714 9.259287999656953 0 0 0
503 168 1 0.5897 0.9458299718939047 4.86856407298415 7.631264860309295 0 0 0
498 166 1 0.5897 1.1115719222797438 1.8608424318828902 7.782760495910521 0 0 0
484 162 2 -1.1794 2.913272137880286 1.759532527935417 7.611004727541047 0 0 0
489 163 1 0.5897 5.050211926398706 4.76665992097331 9.398582226580288 0 0 0
486 162 1 0.5897 3.3650393512632855 1.0292485563539508 7.18817217375485 0 0 0
527 176 1 0.5897 5.887696273252328 0.9486129715715771 7.438009287469285 0 0 0
528 176 1 0.5897 6.0832129205878065 2.449757521701424 7.4355520377207736 0 0 0
505 169 2 -1.1794 4.634286425744858 6.091686820325571 6.372224628263531 0 0 0
508 170 2 -1.1794 1.446752027190361 0.22670478969659516 10.653769710574505 0 0 0
487 163 2 -1.1794 6.0041721450832055 4.800734667570725 9.327554580409462 0 0 0
1347 449 1 0.5897 4.746873446169767 0.3627690575462128 11.24021741428718 0 1 0
44 15 1 0.5897 7.965139940154684 3.4510898511516355 5.747548278076624 0 0 0
515 172 1 0.5897 8.175301521027563 1.5806650075451734 7.719141901617802 0 0 0
1010 337 1 0.5897 10.72766674665873 2.782370994367586 11.389178962191322 0 0 0
529 177 2 -1.1794 10.808691949412013 3.3383958688007036 6.389450688662926 0 0 0
516 172 1 0.5897 9.484857481755498 0.9346717734518664 7.319585922086217 0 0 0
524 175 1 0.5897 8.330401651076608 3.3754699525312075 10.167033722093393 0 0 0
519 173 1 0.5897 11.316188172495735 4.484169101815888 9.292446135474657 0 0 0
530 177 1 0.5897 10.13557445799894 2.9445911000244327 6.944501568680265 0 0 0
514 172 2 -1.1794 9.121874890950496 1.6480881694797236 7.844450365667307 0 0 0
523 175 2 -1.1794 7.665946675253552 3.045490465123458 10.771902298854679 0 0 0
522 174 1 0.5897 9.131537077816816 4.618987361928802 8.510097676237528 0 0 0
533 178 1 0.5897 7.667036437220162 5.3126095441405345 6.55137742785988 0 0 0
538 180 2 -1.1794 7.674498865266061 0.25207653686963405 10.577088814658422 0 0 0
512 171 1 0.5897 10.076876233905686 1.5634875399026358 9.316758507034113 0 0 0
531 177 1 0.5897 10.661124849365766 4.2810419560385204 6.465504692442215 0 0 0
520 174 2 -1.1794 9.488528356526412 4.563103267417809 9.396509048482201 0 0 0
532 178 2 -1.1794 7.801496146352281 4.58955466936247 7.164007584590897 0 0 0
488 163 1 0.5897 6.313115932142678 4.106525863284614 9.909650551206626 0 0 0
659 220 1 0.5897 7.068207579353213 6.0695784971884414 10.116990160871497 0 0 0
521 174 1 0.5897 9.083415805277253 5.292984396767562 9.864867196457876 0 0 0
513 171 1 0.5897 11.589202227497706 1.553775170846191 9.385386833597478 0 0 0
558 186 1 0.5897 12.10075940319654 2.3731137487404164 7.319684696926579 0 0 0
525 175 1 0.5897 7.676105365457111 2.0968102948480087 10.64523696511125 0 0 0
526 176 2 -1.1794 6.423041845507693 1.6428303287242032 7.822283662762853 0 0 0
511 171 2 -1.1794 10.806406076966086 1.54593567086806 9.936232085805734 0 0 0
534 178 1 0.5897 7.027562205635479 4.604981160264431 7.72708064591616 0 0 0
517 173 2 -1.1794 12.247726456654672 4.44739057039082 9.075345918128672 0 0 0
896 299 1 0.5897 11.41323815424998 0.19513277012756802 6.8900181139188685 0 1 0
961 321 2 -1.1794 4.600752947063969 1.6730475584065212 15.548778596031552 0 0 0
962 321 1 0.5897 5.398867541634348 1.5637217988736252 15.0317454859739 0 0 0
963 321 1 0.5897 4.606786677499235 0.93518191077363 16.1584685328782 0 0 0
964 322 2 -1.1794 2.9013050663904054 1.562445880573532 13.458788359236017 0 0 0
965 322 1 0.5897 3.421889620792984 1.4625924471928664 14.255845359860938 0 0 0
966 322 1 0.5897 2.002200560384718 1.3858806540122124 13.735708205921187 0 0 0
970 324 2 -1.1794 3.2754032223338596 4.6588489563768 14.915860846985625 0 0 0
971 324 1 0.5897 4.220971807498955 4.548986615882516 15.016238430195726 0 0 0
972 324 1 0.5897 2.8944185246264644 3.982840027701745 15.476281241366076 0 0 0
973 325 2 -1.1794 1.5430456451343766 2.8979782790688153 16.51464350814638 0 0 0
975 325 1 0.5897 0.8321716587736953 3.4056545020667084 16.12329809639428 0 0 0
982 328 2 -1.1794 1.462251853411725 4.5699394422339275 12.954258370820398 0 0 0
983 328 1 0.5897 1.538915182440153 5.3285809222431055 12.375655131407562 0 0 0
984 328 1 0.5897 2.203968169208186 4.649614602750644 13.55406900920506 0 0 0
980 327 1 0.5897 3.9020031870931406 2.8631902623490886 12.536064737408513 0 0 0
981 327 1 0.5897 5.402162414115369 3.0213738408169184 12.407864962693196 0 0 0
979 327 2 -1.1794 4.573510803597651 3.3640172590650916 12.072944679182557 0 0 0
990 330 1 0.5897 1.5432170088587187 0.9998599636575034 16.386596102191092 0 0 0
986 329 1 0.5897 4.524515175652459 5.197887517194613 11.884006852690716 0 0 0
1008 336 1 0.5897 5.9982082308228675 0.9065609288100347 13.01564916341698 0 0 0
1110 370 1 0.5897 2.2396468247584154 5.936090450342976 15.811863264731045 0 0 0
1109 370 1 0.5897 0.7503165350024923 5.717443383012008 15.973156233199704 0 0 0
967 323 2 -1.1794 6.047106928521582 4.76788547022092 15.173044976124315 0 0 0
985 329 2 -1.1794 4.6359818170935 6.142576184918624 11.990220518942317 0 0 0
1346 449 1 0.5897 4.063825631305421 0.33472536436265343 12.591026766396139 0 1 0
988 330 2 -1.1794 1.736568636435148 0.08750626829857955 16.171241345995735 0 0 0
976 326 2 -1.1794 0.166283134268587 1.2821639686594692 13.57830065991423 0 0 0
1058 353 1 0.5897 0.22609789563176613 4.64926404927431 14.264888519243538 1 0 0
495 165 1 0.5897 1.4699093244981798 3.365231324767626 11.450076541547952 0 0 0
1460 487 1 0.5897 4.707254257737802 2.8763195931023526 16.89259665849158 0 0 0
977 326 1 0.5897 -0.006685539887353542 2.046055808010909 13.02807644506281 0 0 0
1108 370 2 -1.1794 1.49543584804448 6.172525964105353 16.365491033844066 0 0 0
1006 336 2 -1.1794 6.38451868206408 1.6344796041024157 13.50257420741079 0 0 0
660 220 1 0.5897 7.6599745174606095 5.973188802580236 11.50715356661864 0 0 0
969 323 1 0.5897 6.539647677507323 4.000012821026719 15.462803263459616 0 0 0
968 323 1 0.5897 6.526641264083801 5.511953550742008 15.537183430000555 0 0 0
1017 339 1 0.5897 10.6222037190084 5.06882879656954 12.007339776272396 0 0 0
991 331 2 -1.1794 10.773295140772218 1.5530059007155825 15.787886807675685 0 0 0
992 331 1 0.5897 11.499867198205973 1.41592006562102 15.1799662947459 0 0 0
993 331 1 0.5897 10.807422958965248 0.7990653588460758 16.376621736312128 0 0 0
994 332 2 -1.1794 9.193933068318186 1.474956407505234 13.483397952633336 0 0 0
995 332 1 0.5897 9.589997976420435 2.243369993158481 13.072473206331889 0 0 0
998 333 1 0.5897 11.21722406936778 4.502355943242481 14.884526521454825 0 0 0
1000 334 2 -1.1794 9.449584466509231 4.6305553390693825 14.95853905189342 0 0 0
1001 334 1 0.5897 9.047825375285667 3.9432540162861556 15.489963341026364 0 0 0
1002 334 1 0.5897 8.854158520909017 4.739500349427962 14.217004622495976 0 0 0
1003 335 2 -1.1794 7.858210740814743 2.9738916108406337 16.432746649644894 0 0 0
1004 335 1 0.5897 7.85547702332748 2.0306416200542734 16.595276151187388 0 0 0
1007 336 1 0.5897 7.32435308503976 1.4529528751535918 13.500110720613337 0 0 0
1012 338 2 -1.1794 7.751536832645563 4.75271446264366 12.910635980443244 0 0 0
1014 338 1 0.5897 7.756208157081656 4.022569192888588 12.291709661713547 0 0 0
1011 337 1 0.5897 11.551928515431664 2.797139815899752 12.658977935042076 0 0 0
1009 337 2 -1.1794 10.86313823163551 3.276008586269467 12.198018778110882 0 0 0
996 332 1 0.5897 9.549215549241051 1.46817420060758 14.372229448273872 0 0 0
1013 338 1 0.5897 6.992580367566471 4.588149669674931 13.470250612092453 0 0 0
997 333 2 -1.1794 12.155304066668199 4.496003320150965 15.074830439166123 0 0 0
1038 346 1 0.5897 12.09807057247367 0.7157763109860652 13.021919446972698 0 0 0
1139 380 1 0.5897 8.544312469326293 6.08949983837058 16.14050032931052 0 0 0
1015 339 2 -1.1794 10.736177172778019 6.008109998309767 11.86274097193555 0 0 0
1018 340 2 -1.1794 7.852626743320389 0.23566266185415424 16.571506141996466 0 0 0
1376 459 1 0.5897 10.296916591785227 0.22049960078579514 12.691817759387702 0 1 0
1490 497 1 0.5897 10.760135826528337 2.7809689464746343 17.08064739715604 0 0 0
1497 499 1 0.5897 10.815141479501543 6.085151290508722 16.779913047090222 0 0 0
1826 609 1 0.5897 4.156329111715605 0.25913454596241176 18.15082591360022 0 1 0
974 325 1 0.5897 1.7539321648232942 3.364259319758173 17.323570537569704 0 0 0
1539 513 1 0.5897 0.16077219018896352 5.559077747486362 21.25634221888402 1 0 0
1590 530 1 0.5897 2.312374699823004 6.035541760170247 21.765950029927716 0 0 0
1465 489 2 -1.1794 4.260456062683414 5.994446114669405 17.841374333611412 0 0 0
1456 486 2 -1.1794 0.3659706108060832 1.6775884524087556 19.273486919161254 0 0 0
1538 513 1 0.5897 0.29029295048044695 4.054304442229207 21.15361159975312 1 0 0
1454 485 1 0.5897 2.2217025403276134 3.3611318635357117 21.607340679249752 0 0 0
1464 488 1 0.5897 0.8448610126108537 4.781924368679143 19.25920782588629 0 0 0
1443 481 1 0.5897 4.671439209423174 2.265207428010986 22.12674779236513 0 0 0
1450 484 2 -1.1794 3.2929002891445136 4.709851324129311 20.746217470275273 0 0 0
1469 490 1 0.5897 1.6634061725721025 1.1811057796878552 21.912498442635886 0 0 0
1442 481 1 0.5897 4.285016123837562 1.713804020674755 20.77078848879066 0 0 0
1453 485 2 -1.1794 1.4614884385210987 2.881181567728387 21.93589748177173 0 0 0
1444 482 2 -1.1794 3.213539604524726 1.494428633950188 19.287676747675583 0 0 0
1463 488 1 0.5897 1.4824938736962645 5.399835199427459 18.033003692722495 0 0 0
1452 484 1 0.5897 2.8945008305278557 4.732663771304435 19.876134372145334 0 0 0
1441 481 2 -1.1794 4.904972965503095 1.5901684044499442 21.489565757573146 0 0 0
1451 484 1 0.5897 4.23488271946151 4.683526592550452 20.578218020268874 0 0 0
1445 482 1 0.5897 2.2636054939576282 1.5198465010340463 19.402685926368616 0 0 0
1446 482 1 0.5897 3.4039467499712246 2.226478997812424 18.701119878472944 0 0 0
1461 487 1 0.5897 5.481416265990739 2.956331863857139 18.19116892359689 0 0 0
1459 487 2 -1.1794 4.694742994906668 3.2866957467463265 17.757293110796308 0 0 0
1462 488 2 -1.1794 1.5505437648204614 4.651375530078887 18.62577580264578 0 0 0
1466 489 1 0.5897 4.426057881853664 5.0683984200665 17.66484950527254 0 0 0
1447 483 2 -1.1794 6.0392403630263205 4.5443565447139695 20.71888080177735 0 0 0
1487 496 1 0.5897 5.964179678078814 1.7357874984063828 20.043638062366227 0 0 0
1468 490 2 -1.1794 1.684376198983496 0.2284263048307288 22.002510000430274 0 0 0
1488 496 1 0.5897 6.029131184737501 0.8694852864549827 18.803789822849286 0 0 0
1005 335 1 0.5897 7.908931387680214 3.3673373867477197 17.303893969949254 0 0 0
1475 492 1 0.5897 8.205225691083504 1.607160467282766 19.26299537384935 0 0 0
1471 491 2 -1.1794 10.998192202715982 1.7356819525189229 21.425421576191347 0 0 0
1481 494 1 0.5897 10.563267082044119 4.48071415212461 20.672614944255173 0 0 0
1491 497 1 0.5897 10.231227343037807 2.867059961278378 18.496587481063212 0 0 0
1496 499 1 0.5897 10.784774380253065 4.933961280629409 17.762598897317233 0 0 0
1477 493 2 -1.1794 12.28631384081811 4.486345616978042 20.75044426692369 0 0 0
1492 498 2 -1.1794 7.974060831549639 4.5427506441293675 18.62727565180696 0 0 0
1494 498 1 0.5897 7.263999398085193 4.570952537949261 19.268598558959642 0 0 0
1482 494 1 0.5897 9.228466170419672 4.594884786985656 19.967468486384373 0 0 0
1476 492 1 0.5897 9.434433320174076 0.9421279050192146 18.68102100453879 0 0 0
1448 483 1 0.5897 6.350829576034639 5.361583325318921 21.10776262607017 0 0 0
1449 483 1 0.5897 6.495204159206604 3.8578454240463858 21.205709095118614 0 0 0
1518 506 1 0.5897 12.301447090725107 1.4682275787298265 19.99840734813579 0 0 0
1495 499 2 -1.1794 10.77892799864223 5.889977333194221 17.71633436858421 0 0 0
1856 619 1 0.5897 11.436692319689444 0.003259745777255698 18.2910093338291 0 1 0
1517 506 1 0.5897 12.262033186819998 2.013194658650866 18.586507266406198 0 0 0
1498 500 2 -1.1794 8.081780731066484 0.30880186651269675 22.07126739698375 0 0 0
1484 495 1 0.5897 8.593920857612373 3.363287528812905 21.796755380513122 0 0 0
1480 494 2 -1.1794 9.626175986414411 4.58425841196501 20.838101338065144 0 0 0
1485 495 1 0.5897 7.940393540551927 2.0548848426146864 22.187554248210155 0 0 0
1474 492 2 -1.1794 9.153881271263604 1.5415586215372168 19.3725447392068 0 0 0
1483 495 2 -1.1794 7.815758467043414 3.0032520494747628 22.222288981462206 0 0 0
1620 540 1 0.5897 8.555089538509087 6.122621825928305 21.54979681252788 0 0 0
1486 496 2 -1.1794 6.388625810601761 1.6689355231895464 19.18826588745384 0 0 0
1493 498 1 0.5897 7.87606579442665 5.351625168922859 18.124978502582486 0 0 0
1473 491 1 0.5897 10.210985573167953 1.6782464650271607 20.88387942308643 0 0 0
1472 491 1 0.5897 10.892894902907777 1.0418067855167068 22.076314212117804 0 0 0
1489 497 2 -1.1794 10.889451475422524 3.2403799379385245 17.91039510405579 0 0 0
121 41 2 -1.1794 4.541485752649511 7.835253830680291 4.318294301203846 0 0 0
122 41 1 0.5897 3.84328562090298 7.640114742805601 3.6932345568705904 0 0 0
123 41 1 0.5897 5.341353889109751 7.834708741112055 3.792489158576489 0 0 0
124 42 2 -1.1794 2.8483202033030497 7.660425254344825 2.095915144226385 0 0 0
125 42 1 0.5897 3.1734504340457255 6.9689956186814 1.5193441092173186 0 0 0
126 42 1 0.5897 3.372760508998069 8.428333221111695 1.869057644455951 0 0 0
129 43 1 0.5897 5.023001539478255 10.689519075308583 3.5770944284747097 0 0 0
130 44 2 -1.1794 3.2236953582246097 10.847170176660077 3.449125977563422 0 0 0
132 44 1 0.5897 2.804945390839249 10.183461402927229 3.997169911109947 0 0 0
133 45 2 -1.1794 1.5014630313774207 9.233876214992076 4.863827668396082 0 0 0
135 45 1 0.5897 0.7655472393420852 9.702933483783728 4.470583660173664 0 0 0
137 46 1 0.5897 1.0826589093763 7.675283265285601 2.227082911864749 0 0 0
139 47 2 -1.1794 4.484781921258244 9.57988582509098 0.805665665355913 0 0 0
142 48 2 -1.1794 1.3127917911793983 10.738631952793016 1.359927016985352 0 0 0
143 48 1 0.5897 2.055548426073702 10.801971469890209 1.9603985262286008 0 0 0
144 48 1 0.5897 1.383145779633028 11.517582274442798 0.8081315590197518 0 0 0
149 50 1 0.5897 1.6860717494351483 7.512777628294214 4.737782179476645 0 0 0
131 44 1 0.5897 2.9151226094759286 11.680861591993548 3.8039669440304333 0 0 0
140 47 1 0.5897 4.5807393209420555 10.53150954728297 0.7689790357968932 0 0 0
148 50 2 -1.1794 1.8196715706113447 6.567376282712371 4.804939478228002 0 0 0
270 90 1 0.5897 0.8598136244204708 12.245652348227692 4.564483995788962 0 0 0
127 43 2 -1.1794 5.978331020556494 10.697019940124884 3.51763361152242 0 0 0
218 73 1 0.5897 0.08888211486226964 11.027573575312793 2.7170921586272105 1 0 0
26 9 1 0.5897 5.348596200428951 6.307162084996288 1.3223088187847245 0 0 0
168 56 1 0.5897 5.890691814158031 8.409328455562248 1.6031767720412056 0 0 0
145 49 2 -1.1794 4.662518006503583 12.306967558122402 0.6006916677523564 0 0 0
621 207 1 0.5897 4.479144482734151 9.032795090007161 5.702459529331659 0 0 0
507 169 1 0.5897 4.561890964694869 6.626983592357599 5.581994835922901 0 0 0
1574 525 1 0.5897 1.5575001418661094 9.525343153440229 0.09888444309368166 0 0 1
136 46 2 -1.1794 0.1292980708013367 7.741254617058013 2.281823227933257 0 0 0
128 43 1 0.5897 6.234706510211518 11.544906913975138 3.880304646318841 0 0 0
166 56 2 -1.1794 6.2582032971037105 7.758598756315431 2.2012595304032376 0 0 0
57 19 1 0.5897 11.367597829135978 6.543984588774176 1.3468408189446455 0 0 0
151 51 2 -1.1794 10.91922635187811 7.918755569542021 4.30577654959766 0 0 0
152 51 1 0.5897 10.230673980029636 7.745019709703264 3.6639188126374664 0 0 0
153 51 1 0.5897 10.774590917718756 7.269941071393047 4.994502235736919 0 0 0
154 52 2 -1.1794 9.118839779186652 7.810920138737394 2.291469436778028 0 0 0
155 52 1 0.5897 9.52807746125257 8.567287899395183 1.871206929674326 0 0 0
156 52 1 0.5897 9.365401932366206 7.06789523070388 1.7407258443815448 0 0 0
158 53 1 0.5897 11.222926459001124 10.968167154569063 3.5085348247290535 0 0 0
160 54 2 -1.1794 9.39675593793143 10.92995057210331 3.6232947667495283 0 0 0
161 54 1 0.5897 8.871074056372608 11.00784367699563 2.8271351382068697 0 0 0
162 54 1 0.5897 8.962636202240475 10.244729637517576 4.1314457279764545 0 0 0
163 55 2 -1.1794 7.82306687368389 9.140127977448556 4.915477522588538 0 0 0
164 55 1 0.5897 7.151113264503332 9.680379802840728 4.499743638737599 0 0 0
167 56 1 0.5897 7.20109908471476 7.922641137186451 2.184463936278965 0 0 0
169 57 2 -1.1794 10.801137516284946 9.508349229365884 0.8662186415594432 0 0 0
172 58 2 -1.1794 7.742069876568638 11.056493011688795 1.4693168763881295 0 0 0
173 58 1 0.5897 7.657326449365477 10.363561008073138 0.814430765550775 0 0 0
174 58 1 0.5897 7.039361901091067 10.882197760406102 2.0954972210125216 0 0 0
179 60 1 0.5897 7.645502132948775 7.410263214558722 4.801298867992815 0 0 0
171 57 1 0.5897 10.826275110910627 10.446475358546094 0.6779854496655094 0 0 0
178 60 2 -1.1794 7.576162426151388 6.466136635682646 4.942577936204027 0 0 0
175 59 2 -1.1794 10.660288890134636 12.156790146861592 0.712675420508594 0 0 0
300 100 1 0.5897 8.227546200948181 12.212901370492405 4.4766188879464694 0 0 0
197 66 1 0.5897 12.064719457208968 8.533267475452629 1.7264913260365913 0 0 0
198 66 1 0.5897 12.070792938575318 7.763048142461759 3.029823054292255 0 0 0
157 53 2 -1.1794 12.161757638875958 10.964571252745177 3.6951684849177533 0 0 0
650 217 1 0.5897 10.712843098144031 9.236588702954228 5.524050845146956 0 0 0
1739 580 1 0.5897 7.783192974951274 12.33453907923065 0.07528089185838402 0 0 1
55 19 2 -1.1794 10.68871821445003 6.202692997407153 0.7646911639631019 0 0 0
134 45 1 0.5897 1.5812725372793413 9.605712684114655 5.74225792795133 0 0 0
506 169 1 0.5897 3.8753486247908544 6.339436291656401 6.900325322512309 0 0 0
616 206 2 -1.1794 0.13473544650759747 7.8388663170381205 7.752834726946526 0 0 0
698 233 1 0.5897 0.18470632575490245 11.463751122004503 9.928172612129664 1 0 0
624 208 1 0.5897 1.3629390944289002 11.478247196914355 6.496851954555789 0 0 0
614 205 1 0.5897 2.2205973084061266 9.521656829694628 9.972886305668796 0 0 0
647 216 1 0.5897 5.73287328172088 7.757765839011316 8.520399450314473 0 0 0
605 202 1 0.5897 3.069510043690599 8.544313511489914 7.494846879192033 0 0 0
601 201 2 -1.1794 4.75268647547001 7.824621563783104 9.866614653134793 0 0 0
602 201 1 0.5897 4.67321161214565 7.095904978915269 10.482130368299815 0 0 0
620 207 1 0.5897 5.235084349383815 9.071284731738977 7.013602673299298 0 0 0
626 209 1 0.5897 4.570179885400772 11.210609587670422 6.675644312482851 0 0 0
604 202 2 -1.1794 2.771313056376031 7.728484555722692 7.896938536207074 0 0 0
613 205 2 -1.1794 1.5982299425017594 9.067623644757706 10.540998438184829 0 0 0
648 216 1 0.5897 5.873053659705853 7.049588426661286 7.189686094698497 0 0 0
622 208 2 -1.1794 1.242981008203622 10.791260800983448 7.152501969401054 0 0 0
615 205 1 0.5897 0.7532901006954987 9.471087518412356 10.342196093245112 0 0 0
610 204 2 -1.1794 3.2171126445510962 10.772125469866847 9.067717257102435 0 0 0
623 208 1 0.5897 2.0768205175874543 10.75881220928307 7.621457274513097 0 0 0
611 204 1 0.5897 4.169888230348947 10.861373952298909 9.090080258380754 0 0 0
630 210 1 0.5897 1.6580316283948378 7.282923222572363 10.774128748775192 0 0 0
619 207 2 -1.1794 4.531505474750003 9.506802200602666 6.5324190278010175 0 0 0
606 202 1 0.5897 1.8186659520360815 7.750401763000837 7.806220338640782 0 0 0
612 204 1 0.5897 2.8920668367703426 11.558193975215916 9.50660956001797 0 0 0
603 201 1 0.5897 3.9986928037511325 7.730423172018908 9.284478138784332 0 0 0
607 203 2 -1.1794 5.908991501629318 10.83419283085548 9.328294913394314 0 0 0
699 233 1 0.5897 0.03742892958011562 10.79593769042529 8.577501779540551 1 0 0
625 209 2 -1.1794 4.50539871844429 12.164933782031616 6.640887241410528 0 0 0
628 210 2 -1.1794 1.6521934656023483 6.329046638044697 10.85302759416724 0 0 0
150 50 1 0.5897 1.7531429546376824 6.381543960564082 5.741597532003361 0 0 0
1101 367 1 0.5897 4.633206443818564 9.012245204527606 11.261057657645976 0 0 0
535 179 2 -1.1794 10.519772283873442 6.204863036557827 6.342445521993664 0 0 0
299 100 1 0.5897 7.534310491807785 12.235741990232759 5.822326574504338 0 0 0
678 226 1 0.5897 12.234075051652836 8.515155613456722 7.260700154681882 0 0 0
165 55 1 0.5897 7.8416295193187455 9.437848145603422 5.825040432209377 0 0 0
537 179 1 0.5897 9.806699859236556 6.734134808315604 6.699685894976278 0 0 0
640 214 2 -1.1794 9.565690090591788 10.968794425069678 9.100127927717853 0 0 0
651 217 1 0.5897 9.987326307106539 9.310190586186321 6.850788523096833 0 0 0
646 216 2 -1.1794 6.24078222994206 7.7645892949245425 7.709064538423029 0 0 0
634 212 2 -1.1794 8.89408874300908 8.065487952517419 7.563590094969368 0 0 0
632 211 1 0.5897 11.28036928772331 7.8405466697539 9.221033401858255 0 0 0
633 211 1 0.5897 10.697327604812997 7.085954836461702 10.396874279218263 0 0 0
649 217 2 -1.1794 10.730313623524506 9.678706413572094 6.37286588171433 0 0 0
658 220 2 -1.1794 7.763321346766881 6.426017041349527 10.670179846124597 0 0 0
779 260 1 0.5897 8.485104977662642 12.091463473638644 10.1235728522966 0 0 0
657 219 1 0.5897 10.856671080707324 11.483935454234267 6.26568478694802 0 0 0
635 212 1 0.5897 9.36453536392926 7.975044463989708 8.392312985047939 0 0 0
645 215 1 0.5897 7.716080523508456 8.345647130463192 10.579308312690813 0 0 0
652 218 2 -1.1794 7.5302648941784005 10.879710293799823 7.156810391700819 0 0 0
653 218 1 0.5897 6.831115042447216 10.790109148675601 7.8044448541682065 0 0 0
654 218 1 0.5897 8.337920954192 10.847344112946692 7.669552650024003 0 0 0
636 212 1 0.5897 7.980959319846338 7.882426488189109 7.784785975565198 0 0 0
637 213 2 -1.1794 12.239531736337248 10.754604710805227 9.379222187205322 0 0 0
642 214 1 0.5897 9.17409000114503 10.257580285756791 9.607103328306303 0 0 0
536 179 1 0.5897 11.289799148013678 6.468056756090743 6.8464680044251205 0 0 0
643 215 2 -1.1794 7.807984807146137 9.290336649175089 10.45577346191595 0 0 0
641 214 1 0.5897 10.508516833711905 10.863505500141175 9.227559410054015 0 0 0
631 211 2 -1.1794 10.564035425509466 7.864011913233002 9.855528065049157 0 0 0
608 203 1 0.5897 6.44587837435736 11.521538849409682 9.722642121513598 0 0 0
609 203 1 0.5897 6.3308215994690125 10.017483962380703 9.595160108216373 0 0 0
1130 377 1 0.5897 10.55507387198168 9.085412422329311 11.188104825023977 0 0 0
644 215 1 0.5897 7.839070452411114 9.646547635772293 11.343708161173767 0 0 0
1179 393 1 0.5897 0.1521048798506989 10.888137677102748 14.095688396314015 1 0 0
1081 361 2 -1.1794 4.510592625564584 7.8700137721415935 15.798173823191576 0 0 0
1082 361 1 0.5897 4.590489674994901 8.557636999721304 16.459237747400685 0 0 0
1083 361 1 0.5897 4.520842618791719 7.053995470889034 16.298363796773977 0 0 0
1084 362 2 -1.1794 3.0739243060105914 7.8595393446692 13.573647415751095 0 0 0
1085 362 1 0.5897 3.484272403271747 7.920209091802981 14.436330308228253 0 0 0
1086 362 1 0.5897 3.5798661295842087 8.458481984991874 13.024546304631803 0 0 0
1089 363 1 0.5897 5.00710294133835 10.781752220507528 14.961487544235098 0 0 0
1090 364 2 -1.1794 3.192428711756658 10.9011017939999 14.950326178176166 0 0 0
1091 364 1 0.5897 2.8518937442224117 11.741247172447114 15.2575062104827 0 0 0
1092 364 1 0.5897 2.7237405428115453 10.24786191476911 15.469772418878858 0 0 0
1095 365 1 0.5897 0.7865081435166204 9.442962821556081 15.75389108268653 0 0 0
1097 366 1 0.5897 1.2658199235694074 7.618105923183852 13.655933698441515 0 0 0