LAMMPS data file via write_data, version 30 Jul 2021, timestep = 15500000

1920 atoms
2 atom types
1280 bonds
1 bond types
640 angles
1 angle types

-0.1790802144530712 24.909081214450065 xlo xhi
-0.14253081875465412 24.87253181875562 ylo yhi
-0.0862930826821291 22.89629308268678 zlo zhi

Masses

1 1.008
2 15.999

Pair Coeffs # lj/cut/tip4p/long/omp

1 0 0
2 0.21084 3.1668

Bond Coeffs # harmonic/omp

1 450 0.9572

Angle Coeffs # harmonic/omp

1 55 104.52

Atoms # full

1 1 2 -1.1794 4.501225138130613 1.149725681268971 4.283679445445363 0 0 0
2 1 1 0.5897 4.576042559584399 1.8679407544289433 4.911983452465401 0 0 0
3 1 1 0.5897 5.299057637194755 1.2067150131258233 3.7579799522267954 0 0 0
4 2 2 -1.1794 2.929584469915597 1.5418269197987948 1.9068654752538208 0 0 0
20 7 1 0.5897 3.9146160674308454 2.911868002156119 0.4725891623055094 0 0 0
6 2 1 0.5897 2.0078713793906124 1.7126696295097275 2.10030376558241 0 0 0
24 8 1 0.5897 1.4139262453031525 5.046329267624858 0.3122947738948789 0 0 0
11 4 1 0.5897 2.608151227010564 5.080516931593679 3.7107366564955315 0 0 0
10 4 2 -1.1794 3.006704556998513 4.357315941013749 3.2266524904394536 0 0 0
15 5 1 0.5897 1.373823495450162 1.9472152087716852 4.7062350568789935 0 0 0
12 4 1 0.5897 2.4667698096636563 4.267769598555103 2.4414286843595967 0 0 0
5 2 1 0.5897 3.3626004067131574 1.5673742386338245 2.760073504932626 0 0 0
25 9 2 -1.1794 4.477765332276808 5.927862777059228 0.06362687796172364 0 0 0
149 50 1 0.5897 1.5048852498460548 5.847339446239559 5.553248761976525 0 0 0
14 5 1 0.5897 2.1340832581515627 3.184003422904353 4.277006754450833 0 0 0
27 9 1 0.5897 4.495233489240314 4.97196674834476 0.01652829280787889 0 0 0
19 7 2 -1.1794 4.800081901207889 3.2007211880330293 0.2519554024793133 0 0 0
21 7 1 0.5897 5.36573698946684 2.728601681252836 0.8629395555442481 0 0 0
22 8 2 -1.1794 1.5203288670427508 4.431342886142008 1.0379992951426613 0 0 0
9 3 1 0.5897 4.937132045477335 4.109840629450652 3.5083879690733584 0 0 0
8 3 1 0.5897 5.972132402913727 5.043878373592843 4.098416584061002 0 0 0
23 8 1 0.5897 0.6755909904012766 4.442659142948656 1.48793470490426 0 0 0
13 5 2 -1.1794 1.321678731723108 2.9029723833837564 4.6979452781971 0 0 0
16 6 2 -1.1794 -0.05945807650248609 1.5897719359075786 1.6539060065274231 0 0 0
7 3 2 -1.1794 5.881302186073913 4.2189184469524665 3.6215403113362385 0 0 0
387 129 1 0.5897 4.001490807765129 0.1374532466268628 1.1807083941855039 0 1 0
28 10 2 -1.1794 1.4612862106469757 0.14542665721032 4.678054165611015 0 0 0
867 289 1 0.5897 4.599737628072366 0.062394540276808325 5.654258597912503 0 1 0
99 33 1 0.5897 0.045495563562354846 3.9754307817339978 3.660255000630624 1 0 0
504 168 1 0.5897 1.711342790232466 3.855698263960131 6.277865410340503 0 0 0
481 161 2 -1.1794 4.326379948996474 1.3965261812974412 9.939723051896399 0 0 0
482 161 1 0.5897 5.209739144318876 1.5215203283960799 9.593002770327116 0 0 0
483 161 1 0.5897 4.211442574957603 2.110570679276486 10.566727288424312 0 0 0
484 162 2 -1.1794 2.7652667960401494 1.3992273440882448 7.597888716616589 0 0 0
485 162 1 0.5897 3.196311974140071 1.349064586869677 8.451007527567604 0 0 0
486 162 1 0.5897 3.164556692631596 0.6961494512132271 7.0855880202023105 0 0 0
505 169 2 -1.1794 4.6621868206364585 5.821094417365716 6.281905343556171 0 0 0
488 163 1 0.5897 5.247848186838089 4.634476902926754 9.549112178124393 0 0 0
490 164 2 -1.1794 3.38754626149733 4.517175525589844 9.574970777732595 0 0 0
491 164 1 0.5897 3.2449971488088587 4.548750050373956 8.629036988934116 0 0 0
492 164 1 0.5897 2.699743731821817 3.9374174048599775 9.902080041451217 0 0 0
493 165 2 -1.1794 1.2573226380697915 2.8665451135720907 10.347330361457068 0 0 0
499 167 2 -1.1794 4.5495346369737915 3.0326608995579956 6.267543538949589 0 0 0
495 165 1 0.5897 1.1032492115720622 3.135343795294391 11.25294189168097 0 0 0
498 166 1 0.5897 0.900851570938008 1.1288277778982543 7.6157265325145085 0 0 0
579 193 1 0.5897 0.2890963328424042 3.860674856838685 9.311470008471865 1 0 0
494 165 1 0.5897 1.3489674635549116 1.9147639558790241 10.391749749200583 0 0 0
528 176 1 0.5897 5.743271792956866 2.279478966974249 7.3403344548236 0 0 0
502 168 2 -1.1794 1.90409058956992 4.445497612904527 7.006680031196482 0 0 0
500 167 1 0.5897 3.743525044519968 2.705686331643403 6.667053508231997 0 0 0
503 168 1 0.5897 1.1258019590674055 4.402812629247987 7.562184395446657 0 0 0
577 193 2 -1.1794 -0.11569221836839999 4.632285553357065 8.915261336702576 1 0 0
501 167 1 0.5897 4.475209644646224 3.9854118405105963 6.322329020186589 0 0 0
1347 449 1 0.5897 4.175917904970107 0.14537726212269336 11.202282369186975 0 1 0
508 170 2 -1.1794 1.325751834582708 0.13056104127196388 10.800385601656812 0 0 0
496 166 2 -1.1794 -0.0470205191393461 1.1670984153742143 7.743153195631866 0 0 0
578 193 1 0.5897 0.1336262417970649 5.355977387551643 9.48999100071669 1 0 0
527 176 1 0.5897 5.690413118986694 0.7664709149551258 7.341084359909361 0 0 0
979 327 2 -1.1794 4.409850692325361 3.126527123692899 12.041032769868252 0 0 0
961 321 2 -1.1794 4.2286116545163654 1.3230284745046497 15.620041569161197 0 0 0
962 321 1 0.5897 5.022842807810755 1.3420296975993977 15.086205326752816 0 0 0
988 330 2 -1.1794 1.0424306574034312 0.13004476635939638 16.27831433679428 0 0 0
964 322 2 -1.1794 2.510277620062771 1.6949656075287967 13.505478943925548 0 0 0
965 322 1 0.5897 2.7974807463675098 1.5571088287651953 14.408044858496849 0 0 0
966 322 1 0.5897 1.554403023620997 1.6805648775861677 13.552950638312689 0 0 0
981 327 1 0.5897 5.043092215800957 2.5790558845879423 12.505212226124115 0 0 0
970 324 2 -1.1794 2.950503304014217 4.708468736144053 14.887914760820669 0 0 0
971 324 1 0.5897 3.893767874939509 4.5609722878838665 14.956148672972601 0 0 0
972 324 1 0.5897 2.5629367254040507 4.058091731230073 15.473568557136073 0 0 0
980 327 1 0.5897 3.581475453564814 2.9731560002811035 12.495371392457843 0 0 0
975 325 1 0.5897 0.4226560402884847 3.367090810096478 15.852260177178215 0 0 0
985 329 2 -1.1794 4.480822874523015 5.877375828650752 12.203911882115348 0 0 0
976 326 2 -1.1794 -0.16204105283169667 1.7309993060414943 13.467753342696122 0 0 0
973 325 2 -1.1794 1.1311157052055842 2.9022495492714606 16.297437710535913 0 0 0
963 321 1 0.5897 4.421283669269459 0.6931326953093597 16.314511631891392 0 0 0
982 328 2 -1.1794 1.0308626547126971 4.673290877675538 12.681638398994709 0 0 0
983 328 1 0.5897 1.1834199554134972 5.395114138739938 12.071806617005118 0 0 0
984 328 1 0.5897 1.8269445019554449 4.634619465135294 13.211640643754697 0 0 0
990 330 1 0.5897 1.049493128880078 1.084837442644299 16.34600816168805 0 0 0
987 329 1 0.5897 4.55525614048018 4.924379594465237 12.254095400669748 0 0 0
968 323 1 0.5897 6.067562844192913 5.3318289295238674 15.269605401445016 0 0 0
967 323 2 -1.1794 5.793524416565439 4.634215729426655 14.674263066513477 0 0 0
1346 449 1 0.5897 3.6874509007704304 0.3151620461638058 12.625019322664595 0 1 0
1008 336 1 0.5897 5.848703218083473 0.39259913530032686 13.322554167050486 0 0 0
1460 487 1 0.5897 3.9583868094356376 2.618205876585095 17.08036013994904 0 0 0
974 325 1 0.5897 1.2752066595756542 3.3990755665286336 17.10276337008841 0 0 0
1006 336 2 -1.1794 6.040672878908717 1.3123575902347469 13.505433592890698 0 0 0
1109 370 1 0.5897 0.46622260073533983 5.8596305086466725 15.956600429327583 0 0 0
1454 485 1 0.5897 2.1293999948682174 2.855515119886888 21.37709076854863 0 0 0
1539 513 1 0.5897 0.3286409972571327 5.240592285233097 21.00868145739722 1 0 0
1441 481 2 -1.1794 4.587769679140254 1.2091652470923187 21.427937718326792 0 0 0
1442 481 1 0.5897 3.7498930930908503 1.2869519790648323 20.97179632870194 0 0 0
1464 488 1 0.5897 0.9832675938361783 4.626921235883512 19.09247701521517 0 0 0
1444 482 2 -1.1794 2.7890408164508007 1.1278860638936745 19.29225996256615 0 0 0
386 129 1 0.5897 4.494516694128103 -0.08915456442816254 22.75007354266996 0 1 -1
1446 482 1 0.5897 3.0996733825841942 1.9085095863326047 18.833615341716637 0 0 0
1459 487 2 -1.1794 4.24302774387652 3.112891468169278 17.848756446463725 0 0 0
1450 484 2 -1.1794 3.3208746229632187 4.267574024922292 20.595396052866658 0 0 0
1451 484 1 0.5897 4.269594678914728 4.393508403323943 20.61056960431847 0 0 0
1452 484 1 0.5897 3.0790411684641557 4.376302368449797 19.67571905314235 0 0 0
1453 485 2 -1.1794 1.4442501851124243 2.5499079703509375 21.97151011817205 0 0 0
1443 481 1 0.5897 4.583048743349337 1.9259064359458713 22.062336025981388 0 0 0
1466 489 1 0.5897 4.438336202948463 4.920872809808829 17.54689672710019 0 0 0
1590 530 1 0.5897 2.278445181014776 5.878420324610309 21.457959738468084 0 0 0
1461 487 1 0.5897 4.9577785304764275 2.593655076261502 18.21714328722988 0 0 0
1462 488 2 -1.1794 1.6260463423953968 4.518134892428618 18.391668208678556 0 0 0
1463 488 1 0.5897 1.530323616402054 5.304320831346002 17.854115673970945 0 0 0
1469 490 1 0.5897 1.2839785272355106 0.7700995108626835 22.000218404087985 0 0 0
1445 482 1 0.5897 1.8350860431742975 1.2049114457854537 19.278070403212553 0 0 0
1465 489 2 -1.1794 4.408341833350553 5.877542568719086 17.558971597244508 0 0 0
1455 485 1 0.5897 1.5880815441614835 3.0447913230548846 22.778079953255897 0 0 0
1538 513 1 0.5897 0.18965881933948125 3.7422516501561556 21.174872666096665 1 0 0
1488 496 1 0.5897 5.906519246276954 0.91905005758219 18.477194481960883 0 0 0
1826 609 1 0.5897 4.028887487653049 -0.12548425274840797 18.459339495433046 0 1 0
1456 486 2 -1.1794 -0.00921913192527199 1.35661471666004 18.965305133130656 0 0 0
1447 483 2 -1.1794 5.998017817914859 4.594284434600885 20.66166037068967 0 0 0
143 48 1 0.5897 1.4039768700951312 11.404092411377839 0.5818379704983229 0 0 0
121 41 2 -1.1794 4.569044877379453 7.579863656650075 4.199121359844372 0 0 0
122 41 1 0.5897 3.789764781025393 7.485565679436116 3.6514209468177663 0 0 0
123 41 1 0.5897 5.2881717549654415 7.68785662696982 3.576761050703443 0 0 0
124 42 2 -1.1794 2.715086138639964 7.565619683451697 1.751026316575949 0 0 0
145 49 2 -1.1794 4.492874194852916 11.934670882562795 0.7552502614888374 0 0 0
126 42 1 0.5897 3.23808530445212 8.219142941481925 1.2867289677392029 0 0 0
125 42 1 0.5897 3.050534081982397 6.7247359581987185 1.4401563520427803 0 0 0
129 43 1 0.5897 5.04041973978884 10.61970239344269 3.903650439861578 0 0 0
130 44 2 -1.1794 3.0094224711383775 10.77049204345103 3.4822755869194295 0 0 0
136 46 2 -1.1794 0.01019315591350764 7.55257550109091 2.171069446339164 0 0 0
132 44 1 0.5897 2.656470101382644 10.0378959899487 3.9871856617982138 0 0 0
133 45 2 -1.1794 1.40281315823265 8.850427141450977 4.848684699919391 0 0 0
135 45 1 0.5897 0.6663468776007357 9.284881246708943 4.418514520097974 0 0 0
26 9 1 0.5897 5.185130081079185 6.1513075881032835 0.6684838895536344 0 0 0
137 46 1 0.5897 0.9183096215920326 7.438005119081617 1.891152440852657 0 0 0
139 47 2 -1.1794 4.660294669418428 9.220320162717067 0.5700324263447933 0 0 0
140 47 1 0.5897 4.463000348533307 10.156673413024706 0.5460783347266792 0 0 0
142 48 2 -1.1794 1.4967659224997856 10.705586655497099 1.2296560904910163 0 0 0
131 44 1 0.5897 2.6392581124581977 10.658873005252369 2.606697506871344 0 0 0
144 48 1 0.5897 0.6424333572568978 10.661439643876983 1.6589788093247617 0 0 0
148 50 2 -1.1794 1.6188782695909185 6.114727206378279 4.641309941187305 0 0 0
150 50 1 0.5897 1.4773432251486216 7.061390401713094 4.649276940044487 0 0 0
270 90 1 0.5897 1.953676676712166 12.166867572813501 4.357632239430237 0 0 0
127 43 2 -1.1794 5.946033001513885 10.444020760877715 3.6483811088456193 0 0 0
168 56 1 0.5897 5.794116414903952 8.304841438460848 1.5473161657316965 0 0 0
621 207 1 0.5897 4.662071286891726 8.799870208946686 5.451416710050003 0 0 0
147 49 1 0.5897 3.708091541936601 11.994183812832283 1.2999668534984419 0 0 0
507 169 1 0.5897 4.7220773564310266 6.298564962815113 5.45451050446996 0 0 0
268 90 2 -1.1794 1.2167585518146882 12.33453285993277 4.944985004060139 0 0 0
218 73 1 0.5897 -0.06040149321664501 11.206902936189428 4.062595593280397 1 0 0
612 204 1 0.5897 2.961857458684838 11.613703906389663 9.722261049587996 0 0 0
620 207 1 0.5897 5.34978184877631 8.804348111033594 6.799988577655562 0 0 0
601 201 2 -1.1794 4.84400400994074 7.580137039666204 9.823237458568007 0 0 0
626 209 1 0.5897 4.662798366330296 11.140238881890584 6.427981381058525 0 0 0
603 201 1 0.5897 4.093236449289966 7.525236976219935 9.232076099911522 0 0 0
604 202 2 -1.1794 2.8878902631368804 7.643383504634248 7.889048849397584 0 0 0
605 202 1 0.5897 3.005238754464261 8.532220628614315 7.553719377153542 0 0 0
606 202 1 0.5897 1.9521327252670106 7.469925883810545 7.786872231791394 0 0 0
629 210 1 0.5897 1.966714204708858 6.230841722589752 10.196545818341276 0 0 0
610 204 2 -1.1794 3.233102400226417 10.81207470641789 9.27500868066531 0 0 0
611 204 1 0.5897 4.188358685021017 10.815123615820951 9.33530232409715 0 0 0
1101 367 1 0.5897 4.780858134456685 9.008500593621 11.020755689398861 0 0 0
619 207 2 -1.1794 4.605339633507215 9.178349618199272 6.328721924111931 0 0 0
616 206 2 -1.1794 0.1583490936386845 7.3607847886987 7.6328904231656995 0 0 0
614 205 1 0.5897 1.9214185089435203 9.624788498823069 10.25155193514189 0 0 0
624 208 1 0.5897 1.4540494328319873 11.380508176719069 6.607927091159237 0 0 0
607 203 2 -1.1794 6.016871890517324 10.776586036106103 9.263597898520853 0 0 0
613 205 2 -1.1794 1.203505367041972 9.19471901894507 10.716110218684902 0 0 0
622 208 2 -1.1794 1.5944838185284256 10.596257300056608 7.138434903697221 0 0 0
623 208 1 0.5897 2.307290853002127 10.832530432010202 7.731925774274947 0 0 0
615 205 1 0.5897 0.42474122455312435 9.403330564590526 10.200207142794458 0 0 0
602 201 1 0.5897 4.752518248636798 6.82057297081977 10.39847596992516 0 0 0
134 45 1 0.5897 1.5093228026799315 9.32093598767936 5.675383003382546 0 0 0
625 209 2 -1.1794 4.5738967467261995 12.079766666100548 6.2678549500902125 0 0 0
630 210 1 0.5897 1.2742434009468622 7.505559741887137 10.629525463243233 0 0 0
699 233 1 0.5897 0.15186748212050866 10.704144108442883 8.625044217132467 1 0 0
698 233 1 0.5897 -0.05568467917416789 11.361615280072384 9.97275643995904 1 0 0
628 210 2 -1.1794 1.1474931006116167 6.558815375769776 10.567323979886801 0 0 0
506 169 1 0.5897 4.135334431438267 6.385889008933417 6.847246106052231 0 0 0
648 216 1 0.5897 6.02931319060548 7.3150497048962695 8.486873419181741 0 0 0
1107 369 1 0.5897 4.676523077027112 11.161333941582235 11.770976887942684 0 0 0
1083 361 1 0.5897 4.550964210743762 7.09643723335869 16.24976981312113 0 0 0
1081 361 2 -1.1794 4.608540637544154 7.904178407002906 15.739421961816538 0 0 0
1082 361 1 0.5897 4.677315973818211 8.598055054348896 16.395159271061967 0 0 0
1105 369 2 -1.1794 4.4857259641145895 12.074241739283377 11.986485834493124 0 0 0
1084 362 2 -1.1794 2.97534010272097 7.991616006683614 13.424587033892644 0 0 0
1108 370 2 -1.1794 1.1781000124867753 6.358036772946058 16.357845445526998 0 0 0
1086 362 1 0.5897 3.36747162095423 7.945733124382867 14.296506661135316 0 0 0
1097 366 1 0.5897 1.1171707568939797 8.100166233134122 13.418509493923514 0 0 0
1089 363 1 0.5897 5.077520588449464 10.999526083585915 14.879096550179266 0 0 0
1090 364 2 -1.1794 3.20091094229178 10.919423417297095 14.934597381716038 0 0 0
1091 364 1 0.5897 2.819736699660372 11.688538382071323 15.358132891094815 0 0 0
1092 364 1 0.5897 3.009346919650346 10.196655993301732 15.53218142665655 0 0 0
1179 393 1 0.5897 -0.03261985714641491 10.78616804401554 14.242622444330289 1 0 0
1095 365 1 0.5897 0.8388509053711659 9.394869033232215 15.741473606825307 0 0 0
1100 367 1 0.5897 3.898741479280929 9.054435512648894 12.250142172783786 0 0 0
1128 376 1 0.5897 5.838344906981082 8.216020289555912 12.907611341095969 0 0 0
1094 365 1 0.5897 1.3708252194961268 8.111472897730222 16.342944960771778 0 0 0
1099 367 2 -1.1794 4.713389860779441 9.404436016928543 11.889568067075476 0 0 0
1103 368 1 0.5897 1.2558904738756222 9.950048168782857 12.344685316635854 0 0 0
1102 368 2 -1.1794 1.2159467812035478 10.727394619425716 12.901772634616615 0 0 0
1085 362 1 0.5897 3.1386823850760437 7.129385941710211 13.042338350281772 0 0 0
1104 368 1 0.5897 2.0121394110355233 10.684308192076154 13.431270391633063 0 0 0
1093 365 2 -1.1794 1.6262436212525078 9.00756690413147 16.123804473632905 0 0 0
1127 376 1 0.5897 5.818312095234378 7.778682568700018 14.356731801390653 0 0 0
1087 363 2 -1.1794 6.000550668892019 10.83089980733985 15.068160698822389 0 0 0
1178 393 1 0.5897 -0.015244274260084012 11.403841285687896 15.624590059700354 1 0 0
1096 366 2 -1.1794 0.20184441396233238 7.82029257917998 13.414191089786458 0 0 0
1098 366 1 0.5897 -0.05932596185724037 7.839506811678702 14.334809678012144 0 0 0
1110 370 1 0.5897 1.9438850830564394 6.158628478701527 15.819367081806496 0 0 0
986 329 1 0.5897 5.097599947750565 6.201181301920087 12.8603302963503 0 0 0
1587 529 1 0.5897 4.745925163454343 11.301420353274134 17.528429137488708 0 0 0
141 47 1 0.5897 4.750344112583634 8.970428499119867 22.633072497343008 0 0 -1
1576 526 2 -1.1794 -0.03973059361789866 7.834444605928853 19.142902388644586 0 0 0
1561 521 2 -1.1794 4.796025121039458 7.956714166527705 21.22432748489054 0 0 0
1562 521 1 0.5897 4.729438554537512 7.21256452181011 21.82266398018726 0 0 0
1563 521 1 0.5897 4.014982420740978 7.893307332895306 20.674697415137523 0 0 0
1564 522 2 -1.1794 2.81185635699936 7.583230962351038 19.294311560849017 0 0 0
1565 522 1 0.5897 1.882113026377593 7.691949997020246 19.09452621382773 0 0 0
1566 522 1 0.5897 3.1174085876132565 6.9288875005852555 18.666087850480206 0 0 0
1584 528 1 0.5897 1.5850220616865005 10.040925906405057 17.953709016376646 0 0 0
1570 524 2 -1.1794 3.3317251104410612 10.948938098765398 20.770103371534105 0 0 0
1571 524 1 0.5897 2.849412155602592 10.984271816752443 19.94412187495868 0 0 0
1572 524 1 0.5897 4.247451978354367 10.851042821455192 20.50930261660258 0 0 0
1581 527 1 0.5897 5.276907019653926 8.988866468899232 18.353922560383015 0 0 0
1575 525 1 0.5897 2.2331121528876983 9.427134244286037 21.286517547373883 0 0 0
1579 527 2 -1.1794 4.462881415153396 9.427634400745797 18.106889179727006 0 0 0
1230 410 1 0.5897 1.260035073266874 12.172745878920347 17.234155934449948 0 0 0
1573 525 2 -1.1794 1.587675882130592 9.054463490750901 21.887087766015906 0 0 0
1710 570 1 0.5897 2.1634877917003354 12.090790437327206 21.754353471212415 0 0 0
1582 528 2 -1.1794 1.7423494558256705 10.795770529788475 18.520865766198067 0 0 0
1583 528 1 0.5897 0.9717772893350369 10.835082028781933 19.087268702567425 0 0 0
1580 527 1 0.5897 3.7720510204955335 8.876027302019692 18.473864962707687 0 0 0
1589 530 1 0.5897 1.6564298951708327 7.148866493654693 21.99734384011593 0 0 0
1567 523 2 -1.1794 6.060032002420743 11.090687696949722 20.60011605877022 0 0 0
1574 525 1 0.5897 1.6653234556255865 9.583322209099354 22.68108658521834 0 0 0
1709 570 1 0.5897 0.6497412378710532 12.095218951108212 21.738054104118593 0 0 0
1588 530 2 -1.1794 1.5006948182870652 6.208677901350189 21.90762017572231 0 0 0
1658 553 1 0.5897 0.11700664852865439 9.965226608871404 20.923830942872478 1 0 0
1585 529 2 -1.1794 4.727051882731314 12.254048186718665 17.43672569224857 0 0 0
1467 489 1 0.5897 5.237824212929533 6.13863265479233 17.95890691739131 0 0 0
255 85 1 0.5897 2.1242427947434055 15.569263504941725 4.776725092203033 0 0 0
254 85 1 0.5897 0.6298450632507683 15.461711606161382 4.560052698828626 0 0 0
241 81 2 -1.1794 4.516238216643261 13.933633930880292 4.263650758078402 0 0 0
242 81 1 0.5897 4.627009690718524 13.193545310566037 4.860473597254762 0 0 0
243 81 1 0.5897 3.672743298369505 13.77580836366443 3.839670439881223 0 0 0
244 82 2 -1.1794 2.523821655569711 13.69747246431006 2.137662070845353 0 0 0
245 82 1 0.5897 1.5986463209552053 13.935187879168657 2.1985625797632897 0 0 0
246 82 1 0.5897 2.9324392599272837 14.436896943716826 1.687666224617216 0 0 0
146 49 1 0.5897 5.147859288652748 12.455157321767881 1.2203201767339584 0 0 0
250 84 2 -1.1794 3.10545411635294 16.898623963589035 3.732919258540177 0 0 0
251 84 1 0.5897 2.6953519793180467 16.898621907550627 2.8680783499450553 0 0 0
252 84 1 0.5897 4.04402538339075 16.95374857224813 3.553463021502919 0 0 0
253 85 2 -1.1794 1.3419456414669193 15.12539902160419 5.104096264613584 0 0 0
287 96 1 0.5897 5.824329278340549 13.74235124815099 2.753975068770901 0 0 0
265 89 2 -1.1794 4.175305664457121 18.456598104511976 0.5222730621306398 0 0 0
269 90 1 0.5897 1.2584809545758695 13.274678449863657 5.120042670387055 0 0 0
259 87 2 -1.1794 4.0856987521717425 15.64858764153974 0.7618202354161033 0 0 0
264 88 1 0.5897 1.1368575734004636 17.745016598616072 1.3657583344460453 0 0 0
262 88 2 -1.1794 1.3748028525858114 16.87006753067394 1.6724985074411778 0 0 0
263 88 1 0.5897 1.5828751329115405 16.38427893157687 0.8744613543009565 0 0 0
260 87 1 0.5897 4.1306831692463915 16.58952917235275 0.5919273167275615 0 0 0
389 130 1 0.5897 2.0173370600403335 18.424051250857264 4.481254882082962 0 0 0
339 113 1 0.5897 -0.027222984588893134 17.463173988786753 4.290167475816311 1 0 0
338 113 1 0.5897 -0.00483261727689821 16.73022937779053 2.965788716120104 1 0 0
247 83 2 -1.1794 5.811955111979666 16.766657259287744 3.6291872787607526 0 0 0
288 96 1 0.5897 5.6234767485194626 14.8385702386978 1.7294015456686895 0 0 0
261 87 1 0.5897 4.413561752639143 15.243766532565521 -0.0411520746360201 0 0 0
740 247 1 0.5897 4.669223704009521 15.447253442522946 5.64422889818015 0 0 0
627 209 1 0.5897 5.373141004504566 12.461721646571684 6.6304644930770245 0 0 0
721 241 2 -1.1794 4.6001911351994655 13.62748476067337 9.6541537742047 0 0 0
722 241 1 0.5897 3.8688746793038993 13.756476478096538 9.050269772529717 0 0 0
1221 407 1 0.5897 4.470836409516513 15.070898391718556 11.225303886963752 0 0 0
724 242 2 -1.1794 2.793292703311609 13.713028925012795 7.635120232932507 0 0 0
725 242 1 0.5897 2.9905229502767052 14.54031401360364 7.1958912256882686 0 0 0
726 242 1 0.5897 3.3527447109028663 13.070369212041271 7.199004291071419 0 0 0
748 250 2 -1.1794 1.0766259092022454 12.595311234538087 10.600692864811064 0 0 0
728 243 1 0.5897 4.882955721064027 16.929077098158093 9.333049878535048 0 0 0
730 244 2 -1.1794 3.113026374010742 17.138636650283605 9.646690381237566 0 0 0
735 245 1 0.5897 0.5700228840135173 15.818724245060894 10.314547770130366 0 0 0
732 244 1 0.5897 2.442644897662765 16.65606287857475 10.130312367208196 0 0 0
733 245 2 -1.1794 1.2739273769841604 15.344537604674457 10.757091748673693 0 0 0
745 249 2 -1.1794 4.432393188313727 18.446474889934596 6.569543862076649 0 0 0
723 241 1 0.5897 5.380184627081043 13.79914202552738 9.1266232623515 0 0 0
737 246 1 0.5897 0.9986860895645873 13.884360176114766 7.819924410179007 0 0 0
731 244 1 0.5897 2.7082408351828446 17.32879909249992 8.800443531365579 0 0 0
741 247 1 0.5897 4.5168718612629535 16.606732596726573 6.605584082179374 0 0 0
742 248 2 -1.1794 1.5683438468839905 17.112772206438684 7.200234293870154 0 0 0
739 247 2 -1.1794 4.558155603809036 15.650962744571123 6.572823093019233 0 0 0
744 248 1 0.5897 1.4052816766145495 16.313244759123737 6.69984743830699 0 0 0
743 248 1 0.5897 1.5798130473132719 17.808912200679693 6.5433902847022445 0 0 0
736 246 2 -1.1794 0.0621119817494713 13.816078273817103 7.6346518712466045 0 0 0
749 250 1 0.5897 1.278760937152845 13.526248012928008 10.507128028830506 0 0 0
818 273 1 0.5897 0.03919458747765697 17.197248448596063 8.581252757691939 1 0 0
869 290 1 0.5897 0.35708550838901343 18.431841538748046 10.698001660107233 0 0 0
727 243 2 -1.1794 5.807001914671805 17.17604260978878 9.369383606742584 0 0 0
1106 369 1 0.5897 4.623145023460623 12.548239638757142 11.166370876213715 0 0 0
1220 407 1 0.5897 3.5195425558110958 15.121495772213345 12.401794506225654 0 0 0
1201 401 2 -1.1794 4.064316753954629 13.97752537083104 15.444438064978312 0 0 0
1225 409 2 -1.1794 4.375650183371685 18.418744142354385 12.330678477635605 0 0 0
1227 409 1 0.5897 4.386355563200166 17.467620361151752 12.223410477121613 0 0 0
1204 402 2 -1.1794 2.6334312473574424 13.747276499976746 12.92994128625751 0 0 0
1205 402 1 0.5897 2.9080113821607196 13.86602638132986 13.83912971909734 0 0 0
1206 402 1 0.5897 3.2057949023314802 13.057250112931827 12.594572168765163 0 0 0
1215 405 1 0.5897 2.148977079070169 15.531265646841119 16.20061943305719 0 0 0
1210 404 2 -1.1794 3.0613063484027805 17.087443398043703 15.03866100457051 0 0 0
1211 404 1 0.5897 2.660602851119857 17.64122704460284 15.708687128602758 0 0 0
1212 404 1 0.5897 4.0017884534747665 17.237477163529476 15.134288110398678 0 0 0
1214 405 1 0.5897 0.7089143998600579 15.975934595672932 16.342837655338702 0 0 0
734 245 1 0.5897 1.3446196291545685 15.764942355350353 11.614062633226595 0 0 0
1297 433 2 -1.1794 -0.14087595488566507 17.273228983545064 15.417138564850639 1 0 0
1202 401 1 0.5897 4.816566621147028 13.906688979435247 14.856852219619576 0 0 0
1218 406 1 0.5897 0.7582930315859091 14.073334962499223 13.205501470994761 0 0 0
1203 401 1 0.5897 4.199498184309348 13.285544901837893 16.091798176227012 0 0 0
1229 410 1 0.5897 1.1975234750392767 13.521206516749102 16.548858268276973 0 0 0
1222 408 2 -1.1794 1.2634421879956426 16.855141572001457 13.101725043252063 0 0 0
1223 408 1 0.5897 1.3124844271401728 17.606926723576674 12.51127927707385 0 0 0
1224 408 1 0.5897 1.9615385375255197 17.00478922907757 13.739228120826759 0 0 0
1213 405 2 -1.1794 1.3792189858387756 15.43589324863691 16.76143963657402 0 0 0
1298 433 1 0.5897 0.2819856380595799 17.025934978050095 14.594847316889528 1 0 0
1219 407 2 -1.1794 4.312809068813654 15.52699621557024 12.051831797693815 0 0 0
1700 567 1 0.5897 4.5056593519577 14.95009322898435 16.949435899586955 0 0 0
1248 416 1 0.5897 5.631323626070983 13.117545682354969 12.787336019252827 0 0 0
1228 410 2 -1.1794 1.2253059109925286 12.58139318480863 16.369320595721334 0 0 0
1247 416 1 0.5897 5.9758169773312035 14.589245733063686 12.873238439247324 0 0 0
1226 409 1 0.5897 5.102813948541686 18.601339005045084 12.925690792977152 0 0 0
750 250 1 0.5897 1.1714420760160575 12.422096487488833 11.53724060624568 0 0 0
1697 566 1 0.5897 1.3203206560400689 13.726837026244409 19.215556519215962 0 0 0
1693 565 2 -1.1794 1.4899363469192557 15.292492525186827 22.353398147080622 0 0 0
1681 561 2 -1.1794 4.655928766033062 13.825360030425939 21.61481254557675 0 0 0
1707 569 1 0.5897 4.5495410316855365 17.365231048628555 17.724196172832823 0 0 0
1683 561 1 0.5897 4.640728789816376 13.10285897119292 22.242470071387814 0 0 0
1684 562 2 -1.1794 3.062976241474171 13.957931735164292 19.249025772849002 0 0 0
1695 565 1 0.5897 1.4644111957872352 14.335852232207396 22.374568402709414 0 0 0
1686 562 1 0.5897 3.430196075612853 13.824816486084515 20.122842535929685 0 0 0
1830 610 1 0.5897 1.966232274334025 18.402005858332306 21.978095434629264 0 0 0
1689 563 1 0.5897 4.839967286931361 17.224604908952042 20.85819027566509 0 0 0
1690 564 2 -1.1794 3.0092814631379836 17.101048865334356 21.020683201843436 0 0 0
1691 564 1 0.5897 2.6672479169476593 16.278296456785757 21.37042445167441 0 0 0
1692 564 1 0.5897 2.495277147317636 17.25715945287169 20.22849861389238 0 0 0
1699 567 2 -1.1794 4.664658147143812 15.48279344643848 17.72860515734545 0 0 0
1685 562 1 0.5897 3.4629821526869886 13.27262675598939 18.713705894862937 0 0 0
1682 561 1 0.5897 5.271780424951307 13.542920957676031 20.938724444444514 0 0 0
1705 569 2 -1.1794 4.29619831594207 18.26862721930732 17.913783897561963 0 0 0
1694 565 1 0.5897 0.6403744175863461 15.547333697056201 21.993591740080063 0 0 0
1778 593 1 0.5897 0.22404816467217076 16.926429220035207 20.286631452391088 1 0 0
1701 567 1 0.5897 4.016625816130672 15.17824849687471 18.36379136156718 0 0 0
1702 568 2 -1.1794 1.4678180055340655 17.037594266764525 18.9308447011036 0 0 0
1703 568 1 0.5897 1.5372612752390786 16.237468744757408 18.410079712462842 0 0 0
1704 568 1 0.5897 1.4947038265448158 17.74582067901364 18.287497335177324 0 0 0
1586 529 1 0.5897 5.424359495345221 12.564617467321701 18.014192160063164 0 0 0
1687 563 2 -1.1794 5.795730533011755 17.17371192378198 20.8488271194942 0 0 0
1728 576 1 0.5897 5.948367570109682 14.41773470826932 18.739619091705926 0 0 0
1708 570 2 -1.1794 1.404404560237036 12.573177269202818 22.081880125904977 0 0 0
1696 566 2 -1.1794 0.3655277055624815 13.701548612083261 19.15320385500563 0 0 0
1779 593 1 0.5897 0.04363457519431488 17.82020567084539 21.495076040696855 1 0 0
1698 566 1 0.5897 0.13347902084011765 14.509345410527185 18.695126282443784 0 0 0
1688 563 1 0.5897 6.0009462148688355 16.657658928421842 20.069255792389768 0 0 0
266 89 1 0.5897 3.9768835421002704 18.5169983577734 22.570466050245205 0 0 -1
390 130 1 0.5897 1.2197750168514734 19.61621503078419 4.965535304620545 0 0 0
363 121 1 0.5897 4.463882315212459 20.61784382532055 4.894522111950023 0 0 0
361 121 2 -1.1794 4.463433594353182 19.913041150143467 4.246874769083355 0 0 0
362 121 1 0.5897 3.655861785583952 20.044182978044198 3.7501011960371957 0 0 0
29 10 1 0.5897 2.1392717514892734 24.74796851486388 4.1429605687697 0 -1 0
364 122 2 -1.1794 2.7116144757549816 20.303270096907095 2.094405825742083 0 0 0
365 122 1 0.5897 3.045867167836394 20.806313748413558 1.351857589475052 0 0 0
384 128 1 0.5897 1.1627724268841062 22.562822701532628 0.5124821433261401 0 0 0
366 122 1 0.5897 1.7595580251153216 20.36002444425721 2.0136299739926353 0 0 0
370 124 2 -1.1794 3.016279352152873 23.173931737271683 3.335537094930639 0 0 0
371 124 1 0.5897 3.942965895577802 22.945367596679343 3.4075288145287517 0 0 0
372 124 1 0.5897 2.552030632999188 22.369807213998683 3.568093772726409 0 0 0
458 153 1 0.5897 -0.05220634572274144 24.372033012864442 3.6956794213326747 1 0 0
385 129 2 -1.1794 4.431455357550155 24.50336248595893 0.6240046683978057 0 0 0
379 127 2 -1.1794 4.615112628241658 21.701749745740198 0.4385910378158281 0 0 0
380 127 1 0.5897 4.747525477249265 22.647382146970987 0.5058635543657373 0 0 0
375 125 1 0.5897 0.42929847619812156 21.973053631017507 4.381932073087336 0 0 0