LAMMPS data file via write_data, version 30 Jul 2021, timestep = 15750000

1920 atoms
2 atom types
1280 bonds
1 bond types
640 angles
1 angle types

0.1006192000259194 24.629381799975224 xlo xhi
0.06526462512795383 24.6647363748673 ylo yhi
0.09950488107656419 22.71049511892541 zlo zhi

Masses

1 1.008
2 15.999

Pair Coeffs # lj/cut/tip4p/long/omp

1 0 0
2 0.21084 3.1668

Bond Coeffs # harmonic/omp

1 450 0.9572

Angle Coeffs # harmonic/omp

1 55 104.52

Atoms # full

1 1 2 -1.1794 4.599714208021656 1.5356909850879858 4.275646629091461 0 0 0
2 1 1 0.5897 4.69639613101485 2.263520451020977 4.889707758158643 0 0 0
3 1 1 0.5897 5.336189757267009 1.6317131933029065 3.671767126950237 0 0 0
4 2 2 -1.1794 3.031624045952428 1.5599881009957346 2.00943654127614 0 0 0
5 2 1 0.5897 3.3807752787940157 1.59099568730689 2.900160912804102 0 0 0
6 2 1 0.5897 2.081381449426637 1.5482700489124166 2.1243966932414184 0 0 0
9 3 1 0.5897 5.091163366618678 4.598832488157175 3.601978859209488 0 0 0
10 4 2 -1.1794 3.3180487532321408 4.574989554173929 3.633932088864896 0 0 0
11 4 1 0.5897 2.871390993100524 5.304957121634661 4.062664560952234 0 0 0
12 4 1 0.5897 2.894787279626726 4.503853475133629 2.7783325402279737 0 0 0
13 5 2 -1.1794 1.5162300243948572 3.009459780417808 5.081477291631599 0 0 0
14 5 1 0.5897 2.2725976299349107 3.344788683418344 4.600090760494325 0 0 0
15 5 1 0.5897 1.636674299039433 2.0599561410592493 5.086381317468429 0 0 0
19 7 2 -1.1794 4.722032577098776 3.324695016837861 0.7080179143025597 0 0 0
20 7 1 0.5897 3.955940243305589 2.897839043744558 1.0916269882350154 0 0 0
21 7 1 0.5897 5.466085264620828 2.954519917469124 1.1830127646216515 0 0 0
22 8 2 -1.1794 1.6854016378318943 4.472973655569943 1.446503467403908 0 0 0
23 8 1 0.5897 0.9448652930952823 4.551733111197731 2.047910309892652 0 0 0
24 8 1 0.5897 1.5895711422135277 5.214859186669882 0.8493660420503726 0 0 0
27 9 1 0.5897 4.68820392863021 5.1117395102378005 0.7549840368723076 0 0 0
28 10 2 -1.1794 1.6878781332219512 0.2753796522434579 5.017301620989743 0 0 0
387 129 1 0.5897 4.175487646264386 0.311979239763201 1.303743652529528 0 1 0
7 3 2 -1.1794 6.047301686150331 4.585277761389778 3.5580395890176892 0 0 0
98 33 1 0.5897 0.35261240150029605 5.462467796120213 3.9070742413897213 1 0 0
16 6 2 -1.1794 0.29047333453680513 1.5486891141463766 2.0896594269878133 0 0 0
25 9 2 -1.1794 4.618667162741211 6.0660962447696285 0.7336857488528591 0 0 0
99 33 1 0.5897 0.28461332288812724 3.955248609870838 4.03035056865386 1 0 0
47 16 1 0.5897 6.118051591935901 0.9628322641287723 1.7302506509274271 0 0 0
867 289 1 0.5897 4.672194376274873 0.2363475330910902 5.626649542017802 0 1 0
150 50 1 0.5897 1.6234136278617584 6.071690004136682 5.733096346979854 0 0 0
493 165 2 -1.1794 1.7022565727120547 2.933700502624041 10.545797745680785 0 0 0
508 170 2 -1.1794 1.4958259459546686 0.20974039972379566 10.59163463023844 0 0 0
504 168 1 0.5897 1.5625282123525346 4.096450520516471 6.543067356569497 0 0 0
489 163 1 0.5897 5.128721241755968 4.764765048848142 9.239109605521083 0 0 0
629 210 1 0.5897 2.2961970140738357 6.005876384539661 10.206961591542948 0 0 0
505 169 2 -1.1794 4.61593291405221 6.033330341063652 6.425999377457834 0 0 0
482 161 1 0.5897 5.325360003333808 1.6489859621027039 9.39447083493202 0 0 0
496 166 2 -1.1794 0.24234096849108017 1.7994941404987035 7.853498058691122 0 0 0
492 164 1 0.5897 2.9193526686825932 4.023460579990603 9.743611507551757 0 0 0
579 193 1 0.5897 0.3529617468686452 5.375766726720354 9.745445172220712 1 0 0
1347 449 1 0.5897 4.663583839228968 0.32343806301969596 11.279197811359083 0 1 0
485 162 1 0.5897 3.3733362695485885 1.7139122257856574 8.617724788553486 0 0 0
491 164 1 0.5897 2.8662360294770695 4.818470596597306 8.456380475701106 0 0 0
503 168 1 0.5897 0.9467055482273891 4.7649312886381505 7.7537619003960385 0 0 0
500 167 1 0.5897 4.013608806639696 2.976775843767888 6.8508915500184235 0 0 0
484 162 2 -1.1794 2.9774872442209372 1.7307457690571784 7.746357507399601 0 0 0
483 161 1 0.5897 4.647201555336029 2.2852823362869352 10.589095512529047 0 0 0
501 167 1 0.5897 4.667568657184032 4.26632796627468 6.402493308667531 0 0 0
487 163 2 -1.1794 6.082947271881708 4.812204305986242 9.179809996146405 0 0 0
490 164 2 -1.1794 3.3507529788801 4.740005685635593 9.27817859105821 0 0 0
527 176 1 0.5897 5.9255022969770375 0.8927883864247258 7.465387805904458 0 0 0
502 168 2 -1.1794 1.6564445378685666 4.855955483910965 7.117939683784252 0 0 0
486 162 1 0.5897 3.39775196994695 1.0095804684683527 7.277885233753768 0 0 0
578 193 1 0.5897 0.3426695039658607 3.8698024525304615 9.592159794413126 1 0 0
498 166 1 0.5897 1.1975064136432785 1.7433866404280272 7.824773804550708 0 0 0
494 165 1 0.5897 1.6558035457262812 1.9844510207534156 10.659177256444934 0 0 0
528 176 1 0.5897 5.964548474459676 2.4043243744058027 7.39284571080657 0 0 0
499 167 2 -1.1794 4.7647592244608195 3.31495488907668 6.3633703538459905 0 0 0
481 161 2 -1.1794 4.56883144614876 1.5564615249858482 9.97360180413351 0 0 0
961 321 2 -1.1794 4.5324666151288415 1.7409138478677555 15.591162496077454 0 0 0
962 321 1 0.5897 5.271369029165482 1.6849458538689284 14.98520979114591 0 0 0
963 321 1 0.5897 4.636263363637488 0.9832906758773214 16.166818735858868 0 0 0
964 322 2 -1.1794 2.8956540042492707 1.6090121363293306 13.38342532903606 0 0 0
965 322 1 0.5897 3.2566060281880107 1.6618180422042332 14.268401779928661 0 0 0
966 322 1 0.5897 1.947199033178026 1.5918221828369563 13.511688676420237 0 0 0
970 324 2 -1.1794 3.270499788703815 4.75579498052336 14.848301808453112 0 0 0
971 324 1 0.5897 4.221745596927991 4.65009341582415 14.864759189357603 0 0 0
972 324 1 0.5897 2.9379053873279983 4.015248789869867 15.355381999802848 0 0 0
973 325 2 -1.1794 1.6873528655644545 2.975843711514628 16.30587074564533 0 0 0
975 325 1 0.5897 0.9631061162085722 3.3895184812330768 15.836194498268028 0 0 0
979 327 2 -1.1794 4.628827485135226 3.321331270225305 12.076934975216663 0 0 0
980 327 1 0.5897 3.8634983781410135 2.8783032361333913 12.443341253865963 0 0 0
981 327 1 0.5897 5.375289076316096 2.913896448571682 12.516311038917465 0 0 0
982 328 2 -1.1794 1.4373427401243333 4.522254453273645 12.798616661880644 0 0 0
983 328 1 0.5897 1.4822063007573267 5.2644875883918365 12.19593255864437 0 0 0
984 328 1 0.5897 2.1569415286262332 4.667954149966612 13.41280875891799 0 0 0
987 329 1 0.5897 4.6562601277057745 5.096563804669103 12.126514160473162 0 0 0
990 330 1 0.5897 1.6556214112686625 1.1794294003545802 16.370157591903315 0 0 0
967 323 2 -1.1794 6.003913204052791 4.629431728214075 14.902863907098705 0 0 0
1109 370 1 0.5897 0.7878061601749246 5.910909451538159 15.921466845502147 0 0 0
1346 449 1 0.5897 3.952413356450644 0.2949718147781102 12.615387010545684 0 1 0
1008 336 1 0.5897 5.992194702716214 0.9067187888673551 13.028209237534368 0 0 0
988 330 2 -1.1794 1.589898881981539 0.23225546778857237 16.249201806365264 0 0 0
1110 370 1 0.5897 2.2985927335270815 5.983257546379682 15.855200392644425 0 0 0
985 329 2 -1.1794 4.743206586027474 6.048673679945413 12.081638007113918 0 0 0
976 326 2 -1.1794 0.16958834740386075 1.609563504245301 13.548478654464473 0 0 0
1058 353 1 0.5897 0.18158503483207022 4.625631916086197 14.158144874009317 1 0 0
1460 487 1 0.5897 4.620794323147514 2.858018035814721 16.986430703941934 0 0 0
495 165 1 0.5897 1.591396548981135 3.2865145609855055 11.428668081464043 0 0 0
1450 484 2 -1.1794 3.3687275595297868 4.795003245412338 20.666188854115653 0 0 0
1452 484 1 0.5897 3.0462699301631306 4.782905811607251 19.76500536832137 0 0 0
1461 487 1 0.5897 5.3980364098128994 2.8573609938982565 18.285613638966957 0 0 0
1468 490 2 -1.1794 1.7038639062739929 0.17430598018601443 21.806535105756517 0 0 0
1441 481 2 -1.1794 4.901289890835835 1.5234214587620767 21.256547631402455 0 0 0
1456 486 2 -1.1794 0.3324203864938169 1.5562415690746558 19.106527149250034 0 0 0
1462 488 2 -1.1794 1.7733199758738492 4.654985127758301 18.439914526349504 0 0 0
1447 483 2 -1.1794 6.101198875004445 4.670196065035726 20.475190617556088 0 0 0
1488 496 1 0.5897 6.054068228591535 0.9098676340868923 18.50156957080057 0 0 0
1443 481 1 0.5897 4.793144462551111 2.2507532398951384 21.86928582491194 0 0 0
1538 513 1 0.5897 0.3871174211322011 3.9273485531654693 20.912557783653014 1 0 0
1826 609 1 0.5897 4.097292084329361 0.20838879853498907 18.196905736703755 0 1 0
1442 481 1 0.5897 4.120985023006605 1.55776245643991 20.703159909522334 0 0 0
1487 496 1 0.5897 6.040820255414557 1.5437307553330342 19.87630922895697 0 0 0
1469 490 1 0.5897 1.7160145561968487 1.1280288549512445 21.886226216605543 0 0 0
1590 530 1 0.5897 2.3304931111208327 6.0261746549958515 21.632597948732858 0 0 0
974 325 1 0.5897 1.7470926364430397 3.460035681880333 17.12939770823401 0 0 0
1464 488 1 0.5897 1.0359402635012542 4.738691221511687 19.044523055842994 0 0 0
1539 513 1 0.5897 0.3423616608702994 5.437228605771707 21.011493043990633 1 0 0
1466 489 1 0.5897 4.592756733718993 5.064630133921445 17.78643573194475 0 0 0
1453 485 2 -1.1794 1.6862692211205985 2.921349240158601 21.799011247312514 0 0 0
1454 485 1 0.5897 2.3734837949648377 3.4329202591836077 21.372082885182337 0 0 0
386 129 1 0.5897 4.942409870071655 0.33242007796382533 22.60959237975092 0 1 -1
1465 489 2 -1.1794 4.4966365774316674 6.014619308048179 17.720336905606935 0 0 0
1444 482 2 -1.1794 3.0917128150326882 1.4264608174458924 19.188520813816957 0 0 0
1463 488 1 0.5897 1.6555517109111044 5.372142938203266 17.817039642030338 0 0 0
1446 482 1 0.5897 3.377637543023202 2.2084148782259563 18.71635542531068 0 0 0
1459 487 2 -1.1794 4.670067684101988 3.2898747410251237 17.839242503945975 0 0 0
1445 482 1 0.5897 2.13777151904279 1.4998340332225257 19.218952310180292 0 0 0
1451 484 1 0.5897 4.320165399691947 4.732463546129434 20.581523069453652 0 0 0
1455 485 1 0.5897 1.5991611418430238 3.3140869643369615 22.667568427370767 0 0 0
121 41 2 -1.1794 4.590740980185259 7.720918334155434 4.249356164247438 0 0 0
122 41 1 0.5897 3.8467583663773297 7.7209529043122735 3.6470445426692493 0 0 0
123 41 1 0.5897 5.360315772767875 7.7088760459942725 3.680232883217312 0 0 0
124 42 2 -1.1794 2.954373386734546 7.818338339002628 2.0379197449490043 0 0 0
125 42 1 0.5897 3.3308381359349535 7.057343689763327 1.5959734283766982 0 0 0
126 42 1 0.5897 3.450126870068104 8.562997293676887 1.6975093357916535 0 0 0
129 43 1 0.5897 5.104455354624736 10.76373015951641 3.543660823794911 0 0 0
130 44 2 -1.1794 3.2903496730249207 10.854014819519328 3.5386865258953577 0 0 0
131 44 1 0.5897 2.935868649761257 11.613495748114635 4.000948527348227 0 0 0
132 44 1 0.5897 2.880212300628659 10.101182742666383 3.9643518232813966 0 0 0
133 45 2 -1.1794 1.59274187725135 9.139757857928714 4.908547473541783 0 0 0
135 45 1 0.5897 0.9189906452249895 9.61107715964214 4.418487321984106 0 0 0
137 46 1 0.5897 1.1876199976603492 7.865120155641583 2.1446652925632588 0 0 0
139 47 2 -1.1794 4.827271930485688 9.538436980760212 0.8849848330507037 0 0 0
140 47 1 0.5897 4.79920977661271 10.488325378546111 0.7709164157366392 0 0 0
142 48 2 -1.1794 1.4719669935839954 10.789761078617211 1.4552471422290314 0 0 0
143 48 1 0.5897 2.21427959139139 10.896825923253326 2.050054801061735 0 0 0
144 48 1 0.5897 1.575135621580322 11.4926173764847 0.8137569601580499 0 0 0
149 50 1 0.5897 1.6210371023427663 7.364502026465879 4.945524574656443 0 0 0
148 50 2 -1.1794 1.6507831877719132 6.413731811036799 4.8395155819170474 0 0 0
127 43 2 -1.1794 6.0589235491957725 10.698507148320605 3.576070678258307 0 0 0
218 73 1 0.5897 0.24511146171489276 10.911156378072599 2.799680786637073 1 0 0
136 46 2 -1.1794 0.2353394976265472 7.935179264969459 2.21224608979218 0 0 0
168 56 1 0.5897 6.084781166493869 8.417266738414206 1.7553123017134653 0 0 0
621 207 1 0.5897 4.573032290983307 8.972296012248696 5.600655715935905 0 0 0
270 90 1 0.5897 0.9711019128170464 12.206482506181848 4.581252727626264 0 0 0
26 9 1 0.5897 5.357866839218942 6.372329955421368 1.2591153716193295 0 0 0
507 169 1 0.5897 4.609743931473015 6.528758928136258 5.607026110433676 0 0 0
145 49 2 -1.1794 4.7300365248778755 12.27861784477507 0.7749435396785276 0 0 0
1574 525 1 0.5897 1.6072199328365415 9.549685751275721 0.14859683075340152 0 0 1
134 45 1 0.5897 1.637824066057757 9.592402616482872 5.750743128294468 0 0 0
602 201 1 0.5897 4.735971753221895 7.064111693162688 10.554554838807723 0 0 0
648 216 1 0.5897 5.902839613887648 7.045410797795563 7.270764078296208 0 0 0
630 210 1 0.5897 1.6249932932940931 7.278327787219667 10.678164878405777 0 0 0
624 208 1 0.5897 1.6974018282572862 11.450913892769723 6.519842502558648 0 0 0
619 207 2 -1.1794 4.585577577146699 9.391901840902998 6.460883158513242 0 0 0
622 208 2 -1.1794 1.5664069035636161 10.708213688636967 7.1092389528538025 0 0 0
625 209 2 -1.1794 4.5966442898058135 12.140511895854658 6.4238352184238074 0 0 0
1101 367 1 0.5897 4.675412242770402 8.99859529485511 11.31103652207977 0 0 0
620 207 1 0.5897 5.295412817329233 8.954440233163073 6.931002951478112 0 0 0
628 210 2 -1.1794 1.5539752657585026 6.324779750525761 10.720457318791468 0 0 0
647 216 1 0.5897 5.899576519473294 7.736432859764392 8.617734893403863 0 0 0
610 204 2 -1.1794 3.339169498619676 10.727748839680046 9.195460889352004 0 0 0
603 201 1 0.5897 4.031869390258278 7.690144798922075 9.369554218508686 0 0 0
604 202 2 -1.1794 2.9715318092027143 7.642315960874807 7.935408013841057 0 0 0
615 205 1 0.5897 0.9137197957218169 9.477317928469951 10.23220686610696 0 0 0
611 204 1 0.5897 4.289232786650412 10.826014157647394 9.2589906860071 0 0 0
607 203 2 -1.1794 6.041290612091277 10.861107706779277 9.365519790746973 0 0 0
616 206 2 -1.1794 0.25148262423390755 7.803815136942262 7.806314452805265 0 0 0
506 169 1 0.5897 3.9175751559553587 6.426323922560785 6.949554029682437 0 0 0
613 205 2 -1.1794 1.6891869038841478 9.063400649569655 10.611132728129043 0 0 0
614 205 1 0.5897 2.425402972748046 9.465298104844404 10.149913333992066 0 0 0
605 202 1 0.5897 3.313921250123438 8.389266967398237 7.4444997103180945 0 0 0
626 209 1 0.5897 4.642469329274507 11.185786146585766 6.473677750427064 0 0 0
606 202 1 0.5897 2.0205220494572314 7.742802213977217 7.8930378635204645 0 0 0
699 233 1 0.5897 0.38955524248978535 10.727178480839177 8.461287124898027 1 0 0
698 233 1 0.5897 0.40553196740690595 11.479041327891439 9.77516833434764 1 0 0
623 208 1 0.5897 2.3143094241869857 10.74042859163377 7.705806869391966 0 0 0
612 204 1 0.5897 2.9877131957193237 11.486494197559347 9.661227374300239 0 0 0
601 201 2 -1.1794 4.760093414002921 7.826065537867612 9.97577161395686 0 0 0
1081 361 2 -1.1794 4.71893851072476 7.764440898168155 15.653220957034357 0 0 0
1082 361 1 0.5897 4.7312803670848025 8.522155240559039 16.237911297792316 0 0 0
1083 361 1 0.5897 4.653634255031484 7.01036895842906 16.23910336623816 0 0 0
1084 362 2 -1.1794 3.023231511644402 7.682100506074177 13.502942123568053 0 0 0
1085 362 1 0.5897 3.5087211313909052 7.6613647064676424 14.327645739699099 0 0 0
1086 362 1 0.5897 3.457579944899456 8.360376491815826 12.985774422336425 0 0 0
1089 363 1 0.5897 5.097141478809484 10.745911307687491 14.987709929505382 0 0 0
1090 364 2 -1.1794 3.317973991472619 10.76851149128466 14.959294167683668 0 0 0
1091 364 1 0.5897 2.889464398269781 11.545373097383498 15.318486756513746 0 0 0
1092 364 1 0.5897 2.9231295324536446 10.036282770553486 15.432689440138413 0 0 0
1093 365 2 -1.1794 1.6715161008155959 9.09923233003162 16.42343624847924 0 0 0
1094 365 1 0.5897 1.5729549275748016 8.148923512780822 16.366109955802713 0 0 0
1095 365 1 0.5897 0.9512411122986655 9.447309428318082 15.897783025515539 0 0 0
1097 366 1 0.5897 1.2409116079465778 7.738127797145811 13.501801718386382 0 0 0
1099 367 2 -1.1794 4.651599031868671 9.435458122090484 12.162387487714138 0 0 0
1100 367 1 0.5897 5.355445901625471 9.02335311935158 12.663409810771562 0 0 0
1102 368 2 -1.1794 1.6233600103314971 10.816940185481569 12.74775505987905 0 0 0
1103 368 1 0.5897 1.7109393113334177 10.086130748691675 12.135871756583265 0 0 0
1104 368 1 0.5897 2.363818663250943 10.718797872581929 13.34640000325896 0 0 0
1107 369 1 0.5897 4.71526689978719 11.212500682728669 12.111634034822341 0 0 0
1087 363 2 -1.1794 6.049726605968149 10.656498341513153 14.957713884541498 0 0 0
1179 393 1 0.5897 0.43086233161154897 10.68008197962252 14.098254681400919 1 0 0
1127 376 1 0.5897 5.962354217766215 7.7957619166623795 14.319502505561145 0 0 0
1105 369 2 -1.1794 4.761411443868939 12.159015609786897 12.246052979521915 0 0 0
1128 376 1 0.5897 5.98244679039139 7.056074897251219 12.998782949214604 0 0 0
1096 366 2 -1.1794 0.2950932028187517 7.77939543195711 13.36024642885263 0 0 0
1178 393 1 0.5897 0.34579842490599 11.443225000407914 15.402943564151965 1 0 0
986 329 1 0.5897 4.006169067819639 6.381332990176009 12.593870060142933 0 0 0
1108 370 2 -1.1794 1.5406952616983942 6.370326259001876 16.293416330057653 0 0 0
750 250 1 0.5897 1.70604347583408 12.130410499813928 11.457796699971244 0 0 0
1230 410 1 0.5897 1.7133265093865129 12.185129455607102 17.075720873230715 0 0 0
1566 522 1 0.5897 3.3655361911125765 7.111521676771002 18.701046435242432 0 0 0
1563 521 1 0.5897 4.124068232177149 7.859163207176098 20.686195984000605 0 0 0
1565 522 1 0.5897 2.0716082441651986 7.748975941450447 19.160816172625317 0 0 0
1567 523 2 -1.1794 6.130432045055363 10.820707410875457 20.58139273437685 0 0 0
1561 521 2 -1.1794 4.8750769135513305 7.88964413914269 21.278941167102587 0 0 0
1589 530 1 0.5897 1.6406692169527903 7.322179041744495 22.00163315662897 0 0 0
1588 530 2 -1.1794 1.5552601974036573 6.371714912419613 22.075189047877863 0 0 0
1587 529 1 0.5897 4.701919476709197 11.295198437197554 17.707423966077855 0 0 0
1572 524 1 0.5897 4.365896470792355 10.822639800783252 20.593341330296447 0 0 0
1584 528 1 0.5897 1.7583564106910532 10.219318209013252 17.868713662091714 0 0 0
1571 524 1 0.5897 3.06392949174424 10.879751367225259 19.822834993556356 0 0 0
1467 489 1 0.5897 5.287519401933979 6.364910604555876 18.13030344589025 0 0 0
141 47 1 0.5897 4.824495468860761 9.189540492558887 22.60463269689381 0 0 -1
1575 525 1 0.5897 2.3599451266005538 9.541684116869328 21.44607241345316 0 0 0
1579 527 2 -1.1794 4.749401756666305 9.511264993147002 17.795516282482772 0 0 0
1658 553 1 0.5897 0.3285146748726279 10.081907800402995 20.99434650075991 1 0 0
1562 521 1 0.5897 4.747477690170579 7.144864820404085 21.86645671117015 0 0 0
1564 522 2 -1.1794 3.0227697719437496 7.836579855164868 19.22350704158047 0 0 0
1585 529 2 -1.1794 4.657406562359944 12.249371914294155 17.64694791054709 0 0 0
1710 570 1 0.5897 2.41201667111825 12.092777708697794 21.57271182021126 0 0 0
1580 527 1 0.5897 3.9896053815495067 9.126665578301392 18.232616041309186 0 0 0
1576 526 2 -1.1794 0.28910492530936666 7.62113632715644 19.090289030720854 0 0 0
1583 528 1 0.5897 1.104405341431871 10.910134521241941 19.04642526660932 0 0 0
1573 525 2 -1.1794 1.6469143194560372 9.105568869304317 21.91259318760607 0 0 0
1582 528 2 -1.1794 1.852305344259269 10.972208291757765 18.45221897058964 0 0 0
1581 527 1 0.5897 5.497637455178293 9.026406023054141 18.143801733997776 0 0 0
1608 536 1 0.5897 6.020309044610017 7.703387414981932 19.85280880416274 0 0 0
1709 570 1 0.5897 0.9004157067727667 12.110580087967147 21.489957484427855 0 0 0
1570 524 2 -1.1794 3.416108804804341 10.835977793426142 20.711829638415146 0 0 0
241 81 2 -1.1794 4.725151930863864 13.997031816248438 4.363710583746388 0 0 0
242 81 1 0.5897 4.638531442198014 13.262947675344616 4.97179790973402 0 0 0
243 81 1 0.5897 3.986886547503937 13.898949953963474 3.7623531326883914 0 0 0
244 82 2 -1.1794 2.9399131025082053 13.7845847016847 2.2539165029406267 0 0 0
245 82 1 0.5897 1.9921187029104166 13.915853704781899 2.226261251892149 0 0 0
246 82 1 0.5897 3.3001581066118324 14.536170991953925 1.7832798924121405 0 0 0
250 84 2 -1.1794 3.297258623924356 17.10085997273343 3.784500486231723 0 0 0
251 84 1 0.5897 2.925588824266747 17.058947870395812 2.9033853582090363 0 0 0
252 84 1 0.5897 4.241481485213605 17.017741781827716 3.65090884911982 0 0 0
253 85 2 -1.1794 1.5794511281576882 15.287627880029913 4.988368424013117 0 0 0
254 85 1 0.5897 0.8282800392388165 15.71124682323629 4.572981004954122 0 0 0
255 85 1 0.5897 2.3408971656418447 15.742693255369765 4.628689687205428 0 0 0
259 87 2 -1.1794 4.5716088582941525 15.64857371276941 0.9313669440805944 0 0 0
260 87 1 0.5897 4.635453440025962 16.596408577947273 0.8146582478117355 0 0 0
262 88 2 -1.1794 1.6085951933050286 16.992164323379747 1.5706375035737072 0 0 0
263 88 1 0.5897 1.6556263762243562 16.253820738237096 0.9633585065047402 0 0 0
264 88 1 0.5897 1.5620096300871955 17.764083429765243 1.00662180589314 0 0 0
269 90 1 0.5897 1.6021201045272313 13.506549047445796 5.032149291704575 0 0 0
288 96 1 0.5897 5.912667882491578 14.679567272457712 1.7188782098655209 0 0 0
268 90 2 -1.1794 1.7129126742767358 12.556800681089689 5.074467861934439 0 0 0
247 83 2 -1.1794 6.028951987636698 16.972678746198795 3.6718650834524613 0 0 0
146 49 1 0.5897 5.466984596345492 12.697000430911919 1.2200502816916232 0 0 0
338 113 1 0.5897 0.33472593016826113 17.01009163661808 2.8647646571930756 1 0 0
147 49 1 0.5897 3.9558365235049657 12.605567986378775 1.2331912192478616 0 0 0
265 89 2 -1.1794 4.722596492565577 18.37645223167663 0.8507850169170281 0 0 0
287 96 1 0.5897 5.981788051261404 13.936162310422613 3.035848523280251 0 0 0
389 130 1 0.5897 2.217152875856157 18.365482978958553 4.599615221881063 0 0 0
339 113 1 0.5897 0.2593587036905293 17.708256403171447 4.205935693080762 1 0 0
256 86 2 -1.1794 0.19683568601288431 13.979306004662845 2.2176470682795437 0 0 0
740 247 1 0.5897 4.7892264510822775 15.261888174736868 5.737138118148757 0 0 0
724 242 2 -1.1794 3.0471542577634465 13.947610165430346 7.862103097521695 0 0 0
744 248 1 0.5897 1.6096439295432976 16.253475603766454 6.572152388266762 0 0 0
739 247 2 -1.1794 4.854357941620167 15.639134472841876 6.614445084074471 0 0 0
727 243 2 -1.1794 6.118035276124934 16.794033865030443 9.31342231237305 0 0 0
723 241 1 0.5897 5.505500879783272 13.7813503963776 9.410069131996867 0 0 0
818 273 1 0.5897 0.36315170362182675 16.93409791925057 8.509160351438366 1 0 0
1221 407 1 0.5897 4.82024511491656 15.133489389354521 11.3105150371178 0 0 0
735 245 1 0.5897 1.0459478044709574 15.6666036510755 10.209907083286074 0 0 0
745 249 2 -1.1794 4.724454991992138 18.365972100262034 6.453860994084926 0 0 0
741 247 1 0.5897 4.791777019793978 16.583918462384524 6.474603260773698 0 0 0
748 250 2 -1.1794 1.7101544635767847 12.501273346395031 10.57537475694996 0 0 0
730 244 2 -1.1794 3.3829248524730513 17.03483321447756 9.342820818962052 0 0 0
768 256 1 0.5897 6.110317729349278 14.503605990676817 7.447173267351236 0 0 0
736 246 2 -1.1794 0.3406816121508518 13.98825198446769 7.752439269237365 0 0 0
722 241 1 0.5897 3.9951899543511895 13.870497499794103 9.46588130228098 0 0 0
870 290 1 0.5897 2.4058532433435404 18.255692936660026 10.392776093752087 0 0 0
627 209 1 0.5897 5.339702139445296 12.443963889680353 6.945423466574377 0 0 0
733 245 2 -1.1794 1.7615794454439817 15.236767973910036 10.678271380982887 0 0 0
725 242 1 0.5897 3.5433845710761016 14.693172800435601 7.524377394387731 0 0 0
731 244 1 0.5897 2.9118593724826494 17.08224211023301 8.510886562286855 0 0 0
743 248 1 0.5897 1.5781700290848213 17.76663956249329 6.601669301880583 0 0 0
721 241 2 -1.1794 4.770867260722335 13.807186163422418 10.023203693157564 0 0 0
732 244 1 0.5897 2.9650399127646314 16.314365636383286 9.814485782613 0 0 0
869 290 1 0.5897 0.8944583390948917 18.171828966677992 10.365322894150935 0 0 0
726 242 1 0.5897 3.3952533305344796 13.192901454728574 7.387342610949006 0 0 0
749 250 1 0.5897 1.6890601961484426 13.448217245995101 10.712998964349591 0 0 0
742 248 2 -1.1794 1.625708912325836 16.99931118247975 7.171836383173272 0 0 0
728 243 1 0.5897 5.16421023746778 16.87190230920094 9.291795852807759 0 0 0
737 246 1 0.5897 1.2870635147107992 13.963677009971871 7.894111183784414 0 0 0
1106 369 1 0.5897 4.781381351250455 12.526182699103577 11.362302551727447 0 0 0
1201 401 2 -1.1794 4.604600665024866 14.074542392678678 15.602642085571109 0 0 0
1202 401 1 0.5897 5.3638250468056 13.983339891213785 15.026838711932635 0 0 0
1203 401 1 0.5897 4.658821368006386 13.322479583106638 16.19222709054344 0 0 0
1204 402 2 -1.1794 3.008319525886375 13.916450108705634 13.406723915108673 0 0 0
1205 402 1 0.5897 3.4174912727221827 14.008110226777907 14.267210297136248 0 0 0
1206 402 1 0.5897 3.4936815413381064 13.207707312418602 12.984488959276614 0 0 0
1210 404 2 -1.1794 3.4139707539450255 16.955739833956187 14.888324747232852 0 0 0
1211 404 1 0.5897 3.077315247153256 17.67781003785798 15.418835591061681 0 0 0
1212 404 1 0.5897 4.365825359980629 17.041076708127086 14.943127870864087 0 0 0
1213 405 2 -1.1794 1.6813270539744463 15.266941668364128 16.349785941627815 0 0 0
1214 405 1 0.5897 0.9539839872036661 15.765347486438875 15.977218852742366 0 0 0
1215 405 1 0.5897 2.4591747414028076 15.61531820989774 15.914059140139154 0 0 0
1218 406 1 0.5897 1.2365681852131833 13.876669750674713 13.511152467400597 0 0 0
1219 407 2 -1.1794 4.785182221362666 15.599771115397427 12.145716893418697 0 0 0
1220 407 1 0.5897 4.074266322260125 15.17664481614391 12.627189681883246 0 0 0
1222 408 2 -1.1794 1.5367121488968813 16.832585040308878 12.887158228576535 0 0 0
1223 408 1 0.5897 1.6146550491206653 17.56912548957792 12.280870014210487 0 0 0
1224 408 1 0.5897 2.292186394599324 16.919320049513665 13.468557182678811 0 0 0
1227 409 1 0.5897 4.65240724400203 17.365232186533248 12.156276457363937 0 0 0
1229 410 1 0.5897 1.6083953516931822 13.488058017508433 16.312175940986435 0 0 0
1298 433 1 0.5897 0.35327779016263133 17.015559678621784 14.251900841043405 1 0 0
1228 410 2 -1.1794 1.5732907390000779 12.53850921658666 16.197232945298907 0 0 0
1225 409 2 -1.1794 4.536471296617862 18.314668393663858 12.121379207335378 0 0 0
1247 416 1 0.5897 6.0319846807142765 14.66186201485777 13.089860826204935 0 0 0
1216 406 2 -1.1794 0.2813210059883239 13.817693497432858 13.52955817220535 0 0 0
734 245 1 0.5897 1.7443042836743645 15.626123073097398 11.552528833816432 0 0 0
1350 450 1 0.5897 1.105692676742458 18.353606069340678 15.939557193470819 0 0 0
1248 416 1 0.5897 6.0465430149300605 13.149918855667995 13.162959810153614 0 0 0
1207 403 2 -1.1794 6.142145355020325 17.00713006503279 15.034346465356133 0 0 0
1700 567 1 0.5897 4.759648754938716 15.293584077971893 16.95218487157065 0 0 0
1682 561 1 0.5897 5.350508794141437 13.896843487631536 20.675872290685703 0 0 0
1695 565 1 0.5897 1.6058514967774318 14.272054488260947 21.99122091643386 0 0 0
1728 576 1 0.5897 6.064373939279453 14.586803915060583 18.69091890542601 0 0 0
1696 566 2 -1.1794 0.2891481136653923 13.722106700568812 19.12765878633023 0 0 0
1707 569 1 0.5897 4.78337696029892 17.476768985318266 17.84012347287875 0 0 0
1702 568 2 -1.1794 1.6548854812985918 16.970990787719465 18.486125812693047 0 0 0
1693 565 2 -1.1794 1.6820722209528611 15.220944217824107 22.09065095137769 0 0 0
1687 563 2 -1.1794 6.010191248665355 17.103337692368036 20.7113326271719 0 0 0
1708 570 2 -1.1794 1.638585958124155 12.518193935066204 21.942962767042516 0 0 0
1701 567 1 0.5897 4.053423306298574 15.219002344155188 18.289217697947954 0 0 0
261 87 1 0.5897 4.5798337764438575 15.296143225670763 22.652440353653212 0 0 -1
1778 593 1 0.5897 0.4005599664244784 16.86004379033509 19.819922733901933 1 0 0
1830 610 1 0.5897 2.2603141227239893 18.36046615930433 21.577176156693362 0 0 0
1683 561 1 0.5897 4.699734643654378 13.325978052246837 21.917853188302004 0 0 0
1705 569 2 -1.1794 4.829853629939091 18.426453139827487 17.949792038226818 0 0 0
1685 562 1 0.5897 3.4353837703302026 13.27942619893323 18.59869826985608 0 0 0
1699 567 2 -1.1794 4.747840266884472 15.686441081817886 17.824965090693105 0 0 0
1684 562 2 -1.1794 2.997029059310417 13.980434089379575 19.080992478950662 0 0 0
1697 566 1 0.5897 1.241883942268223 13.813540405979781 19.11193777324325 0 0 0
1690 564 2 -1.1794 3.26628071952287 17.020121941499987 20.694009592636938 0 0 0
1691 564 1 0.5897 2.8759260361720176 16.291836545609485 21.177114193889963 0 0 0
1692 564 1 0.5897 2.8142370693395002 17.018124265466525 19.850258073905756 0 0 0
1681 561 2 -1.1794 4.631896764327187 14.045662834180458 21.290471246569233 0 0 0
1704 568 1 0.5897 1.7212794271982519 17.742325850842633 17.92329668465311 0 0 0
1586 529 1 0.5897 5.395051825365469 12.557835711911022 18.17325636575096 0 0 0
1686 562 1 0.5897 3.431476508047214 13.9930163192326 19.93384648600061 0 0 0
1703 568 1 0.5897 1.682353485944485 16.229629365451068 17.881328876938618 0 0 0
1689 563 1 0.5897 5.059182340287034 17.098402911035294 20.602374390103186 0 0 0
1694 565 1 0.5897 0.9554990784992473 15.575066147683994 21.57786061127497 0 0 0
1779 593 1 0.5897 0.3554100073506794 17.582051420714983 21.149776664559376 1 0 0
361 121 2 -1.1794 4.787086104134541 20.111433396641033 4.333199720088293 0 0 0
362 121 1 0.5897 4.047776869359076 20.00135227962012 3.7352110101939395 0 0 0
363 121 1 0.5897 4.715420329750745 19.375824555327213 4.941389887385325 0 0 0
364 122 2 -1.1794 2.999417068059949 19.979901317066982 2.2753976486673206 0 0 0
365 122 1 0.5897 3.306573182877187 20.709945303728766 1.7379493679498381 0 0 0
366 122 1 0.5897 2.0448951009922642 20.02590638519755 2.2198491886676877 0 0 0
370 124 2 -1.1794 3.328987812657574 23.205491929946128 3.4926666970122833 0 0 0
371 124 1 0.5897 4.281079887953662 23.118986828892268 3.5411482276685393 0 0 0
372 124 1 0.5897 2.994879658723803 22.4791340799907 4.018916257172897 0 0 0
373 125 2 -1.1794 1.7458090100228087 21.48219562821904 4.946416424366143 0 0 0
375 125 1 0.5897 1.008455658882693 21.91127098568907 4.512297544924024 0 0 0
379 127 2 -1.1794 4.545271257933876 21.796491554368423 0.8114850168000113 0 0 0
380 127 1 0.5897 4.701214452748943 22.74014287529655 0.8474697661507039 0 0 0
381 127 1 0.5897 5.287493383024335 21.412669572756954 1.278442508431601 0 0 0