LAMMPS data file via write_data, version 30 Jul 2021, timestep = 7500000

1296 atoms
2 atom types
864 bonds
1 bond types
432 angles
1 angle types

-10.799079992061797 12.779079992061797 xlo xhi
-9.389813473100196 12.379811473100196 ylo yhi
0.05095516116019638 21.809043838847156 zlo zhi
-9.247258749862558 1.7979281225653925 3.4072739610052296 xy xz yz

Masses

1 1.008
2 15.999

Pair Coeffs # lj/cut/tip4p/long/omp

1 0 0
2 0.21084 3.1668

Bond Coeffs # harmonic/omp

1 450 0.9572

Angle Coeffs # harmonic/omp

1 55 104.52

Atoms # full

298 100 2 -1.1794 -5.943689658463749 -7.180243763690165 4.0648921111750935 1 1 0
270 90 1 0.5897 -8.469936417617706 -7.334405180608677 2.057718617256413 1 1 0
269 90 1 0.5897 -9.246080117983 -6.049299937402742 2.253227756142948 1 1 0
268 90 2 -1.1794 -9.130408522614406 -6.926818423180153 2.617909249750633 1 1 0
163 55 2 -1.1794 -7.218408517380077 -7.9837162638789625 0.9719968379619494 1 1 0
164 55 1 0.5897 -6.415651816193245 -8.479752232316365 1.132850004446402 1 1 0
324 108 1 0.5897 -7.289731349253288 -4.49459519398854 3.1819012756618537 1 1 0
165 55 1 0.5897 -7.694004403139191 -8.501009803300125 0.32197520270038715 1 1 0
322 108 2 -1.1794 -6.487976027359715 -4.853025918058564 2.8012041340649008 1 1 0
314 105 1 0.5897 -8.542145391685189 -6.926287785020412 4.5908756682941965 1 1 0
280 94 2 -1.1794 -9.788606337185826 -4.5687796045650115 1.2885235355213285 1 1 0
299 100 1 0.5897 -6.441758171962975 -7.986479465854071 4.200140949704665 1 1 0
73 25 2 -1.1794 -8.384634210610137 -3.674509958013579 4.511005441483848 1 0 0
75 25 1 0.5897 -9.304050331552077 -3.4650409167609935 4.3463446272489525 1 0 0
313 105 2 -1.1794 -8.669728834344415 -6.508049399133583 5.442333536540538 1 1 0
282 94 1 0.5897 -10.632139133694132 -4.198349494395704 1.548289676204991 1 1 0
315 105 1 0.5897 -8.37441791591721 -5.606581520524118 5.313639555228275 1 1 0
323 108 1 0.5897 -6.312463049801961 -5.643662508405871 3.3115954146387208 1 1 0
281 94 1 0.5897 -9.23885588240944 -3.807235605450016 1.1035791079134416 1 1 0
275 92 1 0.5897 -10.641727820917845 -7.929187438857584 3.3410296745730546 1 1 0
1226 409 1 0.5897 -10.111648585644208 -5.8367562867858505 0.08507091310220943 0 0 1
260 87 1 0.5897 -6.653668429076543 -6.362836997732374 0.27896952231483907 1 1 0
419 140 1 0.5897 -9.030179253766015 -5.341810829447255 8.667140124931409 1 0 0
418 140 2 -1.1794 -9.832365765743743 -5.752436928740562 8.989876548385274 1 0 0
618 206 1 0.5897 -7.995828268734574 -7.635408322032678 6.941040776772178 1 1 0
427 143 2 -1.1794 -5.974171149344366 -6.466732102029399 9.6295714059646 1 0 0
626 209 1 0.5897 -10.670934514005218 -6.590741397534538 7.494179634023056 1 1 0
420 140 1 0.5897 -9.527961904118412 -6.47539116987309 9.538579161015553 1 0 0
414 138 1 0.5897 -6.674033852370653 -4.512201800977174 7.713101309139363 1 0 0
413 138 1 0.5897 -7.617912508672595 -3.3331063330685646 7.607967550636238 1 0 0
412 138 2 -1.1794 -7.402165145878032 -4.083072255386221 8.162411581256277 1 0 0
428 143 1 0.5897 -6.67341697289293 -6.572209760831305 10.274630290926902 1 0 0
350 117 1 0.5897 -7.311728815519006 -4.13249020768695 10.141958665390373 0 0 0
429 143 1 0.5897 -6.407459081791394 -6.585884530462644 8.78438368021235 1 0 0
627 209 1 0.5897 -10.538574382954483 -7.255973630764152 6.14076149288539 1 1 0
616 206 2 -1.1794 -7.424427087013132 -7.981924880417094 7.626440023426689 1 1 0
631 211 2 -1.1794 -5.576509132843692 -5.558432578651158 6.491229399923627 1 1 0
633 211 1 0.5897 -5.781155143268747 -6.0938936720951755 5.7246383394885285 1 1 0
661 221 2 -1.1794 -9.559312582025957 -4.167738651690922 12.605388491139864 0 0 0
767 256 1 0.5897 -11.237327942626994 -2.8132040481542155 14.86349441338271 0 0 0
780 260 1 0.5897 -7.787022825962195 -3.7594826620461426 15.511096875080977 0 0 0
779 260 1 0.5897 -7.459278343289778 -2.8302043231859235 14.361730940805463 0 0 0
778 260 2 -1.1794 -8.194565631755797 -3.235873219716881 14.821105559774903 0 0 0
663 221 1 0.5897 -8.78579232205918 -4.151053487811295 12.041858341037495 0 0 0
662 221 1 0.5897 -9.224106206162427 -3.9658961979769973 13.478976234846506 0 0 0
652 218 2 -1.1794 -6.052301606792261 -5.491095600787165 12.972333297471035 0 0 0
654 218 1 0.5897 -6.450497213842076 -5.005888050781884 12.249584731186436 0 0 0
653 218 1 0.5897 -6.739421051513884 -6.08853766231254 13.267715567670319 0 0 0
758 253 1 0.5897 -10.046063040140247 -5.212740902752069 16.30376536590778 0 0 0
740 247 1 0.5897 -11.135935503524715 -2.981339005442245 12.17730753090724 1 0 0
684 228 1 0.5897 -8.948918489352966 -6.487007141649855 14.248321466871142 0 0 0
766 256 2 -1.1794 -10.611157632118669 -2.091929611386564 14.799931163389731 0 0 0
768 256 1 0.5897 -9.753950717449172 -2.5108305886103226 14.877574883429855 0 0 0
682 228 2 -1.1794 -8.349089471855983 -6.880476958105161 13.614642096601026 0 0 0
789 263 1 0.5897 -4.848782218690255 -4.662173785709241 14.18379816200529 0 0 0
729 243 1 0.5897 -8.677153142140206 -6.978244714083976 11.883078629954259 1 0 0
788 263 1 0.5897 -5.062832743218154 -4.391000685270091 15.657704524618778 0 0 0
351 117 1 0.5897 -7.042776575803361 -3.0484076874381447 11.163953072895389 0 0 0
349 117 2 -1.1794 -7.2357846666768175 -3.9826531029644876 11.084290529272417 0 0 0
739 247 2 -1.1794 -11.751269069064557 -2.5526975750090717 11.582351941271817 1 0 0
727 243 2 -1.1794 -8.570156974411603 -7.254169593661548 10.972824070178191 1 0 0
1089 363 1 0.5897 -6.246263706496584 -4.234567888456054 17.51603157148699 0 0 0
1142 381 1 0.5897 -8.590761629813306 -6.093539662039665 20.823205374881827 0 0 0
1227 409 1 0.5897 -9.315633952377558 -2.4592287907730324 20.70853595815406 0 0 0
1219 407 2 -1.1794 -10.669431194725354 -1.7791221133657604 20.152436379248847 0 0 0
1097 366 1 0.5897 -9.081330766526952 -5.612232432988183 18.464144016353877 0 0 0
1225 409 2 -1.1794 -8.576860784311656 -2.9423150318171114 21.078947722048976 0 0 0
1152 384 1 0.5897 -7.181524958610533 -3.666888881913536 20.007806610068943 0 0 0
1143 381 1 0.5897 -8.824836868284864 -4.815006946848468 21.59947479378776 0 0 0
1151 384 1 0.5897 -6.339943860675217 -4.91330922121223 19.833584242361674 0 0 0
1150 384 2 -1.1794 -6.399729548775915 -3.996498441419522 19.564682309332515 0 0 0
1109 370 1 0.5897 -9.32934278309554 -3.3333214979230394 17.52466490920357 0 0 0
1108 370 2 -1.1794 -9.960169779783286 -4.047290673670387 17.6178124653229 0 0 0
1129 377 2 -1.1794 -8.057391136970878 -1.79875013317805 17.929517573340263 0 0 0
1130 377 1 0.5897 -7.563665122429773 -1.5489409452389964 18.710620529697565 0 0 0
1141 381 2 -1.1794 -8.77211986751151 -5.7651425630686095 21.70378980453935 0 0 0
1087 363 2 -1.1794 -6.512228658877778 -4.5893128946438875 16.66770288887802 0 0 0
1248 416 1 0.5897 -5.919458663352078 -1.2388791230726124 20.602006190648392 0 0 0
1088 363 1 0.5897 -6.667250751452369 -5.519169557141472 16.834308524307456 0 0 0
1131 377 1 0.5897 -7.426973142799865 -1.7241329203900904 17.21315586904613 0 0 0
59 20 1 0.5897 -13.415503530222509 -0.654466789836734 3.455361496237081 1 0 0
74 25 1 0.5897 -8.08942633379351 -2.997215848855471 5.119639782604334 1 0 0
272 91 1 0.5897 -9.517805904454658 -1.1150109241076436 0.7899928865827481 1 1 0
271 91 2 -1.1794 -10.323617973299463 -0.6046036534370387 0.7094853075936058 1 1 0
82 28 2 -1.1794 -9.338448679132409 -0.27444725325344344 4.076140712321398 1 0 0
83 28 1 0.5897 -9.940794348671528 -1.0073347054006252 3.9479524236014147 1 0 0
301 101 2 -1.1794 -8.130617604963218 -2.332032483971113 1.3132471529800183 1 1 0
258 86 1 0.5897 -12.655433009655692 -3.0276609960292884 1.1409630538956268 1 1 0
98 33 1 0.5897 -11.740781503344296 0.712318864594863 4.533302796204384 1 0 0
54 18 1 0.5897 -11.43533517491209 -0.2880728387557383 2.0548282268921567 1 0 0
53 18 1 0.5897 -12.261363769827177 0.945594850040699 2.351165859778814 1 0 0
52 18 2 -1.1794 -11.948040021660514 0.13156716403550384 2.7456155567540605 1 0 0
69 23 1 0.5897 -11.38482160458561 -2.789538935438795 3.1420019135721553 1 0 0
67 23 2 -1.1794 -10.812278492373192 -2.5875467167377835 3.8820681748307 1 0 0
84 28 1 0.5897 -8.467762082484096 -0.6707758364242196 4.042689241792715 1 0 0
68 23 1 0.5897 -11.388643392975057 -2.6148265566385724 4.645753789531303 1 0 0
44 15 1 0.5897 -9.961791066134893 0.9949412057959179 0.2500350679596207 1 0 0
107 36 1 0.5897 -9.212715650716161 1.6307301204282378 3.351717637878169 1 0 0
99 33 1 0.5897 -11.84336219310253 2.0155064202211914 5.297026816211125 1 0 0
256 86 2 -1.1794 -12.285215516636704 -3.433174563498982 1.9250756239517504 1 1 0
417 139 1 0.5897 -8.928201455074985 1.4178158892206874 5.375949035179383 1 0 0
97 33 2 -1.1794 -11.790668250824915 1.0676922204539228 5.420660529047868 1 0 0
426 142 1 0.5897 -8.897364835954349 -1.5185667725569596 6.897063497972395 1 0 0
435 145 1 0.5897 -7.612303640216444 -1.0445464540255696 9.952640084360468 0 0 0
528 176 1 0.5897 -12.374465721246638 0.6568950598985133 9.796274765865265 1 0 0
402 134 1 0.5897 -10.721819823350813 -0.3021238851882764 6.797604327022869 1 0 0
401 134 1 0.5897 -10.981587254977994 -1.0411960465054317 8.0931015004913 1 0 0
400 134 2 -1.1794 -10.281883557981423 -0.6396434260078685 7.57790429052587 1 0 0
527 176 1 0.5897 -11.866232104075367 1.5536301684616927 8.687388034891974 1 0 0
526 176 2 -1.1794 -12.671354933532031 1.2546648143278425 9.110054040435664 1 0 0
424 142 2 -1.1794 -8.065943467748061 -1.8867730315584712 6.598143458517548 1 0 0
537 179 1 0.5897 -9.68316648769929 0.27879942655921397 9.130165235968986 1 0 0
536 179 1 0.5897 -9.852767975874873 0.6309906746194915 10.5926838936557 1 0 0
535 179 2 -1.1794 -9.199936177997758 0.5948387121651244 9.893640122298946 1 0 0
367 123 2 -1.1794 -12.811296447695952 -2.5996369379178423 5.8908927628849055 1 0 0
411 137 1 0.5897 -13.535872302623783 0.33441590947780675 6.260842715226703 1 0 0
522 174 1 0.5897 -9.772227885841275 2.5109492116784136 7.099217149131191 1 0 0
430 144 2 -1.1794 -12.34163177438773 -2.0975346513892763 8.506969391277865 1 0 0
369 123 1 0.5897 -12.690746255509826 -2.198681688568197 6.751654001574102 1 0 0
425 142 1 0.5897 -7.4388730701352745 -1.1693531824049916 6.690054094813083 1 0 0
410 137 1 0.5897 -13.522771388053155 0.3550147023258621 7.774510149761779 1 0 0
760 254 2 -1.1794 -9.054464019113704 1.9633754069897247 12.680231148172762 0 0 0
790 264 2 -1.1794 -11.154369465845077 0.4432324758089159 13.910501085900245 0 0 0
791 264 1 0.5897 -10.976141168600547 -0.4484639222360318 14.209717501791642 0 0 0
837 279 1 0.5897 -11.659202227872601 0.28639615698794785 12.187443661345112 1 0 0
762 254 1 0.5897 -9.507407707597077 2.5993864832292264 12.126402955701769 0 0 0
761 254 1 0.5897 -9.753446686366761 1.5334565454283933 13.173041049337836 0 0 0
888 296 1 0.5897 -10.939085749139643 3.5160132975633314 15.102808564593394 0 0 0
792 264 1 0.5897 -11.567291374393527 0.8702317939478572 14.66105879740419 0 0 0
836 279 1 0.5897 -11.654255221698829 -0.8168400737858779 11.150701032620074 1 0 0
865 289 2 -1.1794 -13.03780103588948 1.701848064211056 15.77672212175675 0 0 0
769 257 2 -1.1794 -12.856111736761445 3.1902297898892904 12.036229894604373 0 0 0
896 299 1 0.5897 -8.028729401506716 2.8021937680662443 15.598298876881168 0 0 0
818 273 1 0.5897 -6.079317800156039 -1.549541085738312 15.201325199430865 0 0 0
772 258 2 -1.1794 -6.2691554132075265 -1.850422304965348 13.385440784693857 0 0 0
835 279 2 -1.1794 -11.636066005000032 0.13587156592820726 11.242456656941787 1 0 0
817 273 2 -1.1794 -6.121837904814749 -1.2387346125582805 16.105633154100165 0 0 0
770 257 1 0.5897 -12.35959880066202 3.1649790888061293 12.854235744401832 0 0 0
1011 337 1 0.5897 -12.256950376902255 4.573859519713521 20.522574408107833 0 -1 0
1260 420 1 0.5897 -10.110336559842828 3.4217196663644565 19.880823922046634 0 0 0
1235 412 1 0.5897 -9.2580744069854 -0.32702379369647083 20.062403668060227 0 0 0
1259 420 1 0.5897 -9.22163859781387 2.235080795629237 19.573867621495395 0 0 0
1258 420 2 -1.1794 -9.276136826038606 3.1857127317665146 19.475089958421542 0 0 0
1236 412 1 0.5897 -7.9553111017658305 0.37902205507595177 20.37298833244518 0 0 0
1249 417 2 -1.1794 -11.64057431334941 1.578140464425866 21.764281059499226 0 0 0
1204 402 2 -1.1794 -12.058686748957111 0.887384370644094 19.15215377160609 0 0 0
1234 412 2 -1.1794 -8.87693431925641 0.5440284108274351 20.173754556786502 0 0 0
1196 399 1 0.5897 -9.796243048843131 1.6626177608480184 17.028924858065764 0 0 0
1216 406 2 -1.1794 -12.56213062510439 3.2882381389069852 17.903911207367575 0 0 0
1099 367 2 -1.1794 -10.360262806034815 -0.27165566757284587 17.35131728665594 0 0 0
1100 367 1 0.5897 -9.452196525821696 -0.4390306198075944 17.603761247793777 0 0 0
1250 417 1 0.5897 -11.630191054702623 1.2409533828473247 20.868522340336284 0 0 0
1197 399 1 0.5897 -9.478275307182912 3.0976750254980967 17.391954675022706 0 0 0
1205 402 1 0.5897 -12.086360914915977 1.7201756071147205 18.68087166535088 0 0 0
1009 337 2 -1.1794 -11.431933383687156 4.228311420570973 20.86357983592877 0 -1 0
1206 402 1 0.5897 -11.383409120328595 0.37940837408979 18.702513295591558 0 0 0
1246 416 2 -1.1794 -6.3634946033101105 -0.6466018868071988 19.995030872483984 0 0 0
1195 399 2 -1.1794 -9.786223682354967 2.5499607906260255 16.669835466897705 0 0 0
1217 406 1 0.5897 -12.047687149927803 4.063424969206473 17.67848687078139 0 0 0
1101 367 1 0.5897 -10.441609597534605 -0.6563876550344823 16.478631147297218 0 0 0
1218 406 1 0.5897 -13.460426432190241 3.6101191709805533 17.979662609390314 0 0 0
1251 417 1 0.5897 -11.561557171013519 2.526946946619761 21.66452494021377 0 0 0
273 91 1 0.5897 -8.990250477591939 2.4033906707534207 21.73201376730734 1 1 -1
866 289 1 0.5897 -12.911055702270534 2.1849062004559325 16.593315297111033 0 0 0
42 14 1 0.5897 -16.06063358860462 4.276528701104914 1.225063659832928 1 0 0
66 22 1 0.5897 -13.782200221039568 3.0610361244885276 1.5794139573194352 1 0 0
176 59 1 0.5897 -14.639710973351246 4.355218326502408 4.679292660191914 1 0 0
56 19 1 0.5897 -12.693516752285412 5.789265628484166 1.4558877629568758 1 0 0
65 22 1 0.5897 -12.323785577125301 3.4611160496594895 1.6505281319396445 1 0 0
64 22 2 -1.1794 -12.896033967678175 2.7002303972530957 1.550692529697162 1 0 0
177 59 1 0.5897 -14.408884085018663 4.612437651737997 3.2053881575019454 1 0 0
182 61 1 0.5897 -11.300398766692842 4.3403726254686745 5.212927863272923 1 0 0
55 19 2 -1.1794 -13.599333194013257 5.994297542308393 1.2239701383831918 1 0 0
183 61 1 0.5897 -12.194572180255491 3.7329940349292325 4.1529132183587505 1 0 0
181 61 2 -1.1794 -11.32272462598971 3.6588681423432394 4.5411331769130925 1 0 0
191 64 1 0.5897 -12.948125063808003 6.514556351827771 4.073431997602078 1 0 0
162 54 1 0.5897 -15.110387618868078 6.973054678323569 2.2850876637908657 1 0 0
175 59 2 -1.1794 -13.963683305646343 4.613466406715775 4.052786758050899 1 0 0
108 36 1 0.5897 -9.967778064424843 2.9411628052216283 3.4215394820184595 1 0 0
40 14 2 -1.1794 -15.440571465830832 3.766219397168385 1.7461029158658707 1 0 0
85 29 2 -1.1794 -11.106018374489466 4.95965895906536 1.696463722040434 1 0 0
57 19 1 0.5897 -13.804597235532553 5.395699487072019 0.5057605788936549 1 0 0
190 64 2 -1.1794 -12.335291746664996 7.247757411650694 4.016723696881581 1 0 0
167 56 1 0.5897 -16.963035977273407 6.542347120245328 3.526608252701319 1 0 0
43 15 2 -1.1794 -9.750424411341385 1.928603282476475 0.25382120046762335 1 0 0
192 64 1 0.5897 -11.48254073957659 6.837207157480952 3.873474850730028 1 0 0
508 170 2 -1.1794 -13.401962866846429 6.770882332232786 7.252518514088224 1 0 0
538 180 2 -1.1794 -15.663613982160475 5.025384917328962 8.320431716940234 1 0 0
510 170 1 0.5897 -13.941065730494532 7.359208230458558 6.72372918411945 1 0 0
509 170 1 0.5897 -14.019145689850113 6.126694210489937 7.5995601836219535 1 0 0
644 215 1 0.5897 -12.808629128239783 7.106957197092887 10.364061379435293 1 0 0
457 153 2 -1.1794 -10.353303982239922 3.592856380542605 10.831312651237155 0 0 0
645 215 1 0.5897 -12.364460193843708 7.501191482698053 8.97153461546967 1 0 0
521 174 1 0.5897 -10.825824743434708 3.5845104942817727 7.270954228849967 1 0 0
643 215 2 -1.1794 -12.166938426610727 7.642452651294414 9.897418799376501 1 0 0
532 178 2 -1.1794 -11.279994038441014 5.176673130100626 6.666781664186234 1 0 0
534 178 1 0.5897 -12.120619234398864 5.598117281740539 6.845679045418444 1 0 0
533 178 1 0.5897 -10.627168926316692 5.7917812145911505 7.001154453716956 1 0 0
636 212 1 0.5897 -15.280923090319497 8.00928005717635 9.809547970477379 1 0 0
543 181 1 0.5897 -10.6351497819273 6.675068916929392 10.21333690925092 0 0 0
520 174 2 -1.1794 -10.534763959851327 2.745390404374339 7.628134747908184 1 0 0
519 173 1 0.5897 -16.854335114358403 7.886652373490948 6.490195716966884 1 0 0
458 153 1 0.5897 -10.229217143778174 3.1008711752066773 10.01968133088696 0 0 0
459 153 1 0.5897 -10.208724227302543 4.506015844240542 10.583001542876376 0 0 0
900 300 1 0.5897 -14.96306769084812 8.040983086338398 14.17874782061527 0 0 0
898 300 2 -1.1794 -14.207469261106912 7.704943518716599 13.696734945841461 0 0 0
980 327 1 0.5897 -13.171831142993597 8.453239488639904 16.220142914957005 0 -1 0
887 296 1 0.5897 -10.520364713829377 4.5613774844344 14.090855462344464 0 0 0
899 300 1 0.5897 -14.053208715324317 6.836007877934891 14.06764691464011 0 0 0
869 290 1 0.5897 -12.738178067667178 8.553979480936269 13.068464644816673 0 0 0
874 292 2 -1.1794 -13.757639264392246 5.253223987141135 14.70928147518689 0 0 0
876 292 1 0.5897 -12.900044679465076 4.8353819415916295 14.788392688594133 0 0 0
945 315 1 0.5897 -14.48022632926928 7.069353997712303 11.985606417341877 1 0 0
848 283 1 0.5897 -14.406883172477876 3.9861578453540982 11.835255874749077 1 0 0
875 292 1 0.5897 -14.384003830356695 4.536190990503767 14.80874567776487 0 0 0
886 296 2 -1.1794 -11.28892882769147 4.201828120617154 14.533898899199963 0 0 0
979 327 2 -1.1794 -12.904257057478162 9.372364580653668 16.216249769249696 0 -1 0
1209 403 1 0.5897 -13.677800085580692 6.428367640909817 16.239874189769726 0 0 0
944 315 1 0.5897 -14.94668168321513 5.941925769039777 11.089250738428497 1 0 0
650 217 1 0.5897 -15.831121189773285 8.918962043167019 16.21745609914801 0 -1 0
771 257 1 0.5897 -12.200396200172662 3.3720417264743148 11.363055657216664 0 0 0
943 315 2 -1.1794 -14.609940179321024 6.837734727083481 11.065964470359665 1 0 0
1207 403 2 -1.1794 -13.55019624956697 6.950586034427532 17.031865111244166 0 0 0
1208 403 1 0.5897 -12.676880531680878 6.7089979270225495 17.34055903248496 0 0 0
1010 337 1 0.5897 -11.09880231412802 4.921411604108874 21.433630511705818 0 -1 0
1043 348 1 0.5897 -12.66739356877739 9.467503375824544 19.383778442737917 0 -1 0
1018 340 2 -1.1794 -12.119394051406527 7.954395228663932 20.497134918584386 0 -1 0
1019 340 1 0.5897 -12.717043792233483 7.207027775790882 20.52215470665811 0 -1 0
1020 340 1 0.5897 -11.25674444459414 7.566947926172142 20.348886185400353 0 -1 0
1030 344 2 -1.1794 -9.538607137754411 6.735573420498623 20.17201453425646 0 -1 0
1003 335 2 -1.1794 -13.808944662050518 5.661949061275974 20.290785082458235 0 -1 0
989 330 1 0.5897 -15.698248924892575 8.71206900321865 18.484102420477836 0 -1 0
1032 344 1 0.5897 -9.0377044059364 6.349165835783369 20.8904415253079 0 -1 0
1238 413 1 0.5897 -10.692223840445159 6.248011642398671 18.775395232553812 0 0 0
1239 413 1 0.5897 -10.36655374460273 6.321379274931118 17.29880567510238 0 0 0
1237 413 2 -1.1794 -11.092220505143679 6.185464155974502 17.908008794248833 0 0 0
990 330 1 0.5897 -14.720244292962903 7.563976523466726 18.35166645186161 0 -1 0
1035 345 1 0.5897 -14.961825222277332 9.578688181255751 21.428045455070023 0 -1 0
1034 345 1 0.5897 -15.011359553979226 8.240057172993884 20.72252776613152 0 -1 0
1033 345 2 -1.1794 -15.128804610332654 8.648426158550363 21.580215285714196 0 -1 0
1005 335 1 0.5897 -14.030946593584986 5.4009799006093 19.397024028377263 0 -1 0
1229 410 1 0.5897 -8.07930109775512 4.49089551433239 18.894416875209917 0 0 0
174 58 1 0.5897 -16.567269517035633 10.329633243803519 1.4233408971596249 1 0 0
173 58 1 0.5897 -15.117103971847001 10.516490411897452 1.815984341224247 1 0 0
172 58 2 -1.1794 -15.73214882325014 9.865095067757137 1.4787011171468178 1 0 0
161 54 1 0.5897 -15.570489786179483 8.40034453963093 2.493431951279452 1 0 0
214 72 2 -1.1794 -12.801018897882926 9.60169324656305 2.9254587010108275 1 0 0
151 51 2 -1.1794 -12.880412748552809 8.72830217350525 0.38102115275956316 1 0 0
148 50 2 -1.1794 -18.164986034439046 11.185366081912106 1.8272969726918462 1 0 0
285 95 1 0.5897 -17.418005229062523 11.981964062135964 3.2787241470585577 1 0 0
150 50 1 0.5897 -18.645146772786347 11.795142707090536 1.2669337025105285 1 0 0
291 97 1 0.5897 -15.434263394188738 11.342332817789158 4.214287513396245 1 0 0
289 97 2 -1.1794 -14.637518213785855 10.884746370822738 4.482870819859288 1 0 0
290 97 1 0.5897 -14.21103389165778 11.484528873218201 5.0949855159772905 1 0 0
284 95 1 0.5897 -17.699158900465687 12.148442719545587 4.756888413271911 1 0 0
283 95 2 -1.1794 -16.995879839193933 12.20017952308927 4.109668559695211 1 0 0
193 65 2 -1.1794 -14.203481871639882 12.358819820577255 1.4110758444215572 1 0 0
216 72 1 0.5897 -13.473929351247257 10.056270187844644 3.432143941671785 1 0 0
215 72 1 0.5897 -12.805584481569513 8.707745714412608 3.267888908041808 1 0 0
153 51 1 0.5897 -12.826575416681884 9.147841574874073 1.2396853978162314 1 0 0
207 69 1 0.5897 -14.958829565048262 9.21271371994946 5.344086595170823 1 0 0
152 51 1 0.5897 -13.190218171528995 7.841625760365096 0.5660645107896094 1 0 0
160 54 2 -1.1794 -15.471677481341711 7.562955031094338 2.9466742968356647 1 0 0
206 69 1 0.5897 -15.188118727656548 7.84791851506859 4.730100637078588 1 0 0
525 175 1 0.5897 -12.146228855244335 8.444054277913077 5.282735149486637 1 0 0
149 50 1 0.5897 -18.843925194542788 10.643519062887231 2.2294773864377966 1 0 0
565 189 2 -1.1794 -13.721135781388597 10.355520873312015 10.744077602929336 0 0 0
634 212 2 -1.1794 -15.815449981688953 8.503330997678605 9.187809968100604 1 0 0
566 189 1 0.5897 -13.656236825495082 10.0151111177488 9.851834016448981 0 0 0
630 210 1 0.5897 -13.06520594242317 9.592349283268694 7.307848750009869 1 0 0
629 210 1 0.5897 -13.887517596357391 10.832333578118265 7.587806979637163 1 0 0
628 210 2 -1.1794 -13.676653307886106 9.968013804669978 7.94123587827778 1 0 0
635 212 1 0.5897 -15.19515176897313 9.082937500604674 8.745550863313719 1 0 0
640 214 2 -1.1794 -14.332909435129746 12.592610209805395 6.7847902375427 1 0 0
642 214 1 0.5897 -15.05811070551901 13.067117731518154 7.191155457573612 1 0 0
641 214 1 0.5897 -13.590871703055166 13.194773303390699 6.840712796646213 1 0 0
567 189 1 0.5897 -13.811837441125475 11.302107932200167 10.633811430840654 0 0 0
327 109 1 0.5897 -13.858837755047874 13.813029971431737 9.89902857567998 0 -1 0
325 109 2 -1.1794 -13.18685599926248 13.250718757797655 10.284550471734626 0 -1 0
624 208 1 0.5897 -17.345618054320802 9.571329303930463 9.609581552295857 1 0 0
205 69 2 -1.1794 -15.165032540139942 8.305700319032747 5.570403953967636 1 0 0
617 206 1 0.5897 -17.184950565008013 13.092345152660604 8.038001179030044 1 0 0
879 293 1 0.5897 -15.085603245366364 10.296194573409403 11.884076746583649 0 0 0
870 290 1 0.5897 -12.50163503773867 9.254494198037927 11.74735361843918 0 0 0
877 293 2 -1.1794 -15.772853744520939 10.418609935589584 12.538951247204123 0 0 0
658 220 2 -1.1794 -16.776099601163693 12.375932755855755 15.0480064317468 0 -1 0
672 224 1 0.5897 -13.807149130530464 10.448667694965438 15.11364598059908 0 -1 0
671 224 1 0.5897 -13.4450826044249 11.679742238939548 14.310137337228952 0 -1 0
670 224 2 -1.1794 -14.189527785514564 11.224780219120484 14.70396195869413 0 -1 0
660 220 1 0.5897 -15.879252912362725 12.043364742281108 15.084981651548564 0 -1 0
955 319 2 -1.1794 -18.08098020187797 11.934938511499789 11.801811031159735 1 0 0
878 293 1 0.5897 -15.300173542284895 10.56118768884892 13.35903094537676 0 0 0
681 227 1 0.5897 -10.87008187950876 9.49749761344591 13.879608484359744 0 -1 0
956 319 1 0.5897 -17.286720290603142 11.502467884190713 12.115622031740514 1 0 0
683 228 1 0.5897 -17.355539268442335 14.047710180916619 14.002467648420836 0 -1 0
680 227 1 0.5897 -11.281920413028176 9.489951644277673 15.336339944818647 0 -1 0
659 220 1 0.5897 -17.320812763343163 11.591022973715843 14.988122862110384 0 -1 0
728 243 1 0.5897 -17.880166839448464 13.560677773483478 11.002505324494022 1 -1 0
868 290 2 -1.1794 -12.049527795545023 8.949431756379335 12.53402687387986 0 0 0
1022 341 1 0.5897 -13.701750957419685 13.284366787004595 18.92774426884158 0 -1 0
1013 338 1 0.5897 -11.115408197966733 11.085940789912113 18.512816609404283 0 -1 0
992 331 1 0.5897 -15.586347456877709 13.846758022670452 17.653804179772425 0 -1 0
1117 373 2 -1.1794 -14.44909809278252 11.36644233972971 20.877845586447364 0 -1 0
1119 373 1 0.5897 -15.32219341349013 11.736544862365493 20.74738475120685 0 -1 0
1138 380 2 -1.1794 -12.661929791010934 14.115943865277652 20.384955994893936 0 -1 0
1042 348 2 -1.1794 -12.689196552553659 10.285646540292495 18.887220353707466 0 -1 0
1118 373 1 0.5897 -13.971855473350635 12.041618725956086 21.360254531982985 0 -1 0
1127 376 1 0.5897 -15.798059931871784 14.45263974926178 20.316552218501865 0 -1 0
1128 376 1 0.5897 -14.347637880499194 14.799161660891722 20.57791178165149 0 -1 0
1023 341 1 0.5897 -13.448931909168671 12.872385790912963 17.49313951635528 0 -1 0
1000 334 2 -1.1794 -15.852998707729377 10.153218111712649 17.563629609269597 0 -1 0
981 327 1 0.5897 -12.974426699728966 9.646638135193117 17.130594090719676 0 -1 0
1044 348 1 0.5897 -13.187307368883694 10.888358460590803 19.439316459095785 0 -1 0
991 331 2 -1.1794 -16.210129609559708 14.348161142120917 17.128578335870404 0 -1 0
1021 341 2 -1.1794 -14.13740391398371 12.922047775611412 18.15624353066461 0 -1 0
1140 380 1 0.5897 -12.098093205526464 13.577152098488364 20.94008558193709 0 -1 0
1001 334 1 0.5897 -15.092775034367568 10.73324233384213 17.60796836997579 0 -1 0
1126 376 2 -1.1794 -15.218333067676681 15.190398536015143 20.506297960007956 0 -1 0
993 331 1 0.5897 -16.46707862904818 13.750804905436125 16.426133021131747 0 -1 0
1111 371 2 -1.1794 -16.745047589497304 12.906438469223529 20.45681887641974 0 -1 0
1098 366 1 0.5897 -17.464210861468786 14.920187574588057 18.34426036038701 0 -1 0
1096 366 2 -1.1794 -18.151637826368706 15.314143640430624 18.881323400838028 0 -1 0
1002 334 1 0.5897 -16.59407192293059 10.710291884945365 17.80179029345083 0 -1 0
318 106 1 0.5897 -2.90006041099348 -4.035129234708157 1.447828474213235 1 1 0
201 67 1 0.5897 0.2510690120513459 -8.649297927671359 0.3741740139471672 1 1 0
305 102 1 0.5897 -1.5550191638591802 -5.90860163156945 2.2366760031390376 1 1 0
304 102 2 -1.1794 -1.3075760469195572 -6.73160885655738 2.6583977367093445 1 1 0
316 106 2 -1.1794 -2.0352572006725786 -4.445223298984341 1.4323616476112637 1 1 0
242 81 1 0.5897 -0.9144463276073509 -6.735003259506151 4.562399971967819 0 1 0
306 102 1 0.5897 -0.7508886203996319 -7.172350093465431 2.016516272931884 1 1 0
311 104 1 0.5897 -2.6395622176217426 -7.8715057389304635 3.134658257927271 1 1 0
300 100 1 0.5897 -5.037380370995084 -7.471852446983718 3.965881652549182 1 1 0
195 65 1 0.5897 -4.327045116388611 -9.251309002609986 0.7076055291178254 1 1 0
261 87 1 0.5897 -6.315973484683152 -4.99319878131296 0.8287862381911133 1 1 0
293 98 1 0.5897 -5.086766876523908 -3.9194574387469014 2.5001158801051613 1 1 0
199 67 2 -1.1794 0.5139586191792187 -8.003086699523198 1.0296118462062585 1 1 0
1 1 2 -1.1794 -0.9198071151122047 -3.712035063800779 4.90239802437286 0 0 0
310 104 2 -1.1794 -3.388534598191576 -8.309994504854796 3.538449884853396 1 1 0
3 1 1 0.5897 -1.7604384363122154 -3.3684782691573023 4.599660904982424 0 0 0
243 81 1 0.5897 -1.0420860931316174 -5.523979993290542 5.461931127727538 0 1 0
241 81 2 -1.1794 -0.9883719461822871 -6.479560732530994 5.481893092123033 0 1 0
348 116 1 0.5897 -1.4887529734115823 -6.367732630244476 9.59807762325254 0 0 0
347 116 1 0.5897 -1.0904693282002036 -5.381174596953162 8.520949603125974 0 0 0
346 116 2 -1.1794 -1.8544937444980754 -5.786212330606411 8.931411293995716 0 0 0
336 112 1 0.5897 -3.325611920501215 -4.738828801186866 9.691790964694992 0 0 0
546 182 1 0.5897 0.11790629290365473 -7.4832621152157195 6.6387920614216895 0 1 0
334 112 2 -1.1794 -4.191051017261703 -4.331707304418942 9.652216945463445 0 0 0
335 112 1 0.5897 -4.8014484725279045 -5.068353983420426 9.618329908919437 0 0 0
555 185 1 0.5897 -2.756995843432531 -7.0007568347606774 6.253943955051209 0 1 0
554 185 1 0.5897 -2.8513234112597123 -6.743940681607382 7.742873538050078 0 1 0
359 120 1 0.5897 -4.433747119510636 -2.9212702226688405 8.673729981031608 0 0 0
553 185 2 -1.1794 -3.2963668679450855 -7.189312258583568 7.021872036788712 0 1 0
632 211 1 0.5897 -4.771130993501052 -5.939016638010613 6.841762953025675 1 1 0
404 135 1 0.5897 -5.443889168618645 -3.627464973274394 5.789108971963137 1 0 0
544 182 2 -1.1794 0.39344625500824293 -8.082744816321673 7.3323828281095995 0 1 0
385 129 2 -1.1794 0.1177514483355111 -3.896233459489576 10.776170108621908 0 0 0
356 119 1 0.5897 1.1162257352477756 -7.277020532020483 10.01619294227835 0 0 0
386 129 1 0.5897 0.02161193046635823 -4.353522076310235 9.940801514526354 0 0 0
655 219 2 -1.1794 -0.45082647959820044 -7.595080014215371 10.825708674309618 0 0 0
787 263 2 -1.1794 -4.37909572339542 -4.450382391586448 14.990529451152936 0 0 0
804 268 1 0.5897 -1.9152980583957415 -2.3883126407472455 15.216632406571508 0 0 0
667 223 2 -1.1794 -4.161309830016269 -2.9925914200284156 11.985426584445541 0 0 0
795 265 1 0.5897 -2.7512644432922446 -5.641470157540175 15.370807583665453 0 0 0
657 219 1 0.5897 -0.33176350076520045 -7.0651226665779765 11.613873885901405 0 0 0
668 223 1 0.5897 -3.4387604186678917 -3.501258159199195 12.353593867017073 0 0 0
774 258 1 0.5897 -5.554889056907029 -2.314780474759157 12.949087191464978 0 0 0
697 233 2 -1.1794 -1.8276739711707766 -4.566684977623602 12.694407462739589 0 0 0