LAMMPS data file via write_data, version 30 Jul 2021, timestep = 1500000

1920 atoms
2 atom types
1280 bonds
1 bond types
640 angles
1 angle types

-0.16896123661860152 24.89896223661693 xlo xhi
-0.10265502398853954 24.832656023991248 ylo yhi
-0.01790735276742339 22.827907352774403 zlo zhi

Masses

1 1.008
2 15.999

Pair Coeffs # lj/cut/tip4p/long/omp

1 0 0
2 0.21084 3.1668

Bond Coeffs # harmonic/omp

1 450 0.9572

Angle Coeffs # harmonic/omp

1 55 104.52

Atoms # full

1 1 2 -1.1794 4.545511669172478 1.4800989359457035 3.9996147873934973 0 0 0
2 1 1 0.5897 4.550460042858426 2.1845879137239366 4.647573115862983 0 0 0
3 1 1 0.5897 5.319593631963289 1.6439840690100243 3.460960853601 0 0 0
4 2 2 -1.1794 2.7336200499489123 1.732506562403466 1.982890303651899 0 0 0
99 33 1 0.5897 -0.15109613002724187 3.726735960114686 3.887997864201276 1 0 0
6 2 1 0.5897 1.8447401157834684 1.9005026731362409 2.2957469044263905 0 0 0
19 7 2 -1.1794 4.621705597565916 3.079261904588858 0.1536871423085282 0 0 0
9 3 1 0.5897 5.099206937591505 4.401412618325821 3.0309101844674764 0 0 0
10 4 2 -1.1794 2.9662896983781413 4.551889128001246 3.728230174750956 0 0 0
11 4 1 0.5897 2.375404507125287 5.153661983542789 4.18088666628124 0 0 0
12 4 1 0.5897 2.5292305154302954 4.366144184243556 2.897139323595907 0 0 0
5 2 1 0.5897 3.2801947955205466 1.7991895822092685 2.765860823884256 0 0 0
14 5 1 0.5897 1.9112119327331238 3.31318614059894 4.442278896867459 0 0 0
15 5 1 0.5897 1.4249472381512232 1.8969006070548222 4.664353873243674 0 0 0
20 7 1 0.5897 3.929220102288121 2.6647439815905543 0.6683070801643521 0 0 0
21 7 1 0.5897 5.432342495390437 2.830338749397561 0.5976517000000774 0 0 0
7 3 2 -1.1794 6.05223024367219 4.422259930941852 3.117645778342007 0 0 0
47 16 1 0.5897 5.962414562800733 0.7575741119259145 1.5677640481748767 0 0 0
22 8 2 -1.1794 1.3253609887179296 4.605773297316718 1.4511410630908135 0 0 0
23 8 1 0.5897 0.5642684812000429 4.681358499852067 2.02667267235492 0 0 0
24 8 1 0.5897 1.2611929011350032 5.36193412560582 0.8678143725522667 0 0 0
27 9 1 0.5897 4.444502853364675 4.837087233268249 0.4681119554939944 0 0 0
13 5 2 -1.1794 1.1387953980533072 2.8096087004624377 4.699094680098873 0 0 0
28 10 2 -1.1794 1.7590355059000962 0.14932809401598351 4.903585082372302 0 0 0
16 6 2 -1.1794 0.03758349851235657 1.5710892814889632 2.0598829634275644 0 0 0
387 129 1 0.5897 3.826416909747769 0.0895951057275382 0.9438409455135902 0 1 0
98 33 1 0.5897 -0.10940273481040208 5.239096354753163 3.8364937754349584 1 0 0
25 9 2 -1.1794 4.231553329693828 5.757762353406713 0.6202198358079211 0 0 0
867 289 1 0.5897 4.510100629347336 0.06679242323835952 5.640190599513752 0 1 0
148 50 2 -1.1794 1.2040438601291246 6.069841574663083 4.84191389852823 0 0 0
1455 485 1 0.5897 1.3667634285064287 3.3703253528458617 0.14290169231632877 0 0 1
1470 490 1 0.5897 1.459480532458379 -0.09696146385259531 0.09112470706270115 0 0 1
508 170 2 -1.1794 1.3097306920419625 0.0867990865024087 10.58708545831446 0 0 0
481 161 2 -1.1794 4.427638550725966 1.5064741479351862 9.803213255534445 0 0 0
482 161 1 0.5897 5.257545499344731 1.5677451328909293 9.330240655662102 0 0 0
483 161 1 0.5897 4.423669459639174 2.2696982685509384 10.38082825046724 0 0 0
484 162 2 -1.1794 2.6657685211322004 1.485005872987867 7.59420016284925 0 0 0
485 162 1 0.5897 2.9880296104114548 1.5458434486311825 8.493476458670079 0 0 0
486 162 1 0.5897 3.2596375293218567 0.8672616564724023 7.167710383446696 0 0 0
501 167 1 0.5897 4.160119772809543 4.006668774291748 6.3518737270451835 0 0 0
489 163 1 0.5897 4.8209122649807 4.880035918448503 9.339237603615848 0 0 0
490 164 2 -1.1794 3.1526377476666627 4.50086877718474 9.4244880426997 0 0 0
491 164 1 0.5897 2.6761728464485706 4.598142297543903 8.60001638060843 0 0 0
492 164 1 0.5897 2.572184540255306 3.977206897347596 9.976792225177789 0 0 0
493 165 2 -1.1794 1.3823070880078583 2.8579495756862405 10.763860339391025 0 0 0
150 50 1 0.5897 1.3167534348183807 5.911541917354578 5.779188681789391 0 0 0
503 168 1 0.5897 0.8351775300343762 4.541363628648736 7.942198476334753 0 0 0
498 166 1 0.5897 0.7936714050773914 1.4967369299552575 7.615754090834002 0 0 0
499 167 2 -1.1794 4.358496613325654 3.078299449133719 6.229818374579278 0 0 0
496 166 2 -1.1794 -0.1386496698464835 1.6850426704723054 7.7230195061423785 0 0 0
579 193 1 0.5897 0.18997244407861363 5.057700715066357 9.877360217400042 1 0 0
502 168 2 -1.1794 1.524357543029287 4.411024294362528 7.290836928739913 0 0 0
494 165 1 0.5897 1.6159292816402613 1.9304497682488457 10.727992268733288 0 0 0
504 168 1 0.5897 1.2405222884887026 3.6456756152794236 6.790973287789949 0 0 0
500 167 1 0.5897 3.7797497706559477 2.6265055806907722 6.8439308463227855 0 0 0
487 163 2 -1.1794 5.777300499360978 4.877345691759639 9.300485495130939 0 0 0
629 210 1 0.5897 1.9860024575069506 5.725426434211238 10.238405053187545 0 0 0
505 169 2 -1.1794 4.180814106781255 5.867956809410908 6.181732475486394 0 0 0
527 176 1 0.5897 5.740717624180579 0.41012754322387834 7.466720330732732 0 0 0
1347 449 1 0.5897 4.2017802512621305 0.42105242099569207 11.29671059276652 0 1 0
488 163 1 0.5897 6.043066395603249 4.252773880253372 9.97536784318675 0 0 0
528 176 1 0.5897 6.080880873874648 1.850031982858695 7.146379360804252 0 0 0
990 330 1 0.5897 1.5343699920840215 1.1844349975967727 16.40342800182621 0 0 0
961 321 2 -1.1794 4.283148437198598 1.6404905261083609 15.670350767928529 0 0 0
962 321 1 0.5897 5.061376434914133 1.813766063464551 15.140688735568359 0 0 0
963 321 1 0.5897 4.409665911963737 0.7503812197547167 15.998731857201527 0 0 0
964 322 2 -1.1794 2.4709981624572435 1.7063422923952576 13.411024378162336 0 0 0
965 322 1 0.5897 2.80416980199642 1.729630028336919 14.308079672022426 0 0 0
966 322 1 0.5897 1.5554696032327129 1.4422418005573057 13.501853840971211 0 0 0
981 327 1 0.5897 5.202682580168495 2.8226268111582065 12.123736403162926 0 0 0
970 324 2 -1.1794 3.189275997311745 4.635600111471693 14.981037264169203 0 0 0
971 324 1 0.5897 4.115093535712776 4.396297176569885 14.938835540846496 0 0 0
972 324 1 0.5897 2.734065679740716 3.80754746301416 15.133525868292622 0 0 0
967 323 2 -1.1794 5.939002439634891 4.553650624781358 15.167945934194561 0 0 0
975 325 1 0.5897 0.7391538096244872 3.41341656173771 16.055059909978063 0 0 0
1460 487 1 0.5897 4.675947470935459 2.9450719799913037 17.03448857905137 0 0 0
980 327 1 0.5897 3.755841687108598 2.8965904831715203 12.56304308214467 0 0 0
979 327 2 -1.1794 4.399505756808865 3.3287701606199724 12.001690401525837 0 0 0
1008 336 1 0.5897 5.9010209023439435 0.6848491029552867 13.110386293806254 0 0 0
982 328 2 -1.1794 1.3070877826965723 4.495012763565993 12.91840970534347 0 0 0
983 328 1 0.5897 1.2411878391161633 5.254055959276758 12.339031249373516 0 0 0
984 328 1 0.5897 2.0993801511985697 4.652973271559681 13.43176137389409 0 0 0
973 325 2 -1.1794 1.453402004960792 2.905105033997811 16.439313655667853 0 0 0
1058 353 1 0.5897 -0.12444410575359782 4.507204317844678 14.181067557738613 1 0 0
988 330 2 -1.1794 1.3432605598853076 0.26070195144174385 16.24116261187413 0 0 0
987 329 1 0.5897 4.6050135694651155 5.116326388637683 11.99547959047651 0 0 0
985 329 2 -1.1794 4.654994181577366 6.071912977783252 11.97370277797618 0 0 0
1346 449 1 0.5897 3.5222567760834633 0.3615387774518951 12.648238379626008 0 1 0
976 326 2 -1.1794 -0.13128665445709198 1.4475004133836518 13.684935101764882 0 0 0
1006 336 2 -1.1794 6.0740538379399425 1.5418188895538865 13.500003823306924 0 0 0
495 165 1 0.5897 1.2607284189080674 3.0389307227807008 11.695905892608545 0 0 0
1110 370 1 0.5897 2.2333273433925345 5.986231906809794 15.659036878612477 0 0 0
1109 370 1 0.5897 0.7312569768955668 5.899905465636092 15.826727564455918 0 0 0
974 325 1 0.5897 1.8250687985278777 3.480664135374685 17.107744138221175 0 0 0
1466 489 1 0.5897 4.775947379965123 5.124458682319178 17.72286934485445 0 0 0
1537 513 2 -1.1794 -0.07166621933679942 4.977178603723273 20.383737350060834 1 0 0
1441 481 2 -1.1794 4.898126607106695 1.0800510994692032 21.250527328808673 0 0 0
1442 481 1 0.5897 4.1604860305034 1.033731448237569 20.642281172197183 0 0 0
1443 481 1 0.5897 4.692114491642539 1.8199703744562943 21.82170950956603 0 0 0
1444 482 2 -1.1794 3.385412836445548 1.4387503818170153 19.00332623944732 0 0 0
1445 482 1 0.5897 2.457372075013655 1.6705841507972965 19.037665830022046 0 0 0
1446 482 1 0.5897 3.786581335410035 2.131486849590386 18.478588256272374 0 0 0
1454 485 1 0.5897 2.135638922345139 3.6867384613620073 21.72356741066265 0 0 0
1450 484 2 -1.1794 3.201108584360444 4.87647897125964 20.747491197763313 0 0 0
1451 484 1 0.5897 4.145532703659464 4.788387387925584 20.61907226429974 0 0 0
1452 484 1 0.5897 2.835338228007577 4.851537834221422 19.863278065710325 0 0 0
1453 485 2 -1.1794 1.5296667979283134 3.049568544380094 22.101690371104997 0 0 0
1457 486 1 0.5897 0.07386351193576288 1.3625801810157994 20.186323423559458 0 0 0
1488 496 1 0.5897 5.962751379611437 0.6080133471971778 18.20995607862128 0 0 0
1459 487 2 -1.1794 5.017222020720967 3.3961562852732414 17.806672784064556 0 0 0
1461 487 1 0.5897 5.666380301050605 2.793478048489362 18.16935932769261 0 0 0
1462 488 2 -1.1794 2.005239398329868 4.789980887679471 18.29579095439753 0 0 0
1463 488 1 0.5897 2.0850745619112083 5.589946975442603 17.7763214201112 0 0 0
1464 488 1 0.5897 1.1682365407535953 4.881913232209533 18.750957183189126 0 0 0
1538 513 1 0.5897 0.049334227208989584 4.221175944371869 20.958180530391445 1 0 0
1469 490 1 0.5897 1.6671598949160646 1.2925679816108129 22.373253370344266 0 0 0
1456 486 2 -1.1794 0.425361165558245 1.3139541369958425 19.29731876287094 0 0 0
1468 490 2 -1.1794 1.5895453893715805 0.3744457252041813 22.114094064850974 0 0 0
1447 483 2 -1.1794 6.088016551872532 4.378544720704513 20.444120565922432 0 0 0
1465 489 2 -1.1794 4.772262645627947 6.041200039913032 17.447735665554223 0 0 0
386 129 1 0.5897 4.836867258446676 -0.07189921224114577 22.673945508226684 0 1 -1
1590 530 1 0.5897 2.2538512546049825 6.060413791738371 21.97693874462748 0 0 0
1539 513 1 0.5897 0.21133137962878507 5.72549082875651 20.909193802364413 1 0 0
136 46 2 -1.1794 -0.001295861666692627 8.095048067808149 2.2412824983028923 0 0 0
121 41 2 -1.1794 4.666101781465694 7.426610939287314 3.9812034595686407 0 0 0
122 41 1 0.5897 3.8976841503367217 7.263173205534932 3.4343661731804453 0 0 0
123 41 1 0.5897 5.410420811386298 7.206250976259784 3.421171556840599 0 0 0
124 42 2 -1.1794 2.743196489549065 7.46369667976307 2.118119327252457 0 0 0
125 42 1 0.5897 2.8139847453539635 6.631774152369773 1.6500981763703422 0 0 0
126 42 1 0.5897 3.383946546053122 8.033541447153032 1.6928072391017968 0 0 0
507 169 1 0.5897 4.322219752080702 6.421361739247582 5.413647195430498 0 0 0
129 43 1 0.5897 5.018976571782651 10.505713114141438 3.555371254160112 0 0 0
130 44 2 -1.1794 3.147763986069597 10.419985230584684 3.398484859962353 0 0 0
127 43 2 -1.1794 5.974190712316999 10.541153717225514 3.605347787763335 0 0 0
132 44 1 0.5897 2.746944849644268 9.560892693797216 3.530526469363 0 0 0
133 45 2 -1.1794 1.0135841322627475 8.85026136844426 4.80274323459907 0 0 0
135 45 1 0.5897 0.48397203122600085 9.283743543290427 4.133559137100895 0 0 0
149 50 1 0.5897 0.9458455663175673 6.989631497504494 4.783242033906493 0 0 0
137 46 1 0.5897 0.9526130157045352 8.074808812810193 2.164870257817408 0 0 0
139 47 2 -1.1794 4.561680399721228 9.237995205422697 0.8033736029717404 0 0 0
140 47 1 0.5897 4.500352692966005 10.171982974566118 0.6033010567146296 0 0 0
142 48 2 -1.1794 1.140734642751188 11.029154507492203 1.4265612138272952 0 0 0
143 48 1 0.5897 1.9232033313504964 11.22810442227804 1.9407270467036062 0 0 0
144 48 1 0.5897 1.1774005406174515 11.63756115111068 0.6885210250013101 0 0 0
131 44 1 0.5897 2.8100148512135195 10.95526335493646 4.116542017164358 0 0 0
621 207 1 0.5897 4.274742980923951 8.967759137678526 5.379491404949452 0 0 0
218 73 1 0.5897 0.06765940696587558 10.92606155831656 2.776501647116366 1 0 0
145 49 2 -1.1794 4.57626589827431 12.17299390829043 0.5628712533056802 0 0 0
168 56 1 0.5897 6.056878383099587 8.104133653346256 1.4165273670933556 0 0 0
26 9 1 0.5897 5.039687569052604 6.13710680544817 0.9654868695796689 0 0 0
1574 525 1 0.5897 1.5274799793921292 9.725583470856014 0.1535070525032127 0 0 1
134 45 1 0.5897 1.0978916283299236 9.500186312297942 5.5003676259106635 0 0 0
270 90 1 0.5897 0.7923042708025481 12.349099768926681 4.421429776779805 0 0 0
612 204 1 0.5897 2.716874974356688 11.314704042398011 9.510150409386707 0 0 0
506 169 1 0.5897 3.557843309542023 6.3574493042560185 6.718847112954006 0 0 0
601 201 2 -1.1794 4.614055164882974 7.744910584281535 9.698278965969626 0 0 0
602 201 1 0.5897 4.561191085180117 6.955081473493825 10.236365904270107 0 0 0
603 201 1 0.5897 3.8186775863092044 7.726419498612488 9.166072473610567 0 0 0
604 202 2 -1.1794 2.796535769065169 7.6056555032796185 7.817012574170575 0 0 0
605 202 1 0.5897 3.1624897845490754 8.346975015481396 7.33463412033015 0 0 0
606 202 1 0.5897 1.8492623658728888 7.696227048224265 7.71375980527892 0 0 0
626 209 1 0.5897 4.537456535681693 11.093077751828597 6.183676416223928 0 0 0
610 204 2 -1.1794 2.9356555565968128 10.5971477555845 8.915656515137604 0 0 0
611 204 1 0.5897 3.8921633473577977 10.598417393282562 8.879746255019851 0 0 0
1101 367 1 0.5897 4.221386643033931 8.863719241378858 11.177587651210144 0 0 0
613 205 2 -1.1794 1.5614442559837705 8.882515825230085 10.465869722537494 0 0 0
614 205 1 0.5897 2.2213650219536403 9.270986984286713 9.891592168719372 0 0 0
615 205 1 0.5897 0.7248780078237097 9.15357307437445 10.087878226253311 0 0 0
619 207 2 -1.1794 4.257594706962848 9.324032863655022 6.267752102889776 0 0 0
616 206 2 -1.1794 0.12927216167393524 7.72732125143343 7.450845773140429 0 0 0
620 207 1 0.5897 4.996453574387158 8.904812117214519 6.708806782292983 0 0 0
622 208 2 -1.1794 1.2544213812051699 10.719763178937459 6.87485665412074 0 0 0
623 208 1 0.5897 1.9801041850535483 10.679385033159727 7.497735070233536 0 0 0
624 208 1 0.5897 1.5715579404993818 11.28864379390809 6.173429402311134 0 0 0
647 216 1 0.5897 5.702808913465186 7.523665523153658 8.255337108261905 0 0 0
625 209 2 -1.1794 4.462226098291415 12.047204057205972 6.193667006925959 0 0 0
630 210 1 0.5897 1.461737043438573 7.116401330919857 10.524715519164543 0 0 0
607 203 2 -1.1794 5.582830357743983 10.450930612832085 9.256414730995175 0 0 0
699 233 1 0.5897 0.1340833428326489 10.802208111206177 8.153200889855453 1 0 0
698 233 1 0.5897 0.2254080225672822 11.366061668693037 9.555209014031298 1 0 0
648 216 1 0.5897 5.619806492343869 6.888593205054613 6.883594896443073 0 0 0
608 203 1 0.5897 5.96797310300246 11.258413447685797 9.596680504656184 0 0 0
750 250 1 0.5897 1.3223313693092407 11.988344756630424 11.37963056286523 0 0 0
646 216 2 -1.1794 6.045227446762155 7.598394956829157 7.364602876754191 0 0 0
609 203 1 0.5897 5.968785896924366 9.757141319102569 9.79107663108205 0 0 0
628 210 2 -1.1794 1.3425651958522937 6.197990078349491 10.766478861716116 0 0 0
627 209 1 0.5897 4.957369530267671 12.318881169485648 6.96648655519756 0 0 0
986 329 1 0.5897 3.9205169066950454 6.363000664228362 12.514084007766487 0 0 0
1094 365 1 0.5897 1.6437749406016307 8.220181013974969 16.26678227132135 0 0 0
1081 361 2 -1.1794 4.651343982222246 7.708054131203945 15.378659329468952 0 0 0
1082 361 1 0.5897 4.8796806377657 8.489620008816221 15.881828778126094 0 0 0
1083 361 1 0.5897 4.653379123157371 6.999405389089615 16.022085923784882 0 0 0
1084 362 2 -1.1794 2.8006127330789514 7.356021023168905 13.374649776241908 0 0 0
1179 393 1 0.5897 0.12214515223643108 10.876250176652944 14.105370904883488 1 0 0
1086 362 1 0.5897 3.102720482762834 8.118123266682996 12.880591358686717 0 0 0
1093 365 2 -1.1794 1.4303000657159868 9.136858762113198 16.440738880376927 0 0 0
1089 363 1 0.5897 4.8697954705717015 10.671117009119463 14.769434913796767 0 0 0
1090 364 2 -1.1794 3.0702517468393697 10.792823768941403 14.902298216981471 0 0 0
1091 364 1 0.5897 2.884886642368451 11.692316781498468 15.171900063051368 0 0 0
1092 364 1 0.5897 2.524883788635531 10.253489542599503 15.474907367963622 0 0 0
1085 362 1 0.5897 3.256810016815622 7.417787621096709 14.213879349837661 0 0 0
1095 365 1 0.5897 0.6129171478196753 9.287186309629199 15.965882489130031 0 0 0
1096 366 2 -1.1794 -0.0994861655522262 7.6399716395155775 13.181137745087652 0 0 0
1108 370 2 -1.1794 1.4890856760598667 6.43691398243024 16.05800062258023 0 0 0
1097 366 1 0.5897 0.8492984512053423 7.555620982007235 13.27543715971532 0 0 0
1099 367 2 -1.1794 4.26124391978251 9.301730826114124 12.027757009674664 0 0 0
1100 367 1 0.5897 5.0149838087299115 8.906853612965012 12.46609241274176 0 0 0
1102 368 2 -1.1794 1.4993723972195374 10.823055577968619 12.708108040932842 0 0 0
1103 368 1 0.5897 1.630778061351115 9.953902837001452 12.329361141616056 0 0 0
1104 368 1 0.5897 2.160790464028304 10.887141374282976 13.397055132371614 0 0 0
1107 369 1 0.5897 4.2257677759221455 11.067455034533278 12.189681205472098 0 0 0
1105 369 2 -1.1794 4.524193753977491 11.967385203458878 12.320829028983221 0 0 0
1087 363 2 -1.1794 5.785101878908927 10.43549769286339 14.92072660415151 0 0 0
1128 376 1 0.5897 5.706627894396823 7.07824419028349 12.743394848582778 0 0 0
1127 376 1 0.5897 5.804787841207516 7.660936561063844 14.137212746458369 0 0 0
1587 529 1 0.5897 4.466774355169927 11.015225770425618 17.62899408902329 0 0 0
1467 489 1 0.5897 5.460412033409678 6.451644907390369 17.971365724946235 0 0 0
1578 526 1 0.5897 0.31053711844869986 8.055860769204502 20.06448380891993 0 0 0
1561 521 2 -1.1794 4.462141755197572 7.726181156765125 21.528647039373443 0 0 0
1562 521 1 0.5897 4.394349504080873 6.854680013116839 21.91855973941098 0 0 0
1563 521 1 0.5897 3.905018573198335 7.68535353363577 20.751358607219004 0 0 0
1564 522 2 -1.1794 3.1894941884989527 7.750104999272825 19.050603264786915 0 0 0
1565 522 1 0.5897 2.258218882426729 7.530274063049417 19.02633008613745 0 0 0
1566 522 1 0.5897 3.613739057415114 7.053063494425183 18.55028522041505 0 0 0
1567 523 2 -1.1794 5.926738474463038 10.79020043389915 20.48649483372696 0 0 0
1570 524 2 -1.1794 3.0233353984422466 10.88054551091192 20.77933619362789 0 0 0
1571 524 1 0.5897 2.708674099212939 11.010195917608067 19.88467407119064 0 0 0
1572 524 1 0.5897 3.9603963479086177 11.070411406923101 20.734025916827825 0 0 0
1573 525 2 -1.1794 1.423058174445091 9.25526509407922 22.17220589183255 0 0 0
1575 525 1 0.5897 2.033022718391014 9.685328217003153 21.572881789548244 0 0 0
1579 527 2 -1.1794 4.705197505343669 9.366089395108277 17.65958023686605 0 0 0
1589 530 1 0.5897 1.681370019472167 7.388897338389698 22.423094589211885 0 0 0
1580 527 1 0.5897 3.9579714693879273 9.034715590793027 18.157617563852497 0 0 0
1581 527 1 0.5897 5.470936544810561 9.086784899131963 18.161410329453528 0 0 0
1582 528 2 -1.1794 1.4686994478738684 10.81550449006371 18.504199084049134 0 0 0
1583 528 1 0.5897 0.7203395224701152 10.596695691115466 19.05943776504492 0 0 0
1584 528 1 0.5897 1.3907284412319705 10.226939572517434 17.753390844887413 0 0 0
1658 553 1 0.5897 -0.09749713243929072 10.218689469759555 21.181313260655852 1 0 0
1710 570 1 0.5897 2.1146640677847657 12.092244696514861 21.634639593077008 0 0 0
1576 526 2 -1.1794 0.4781644864042094 7.662479202297186 19.20809883952878 0 0 0
1588 530 2 -1.1794 1.4695421968550908 6.457970744318726 22.35508153415174 0 0 0
1709 570 1 0.5897 0.6096228197384148 12.229326968831108 21.723194662271933 0 0 0
1585 529 2 -1.1794 4.252845701602023 11.929056991344249 17.81684450699695 0 0 0
1577 526 1 0.5897 0.05083511535124871 8.250996059559876 18.585825976618423 0 0 0
1230 410 1 0.5897 1.4269731215549162 12.192550050182975 17.285586634834488 0 0 0
1586 529 1 0.5897 4.9984413799900524 12.25078104208223 18.32358277046948 0 0 0
141 47 1 0.5897 4.624815073374345 8.813020863199524 22.79383142961012 0 0 -1
255 85 1 0.5897 2.227352080828099 15.73460583766036 4.9087038200342095 0 0 0
388 130 2 -1.1794 0.995741866130287 18.54153008931086 4.930847500210059 0 0 0
241 81 2 -1.1794 4.567117122862192 14.204906805804224 4.323155741688267 0 0 0
242 81 1 0.5897 4.586538125494405 13.401192289561045 4.842604811384623 0 0 0
243 81 1 0.5897 3.895360812156957 14.045953274710255 3.660061550450065 0 0 0
244 82 2 -1.1794 2.7515649330836873 13.759976128722936 2.172471293431257 0 0 0
245 82 1 0.5897 1.807372534799914 13.717865049078554 2.323851687648152 0 0 0
246 82 1 0.5897 2.878201659257334 14.563825075292314 1.6685331041602314 0 0 0
288 96 1 0.5897 5.596041776293911 14.416362464258542 1.546571338845681 0 0 0
250 84 2 -1.1794 2.8026877647646606 17.004146812994133 3.6641217645444106 0 0 0
251 84 1 0.5897 2.494824977773775 16.979222858899256 2.758113614877534 0 0 0
252 84 1 0.5897 3.7502932053768125 16.885888658907216 3.598912094483581 0 0 0
253 85 2 -1.1794 1.4915242726601599 15.18763504092222 5.183569153092697 0 0 0
254 85 1 0.5897 0.7744281560732956 15.440115886022486 4.601984737602819 0 0 0
146 49 1 0.5897 5.352123576388431 12.696199297552237 0.7640481653411519 0 0 0
339 113 1 0.5897 -0.043391504601738434 17.38769228078775 4.03908675692577 1 0 0
259 87 2 -1.1794 4.542645673276321 15.59694068428949 0.7297104349523541 0 0 0
269 90 1 0.5897 1.5829266531370665 13.42081661431724 5.141206649651708 0 0 0
262 88 2 -1.1794 1.1935046734444703 17.044542001221025 1.3407983141253539 0 0 0
263 88 1 0.5897 1.28960100191746 16.387852395351974 0.6510734488934034 0 0 0
264 88 1 0.5897 1.2199275159076512 17.88272626198284 0.8793894280858952 0 0 0
260 87 1 0.5897 4.421885020043253 16.54293664856365 0.6483030545727904 0 0 0
287 96 1 0.5897 5.94036903986952 13.846000306012161 2.9059865319701155 0 0 0
338 113 1 0.5897 0.009077878281778223 16.796673964863913 2.646303273294431 1 0 0
268 90 2 -1.1794 1.623011379760965 12.503408104770985 4.871230229864604 0 0 0
265 89 2 -1.1794 4.566043411709036 18.37086422788003 0.5106174716934413 0 0 0
247 83 2 -1.1794 5.406163114453495 16.888313490027997 3.6486321924189578 0 0 0
389 130 1 0.5897 1.781223198738248 18.22001643593173 4.488308886952988 0 0 0
147 49 1 0.5897 3.8752091259939885 12.576867168827267 1.0743390499572996 0 0 0
249 83 1 0.5897 5.913729569137212 16.870542763575248 2.837279107530526 0 0 0
248 83 1 0.5897 5.851486360978921 16.266359541130388 4.22399375019305 0 0 0
743 248 1 0.5897 0.8563509897583759 17.69437833566648 6.818688779604727 0 0 0
721 241 2 -1.1794 4.2060515256120725 13.72542933611975 10.163452355343358 0 0 0
722 241 1 0.5897 3.384116172315736 13.530833983102434 9.713166139683114 0 0 0
741 247 1 0.5897 4.252242868374383 16.43703672602006 6.564713739549185 0 0 0
724 242 2 -1.1794 2.672931489248525 13.62527235625973 7.678016443062486 0 0 0
725 242 1 0.5897 3.153587498252332 14.38364480304348 7.346354621928755 0 0 0
726 242 1 0.5897 3.0575108724038302 12.87820934220289 7.219583937720884 0 0 0
739 247 2 -1.1794 4.287350975688143 15.481416508026163 6.605663770155403 0 0 0
728 243 1 0.5897 4.899822369843864 16.775157332640287 9.131127341980303 0 0 0
730 244 2 -1.1794 2.9806045842337268 16.69817781430836 9.482593412906176 0 0 0
745 249 2 -1.1794 4.460097205257418 18.32737721923822 6.600137434660914 0 0 0
732 244 1 0.5897 2.954312504521265 15.845045459270727 9.915744679831882 0 0 0
733 245 2 -1.1794 1.0739464107427272 15.21844061576781 11.025197709919773 0 0 0
735 245 1 0.5897 0.41838672086749285 15.671663821240891 10.495082056869585 0 0 0
870 290 1 0.5897 1.8575753607553747 18.19734286174278 10.346250146998994 0 0 0
737 246 1 0.5897 0.8272828306297527 13.634271762866895 7.980787552187733 0 0 0
727 243 2 -1.1794 5.852741423950313 16.684926286054502 9.130822440047469 0 0 0
731 244 1 0.5897 2.3804362037812608 16.610019467258514 8.742152854455 0 0 0
742 248 2 -1.1794 1.058355875371596 16.95327992356714 7.389780550018325 0 0 0
1221 407 1 0.5897 4.841994151621192 15.46718674434731 11.332587505713592 0 0 0
744 248 1 0.5897 1.0102943723619986 16.188421515037525 6.816326884134424 0 0 0
723 241 1 0.5897 4.876845943075593 13.640091868845106 9.485977693509367 0 0 0
749 250 1 0.5897 1.3745011435843464 13.415354885148068 10.877073653569537 0 0 0
748 250 2 -1.1794 1.5773154457547234 12.515299076157076 10.62232793820013 0 0 0
768 256 1 0.5897 5.57932385984156 14.306281061570763 7.565294964416573 0 0 0
736 246 2 -1.1794 -0.07846046759744181 13.906983893400476 7.834359043753336 0 0 0
869 290 1 0.5897 0.3638298887157291 18.44161379441973 10.316769820152254 0 0 0
766 256 2 -1.1794 5.921333222863135 13.524146140576514 7.998263660464055 0 0 0
740 247 1 0.5897 4.4036690283340825 15.206368292855302 5.696235932293878 0 0 0
1213 405 2 -1.1794 1.514552114486897 15.373268839707725 16.40120683687967 0 0 0
1201 401 2 -1.1794 4.501917803588328 13.762003315664614 15.604775038594923 0 0 0
1298 433 1 0.5897 0.1475992593254002 16.909575852500808 14.258517974051035 1 0 0
1203 401 1 0.5897 4.822541559008015 13.039953269211033 16.14515674437826 0 0 0
1204 402 2 -1.1794 2.778486375868969 13.919616384164634 13.491082575243295 0 0 0
1205 402 1 0.5897 3.1836870816879386 14.035539790671757 14.350507450958073 0 0 0
1206 402 1 0.5897 3.3218720925765157 13.262500986807105 13.056221954750333 0 0 0
1219 407 2 -1.1794 4.524260170586161 15.689596330857993 12.207697902237303 0 0 0
1210 404 2 -1.1794 3.3162080421986175 16.85547908335526 14.915509791333854 0 0 0
1211 404 1 0.5897 2.9041824901214564 17.52990659222133 15.455468580362682 0 0 0
1212 404 1 0.5897 4.2497321037392854 16.925415368368448 15.115093345285409 0 0 0
1220 407 1 0.5897 3.790133037678058 15.093378488171385 12.355190982242227 0 0 0
1214 405 1 0.5897 0.7723365359580272 15.962103563990652 16.26500582748006 0 0 0
1215 405 1 0.5897 2.2229059037034586 15.756339791758615 15.883821540528068 0 0 0
1202 401 1 0.5897 5.169465126839035 13.86951582682386 14.927249048423004 0 0 0
1218 406 1 0.5897 0.9832314795540711 13.738008427821532 13.57769296981532 0 0 0
1229 410 1 0.5897 1.3353475148792247 13.551793347059062 16.62546741035748 0 0 0
734 245 1 0.5897 1.2495067050370843 15.815800362340582 11.752203467885192 0 0 0
1222 408 2 -1.1794 1.4022160909085652 17.23302438124305 12.875980318561227 0 0 0
1223 408 1 0.5897 1.1565461140070024 17.993980139588494 12.34990327806529 0 0 0
1224 408 1 0.5897 2.2617148090800616 17.45579644331329 13.23352823543862 0 0 0
1247 416 1 0.5897 5.953382094781627 14.66056532621262 13.105329201294529 0 0 0
1248 416 1 0.5897 5.916628987036722 13.154697585817285 12.954916822888807 0 0 0
1227 409 1 0.5897 4.128398278498515 17.600878232359868 12.085359115252006 0 0 0
1228 410 2 -1.1794 1.032719137705511 12.647641593313315 16.541490318079425 0 0 0
1225 409 2 -1.1794 4.176005027598707 18.55682851937715 12.088559471331797 0 0 0
1216 406 2 -1.1794 0.02740245809512548 13.75931731109283 13.623875813441693 0 0 0
1350 450 1 0.5897 1.0836154014867416 18.449793055991858 15.761597209052667 0 0 0
1700 567 1 0.5897 4.574037562456631 15.343882641350783 16.84719565784662 0 0 0
1106 369 1 0.5897 4.319993482586236 12.410336897348566 11.497222842719667 0 0 0
1707 569 1 0.5897 4.466464789725189 17.351724260717102 17.845946645926237 0 0 0
1687 563 2 -1.1794 5.687533967873527 17.195570567849845 20.846721138012136 0 0 0
1681 561 2 -1.1794 4.547196628685961 14.052895349913157 21.130965271184863 0 0 0
1682 561 1 0.5897 5.183008796542077 13.746438160563583 20.484407604236207 0 0 0
1683 561 1 0.5897 4.3967700546603705 13.295952429479469 21.697156601640586 0 0 0
1684 562 2 -1.1794 2.7254059133471458 14.094160249694001 18.91804132811765 0 0 0
1685 562 1 0.5897 3.156243634521122 13.344534619568755 18.507436521443047 0 0 0
1686 562 1 0.5897 3.006036235170034 14.060968759826586 19.832594988510877 0 0 0
1705 569 2 -1.1794 4.62603286344149 18.279061246810308 18.02118898778965 0 0 0
1689 563 1 0.5897 4.7693476323552195 17.132451157445335 20.583772715394197 0 0 0
1690 564 2 -1.1794 3.021143634341311 17.03115745480566 20.727620174372515 0 0 0
1691 564 1 0.5897 2.689838140990476 16.397579096441486 21.364015646174337 0 0 0
1692 564 1 0.5897 2.47009670246633 16.905899360257642 19.95503417056462 0 0 0
1695 565 1 0.5897 1.3520381190410005 14.349604561533551 22.12109076399402 0 0 0
1694 565 1 0.5897 0.6182260505365444 15.607127658969693 21.706570897633384 0 0 0
1708 570 2 -1.1794 1.424642557118715 12.599071359000233 22.062630663309978 0 0 0
1696 566 2 -1.1794 0.07813112300096486 13.744819346565675 19.076712965860278 0 0 0
1697 566 1 0.5897 1.0039220074384418 13.880974144027014 18.87529538811762 0 0 0
1699 567 2 -1.1794 4.51053891468619 15.709327740229497 17.729609779928964 0 0 0
1701 567 1 0.5897 3.790967025315739 15.227744272175373 18.137627087660082 0 0 0
1702 568 2 -1.1794 1.4531237693364227 16.92782676395702 18.51494287809757 0 0 0
1703 568 1 0.5897 1.5884306056344595 16.24948808775774 17.85333121390178 0 0 0
1704 568 1 0.5897 1.4737619820257337 17.749259381740206 18.02405277877616 0 0 0
1693 565 2 -1.1794 1.3852325955598135 15.303530286619113 22.192087698715795 0 0 0
261 87 1 0.5897 4.553212663061411 15.277845234702394 22.67313736408798 0 0 -1
1779 593 1 0.5897 -0.04071992764902463 17.974676038304516 21.032409489952943 1 0 0
1778 593 1 0.5897 0.4298921399205252 17.024549479240797 19.95186046002143 1 0 0
379 127 2 -1.1794 4.548033733007859 21.770114060252393 0.671463422089868 0 0 0
408 136 1 0.5897 5.9812411559380205 20.100372543284717 2.915360229692748 0 0 0
361 121 2 -1.1794 4.755368238932962 20.025932700019705 4.306856029730064 0 0 0
362 121 1 0.5897 4.010994361937734 19.82970307757506 3.737985287009085 0 0 0
29 10 1 0.5897 2.3370109997908823 24.767239809949732 4.209744916037632 0 -1 0
364 122 2 -1.1794 2.9048497338361505 20.003511008753883 2.1831421422387804 0 0 0
365 122 1 0.5897 3.2566823085623096 20.625972453775347 1.5467932327251566 0 0 0
458 153 1 0.5897 0.21903151050188435 23.803551298082912 4.508424743871598 1 0 0
366 122 1 0.5897 1.9551552409857722 20.069471568909023 2.083555278529981 0 0 0
370 124 2 -1.1794 3.404615862453664 23.211482931053695 3.5180406670535502 0 0 0