LAMMPS data file via write_data, version 30 Jul 2021, timestep = 4000000

1920 atoms
2 atom types
1280 bonds
1 bond types
640 angles
1 angle types

0.009162608047578402 24.72083839194656 xlo xhi
-0.1739956478423057 24.903996647844295 ylo yhi
-0.11206848085115695 22.922068480852246 zlo zhi

Masses

1 1.008
2 15.999

Pair Coeffs # lj/cut/tip4p/long/omp

1 0 0
2 0.21084 3.1668

Bond Coeffs # harmonic/omp

1 450 0.9572

Angle Coeffs # harmonic/omp

1 55 104.52

Atoms # full

1 1 2 -1.1794 4.484639472470325 1.084494665370274 4.456792929506288 0 0 0
2 1 1 0.5897 4.66403243859006 1.9003207760617213 4.92410597664652 0 0 0
3 1 1 0.5897 5.100381046666219 1.087331607860824 3.724018344490139 0 0 0
4 2 2 -1.1794 2.9505485472286503 1.3653550758180144 2.1138673000925516 0 0 0
5 2 1 0.5897 3.1453690920890414 1.433133071931514 3.0484875515222525 0 0 0
6 2 1 0.5897 2.0011659127824344 1.473675464463667 2.0581478949918584 0 0 0
19 7 2 -1.1794 4.84333613591339 3.16213069189286 0.756343833121325 0 0 0
9 3 1 0.5897 5.21149323405623 4.546135466766015 3.355887352557007 0 0 0
10 4 2 -1.1794 3.436279878132235 4.583447185824815 3.5820362126057295 0 0 0
11 4 1 0.5897 2.9982112157924528 5.383266136843468 3.8727845923387796 0 0 0
12 4 1 0.5897 2.9423205572678164 4.30621056615292 2.8105144195077916 0 0 0
15 5 1 0.5897 1.5706174372140396 2.1589926831251076 4.80723404978168 0 0 0
7 3 2 -1.1794 6.151821460997964 4.41031031170106 3.4720668399715464 0 0 0
24 8 1 0.5897 1.837216176955728 4.872241150873654 0.8289105373548955 0 0 0
27 9 1 0.5897 4.8844873149702375 5.0513244319027 0.28465808018643246 0 0 0
20 7 1 0.5897 3.9849966544029938 2.87717465709463 1.0697207838060565 0 0 0
25 9 2 -1.1794 4.506732262804758 5.928532310939129 0.34762293192685856 0 0 0
21 7 1 0.5897 5.462994608315157 2.569376332336746 1.1815569238604648 0 0 0
22 8 2 -1.1794 1.8857602388258525 4.162085590143573 1.4687930704581045 0 0 0
13 5 2 -1.1794 1.5922016485125399 3.0827819268985577 5.0568368299836495 0 0 0
14 5 1 0.5897 2.129239010667111 3.500754785722898 4.3837835604589275 0 0 0
23 8 1 0.5897 1.0693427075576831 4.228983111391601 1.963893671882666 0 0 0
28 10 2 -1.1794 1.5563280957370522 0.3679697845810366 4.847716599828645 0 0 0
29 10 1 0.5897 2.255671806458231 -0.013687422428261764 4.317255779996161 0 0 0
1455 485 1 0.5897 1.3523764615002485 2.9142159232184217 0.25729785568657576 0 0 1
387 129 1 0.5897 4.006653115366742 0.21834346818471162 1.4123719669601935 0 1 0
386 129 1 0.5897 4.955056056346669 0.3041163033736435 0.23561679425680487 0 1 0
47 16 1 0.5897 6.090359554539837 0.6333675291891966 2.0100459057726474 0 0 0
99 33 1 0.5897 0.23876881283705215 3.7919440791311088 3.885852663131387 1 0 0
16 6 2 -1.1794 0.1891775093454696 1.6430756142813001 2.033706847864522 0 0 0
98 33 1 0.5897 0.25146779686177223 5.248198828527295 3.472510221582317 1 0 0
1347 449 1 0.5897 4.644600907757124 0.04459209243884163 11.194046120681355 0 1 0
481 161 2 -1.1794 4.479066533752429 1.2932636594684555 9.942339481106027 0 0 0
867 289 1 0.5897 4.844621075034245 0.13879164887931256 6.017701050894684 0 1 0
483 161 1 0.5897 4.630769425022175 2.0034550745236817 10.565821805164523 0 0 0
484 162 2 -1.1794 2.9332099701317804 1.8071181235383005 7.806792298794708 0 0 0
485 162 1 0.5897 3.3881565783015546 1.7358624161994283 8.645862989358333 0 0 0
486 162 1 0.5897 3.2537446289375564 1.0637090731617713 7.296165778388368 0 0 0
500 167 1 0.5897 4.073742540321691 3.0919494492836996 6.693579838369424 0 0 0
489 163 1 0.5897 5.049171364829003 4.511148132487825 8.384620887024685 0 0 0
490 164 2 -1.1794 3.109376917224907 4.676201018323985 9.149826551741704 0 0 0
491 164 1 0.5897 2.7001834052897373 5.271117274457278 9.7781180969486 0 0 0
492 164 1 0.5897 2.8031583498224935 3.8068574990935162 9.407947833953402 0 0 0
493 165 2 -1.1794 1.5730634583204715 2.6648535594730087 10.34931849436104 0 0 0
503 168 1 0.5897 1.7081158284835445 4.3525885072719435 6.335592905472702 0 0 0
482 161 1 0.5897 5.253962215608779 1.2975934211159441 9.380516251428576 0 0 0
498 166 1 0.5897 1.0434843198274064 1.9487020554730168 7.838100749543617 0 0 0
578 193 1 0.5897 0.2559436384975279 4.922230755525026 8.294111255840157 1 0 0
501 167 1 0.5897 4.845224172329408 4.219016066963934 6.040725996436931 0 0 0
499 167 2 -1.1794 4.916755866815963 3.2975445171028475 6.289593165828969 0 0 0
502 168 2 -1.1794 1.497064687335884 5.024240239055929 6.984014796507348 0 0 0
494 165 1 0.5897 1.5692324273905596 1.7077340213854542 10.341427905049905 0 0 0
504 168 1 0.5897 2.2427225464686638 5.021134758567268 7.584104647149632 0 0 0
527 176 1 0.5897 6.071398915933482 0.9415195992705645 7.637855528972654 0 0 0
495 165 1 0.5897 1.477725927944988 2.8976106003038287 11.272792396766175 0 0 0
629 210 1 0.5897 0.684175752062737 5.703643550886355 10.136208892494642 0 0 0
579 193 1 0.5897 0.12098197594222151 3.749244805299534 9.241476155540287 1 0 0
487 163 2 -1.1794 5.971399273997652 4.641717356714285 8.60508968355561 0 0 0
628 210 2 -1.1794 1.2853585298825863 6.02519192931071 10.807997486059655 0 0 0
488 163 1 0.5897 6.163999878791331 3.9577241902678058 9.246315314241796 0 0 0
497 166 1 0.5897 0.07060493083699271 1.0391996347004033 7.118399491711521 0 0 0
496 166 2 -1.1794 0.10818449708656175 1.787187195298324 7.714405753767534 0 0 0
505 169 2 -1.1794 4.396539930788654 6.060323324559635 6.108556481819864 0 0 0
508 170 2 -1.1794 1.3765888446973285 -0.13467483652667056 10.545077919434824 0 0 0
30 10 1 0.5897 1.5555676734053598 -0.15019186251819328 5.652452440641983 0 0 0
980 327 1 0.5897 3.7600744863340334 2.601606592990753 12.319722915810825 0 0 0
961 321 2 -1.1794 4.533369793887904 1.6991611771164175 15.858054379505667 0 0 0
962 321 1 0.5897 5.3956708202347645 1.8764970993450913 15.482372293489387 0 0 0
963 321 1 0.5897 4.670123193117621 0.9402681054756243 16.425067271598262 0 0 0
964 322 2 -1.1794 2.9897423772492258 1.5382070504709842 13.570116779835956 0 0 0
965 322 1 0.5897 3.358008217041729 1.5717737249401138 14.45291290509067 0 0 0
966 322 1 0.5897 2.0445777073909976 1.4735185605065275 13.70664956631179 0 0 0
1108 370 2 -1.1794 1.6256712329028449 6.0007006478148845 16.36716444636525 0 0 0
970 324 2 -1.1794 3.3689707645733544 4.360321503664142 14.89642577344244 0 0 0
971 324 1 0.5897 4.32491050581846 4.352750779634798 14.84860967259212 0 0 0
972 324 1 0.5897 3.147161233627689 3.5712406600788644 15.390673496015696 0 0 0
973 325 2 -1.1794 1.4025946652417887 2.7658564909178245 16.331098874667887 0 0 0
975 325 1 0.5897 0.7572817587770625 3.3222893455680333 15.895099105478586 0 0 0
984 328 1 0.5897 1.9993235412374994 4.162668183096644 13.280347489983868 0 0 0
981 327 1 0.5897 5.228393748251743 2.900383365154033 12.535350148578397 0 0 0
976 326 2 -1.1794 0.1830812207708628 1.0838623690498694 13.435838066109651 0 0 0
1346 449 1 0.5897 3.8552426017681958 0.2864021136591177 12.46290835746358 0 1 0
982 328 2 -1.1794 1.180438023923193 4.105404744472645 12.788119053097613 0 0 0
1109 370 1 0.5897 0.7689583375494313 5.689463972678013 16.0750512790507 0 0 0
983 328 1 0.5897 1.2581056569147095 4.780240324995831 12.11382545564912 0 0 0
987 329 1 0.5897 4.555399408210618 4.866441141987883 12.008764659224362 0 0 0
1008 336 1 0.5897 5.804301408777388 0.9621172595009366 13.02829437845554 0 0 0
979 327 2 -1.1794 4.462657985964691 3.1873886637207742 12.037940444127814 0 0 0
990 330 1 0.5897 1.5246470390320424 0.8884986633754688 16.573476997834312 0 0 0
985 329 2 -1.1794 4.690723318480855 5.808379192203598 12.111743369107401 0 0 0
988 330 2 -1.1794 1.3413729905069114 -0.04996769904887946 16.61655511069896 0 0 0
1110 370 1 0.5897 2.2463491832639697 5.60382522051554 15.756115249398187 0 0 0
986 329 1 0.5897 3.9921066446664484 6.087928625105227 12.703276692001737 0 0 0
1469 490 1 0.5897 1.53593853645105 0.8146370780006763 22.30805092295255 0 0 0
1447 483 2 -1.1794 5.890492932557381 4.654137857694075 20.726025794999877 0 0 0
1441 481 2 -1.1794 4.787043289489213 1.2638582730024384 21.680534077999457 0 0 0
1442 481 1 0.5897 4.112583039108286 1.3907164747345935 21.013351809189427 0 0 0
1443 481 1 0.5897 4.7459183795015845 2.055554279257634 22.21686395318619 0 0 0
1444 482 2 -1.1794 2.997350463473309 1.2393043815887286 19.320327844226483 0 0 0
1461 487 1 0.5897 5.336156621943712 2.809876929772993 18.65872994244785 0 0 0
1446 482 1 0.5897 3.199688715865728 2.107710702066971 18.97237402467399 0 0 0
1463 488 1 0.5897 1.2456846546608147 4.828910853760401 17.84781469048963 0 0 0
1450 484 2 -1.1794 3.1775521264680937 4.3515389804594085 20.98271741722247 0 0 0
1451 484 1 0.5897 4.1263459273009175 4.360412407162345 20.856718821251896 0 0 0
1452 484 1 0.5897 2.817397548807372 4.404133762789288 20.09750672624739 0 0 0
1453 485 2 -1.1794 1.368529097080861 2.5441963467530937 22.408882249604403 0 0 0
1456 486 2 -1.1794 0.17526780115409452 1.1164997157223722 19.397331637029495 0 0 0
1445 482 1 0.5897 2.0488188247977206 1.247110138908405 19.448362666000143 0 0 0
1466 489 1 0.5897 4.172435830190983 5.085522487809101 18.182630658573228 0 0 0
1538 513 1 0.5897 0.0307415421224913 4.235252818562778 21.39757155938041 1 0 0
1462 488 2 -1.1794 1.5070060725016496 4.286484106274372 18.59184711682421 0 0 0
1459 487 2 -1.1794 4.657893081298577 3.3171248366762627 18.212854309771064 0 0 0
1464 488 1 0.5897 0.7786538586482716 4.358305918529231 19.208671092531524 0 0 0
1454 485 1 0.5897 1.9715137306036645 3.107283861239084 21.923624778215043 0 0 0
1460 487 1 0.5897 4.692946811452631 3.018117488523099 17.30431602241931 0 0 0
1465 489 2 -1.1794 4.154930635981056 6.04178556270643 18.14508241639362 0 0 0
1487 496 1 0.5897 5.782685399713477 1.3614909499067154 20.109316864445955 0 0 0
1826 609 1 0.5897 3.8478976664193993 -0.018511906968903064 18.26007390437727 0 1 0
1488 496 1 0.5897 5.828017500978616 0.5702408789772985 18.819584173703443 0 0 0
1539 513 1 0.5897 0.032500189541799784 5.541440695369415 20.632385764501763 1 0 0
1590 530 1 0.5897 2.198287660663367 6.007321614048328 21.603151167150283 0 0 0
1468 490 2 -1.1794 1.4104768884707475 -0.11890374613258103 22.13800143987256 0 0 0
974 325 1 0.5897 1.3154079288659006 2.9798030987375945 17.259910141619947 0 0 0
125 42 1 0.5897 3.312658197540283 6.817586915813704 1.5398757777305965 0 0 0
121 41 2 -1.1794 4.618230288702025 7.865460835747104 4.034244280654882 0 0 0
122 41 1 0.5897 3.837245725602442 7.957311723387775 3.4885725418017373 0 0 0
123 41 1 0.5897 5.305120895757342 7.5923697893518645 3.426191501111983 0 0 0
124 42 2 -1.1794 2.8947876077053554 7.5984100805310115 1.9029754066248898 0 0 0
144 48 1 0.5897 1.610515413342624 11.651803745779539 0.7213323216485449 0 0 0
126 42 1 0.5897 3.3568226306274314 8.330080336460783 1.4939251424411493 0 0 0
167 56 1 0.5897 6.1250355505799465 8.163353853788792 1.5787024241907002 0 0 0
143 48 1 0.5897 0.8803582009324712 10.962596558068856 1.854231213828948 0 0 0
130 44 2 -1.1794 3.5333149041296976 11.0961458110237 3.7799794669605227 0 0 0
149 50 1 0.5897 1.6288023253048591 7.303491788728365 4.444634822231607 0 0 0
132 44 1 0.5897 3.1579389653694654 11.04904064167068 2.900800469672222 0 0 0
133 45 2 -1.1794 1.5899711874344595 9.177823592585586 4.402340156549072 0 0 0
135 45 1 0.5897 2.2734747424578265 9.831809340817744 4.256445989179948 0 0 0
131 44 1 0.5897 3.0138564935950103 11.764207843977402 4.227184629581167 0 0 0
137 46 1 0.5897 1.0455378125312214 7.862202238913984 1.833989054024456 0 0 0
139 47 2 -1.1794 4.862440147844666 9.431153437362822 0.8212823471608159 0 0 0
219 73 1 0.5897 0.19834819614136232 10.354732380059646 3.7734572517458904 1 0 0
142 48 2 -1.1794 1.692453877606909 10.933402267883103 1.3484719245515686 0 0 0
129 43 1 0.5897 5.259277350914929 10.82900769076362 3.8950339905431752 0 0 0
145 49 2 -1.1794 4.614699929152124 12.250765865706311 0.9571486499577413 0 0 0
621 207 1 0.5897 4.679078636370887 9.24704314387342 5.624634512929753 0 0 0
141 47 1 0.5897 4.698131576559679 9.188433993771428 -0.08985048988874272 0 0 0
507 169 1 0.5897 4.335049930910571 6.625686867195627 5.33870243841682 0 0 0
140 47 1 0.5897 4.859244294150859 10.38830458743424 0.8189819237713284 0 0 0
148 50 2 -1.1794 1.499775471839262 6.35544961917271 4.471553756054549 0 0 0
136 46 2 -1.1794 0.09272125335233988 7.952909143483117 1.82519233828931 0 0 0
134 45 1 0.5897 1.2020978544033176 9.419596163770422 5.243282119289907 0 0 0
1574 525 1 0.5897 1.6870525335975848 9.765004272852103 0.06840050084254859 0 0 1
270 90 1 0.5897 0.9368843324824915 12.299813378232436 4.623456507067418 0 0 0
150 50 1 0.5897 1.489278939328799 6.141082116572212 5.404291529483155 0 0 0
26 9 1 0.5897 5.08592722541276 6.396637297966093 0.9488984733985435 0 0 0
608 203 1 0.5897 6.075088900330575 11.503022407657623 9.691133427133845 0 0 0
607 203 2 -1.1794 5.7812751622543415 10.64655219037697 9.380837423052837 0 0 0
601 201 2 -1.1794 4.804040311673889 7.670806704144373 10.07306760673965 0 0 0
698 233 1 0.5897 0.39626781528490046 11.592159297065784 9.711344318702537 1 0 0
603 201 1 0.5897 4.02820139652666 7.769972498341885 9.521368112623257 0 0 0
604 202 2 -1.1794 2.9741799780535203 7.7019035377021545 7.889475511704827 0 0 0
605 202 1 0.5897 3.3156828241062968 8.379871707763677 7.306504711050746 0 0 0
606 202 1 0.5897 2.0273713853741895 7.720306389964318 7.7502675725643435 0 0 0
613 205 2 -1.1794 1.4936012950711952 9.08724211437215 10.567482879130877 0 0 0
610 204 2 -1.1794 3.077193822767532 10.762109289526062 8.900844129276726 0 0 0
611 204 1 0.5897 4.01198460276139 10.619509486659124 9.049181285427485 0 0 0
619 207 2 -1.1794 4.576841130680793 9.472178695737028 6.549257240585166 0 0 0
699 233 1 0.5897 0.043521107305856656 10.849554158209592 8.440265561296915 1 0 0
614 205 1 0.5897 2.134260002175073 9.60688524732283 10.082026563396765 0 0 0
612 204 1 0.5897 2.883466064058465 11.57975369742364 9.359165983212545 0 0 0
648 216 1 0.5897 5.851571279769 7.003794172348592 7.252543441420236 0 0 0
626 209 1 0.5897 4.702948666854311 11.294282351073695 6.550464008850196 0 0 0
615 205 1 0.5897 0.648632566844251 9.338660153108389 10.194703901074552 0 0 0
622 208 2 -1.1794 1.11387774452152 10.588120179723283 6.962255998135707 0 0 0
623 208 1 0.5897 1.8809476155233922 10.476466673889751 7.523742308213698 0 0 0
624 208 1 0.5897 1.3167197682296385 11.35659692864914 6.428934579201431 0 0 0
620 207 1 0.5897 5.253046251729225 8.963239245676196 6.996321310340509 0 0 0
602 201 1 0.5897 4.671552626142398 6.838073041378063 10.525988270670261 0 0 0
647 216 1 0.5897 5.771718106181113 7.798474194112982 8.538489347468804 0 0 0
630 210 1 0.5897 1.3108087103301491 6.97254260012265 10.6737125785566 0 0 0
506 169 1 0.5897 3.9019052814162922 6.522096470930874 6.785475586136361 0 0 0
616 206 2 -1.1794 0.3000054924767123 7.8632449117362135 7.516579058746212 0 0 0
625 209 2 -1.1794 4.5570403156265264 12.239154059175087 6.596098140841431 0 0 0
1127 376 1 0.5897 5.874800065197727 7.432375186212113 14.486774565479672 0 0 0
1094 365 1 0.5897 1.4857582025476102 7.934142397607255 16.598122043908006 0 0 0
1081 361 2 -1.1794 4.6506886721873055 7.496831143159105 15.784067390894082 0 0 0
1082 361 1 0.5897 4.566478013544584 8.247264539280748 16.37218070714362 0 0 0
1083 361 1 0.5897 4.303403837056586 6.759001442561931 16.28520054748047 0 0 0
1084 362 2 -1.1794 2.706727950562567 7.266180153538605 13.645800071802839 0 0 0
1101 367 1 0.5897 4.703159834289178 8.691313564348018 11.613989866561752 0 0 0
1086 362 1 0.5897 3.204624051573494 7.817619087476903 13.042363499819606 0 0 0
1100 367 1 0.5897 5.417265967926793 8.68985062887479 12.948747998012033 0 0 0
1089 363 1 0.5897 5.04384124114586 10.692190596164842 15.2001789410774 0 0 0
1090 364 2 -1.1794 3.4264101032040726 10.605876271734664 14.926393174711578 0 0 0
1091 364 1 0.5897 3.0842097730551754 11.354847429889402 15.414319641577725 0 0 0
1092 364 1 0.5897 3.027045298652466 9.843656463515236 15.345522329426785 0 0 0
1085 362 1 0.5897 3.1146021855665587 7.414896544054625 14.498796852122107 0 0 0
1099 367 2 -1.1794 4.72498658929989 9.136136074107224 12.46118622296183 0 0 0
1228 410 2 -1.1794 1.6145148769393765 12.349639292954038 16.37291558081182 0 0 0
1095 365 1 0.5897 1.025309950561272 9.266159316089546 16.04550213484858 0 0 0
1097 366 1 0.5897 0.6993074863156531 7.734747039129669 13.765262691654026 0 0 0
1093 365 2 -1.1794 1.60340202487748 8.878308728741503 16.70238571580962 0 0 0
750 250 1 0.5897 1.8302978388172464 12.204218761823004 11.60658803372182 0 0 0
1102 368 2 -1.1794 1.7572878217849575 10.764114521163874 12.752013535980485 0 0 0
1103 368 1 0.5897 1.7550340191675387 10.045326236729352 12.119993173599294 0 0 0
1104 368 1 0.5897 2.447309192553669 10.534324070044262 13.374257629045575 0 0 0
1179 393 1 0.5897 0.6129993250496629 10.567612608362529 14.076952081693449 1 0 0
1107 369 1 0.5897 4.692746312851615 11.279245109696488 12.126173989868239 0 0 0
1087 363 2 -1.1794 5.99894541900312 10.636135061148478 15.228429034905478 0 0 0
1105 369 2 -1.1794 4.822503007693079 12.202089393633122 12.344510355141653 0 0 0
1178 393 1 0.5897 0.545497530097021 11.220132056287968 15.441200369015109 1 0 0
1177 393 2 -1.1794 0.23416894891287748 10.460343058182218 14.949339926880663 1 0 0
1589 530 1 0.5897 1.7935506975894584 7.4051525893468115 22.020251272597022 0 0 0
1709 570 1 0.5897 0.9086422110233665 12.217332052222542 21.74729029286215 0 0 0
1608 536 1 0.5897 5.673373322585946 7.914651611038721 19.997257612406823 0 0 0
1561 521 2 -1.1794 4.726097462637425 8.032487090145526 21.555448420381595 0 0 0
1562 521 1 0.5897 4.727323823771871 7.296249313977766 22.16706294795866 0 0 0
1563 521 1 0.5897 3.938812764836305 7.903739834266618 21.0265428842405 0 0 0
1564 522 2 -1.1794 2.8691203060373955 7.8979221034000915 19.549104646976744 0 0 0
1565 522 1 0.5897 1.923383191347743 7.874779581819421 19.403473953955817 0 0 0
1566 522 1 0.5897 3.2114180467281273 7.1791673695588045 19.01773018850662 0 0 0
1579 527 2 -1.1794 4.556738334717465 9.419998877884753 17.973140375206036 0 0 0
1570 524 2 -1.1794 3.4742891222516428 11.126120926014684 20.876403081107917 0 0 0
1571 524 1 0.5897 3.234801299684114 11.023580689260585 19.955422041112325 0 0 0
1572 524 1 0.5897 4.388000848339142 10.844279940663588 20.919582190068997 0 0 0
1580 527 1 0.5897 3.7463991118118467 9.05296810551648 18.326396709367703 0 0 0
1573 525 2 -1.1794 1.69421657713376 9.318430089646041 22.25601202656322 0 0 0
1710 570 1 0.5897 2.4190790243483455 12.27327714812847 21.66253789915619 0 0 0
1581 527 1 0.5897 5.2523965736752585 8.914273368323853 18.39319695663318 0 0 0
1575 525 1 0.5897 2.30693911902229 9.82477334692274 21.72279414156391 0 0 0
1587 529 1 0.5897 4.489746148832962 11.283989625595817 17.860997053431113 0 0 0
1582 528 2 -1.1794 1.7342968875035414 10.753136331618458 18.718585131150558 0 0 0
1583 528 1 0.5897 0.9199588368837543 10.85590679504712 19.210954787156385 0 0 0
1584 528 1 0.5897 1.6020833700709136 9.960276785122925 18.198949471421344 0 0 0
1576 526 2 -1.1794 0.15032068066993018 7.4928039890883555 19.062039313627636 0 0 0
1585 529 2 -1.1794 4.549531393171508 12.216562977498873 18.068108400941917 0 0 0
1467 489 1 0.5897 4.903301862547105 6.316486052131969 18.674813590196838 0 0 0
1567 523 2 -1.1794 6.059599489620336 10.661036737341192 20.977084011044017 0 0 0
1658 553 1 0.5897 0.08972571665335287 10.188574236133007 21.42258800571399 1 0 0
1588 530 2 -1.1794 1.4548373872747544 6.514593071691401 21.9289021896387 0 0 0
1230 410 1 0.5897 1.7389459722272986 11.89828645946698 17.2077129604125 0 0 0
1586 529 1 0.5897 5.230769788928953 12.2703476366379 18.738285784263514 0 0 0
339 113 1 0.5897 0.4126715338414707 17.763391396950716 4.257251316214657 1 0 0
256 86 2 -1.1794 0.08208057554197623 14.026814480219274 2.1467074794998764 0 0 0
241 81 2 -1.1794 4.716546355799371 13.895893069450521 4.43289469955997 0 0 0
261 87 1 0.5897 4.6264372677037455 15.459689275799459 0.24311778117726435 0 0 0
243 81 1 0.5897 3.9844837776554547 13.809235020740722 3.822404181870499 0 0 0
244 82 2 -1.1794 2.846485150542387 13.92684077915728 2.2531244969314175 0 0 0
245 82 1 0.5897 1.8972426912088862 14.049323437441998 2.2634630038501684 0 0 0
246 82 1 0.5897 3.1869543145570827 14.724324765627458 1.847860074574989 0 0 0
247 83 2 -1.1794 6.141819267990221 17.280186614350654 3.3441746540194464 0 0 0
250 84 2 -1.1794 3.387814078865134 17.271935198119607 3.5520674012480504 0 0 0
251 84 1 0.5897 2.8402315637754465 17.028242681620107 2.8058276869571412 0 0 0
252 84 1 0.5897 4.27997747759286 17.067584230333466 3.271987528752053 0 0 0
269 90 1 0.5897 1.5870656980392892 13.555846585242614 5.1632410066361665 0 0 0
253 85 2 -1.1794 1.7425250886219183 15.297156137495758 5.058783918193778 0 0 0
268 90 2 -1.1794 1.6439200574737118 12.600861902706738 5.194070917790969 0 0 0
255 85 1 0.5897 2.4748963629122476 15.699842219803077 4.5922818821582245 0 0 0
259 87 2 -1.1794 4.4842003861294355 15.827988304604192 1.1150122931913697 0 0 0
254 85 1 0.5897 0.9645271559753442 15.597282112582313 4.588907980897608 0 0 0
262 88 2 -1.1794 1.6168024078938446 17.34947756343854 1.621007747842552 0 0 0
263 88 1 0.5897 1.4221893164120507 16.65419917374723 0.9926552770440875 0 0 0
264 88 1 0.5897 1.7177973552477128 18.13601717886938 1.0850221880992457 0 0 0
242 81 1 0.5897 4.650339029650226 13.12604183530828 4.997754917168996 0 0 0
260 87 1 0.5897 4.525858661338089 16.77537824460103 0.9850773100523531 0 0 0
288 96 1 0.5897 5.956730907907887 14.944142147089233 1.9577885204480876 0 0 0
338 113 1 0.5897 0.4447622119463854 17.125475063698303 2.8848269227469787 1 0 0
147 49 1 0.5897 5.267187282052064 12.924340835825571 1.148778716080596 0 0 0
287 96 1 0.5897 6.186668353251355 14.207479412366833 3.26009461394991 0 0 0
146 49 1 0.5897 3.7753380640993424 12.66723602814613 1.1525546571836127 0 0 0
749 250 1 0.5897 1.6746907845832801 13.508751373228034 10.854502723822499 0 0 0
721 241 2 -1.1794 4.654313287869246 13.80876571535608 10.099990055072073 0 0 0
722 241 1 0.5897 3.8343198531832665 14.06637304001084 9.678804336491325 0 0 0
735 245 1 0.5897 0.9659439076219978 15.976990467757071 10.216899299497417 0 0 0
724 242 2 -1.1794 2.8652307934582124 14.026380141050176 7.841897039717777 0 0 0
725 242 1 0.5897 3.233562394671806 14.7574299939077 7.345884902110291 0 0 0
726 242 1 0.5897 3.301462732685587 13.251736783500656 7.487246557334051 0 0 0
870 290 1 0.5897 2.47225110122357 18.432852631622765 10.461647518763574 0 0 0
728 243 1 0.5897 5.062140603238082 17.082201637730506 9.13677599837332 0 0 0
730 244 2 -1.1794 3.2799745107789824 17.157243374898158 9.271213041071308 0 0 0
731 244 1 0.5897 2.822715332507189 17.24926008253057 8.435430304245916 0 0 0
732 244 1 0.5897 2.84130851064634 16.425704724780346 9.705448477537642 0 0 0
768 256 1 0.5897 6.063659428968184 14.815409039601745 7.513077826423637 0 0 0
741 247 1 0.5897 4.667801801077326 16.57263087461893 5.972459343927457 0 0 0
818 273 1 0.5897 0.2939296954095902 17.108837545349687 8.641447594240368 1 0 0
737 246 1 0.5897 1.154732350195725 13.727595282098275 7.458880861930806 0 0 0
739 247 2 -1.1794 4.672687231969203 15.711965314978956 6.391226271254487 0 0 0
748 250 2 -1.1794 1.7582686798989438 12.56439391193854 10.722749530504725 0 0 0
742 248 2 -1.1794 1.513520447137169 17.17245985239387 7.078754082307963 0 0 0
723 241 1 0.5897 5.335241364721389 14.073332527400797 9.481547795382332 0 0 0
744 248 1 0.5897 1.5562807555419393 16.466277986109347 6.434089518474275 0 0 0
743 248 1 0.5897 1.457049854024574 17.9719814826938 6.555561301797107 0 0 0
736 246 2 -1.1794 0.21439556889568923 13.732717533354945 7.637497455122429 0 0 0
733 245 2 -1.1794 1.6954819761473288 15.480184846288898 10.58718637153301 0 0 0
627 209 1 0.5897 5.347160093429321 12.584184029125817 7.011803054304238 0 0 0
738 246 1 0.5897 0.1506528993112468 13.858185667690059 8.584206010871197 0 0 0
745 249 2 -1.1794 4.689159735826914 18.614610762389077 6.231812501531616 0 0 0
727 243 2 -1.1794 6.014043629542909 17.071996341495108 9.03706528228039 0 0 0
740 247 1 0.5897 4.913867701425328 15.105694285391984 5.690958643102588 0 0 0
1211 404 1 0.5897 2.62115947838166 17.81447572467348 15.754353376777093 0 0 0
1201 401 2 -1.1794 4.80621667930973 13.84725941045989 15.711144337808303 0 0 0
1216 406 2 -1.1794 0.33310349179718207 13.748770510595616 13.656379379056176 0 0 0
1203 401 1 0.5897 5.007476930893079 13.244422886469497 16.426817067887775 0 0 0
1204 402 2 -1.1794 3.0692559562341493 13.702803549090195 13.706245146839688 0 0 0
1205 402 1 0.5897 3.415228852344575 13.747741633450262 14.597511539659449 0 0 0
1206 402 1 0.5897 3.6844198355349946 13.13827672064418 13.238247283507363 0 0 0
1213 405 2 -1.1794 1.757189744710306 15.15019205464026 16.82443663355781 0 0 0
1210 404 2 -1.1794 3.0495828399222216 17.41338567353727 14.998256315744927 0 0 0
1229 410 1 0.5897 1.7836186015456492 13.270774696871241 16.570575635862028 0 0 0
1212 404 1 0.5897 3.980538661904508 17.596262490587073 15.124934273458315 0 0 0
1215 405 1 0.5897 2.679446863505739 15.288944960611813 16.60914742441219 0 0 0
1219 407 2 -1.1794 4.709915729711762 15.394363154739604 12.344095478666821 0 0 0
1248 416 1 0.5897 6.1408729528070545 13.04819965124619 13.17284934620299 0 0 0
1298 433 1 0.5897 0.07157488340730071 16.653047166704866 14.133201375186406 1 0 0
1218 406 1 0.5897 1.2898678626971598 13.7763791904939 13.659222574145563 0 0 0
1227 409 1 0.5897 4.452154250865101 17.199013509835503 12.260680602620198 0 0 0
1217 406 1 0.5897 0.07474980721040246 14.444313250362386 13.051738626062782 0 0 0
1222 408 2 -1.1794 1.5179483641420297 16.89595700652896 12.803266275579011 0 0 0
1223 408 1 0.5897 1.7189053988001342 17.55657640039764 12.14045867282122 0 0 0
1224 408 1 0.5897 1.9917646119340466 17.186136715469367 13.582623198341858 0 0 0
1214 405 1 0.5897 1.2780466979967304 15.6137243422612 16.137653272564698 0 0 0
1202 401 1 0.5897 5.581556563129482 13.821490977446352 15.150498768591055 0 0 0
1220 407 1 0.5897 4.170385561160938 14.86460664334788 12.93094291768661 0 0 0
1350 450 1 0.5897 0.5036043771463206 18.489680378780655 16.365347253832425 0 0 0
1225 409 2 -1.1794 4.523896433773037 18.114207994083436 11.98970433473401 0 0 0
1207 403 2 -1.1794 6.025633283565917 17.337556339320223 15.25464182304702 0 0 0
1247 416 1 0.5897 6.151385754280033 14.558628934436637 13.273811150457135 0 0 0
1221 407 1 0.5897 4.641177936992946 14.957537742403922 11.495247686442768 0 0 0
1226 409 1 0.5897 5.0109852096823575 18.536502596992506 12.697184408436659 0 0 0
1106 369 1 0.5897 4.960286417378211 12.631385829526165 11.500235063376609 0 0 0
734 245 1 0.5897 1.7606376976784979 15.787447755553135 11.491295344930752 0 0 0
1779 593 1 0.5897 0.12810764937486951 17.826037828872735 21.861911488790405 1 0 0
1687 563 2 -1.1794 6.036968067780215 17.124244699784157 20.954957875401757 0 0 0
1681 561 2 -1.1794 4.710067611612431 14.186320338067924 21.922245364443107 0 0 0
1682 561 1 0.5897 5.548069655114658 13.964679582792995 21.516322812063827 0 0 0
1693 565 2 -1.1794 1.3743307061810308 15.378247909038569 22.5330727230201 0 0 0
1684 562 2 -1.1794 3.1683507024109963 14.012617014566285 19.595755373941934 0 0 0
1685 562 1 0.5897 3.4606306595864873 13.374390361782986 18.94508904116202 0 0 0
1686 562 1 0.5897 3.814414963238225 13.951092944583428 20.299266673275767 0 0 0
1695 565 1 0.5897 1.5094649371191755 14.479555525596256 22.232679390964144 0 0 0
1689 563 1 0.5897 5.0899356016475945 17.044331499236414 21.068612170349716 0 0 0
1690 564 2 -1.1794 3.210439351446268 17.10181085745441 21.169677466497863 0 0 0
1691 564 1 0.5897 2.804578529813171 16.336901576864072 21.577515000360087 0 0 0
1692 564 1 0.5897 2.8531755147543256 17.11825861502625 20.281888361527997 0 0 0
1699 567 2 -1.1794 4.319270790121641 15.915325937062354 17.841459736564893 0 0 0
1696 566 2 -1.1794 0.3803379750860241 13.602172948891726 19.362893473452775 0 0 0
1707 569 1 0.5897 4.67398739515336 17.729150012338117 17.95598669046249 0 0 0
1694 565 1 0.5897 0.6430690168752722 15.700079846272192 22.005989584358357 0 0 0
1697 566 1 0.5897 1.3018420468658998 13.553752670652488 19.61714640526429 0 0 0
1703 568 1 0.5897 1.741820568480927 16.351912274358988 18.259944040846907 0 0 0
1701 567 1 0.5897 3.721581592300352 15.462962789194272 18.43665498550603 0 0 0
1702 568 2 -1.1794 1.8177192071201143 17.164791654019155 18.759538112085842 0 0 0
1708 570 2 -1.1794 1.6661867507285015 12.714355601215107 22.05591678851612 0 0 0
1704 568 1 0.5897 1.5208926743245739 17.845941488497154 18.15617357889619 0 0 0
1683 561 1 0.5897 4.4362355397496485 13.381571617828422 22.36216695788745 0 0 0
1728 576 1 0.5897 6.12051908822449 14.968836548788982 18.986919613257086 0 0 0
1698 566 1 0.5897 0.3411694748796585 14.327533799220982 18.739646693193063 0 0 0
1688 563 1 0.5897 6.166289983145438 17.117175326408272 20.00665069715257 0 0 0
1778 593 1 0.5897 0.47709195860963804 17.547063947292045 20.41558159557756 1 0 0
1830 610 1 0.5897 2.2090174911313185 18.63246342476006 21.979205082026894 0 0 0
1700 567 1 0.5897 4.555501127504224 15.254509589781604 17.19058737993021 0 0 0
388 130 2 -1.1794 1.5119421777557316 19.044541188414684 4.952238138721734 0 0 0
267 89 1 0.5897 3.880794003438092 18.9576094336361 1.4770116312585577 0 0 0
361 121 2 -1.1794 4.823982543750218 20.632155227728006 4.431437443439888 0 0 0
362 121 1 0.5897 4.001265788647213 20.497559293397877 3.9611594252228617 0 0 0
375 125 1 0.5897 0.9279107621268642 22.287883756555573 4.7592288583430395 0 0 0
364 122 2 -1.1794 2.877351487777654 20.155571419166442 2.5097661049188074 0 0 0
365 122 1 0.5897 3.1229576519492115 20.912038739861607 1.9772606207432695 0 0 0
366 122 1 0.5897 1.920431215755391 20.14827640788858 2.4894008164303623 0 0 0
390 130 1 0.5897 1.46981849063043 19.998756238368223 4.890069846001027 0 0 0
370 124 2 -1.1794 3.2022744397584026 23.49728316490114 3.490202777471187 0 0 0
371 124 1 0.5897 4.128601885039056 23.357297637880706 3.68637105459784 0 0 0
372 124 1 0.5897 2.7411022932592313 22.875814963413966 4.053429036684594 0 0 0
363 121 1 0.5897 4.854087926104816 19.920523259719324 5.070803010137045 0 0 0