LAMMPS data file via write_data, version 30 Jul 2021, timestep = 2250000

864 atoms
2 atom types
576 bonds
1 bond types
288 angles
1 angle types

0.4224795282427589 17.785092871757428 xlo xhi
1.589156349346272 22.040021450655935 ylo yhi
0.5154240376583026 21.69777176233864 zlo zhi

Masses

1 1.00794
2 15.9994

Pair Coeffs # lj/cut/tip4p/long/omp

1 0 0
2 0.21084 3.1668

Bond Coeffs # harmonic/omp

1 450 0.9572

Angle Coeffs # harmonic/omp

1 55 104.52

Atoms # full

641 1 1 0.5897 2.043284280649538 5.48310251953189 5.35668351558286 3 2 -4
222 1 1 0.5897 3.292849828573046 4.947385914786608 1.7556294603630984 2 -2 3
846 1 1 0.5897 4.375913794727854 4.830629936926888 4.647205797427891 1 2 5
221 1 1 0.5897 3.3585500736522813 6.438829647196832 2.0069144719510232 2 -2 3
512 1 1 0.5897 1.889826919560325 2.964084129234128 2.3157450937415724 -2 2 -3
511 1 2 -1.1794 2.2025743670572613 3.4279897677796596 1.53907713307418 -2 2 -3
844 1 2 -1.1794 3.804019391946138 4.852871140020529 5.414459299134587 1 2 5
84 1 1 0.5897 1.2655690480486368 1.8262050225232005 4.847999904965529 1 -4 -5
220 1 2 -1.1794 3.896425728756882 5.64705948884504 2.0053764085231434 2 -2 3
513 1 1 0.5897 1.5949818437608656 3.1714012566645557 0.8453887010620795 -2 2 -3
640 1 2 -1.1794 1.3554186551244638 6.119910709057505 5.162963834302817 3 2 -4
168 1 1 0.5897 3.8129576421647022 2.493039044824 1.5583054230096525 0 -1 4
82 1 2 -1.1794 0.8098882059185293 2.037238696292754 4.033111702984935 1 -4 -5
166 1 2 -1.1794 4.505137576161444 1.8736311741803084 1.7894850301171714 0 -1 4
642 1 1 0.5897 1.5530667099244602 6.424720362833779 4.277381986924097 3 2 -4
845 1 1 0.5897 3.7337784719502847 3.938290247192978 5.68799448641426 1 2 5
598 1 2 -1.1794 2.2560342640632927 3.909305894175242 8.000832907531972 1 -3 -6
713 1 1 0.5897 1.5168797387707333 2.3940676010540933 7.192985185470589 -5 -1 3
599 1 1 0.5897 2.717861924279529 3.719797969408732 8.817542010542848 1 -3 -6
249 1 1 0.5897 4.257113335172347 2.768831712064471 10.638901819465408 -6 3 -4
548 1 1 0.5897 4.443077198661965 6.6312257689695455 6.4464149557208605 4 1 6
600 1 1 0.5897 1.4839662233720419 4.406190688834516 8.271450530155796 1 -3 -6
248 1 1 0.5897 2.9441782673797263 3.4780461905706836 10.894085656088448 -6 3 -4
61 1 2 -1.1794 4.1072099429254525 2.182454690471868 6.075128034323529 -1 -1 4
247 1 2 -1.1794 3.792183759586328 3.586985767185021 10.463683121367122 -6 3 -4
63 1 1 0.5897 3.98316812784018 1.843499560752723 6.961656659632118 -1 -1 4
712 1 2 -1.1794 0.9451656726080058 1.6473642028346624 7.014684681777059 -5 -1 3
56 1 1 0.5897 1.4029238353636964 1.6197328804242943 10.994521874738975 0 -1 1
505 1 2 -1.1794 1.4196295295721324 3.4922446778678555 12.010777626194255 4 1 -3
43 1 2 -1.1794 0.9571412313979049 3.9533055965263255 14.734137777992453 1 6 -3
507 1 1 0.5897 1.4762649921716537 3.5135859588277016 12.966059009988621 4 1 -3
506 1 1 0.5897 1.2699031940271999 4.403461529522463 11.758828727028463 4 1 -3
45 1 1 0.5897 0.9588799272350147 3.1276809680499964 15.218442420576741 1 6 -3
365 1 1 0.5897 3.2539167925555503 6.144261074625635 13.27814417900413 1 5 4
44 1 1 0.5897 1.8108584001806391 4.343428044864863 14.921834985076146 1 6 -3
211 1 2 -1.1794 3.8644097960147294 3.9479881463769178 15.30463343573893 3 2 2
579 1 1 0.5897 4.322398758278188 4.759567222809609 11.745599040895703 2 3 -2
409 1 2 -1.1794 0.9526583916682313 6.34721570831576 11.71551907256994 6 1 -5
212 1 1 0.5897 4.71078410393452 4.393899129395441 15.272101180059238 3 2 2
213 1 1 0.5897 3.979645096033788 3.173938757578016 14.753449880346324 3 2 2
94 1 2 -1.1794 0.7915910876731791 1.7072691913160938 16.335080122074345 -6 2 0
466 1 2 -1.1794 1.0984433955370028 5.671654905032935 20.13035607343356 4 -4 4
467 1 1 0.5897 0.6263459828229726 5.751564641669607 20.959194531127913 4 -4 4
320 1 1 0.5897 3.6995630408531484 3.94547706740345 17.113322842471028 2 -1 0
773 1 1 0.5897 1.1427029333676857 2.97732254098461 19.07218502976636 3 -3 2
267 1 1 0.5897 4.053412017804471 5.25051260895772 19.19478188765821 -4 0 -2
266 1 1 0.5897 4.535632416932766 5.223789932616567 20.629567531348744 -4 0 -2
319 1 2 -1.1794 3.4177973676618194 3.880562283591844 18.02579900216971 2 -1 0
265 1 2 -1.1794 4.099461306403665 5.784383681176597 19.98792563193974 -4 0 -2
321 1 1 0.5897 2.4616303874629715 3.8746861771514194 17.9818695556696 2 -1 0
468 1 1 0.5897 2.0065186766049465 5.879623024510652 20.35038384470272 4 -4 4
774 1 1 0.5897 0.613483041587806 4.367246380364225 18.78950763035396 3 -3 2
772 1 2 -1.1794 0.8024505070564005 3.5289782571953014 18.36782263873654 3 -3 2
223 1 2 -1.1794 2.0813477493644186 1.662425312091672 20.06732581339478 1 0 -6
95 1 1 0.5897 0.6427851936379696 2.368489458773637 17.0110082382129 -5 2 0
626 1 1 0.5897 4.702716539081621 2.6168176200872253 18.564886241050413 -3 -2 2
639 1 1 0.5897 3.3061019096584587 8.859684414543803 2.8912147711751075 -6 2 5
779 1 1 0.5897 3.249820206959973 10.22775367871187 4.876633772933607 -2 0 1
637 1 2 -1.1794 3.8309062761438866 9.648688681762254 3.0263712428799843 -6 2 5
742 1 2 -1.1794 2.01715248866104 7.777171381245637 2.587014584669221 -1 -1 2
743 1 1 0.5897 1.6156918008161292 8.644827792945215 2.6342543832705467 -1 -1 2
342 1 1 0.5897 3.9007589925958914 10.444651605768211 1.2794390355464567 3 5 3
780 1 1 0.5897 1.8585317217353592 10.66708826720272 5.280620342712658 -2 0 1
778 1 2 -1.1794 2.7676345540052667 10.965200213143058 5.250695337957297 -2 0 1
744 1 1 0.5897 1.3396721599856258 7.219763989395286 2.2041332242746456 -1 -1 2
264 1 1 0.5897 1.2051198702519494 10.841777538173634 1.6858987174623186 4 -3 7
131 1 1 0.5897 4.721248293863219 11.781882438988422 5.025175492292958 -5 0 0
638 1 1 0.5897 4.729851121755299 9.328800875034982 3.1027375634795726 -6 2 5
263 1 1 0.5897 0.5532768301679354 11.148167986000598 3.017473302295983 4 -3 7
262 1 2 -1.1794 0.8490637219127374 10.421716758005198 2.4688395804838947 4 -3 7
117 1 1 0.5897 1.6546809923912864 11.257818375049958 9.072273508141375 -1 -3 4
658 1 2 -1.1794 1.8145155033814129 8.151188774106167 9.850904979902648 1 -1 3
508 1 2 -1.1794 1.5531624487486606 7.9051794880607105 7.200932234869094 4 -2 5
509 1 1 0.5897 1.1000676059891445 8.603329716073613 6.7281393837876875 4 -2 5
659 1 1 0.5897 1.6683357255751523 9.096295846586052 9.809740681234532 1 -1 3
116 1 1 0.5897 0.9962388622319363 11.372406243169532 10.43066065655173 -1 -3 4
660 1 1 0.5897 1.8034414664938418 7.866657161936416 8.93704107775554 1 -1 3
115 1 2 -1.1794 1.106955928439215 10.774851890647344 9.691105122408771 -1 -3 4
510 1 1 0.5897 1.5899886868578648 7.178696187567387 6.578764428869049 4 -2 5
110 1 1 0.5897 2.6171433671806175 11.63431986514626 7.155315844761804 1 0 -8
769 1 2 -1.1794 4.648304225001353 11.117783658409275 10.370879296823766 3 -1 1
410 1 1 0.5897 0.9527432028982283 7.017295214496241 11.031948641759843 6 1 -5
770 1 1 0.5897 3.9165996138952086 10.962456858311768 10.968178420633345 3 -1 1
488 1 1 0.5897 4.59766659613735 8.152725732345932 10.39514457854726 3 -8 3
771 1 1 0.5897 4.606195750843165 10.393585457437277 9.746399538088196 3 -1 1
400 1 2 -1.1794 2.829630828041773 10.255462495999172 12.24604659610519 -2 -3 1
290 1 1 0.5897 1.0152685725852924 9.97844175647444 12.737083002765093 -5 -5 -5
564 1 1 0.5897 2.3721322688121527 7.255715690018882 15.395738570951808 4 1 5
196 1 2 -1.1794 3.5966346766493715 11.325326361784354 15.670330115595897 -3 -4 -2
402 1 1 0.5897 3.5404908417536713 9.743442136793929 12.631737833012258 -2 -3 1
562 1 2 -1.1794 2.2470883880926698 7.4089876018424885 16.332279619453924 4 1 5
364 1 2 -1.1794 2.7500096254860957 6.8543724664810055 13.675672671104104 1 5 4
423 1 1 0.5897 1.2497859772663027 11.55672837535888 15.60839795778049 -5 1 3
401 1 1 0.5897 2.838124974585763 11.0808906851973 12.730618535942485 -2 -3 1
487 1 2 -1.1794 4.325010141915236 7.7675951993105015 11.227941140017302 3 -8 3
366 1 1 0.5897 3.367069011076022 7.583904089866437 13.73252865961645 1 5 4
346 1 2 -1.1794 4.359319971805776 9.022608644727384 14.35910932362193 -3 3 -3
348 1 1 0.5897 3.980385865816138 9.804604619688797 14.760500141569842 -3 3 -3
422 1 1 0.5897 0.43358489472403505 10.690256036434437 14.67304323937652 -5 1 3
411 1 1 0.5897 1.4814848621994647 6.722574670855714 12.419605471241768 6 1 -5
197 1 1 0.5897 4.207643526560082 11.106481442011647 16.37389771281671 -3 -4 -2
489 1 1 0.5897 3.3877526907925763 7.953957667587918 11.28309997251131 3 -8 3
270 1 1 0.5897 2.154916763970985 10.811055945885546 18.200024943072147 -1 4 4
341 1 1 0.5897 3.7067970638891916 9.868083521675759 21.075463515244365 3 5 2
494 1 1 0.5897 1.0138069034077983 8.475479615099717 20.619880881255007 -1 1 1
635 1 1 0.5897 3.509838018037367 7.60163234210735 19.87767971353827 -7 1 2
563 1 1 0.5897 3.133988625503959 7.494992484777256 16.6818936767329 4 1 5
268 1 2 -1.1794 1.8840406875967375 9.893848814387963 18.160170612997415 -1 4 4
634 1 2 -1.1794 3.032850707225849 8.336045534446175 20.26414052643269 -7 1 2
636 1 1 0.5897 2.835163065556002 8.909898203538305 19.523984328630036 -7 1 2
269 1 1 0.5897 2.1687962898872906 9.596868838975437 17.295918752393202 -1 4 4
275 1 1 0.5897 0.8813049435639717 7.24368604783129 17.388826500377196 -1 0 -2
517 1 2 -1.1794 4.635267402973658 7.848393180372905 17.65802024743488 -2 -1 -3
340 1 2 -1.1794 4.021762575056359 10.647001678641416 21.534066979451648 3 5 2
303 1 1 0.5897 3.6211695353223594 14.515470007845012 3.7244756327355395 0 2 8
746 1 1 0.5897 2.3455178636286886 12.870103948302987 2.461421171624862 3 2 -6
745 1 2 -1.1794 3.018782730664258 12.797648504750034 3.1379376965983097 3 2 -6
697 1 2 -1.1794 2.650599313511046 16.276452576269453 0.9976823332479929 0 2 -4
747 1 1 0.5897 2.784341375644382 12.008492392544648 3.6262815867280196 3 2 -6
821 1 1 0.5897 2.5300526002156642 16.14814760698276 5.120887356827752 2 1 5
775 1 2 -1.1794 1.2863361677698153 13.106229090271162 0.9815407584190817 5 -3 1
302 1 1 0.5897 4.45620828071003 15.036441680927291 4.874756554220371 0 2 8
301 1 2 -1.1794 3.965049104199709 15.323660227228915 4.105017203782563 0 2 8
820 1 2 -1.1794 2.0357364663299897 16.76165150425483 5.664481203646554 2 1 5
776 1 1 0.5897 2.14019179342674 13.302569243642006 0.5960310571334482 5 -3 1
594 1 1 0.5897 2.3948457620391235 15.885562593222918 7.231391565459982 0 -1 -3
109 1 2 -1.1794 2.5357893662042548 12.207622166095527 7.9174979655198 1 0 -8
593 1 1 0.5897 3.6318020700024856 15.832502182317446 8.102582083523869 0 -1 -3
758 1 1 0.5897 1.1546924004236394 14.795628567404258 10.48548979646263 1 2 2
111 1 1 0.5897 1.7952544608880803 12.777856883379885 7.71092437354372 1 0 -8
759 1 1 0.5897 1.775262493266993 15.80948027342786 9.548003831303125 1 2 2
353 1 1 0.5897 4.145765873904548 13.299999546397592 8.062744032297198 5 4 0
592 1 2 -1.1794 2.758852931052297 15.452551070663327 8.003539047588824 0 -1 -3
757 1 2 -1.1794 1.4067291834806985 15.71717123528282 10.426573374624251 1 2 2
305 1 1 0.5897 3.4618581143059166 13.223160815174909 12.82404302495825 4 -1 -6
198 1 1 0.5897 4.036780129863823 12.01741491997826 15.176852361356502 -3 -4 -2
559 1 2 -1.1794 2.1137847260607128 14.306751263178432 15.444249366857537 4 1 1
27 1 1 0.5897 1.6986814349346435 12.97445516243925 11.960471377908776 -1 7 6
306 1 1 0.5897 2.448427434927605 13.439943750878584 13.927590086269513 4 -1 -6
304 1 2 -1.1794 2.7357473496463593 12.796932830466911 13.279357517187057 4 -1 -6
214 1 2 -1.1794 3.695239287599059 15.034533447555903 11.777178949032043 -3 1 2
560 1 1 0.5897 2.7921578040266803 14.876621718984342 15.806560682563354 4 1 1
561 1 1 0.5897 1.3303849638204532 14.855884357294977 15.413304638337868 4 1 1
296 1 1 0.5897 4.079260778555861 15.567251133974247 13.53177177885277 -1 2 -2
295 1 2 -1.1794 4.473627832388804 15.885727631398954 14.343732666062175 -1 2 -2
297 1 1 0.5897 4.428028153496526 16.839345102794187 14.274761494526615 -1 2 -2
216 1 1 0.5897 2.8869414779899962 15.375813777358548 11.3945162234672 -3 1 2
215 1 1 0.5897 4.381150732360532 15.298164427623277 11.163778313497291 -3 1 2
25 1 2 -1.1794 1.1337612730747 13.097774987066726 11.197645778590706 -1 7 6
612 1 1 0.5897 3.839950352898493 12.339341603161724 21.134198775965196 4 3 -2
752 1 1 0.5897 2.267250324436038 12.943724055795348 17.076664626143494 3 1 0
395 1 1 0.5897 4.1201140294889615 16.83585129783497 17.099105806268085 1 1 3
611 1 1 0.5897 4.022594953275479 13.519146500928773 20.20327865549433 4 3 -2
753 1 1 0.5897 3.1594574532618482 12.975682347607531 18.299284934455805 3 1 0
394 1 2 -1.1794 3.553979495367458 16.105268507299346 17.34802779076216 1 1 3
751 1 2 -1.1794 2.2902957777553223 12.705115713674365 18.00334938265912 3 1 0
610 1 2 -1.1794 3.8973250122017875 13.29478117014011 21.125348802274196 4 3 -2
413 1 1 0.5897 4.539767504930691 14.755116927430922 17.976203619878575 0 -4 2
219 1 1 0.5897 0.9361072102803653 14.596096828286493 18.669359910615878 5 0 -2
396 1 1 0.5897 2.6937421091145866 16.503095406410658 17.481976176026137 1 1 2
699 1 1 0.5897 1.8756571286400736 16.506828472587223 21.66756725018942 0 2 -5
777 1 1 0.5897 0.7828389544089525 12.719453218740147 21.44756322058391 5 -3 0
857 1 1 0.5897 4.332337678985565 15.954602970379177 21.20521716610985 -1 0 -5
380 1 1 0.5897 2.467976620821063 19.703542066813853 1.5520377810962194 8 4 0
431 1 1 0.5897 4.303957667064831 21.313647008108102 3.3988501396310653 -5 -2 -2
432 1 1 0.5897 4.0562379322410305 21.22774033927088 4.889865170583144 -5 -2 -2
379 1 2 -1.1794 2.991729872467627 19.121372794825295 2.102475843387065 8 4 0
430 1 2 -1.1794 4.036326350549439 20.705538355271063 4.087918690329877 -5 -2 -2
153 1 1 0.5897 4.736819420973959 19.02537759508934 1.7270159637116513 1 0 0
822 1 1 0.5897 1.5540833335363582 17.30252396271314 5.038622080372624 2 1 5
381 1 1 0.5897 3.244392865197073 19.661823908255855 2.851012175820546 8 4 0
806 1 1 0.5897 1.3627854283456418 17.544014096758417 2.7248675709024384 1 -2 -4
83 1 1 0.5897 0.7832526383638443 21.661073214985297 3.5519429465823555 1 -5 -5
167 1 1 0.5897 4.646486630352419 21.81403691012037 0.9921698357762174 0 -2 4
698 1 1 0.5897 2.9803665584646404 17.11382104185747 1.3237110471625209 0 2 -4
805 1 2 -1.1794 0.572688240104192 17.487788990570188 3.262267650423047 1 -2 -4
294 1 1 0.5897 3.4392712711312075 19.09998346177693 9.50515093277431 -4 0 1
539 1 1 0.5897 3.4373967348626846 19.89539429161451 7.487529106321604 0 -4 1
538 1 2 -1.1794 3.617511682273079 19.135227977706162 6.934433013652059 0 -4 1
293 1 1 0.5897 2.8275224555610383 19.079673505589767 10.889787533934113 -4 0 1
55 1 2 -1.1794 1.5958939008178357 21.468151248708402 10.276154174309717 0 -2 1
446 1 1 0.5897 3.1162559373379963 21.486006208146264 9.186412715859285 0 0 -2
9 1 1 0.5897 1.046001650132737 18.66401998402256 9.483983430216504 4 -1 -1
520 1 2 -1.1794 0.8651855053835465 19.39096177736406 6.236419191420912 0 2 -3
57 1 1 0.5897 0.7565144546058646 21.34738362522151 9.832191102945014 0 -2 1
445 1 2 -1.1794 3.795652019464725 21.49756000165285 8.512240736939706 0 0 -2
119 1 1 0.5897 4.54935822610751 17.551954387896988 7.3739220989995475 2 -3 -2
292 1 2 -1.1794 2.886862810562839 18.571245359378675 10.08095922450404 -4 0 1
522 1 1 0.5897 0.9903961275962514 20.31966432631403 6.431482523643593 0 2 -3
540 1 1 0.5897 2.8194862055696426 19.019140512555936 6.418788876664267 0 -4 1
521 1 1 0.5897 0.6678490454971673 18.99221072081415 7.083925115197923 0 2 -3
801 1 1 0.5897 4.600282886300818 17.834029600674604 10.878298050741343 0 -1 3
447 1 1 0.5897 4.611465714090839 21.627082462079468 8.995879207733509 1 0 -2
50 1 1 0.5897 3.407092776318271 18.660614721130806 13.93235937254953 7 1 1
722 1 1 0.5897 3.0484161490598787 21.28764102306178 14.23108370198521 0 -1 0
310 1 2 -1.1794 0.7309055841222981 21.211110944571203 13.607076161741558 -1 1 1
339 1 1 0.5897 1.3394242797002582 18.482901140009602 12.334491528177793 -2 0 2
49 1 2 -1.1794 4.126618130886823 18.53515132831897 14.551030015637181 7 1 1
338 1 1 0.5897 1.7350031974390714 19.827212017300315 12.90741797037955 -2 0 2
312 1 1 0.5897 0.4905991508656615 21.588396127463632 14.453319983864443 -1 1 1
337 1 2 -1.1794 2.083528498334007 18.95965174586317 12.702246652031683 -2 0 2
721 1 2 -1.1794 3.8140599513604894 21.83793467621789 14.066220908014415 0 -1 0
723 1 1 0.5897 4.472224202430843 21.52565874505343 14.6871230548793 0 -1 0
677 1 1 0.5897 4.573517406684396 21.32519975695993 12.27285044324998 5 0 -3
768 1 1 0.5897 0.49582255727988217 17.71312875414076 14.22334516839747 1 -2 2
766 1 2 -1.1794 0.4603231504208353 17.75161041086844 15.179109552380023 1 -2 2
316 1 2 -1.1794 3.0042202599159764 20.78651642588045 17.290189364316305 -4 -5 0
28 1 2 -1.1794 1.634370679912922 18.41535861207472 17.376194040971914 -6 1 5
138 1 1 0.5897 4.632524689502284 19.884940102856607 20.432648902342695 6 -8 -1
112 1 2 -1.1794 1.690061783103287 19.51865818057511 20.820606509102436 -3 -2 1
113 1 1 0.5897 2.494470942061501 19.156527694132546 20.449126607568548 -3 -2 1
317 1 1 0.5897 3.2289599917168346 21.03445396699798 18.18699349767849 -4 -5 -1
224 1 1 0.5897 1.7228675034951517 21.297288029623093 20.416407958090367 1 -1 -6
114 1 1 0.5897 1.0564234317787426 18.80345314459769 20.764084614306345 -3 -2 1
318 1 1 0.5897 2.7481199622368373 19.866336087478025 17.35264472252942 -4 -5 0
287 1 1 0.5897 4.3714358456551246 18.503864709409395 18.679185060449065 5 1 1
286 1 2 -1.1794 4.10037060749626 18.3263341025037 19.579901176671157 5 1 1
96 1 1 0.5897 1.3934031112346967 21.532974587018284 16.739204720294374 -6 1 0
30 1 1 0.5897 0.9524842497657957 18.89076460075656 17.850820601049392 -6 1 5
29 1 1 0.5897 1.2661860592676586 18.274879535905697 16.503843819758757 -6 1 5
136 1 2 -1.1794 4.762344507959965 20.801674652341518 20.675461532658645 6 -8 -1
225 1 1 0.5897 3.0261742319820035 22.03650882963593 20.200073916270952 1 -1 -6
72 1 1 0.5897 7.666854235749941 5.806941131939123 4.700923392617357 3 3 -4
373 1 2 -1.1794 6.287637512125593 6.3406140309587355 1.1368288357089453 6 6 0
350 1 1 0.5897 6.099697416499518 4.530581442337546 2.714031480312117 -9 2 -1
524 1 1 0.5897 6.492081919013861 3.5483909438446943 5.4077832357775035 0 0 4
351 1 1 0.5897 5.991317701631459 3.1713433335896917 3.3717439276348466 -9 2 -1
70 1 2 -1.1794 7.250842274624676 6.5873822976624155 5.067059107744836 3 3 -4
349 1 2 -1.1794 5.994962139693223 4.108464464062439 3.5667131905821474 -9 2 -1
375 1 1 0.5897 5.391944719739103 6.0030651591690765 1.1341224342541882 6 6 0
425 1 1 0.5897 5.182502765280568 3.1789561703971527 0.8457187545615841 6 -1 1
231 1 1 0.5897 8.574781357097708 4.811189339437507 2.6691137404170218 3 5 2
106 1 2 -1.1794 8.469204128974125 4.111962678725623 0.8830539625199989 -2 0 3
426 1 1 0.5897 6.297188996792433 4.162349277476515 0.5589130847871873 6 -2 1
525 1 1 0.5897 6.230949869007057 4.026590687346329 6.820223494606649 0 0 4
523 1 2 -1.1794 6.644104963713725 3.3195100996493068 6.324689668171421 0 0 4
53 1 1 0.5897 8.24142596375233 2.555533024747582 6.06096331891184 -4 0 3
456 1 1 0.5897 6.455981186647135 2.7701934866139375 8.264911481556044 1 -1 0
15 1 1 0.5897 7.493611602952653 5.359259624431698 8.880408304669967 1 -5 -3
13 1 2 -1.1794 8.339038282496524 5.770757157909706 9.059713461218244 1 -5 -3
455 1 1 0.5897 6.666574413108492 2.5507690209650584 9.747936910427033 1 -1 0
454 1 2 -1.1794 6.3865305672807136 2.1042285337520035 8.948939954239762 1 -1 0
125 1 1 0.5897 5.474954973213373 5.822713457123185 8.038411229756164 1 2 4
124 1 2 -1.1794 5.778118603769303 4.988206776608436 8.39610426840797 1 2 4
368 1 1 0.5897 9.037690900973065 6.556524197231199 7.5639556938816135 4 6 -1
14 1 1 0.5897 8.966611276680924 5.048282680551785 9.039838753177794 1 -5 -3
126 1 1 0.5897 5.215661104142955 4.833969135824413 9.155102247842233 1 2 4
62 1 1 0.5897 5.030121266123045 2.4340573178622376 6.0413467629354365 -1 -1 4
577 1 2 -1.1794 4.802188005635126 5.278250115937815 12.391352142086106 2 3 -2
464 1 1 0.5897 7.6702372935815495 3.6069061143450174 15.700362376626002 6 3 -3
463 1 2 -1.1794 7.23375310461523 2.8123555812891325 15.39306851638282 6 3 -3
486 1 1 0.5897 8.00739676929149 4.340685408680715 11.546259634606407 0 2 -1
578 1 1 0.5897 4.80667281573537 6.165165446466068 12.031372647453173 2 3 -2
65 1 1 0.5897 7.79809603106214 2.107400025840606 11.770655247693798 4 0 -5
485 1 1 0.5897 6.515069773045942 4.270655217920064 11.791021427815991 0 2 -1
465 1 1 0.5897 7.650286226843685 2.6192300377309534 14.55317118207697 6 3 -3
172 1 2 -1.1794 5.823383833541398 5.722604931393731 15.847100760994461 1 2 -1
281 1 1 0.5897 8.469964958498988 5.888340545605851 14.213825165525952 -2 0 3
484 1 2 -1.1794 7.226513412003352 3.8345177127562695 11.322141980563968 0 2 -1
280 1 2 -1.1794 7.845446864838382 6.593872207061929 14.045227935291114 -2 0 3
282 1 1 0.5897 7.011850564491337 6.261031399203317 14.377710047450735 -2 0 3
173 1 1 0.5897 6.621818584294896 5.4694100983568905 16.310362407415145 1 2 -1
625 1 2 -1.1794 5.3366726236808875 1.9000150981505777 18.54225951573491 -3 -2 2
73 1 2 -1.1794 8.077448491553774 4.694546584413275 17.232119744769978 1 0 2
566 1 1 0.5897 8.346801546394088 2.853626737033061 20.089301181125485 -1 6 -7
729 1 1 0.5897 8.313839002402169 6.511658799898296 18.010059917036582 -1 1 -1
567 1 1 0.5897 6.879956428391725 3.1828545582263184 20.26779718453607 -1 6 -7
424 1 2 -1.1794 5.508463957542133 3.779171705310493 21.35742200363568 6 -1 0
74 1 1 0.5897 9.03351678160319 4.648249328723034 17.22935105284211 1 0 2
565 1 2 -1.1794 7.539564695925087 3.0043906922288413 19.597502112599884 -1 6 -7
107 1 1 0.5897 8.599645632064856 4.943710571673137 21.609982344409623 -2 0 2
75 1 1 0.5897 7.8168642300336355 4.227450702497089 18.025933872134463 1 0 2
627 1 1 0.5897 6.170489491609375 2.309720612025736 18.772696843715643 -3 -2 2
174 1 1 0.5897 5.408196520289905 6.367788979270853 16.4194407684806 1 2 -1
203 1 1 0.5897 6.93564080736096 10.843606979549417 4.719525390628295 -7 1 4
204 1 1 0.5897 8.293524285616254 10.17732863755723 4.7837186920589785 -7 1 4
374 1 1 0.5897 6.310443124396969 6.954754729210958 1.8706970147264421 6 6 0
782 1 1 0.5897 8.045186445095386 10.127476415086802 0.7871202313526902 -3 0 2
202 1 2 -1.1794 7.554409164789939 10.334311224774915 4.196098810516314 -7 1 4
741 1 1 0.5897 6.93912208299846 8.955484138097335 3.1468635746771714 -3 1 2
740 1 1 0.5897 6.480554537876606 7.681245582361276 3.8235435495230212 -3 1 2
739 1 2 -1.1794 6.292883368011582 8.252655060024743 3.0788952026857657 -3 1 2
377 1 1 0.5897 8.510385540520518 11.507260525196717 2.797537888736927 2 4 4
71 1 1 0.5897 7.915869894678345 6.966671222950949 5.6415935472252405 3 3 -4
732 1 1 0.5897 7.3789168959000335 11.460649488779145 7.88627917942562 1 1 -5
645 1 1 0.5897 7.026055952309022 10.417386593180316 10.26670513573924 3 -5 -1
480 1 1 0.5897 8.582253095406937 9.97135716640302 7.781509613921226 -4 4 -5
736 1 2 -1.1794 5.074004642042712 8.896801034783874 8.836375032593443 0 -2 1
644 1 1 0.5897 7.852752715009619 9.184017209207344 10.562200384202027 3 -5 -1
731 1 1 0.5897 6.390593443276286 11.251895659521061 6.758672680505204 1 1 -5
738 1 1 0.5897 4.930241813592589 8.408694122385658 8.025600105704687 0 -2 1
643 1 2 -1.1794 7.8995998349850955 10.044944159123371 10.14646116130052 3 -5 -1
737 1 1 0.5897 5.816827736777099 9.468888406928674 8.643591016008102 0 -2 1
730 1 2 -1.1794 6.8231956762010935 10.79541263872297 7.480262061169438 1 1 -5
549 1 1 0.5897 5.913707236363962 6.986004243737433 6.388798746831466 4 1 6
547 1 2 -1.1794 5.113678006455204 7.1531262698922715 6.887055029797336 4 1 6
444 1 1 0.5897 7.751577607990655 6.965408607002563 10.73634925418669 4 5 -2
435 1 1 0.5897 7.0815053719828 9.439687921974084 14.170204640002794 0 3 0
442 1 2 -1.1794 7.870460399605345 7.65914383652437 11.385060902980188 4 5 -2
434 1 1 0.5897 7.132363294213571 8.876270439435467 12.7659689703765 0 3 0
786 1 1 0.5897 8.332153692114327 11.026268011595228 12.795698275352615 5 5 4
347 1 1 0.5897 5.2773559471148825 9.249721371095525 14.211098495796952 -3 3 -3
433 1 2 -1.1794 6.809823954770656 9.62281459558151 13.270814281638724 0 3 0
443 1 1 0.5897 7.907198083953921 7.199568812734696 12.223904130256999 4 5 -2
184 1 2 -1.1794 7.191459638725342 8.974138052827222 16.20896330243605 -1 8 3
186 1 1 0.5897 7.293251082764162 9.924558283426222 16.259533453053095 -1 8 3
165 1 1 0.5897 7.094097761642848 8.602597515909947 20.448906981465164 -2 2 0
472 1 2 -1.1794 6.638871535955734 11.632873071812163 20.450752858091505 -1 0 -1
502 1 2 -1.1794 8.658565529397595 10.438526580562192 18.876270295177587 -3 0 4
473 1 1 0.5897 5.941768545452865 11.230241523224167 20.968592976155403 -1 0 -1
781 1 2 -1.1794 8.285276624671909 9.24350153547853 21.69150695185207 -3 0 1
164 1 1 0.5897 6.207786001717515 7.3797631545030224 20.55367421183633 -2 2 0
185 1 1 0.5897 7.897059763850529 8.627806166664218 16.755218111243508 -1 8 3
728 1 1 0.5897 8.064073509629859 7.769854138317852 18.814053957937872 -1 1 -1
503 1 1 0.5897 7.834199634905912 10.832748661031626 19.1613274753162 -3 0 4
163 1 2 -1.1794 6.615425559090244 7.966861658569469 19.9169985693616 -2 2 0
519 1 1 0.5897 5.059328083393486 8.554396141029041 17.170209846537055 -2 -1 -3
518 1 1 0.5897 5.0680602684269 7.852943251218481 18.511783901485003 -2 -1 -3
726 1 1 0.5897 5.689286382348475 10.893194439887553 18.676350686508414 3 -4 4
727 1 2 -1.1794 8.57680255716681 7.429285640297198 18.081013534939004 -1 1 -1
724 1 2 -1.1794 5.099847401500814 11.052171511241907 17.939116381708562 3 -4 4
576 1 1 0.5897 8.08531115473438 16.266633453630917 1.5200494117919798 3 -1 1
130 1 2 -1.1794 5.57927267334305 11.969916591188905 5.40554866567284 -5 0 0
259 1 2 -1.1794 7.528270257162465 15.165576021481655 2.8784699751870955 3 -2 6
261 1 1 0.5897 8.043357883667795 14.555377703926734 3.406251501440134 3 -2 6
260 1 1 0.5897 6.867161741073693 14.617861658196594 2.455195967591442 3 -2 6
132 1 1 0.5897 5.5575067909946085 12.907951764333523 5.5949041487676086 -5 0 0
601 1 2 -1.1794 5.759847119226936 13.202061235310577 1.9540216460508828 3 4 -1
378 1 1 0.5897 7.525885868937114 12.354915093993185 2.020282507338052 2 4 4
596 1 1 0.5897 9.021575823241719 14.21066923760283 5.405510313531652 2 -5 1
603 1 1 0.5897 5.219947037766113 12.742235051474497 2.5969243467958467 3 4 -1
602 1 1 0.5897 5.156970360658139 13.412489137339977 1.24091862264257 3 4 -2
819 1 1 0.5897 6.77774822499264 16.911957686130577 3.6489663469260782 1 -4 0
376 1 2 -1.1794 8.339754329886684 11.860292776877868 1.924345550749145 2 4 4
818 1 1 0.5897 5.329158211969271 16.602966232838234 3.9619488217438255 1 -3 0
858 1 1 0.5897 5.506965932036751 16.59408379826301 0.732239297158916 -1 0 -4
253 1 2 -1.1794 6.217676106172978 15.165869454278512 10.153633895000718 2 7 -6
527 1 1 0.5897 7.9232993383091905 15.49334887233675 9.475281804495372 -3 -4 0
255 1 1 0.5897 5.940503347487144 14.55948868353648 9.466832167244219 2 7 -6
554 1 1 0.5897 5.355832353520709 14.308669059932935 6.9378248939219 -4 -6 3
120 1 1 0.5897 5.128419699206843 16.249483774505947 6.863917013752002 2 -3 -2
258 1 1 0.5897 8.319320247765702 15.729971763485642 7.355518656795042 -2 -3 1
352 1 2 -1.1794 4.994520123626065 13.320198945130468 8.50483553256656 5 4 0
256 1 2 -1.1794 8.127046849607137 15.700746594754829 6.418294960843779 -2 -3 1
553 1 2 -1.1794 5.612833196224505 14.551363750964528 6.048267277191728 -4 -6 3
555 1 1 0.5897 6.451296320581738 15.000654486126534 6.1548637815146625 -4 -6 3
526 1 2 -1.1794 8.775612011767606 15.231499446974885 9.127091215717588 -3 -4 0
354 1 1 0.5897 4.9629309493050755 12.586408915733001 9.118675571058242 5 4 0
528 1 1 0.5897 8.715815018245218 14.280503844137924 9.03615571969216 -3 -4 0
607 1 2 -1.1794 8.700806141848377 12.49063886736208 8.871972179583219 4 2 2
118 1 2 -1.1794 5.069498435380071 16.796342757147073 7.64730442772005 2 -3 -2
254 1 1 0.5897 6.506391279126819 14.600938642224436 10.870372794261103 2 7 -6
257 1 1 0.5897 8.793605191261248 16.259776456307996 6.019016231142434 -2 -3 1
800 1 1 0.5897 5.795193569167195 16.926940730516815 10.675108681114846 0 -1 3
609 1 1 0.5897 8.630920379634917 12.003041298040333 9.692689560344748 4 2 2
59 1 1 0.5897 9.035752334890546 13.29693183033653 13.084301017504465 4 -3 -2
20 1 1 0.5897 6.037171961431153 12.849076171935941 12.709022088454502 -4 -3 -2
335 1 1 0.5897 6.284908912220909 16.403725598193663 13.087484972879505 5 -1 2
19 1 2 -1.1794 6.46207768984331 12.883925116487976 11.852013796861968 -4 -3 -1
145 1 2 -1.1794 5.548061866184574 12.943410104853442 14.481900900295525 0 1 -4
147 1 1 0.5897 6.291347949854574 12.586623743595705 14.968154362114513 0 1 -4
334 1 2 -1.1794 7.1574584189558035 16.036847141611453 12.945075893541315 5 -1 2
146 1 1 0.5897 5.603474480389841 13.88915217854245 14.61871666123962 0 1 -4
673 1 2 -1.1794 7.510443717333441 11.945287563540637 16.024082842288855 -5 -5 -2
336 1 1 0.5897 7.551788861411718 16.605327283482637 12.283598419960844 5 -1 2
60 1 1 0.5897 8.32763726500816 14.595796428288207 13.405937290294666 4 -3 -2
21 1 1 0.5897 5.875560994736377 12.39670251897289 11.273361706947142 -4 -3 -1
156 1 1 0.5897 7.648315219385467 16.720348747039715 15.908692611303229 4 3 -5
674 1 1 0.5897 8.453166184997903 11.913322667305211 15.861381161897604 -5 -5 -2
476 1 1 0.5897 6.634006666724848 15.189690614996522 20.972243642537908 3 -3 -1
475 1 2 -1.1794 7.196465036553297 14.428498460859357 20.829259454517526 3 -3 -1
477 1 1 0.5897 7.310109984944305 14.389069730497658 19.87965548601342 3 -3 -1
101 1 1 0.5897 8.477277512638192 13.788682070900101 17.841979562559423 5 -6 -1
100 1 2 -1.1794 7.582371033895349 14.061378587723489 18.04444188189322 5 -6 -1
414 1 1 0.5897 5.74579512036968 13.86730372515711 18.19800125175866 0 -4 2
474 1 1 0.5897 6.777979054927985 12.487456090485171 20.85888000627784 -1 0 -1
154 1 2 -1.1794 7.352097594097245 16.50405996155577 16.79282214682248 4 3 -5
102 1 1 0.5897 7.518827313171613 14.95175761016992 17.698891368173417 5 -6 -1
856 1 2 -1.1794 5.236779794135933 16.236729312333466 21.06870566136305 -1 0 -5
412 1 2 -1.1794 4.789285987446234 13.86788678039919 18.234671487723322 0 -4 2