LAMMPS data file via write_data, version 30 Jul 2021, timestep = 30250000

1008 atoms
2 atom types
672 bonds
1 bond types
336 angles
1 angle types

-3.178246419648973 14.78824541920318 xlo xhi
-0.024830597734938564 22.604829597732852 ylo yhi
0.025240085644119503 19.204757914348605 zlo zhi
-0.1361216904378718 -6.780303953275409 0.07286234458046373 xy xz yz

Masses

1 1.008
2 15.999

Pair Coeffs # lj/cut/tip4p/long/omp

1 0 0
2 0.21084 3.1668

Bond Coeffs # harmonic/omp

1 450 0.9572

Angle Coeffs # harmonic/omp

1 55 104.52

Atoms # full

21 7 1 0.5897 1.2311614093410048 2.3921370692507673 0.6455428648465655 0 0 0
55 19 2 -1.1794 -0.9432882689752926 4.403904567422603 3.435865610939025 0 0 0
56 19 1 0.5897 -1.5647069937382725 3.8567819519873128 2.955655976728139 0 0 0
57 19 1 0.5897 -0.13637569717881526 4.3573783642834005 2.9231129970223466 0 0 0
121 41 2 -1.1794 -2.7514645328802363 2.688208580582286 2.362360565857763 1 0 0
122 41 1 0.5897 -2.5743035917531465 2.3597656709942516 1.4810020199922906 1 0 0
86 29 1 0.5897 -2.6338140282515337 1.6448030723705445 3.9208043983919976 1 0 0
31 11 2 -1.1794 1.280686855717259 1.5992265312284104 2.2364569962907384 0 0 0
32 11 1 0.5897 1.1458063084678738 1.8816232600350011 3.140942381183592 0 0 0
123 41 1 0.5897 -3.6398083406452804 3.0412231556453535 2.3129397991668528 1 0 0
46 16 2 -1.1794 1.7081060854675778 4.76485126246593 2.348502014018286 0 0 0
33 11 1 0.5897 0.6828260443926557 0.8602505077548291 2.124104893126 0 0 0
48 16 1 0.5897 1.780401831432024 5.410435107205399 3.0514100204611068 0 0 0
527 176 1 0.5897 3.9456771381128934 1.8889434897772464 0.16016602249686857 0 0 1
6 2 1 0.5897 3.398347064804625 1.6637209513896887 4.644338535074892 0 0 0
482 161 1 0.5897 -1.0349168484954672 0.22218447461080074 0.9675521043307269 1 1 0
602 201 1 0.5897 -0.5215125134923806 5.289856877265709 0.46634682037736247 1 0 1
47 16 1 0.5897 1.9195484091970787 5.252282156492257 1.5524219084645894 0 0 0
78 26 1 0.5897 -0.24735676216365388 2.9887391190052006 4.665362911073513 0 0 0
70 24 2 -1.1794 3.668686858342957 0.4714089265452467 1.176881877785067 0 0 0
53 18 1 0.5897 4.399414856747162 3.0429491574035303 3.173143006549075 0 0 0
71 24 1 0.5897 2.8990742798217797 0.6923319248555796 1.7013585765984476 0 0 0
54 18 1 0.5897 2.979064447610602 3.5657297138913733 3.1389882358899204 0 0 0
52 18 2 -1.1794 3.6358249182586686 3.1967686623462463 3.7294270485344114 0 0 0
158 53 1 0.5897 -4.583371545216908 4.672728128423012 4.262844090763493 1 0 0
72 24 1 0.5897 4.273172898898285 0.06423360523981443 1.7972749024367172 0 0 0
101 34 1 0.5897 -2.5891550386901403 4.739400998463785 0.12142806072411641 1 0 0
16 6 2 -1.1794 5.31061238877154 4.9680919940156105 0.22822326066704116 0 0 0
76 26 2 -1.1794 0.5563868821802984 2.4845291047247398 4.7917387595067416 0 0 0
85 29 2 -1.1794 -2.6433013172275466 1.1800304142827123 4.757406840776892 1 0 0
157 53 2 -1.1794 -3.981383433016572 5.176103963262588 4.810844817013592 1 0 0
18 6 1 0.5897 4.772615009361734 4.188993247197685 0.08785470741966274 0 0 0
134 45 1 0.5897 -2.5208152409857196 2.5768642601503218 5.948619628750028 1 0 0
135 45 1 0.5897 -1.836507490362015 3.7228049895241195 6.662868427310394 1 0 0
60 20 1 0.5897 2.8009355237121003 3.7441335346242623 6.804309848929443 0 0 0
34 12 2 -1.1794 0.12388158162699492 1.2805472479883557 7.192617208959562 0 0 0
35 12 1 0.5897 0.2696932947605397 1.9104171793853162 7.898364189896645 0 0 0
36 12 1 0.5897 -0.7376600091284864 0.9071714748460625 7.378401826043333 0 0 0
159 53 1 0.5897 -3.389497137872979 4.521357095483928 5.181151623745672 1 0 0
669 223 1 0.5897 -5.572441595630764 1.7939676690289807 9.016179752281735 1 0 0
124 42 2 -1.1794 -5.111207904824647 2.592170341224839 7.401594386832272 1 0 0
58 20 2 -1.1794 2.1413684971672025 4.204823160589807 6.2858011302979095 0 0 0
59 20 1 0.5897 1.7823978369936269 3.5347515450281963 5.70421977426483 0 0 0
525 175 1 0.5897 -1.6579604337215583 2.772165438552957 9.43763082865452 0 0 0
43 15 2 -1.1794 -0.4460567425753448 4.89374474434004 7.123590788670357 0 0 0
126 42 1 0.5897 -4.257544856336292 2.9446164515074837 7.150171049846897 1 0 0
45 15 1 0.5897 0.4469078813978138 4.636863825598577 6.893691043414416 0 0 0
133 45 2 -1.1794 -2.7007138731084024 3.388585974415883 6.422857871435426 1 0 0
522 174 1 0.5897 1.7841227657261545 5.400228917456485 9.372116405392884 0 0 0
4 2 2 -1.1794 3.5726407170416907 0.9473059679885654 5.2546194423752866 0 0 0
22 8 2 -1.1794 0.21684311275595913 2.7505722220035373 9.444415479517863 0 0 0
98 33 1 0.5897 -4.441673391553588 4.9839289051127995 8.874679181885469 1 0 0
77 26 1 0.5897 0.3429714073353285 1.8633608534933566 5.487915399434114 0 0 0
69 23 1 0.5897 -2.5527419158793916 1.176611529686322 8.510696045475212 0 0 0
67 23 2 -1.1794 -2.322482027730196 0.4097138483852618 7.98629822648033 0 0 0
68 23 1 0.5897 -3.1627065256057105 0.06346577495510497 7.685822444601281 0 0 0
44 15 1 0.5897 -0.4116156902431891 5.065592649960857 8.064486665795277 0 0 0
87 29 1 0.5897 -3.5537846987198733 0.9070472311340323 4.8699995738017785 1 0 0
402 134 1 0.5897 1.3474476319175226 0.06429841678518994 7.767527636405954 0 1 0
401 134 1 0.5897 2.448216943099851 0.20187912465373428 8.797514204539036 0 1 0
524 175 1 0.5897 -3.0632190736719145 3.3264268546898066 9.537281363654877 0 0 0
5 2 1 0.5897 2.948196136279872 0.2649711379995187 5.008383418791419 0 0 0
574 192 2 -1.1794 0.33494777721677593 0.5499859252379206 11.032954666259867 0 0 0
523 175 2 -1.1794 -2.5609943294963835 2.5163782544099544 9.625516404218969 0 0 0
560 187 1 0.5897 -4.84302440951728 3.6218875534097275 12.64352787564679 0 0 0
576 192 1 0.5897 -0.46053424030289314 0.7147368852316232 11.539175588218125 0 0 0
23 8 1 0.5897 0.42719442937954 2.0035442000934145 10.004582367486647 0 0 0
662 221 1 0.5897 -7.544471210558884 4.5761498160432135 14.082934254171063 1 0 0
627 209 1 0.5897 -6.99209484552603 2.9696325161126733 12.233558496423347 1 0 0
24 8 1 0.5897 0.8286590148345407 3.4344779436639974 9.716613428711142 0 0 0
535 179 2 -1.1794 -2.0735261868924644 1.2541154723816061 12.177175235039737 0 0 0
536 179 1 0.5897 -2.319591637123306 1.7252644939138102 12.97314176996705 0 0 0
537 179 1 0.5897 -2.2994010282605135 1.8521908056653287 11.464906382657638 0 0 0
591 197 1 0.5897 -5.288868590129519 0.03559134809348123 14.326271205107558 1 0 0
625 209 2 -1.1794 -6.168881918619862 2.5368951323808258 12.007085489483693 1 0 0
556 186 2 -1.1794 0.48652763764408746 3.26466942400307 13.04728066080305 0 0 0
561 187 1 0.5897 -3.8434350672446804 3.6320355171195455 13.780257161877381 0 0 0
668 223 1 0.5897 -6.0245543500809475 1.6610606683875426 10.454694012824476 1 0 0
558 186 1 0.5897 -0.33322950170087395 3.644690444632475 12.731470023457822 0 0 0
559 187 2 -1.1794 -4.305199832471699 4.210305458346327 13.173252318893272 0 0 0
550 184 2 -1.1794 -1.6776236206162185 4.79657132204061 12.190921022346465 0 0 0
552 184 1 0.5897 -2.619427745881227 4.651871382754136 12.281876519578992 0 0 0
626 209 1 0.5897 -6.032922393614514 1.8983807297161372 12.706988658174089 1 0 0
557 186 1 0.5897 0.21375385715917528 2.5699499940944754 13.64647576786193 0 0 0
667 223 2 -1.1794 -5.717179205714732 1.1479973097298042 9.707434230283528 1 0 0
99 33 1 0.5897 -4.147390652273618 5.4471995519196765 10.28537794109613 1 0 0
986 329 1 0.5897 -4.424779808417717 0.06098418590619309 10.592455409740536 1 1 0
587 196 1 0.5897 -1.1472940560168055 5.43501795423377 10.513219940976304 0 0 0
606 202 1 0.5897 -6.214359171880233 4.7938124634453345 9.940420935311375 1 0 0
575 192 1 0.5897 0.9187735844109817 0.09945909186249394 11.643083966339942 0 0 0
520 174 2 -1.1794 2.014727743976631 4.723659601771111 10.008624823230232 0 0 0
589 197 2 -1.1794 -5.931048941841734 0.7198704647770434 14.137708911749948 1 0 0
551 184 1 0.5897 -1.4717268156338 5.4585273323425465 12.850850036999827 0 0 0
593 198 1 0.5897 -7.7804707870320025 0.6117826978680597 14.24264922681785 1 0 0
97 33 2 -1.1794 -4.427426701140277 4.682254386563112 9.782852816593705 1 0 0
547 183 2 -1.1794 -3.976430607683862 4.862211120813721 16.901541667214715 0 0 0
581 194 1 0.5897 -2.866239169060778 1.898640520043482 15.288260400073602 0 0 0
528 176 1 0.5897 -3.770922121865036 2.9422426828300967 18.666083010378713 0 0 0
571 191 2 -1.1794 -5.6530483505950375 0.24376845834764904 17.49937197028646 0 0 0
582 194 1 0.5897 -2.088344077911504 3.1808570870646453 15.082135584021035 0 0 0
563 188 1 0.5897 -1.1517276638550902 4.986038416776831 15.762517535648414 0 0 0
639 213 1 0.5897 -6.038883488988278 3.7245278651435085 15.176200605967928 1 0 0
590 197 1 0.5897 -5.812803450616071 1.3599670757938338 14.839401729113863 1 0 0
538 180 2 -1.1794 -3.1843296931041074 0.8867209396753685 16.735381484760758 0 0 0
539 180 1 0.5897 -3.0553800429730646 1.5947363315845071 17.366401200091396 0 0 0
20 7 1 0.5897 -5.717614106394695 1.859713808478505 18.44788001047489 0 0 -1
540 180 1 0.5897 -4.092477790191982 0.6130448582410556 16.864049944161017 0 0 0
638 213 1 0.5897 -6.444687293966448 2.8603878261621443 16.350942935681665 1 0 0
549 183 1 0.5897 -4.440343471798306 4.10272546715235 16.549284425075747 0 0 0
562 188 2 -1.1794 -1.3299181583185131 4.240658372665287 16.335877829879706 0 0 0
165 55 1 0.5897 -9.698821898235028 0.693148300111095 18.946927260486333 1 0 -1
564 188 1 0.5897 -2.179684795071709 4.43849726052328 16.729541959347095 0 0 0
637 213 2 -1.1794 -5.722205434782263 3.022426963278347 15.744403772589962 1 0 0
164 55 1 0.5897 -8.772097172385196 1.7275604851710114 18.344577458998003 1 0 -1
628 210 2 -1.1794 -8.165531769766751 2.2434263934217626 16.781024606859823 1 0 0
19 7 2 -1.1794 -5.61161346339402 2.697351160557306 18.898729609677765 0 0 -1
629 210 1 0.5897 -8.767067733790872 2.9577872131906373 16.571198302630656 1 0 0
508 170 2 -1.1794 0.4209121559848006 1.2065841495137106 14.821955950492399 0 0 0
630 210 1 0.5897 -8.307569405485612 1.5986565114787004 16.088074206811562 1 0 0
548 183 1 0.5897 -3.9994518882607357 5.506760503322447 16.19438080164857 0 0 0
580 194 2 -1.1794 -2.6388296880158064 2.547221759345508 14.622155801212319 0 0 0
526 176 2 -1.1794 -2.8457820415738757 2.7083337917287054 18.74081473085139 0 0 0
601 201 2 -1.1794 -7.622223622756078 4.6713420194592095 19.066702162353188 1 0 0
661 221 2 -1.1794 -6.947370157960144 5.199524200547249 14.49644341508023 1 0 0
603 201 1 0.5897 -6.887323895088368 4.062871704878629 18.989865527366092 1 0 0
163 55 2 -1.1794 -9.032541514197568 1.3396318716745566 19.17987016239305 1 0 -1
289 97 2 -1.1794 -2.4592964752570934 10.245741169765061 2.191983353149945 1 0 0
255 85 1 0.5897 -2.35752703381839 9.200193922944592 3.699331904268618 1 0 0
146 49 1 0.5897 -1.2899029355982234 6.499702378519478 1.9906040091498653 1 0 0
147 49 1 0.5897 -1.069629959302341 7.462964076657457 0.8438465590759616 1 0 0
332 111 1 0.5897 -2.199276597339197 9.286927417945394 0.7245415540396399 1 0 0
145 49 2 -1.1794 -0.6209897760676371 6.809187206373064 1.3799430517266118 1 0 0
112 38 2 -1.1794 -3.297356216194319 6.62740132329631 2.619681044433335 1 0 0
291 97 1 0.5897 -3.311500774833391 10.4973610226191 2.5478318104644413 1 0 0
290 97 1 0.5897 -1.866420904794632 10.942332194524475 2.473723909413509 1 0 0
188 63 1 0.5897 0.7390100473019094 9.995600143083248 1.1504687110260658 0 0 0
200 67 1 0.5897 0.531821025450113 8.066025328573621 2.2297379887529796 0 0 0
189 63 1 0.5897 1.6616551465036125 10.606389073478551 0.11739838002826782 0 0 0
10 4 2 -1.1794 1.9804464090022664 6.456787086632061 4.502110931364885 0 0 0
245 82 1 0.5897 0.852307071761226 9.581432266286019 4.256213521798069 0 0 0
694 232 2 -1.1794 3.507504470002303 10.384437951908033 0.23655703100027628 0 0 1
9 3 1 0.5897 -1.033284645221447 6.033276672999558 4.308318873067729 0 0 0
199 67 2 -1.1794 1.0428495831037239 8.829201437871694 2.4990665473279736 0 0 0
174 58 1 0.5897 3.56576171191165 9.202757102911146 4.631592695452481 0 0 0
201 67 1 0.5897 1.9510065166841146 8.585064014553115 2.3205578522747756 0 0 0
238 80 2 -1.1794 3.5625420327371797 8.025004974673827 1.7083173855324434 0 0 0
221 74 1 0.5897 4.365889515718791 10.46455211194368 3.0826132286087713 0 0 0
239 80 1 0.5897 3.6764949530537274 8.816928340398302 1.182993156394717 0 0 0
113 38 1 0.5897 -3.542036527513516 6.118917197421682 3.3927415845933733 1 0 0
220 74 2 -1.1794 3.6065159614741518 10.59358533280109 3.6508406568676475 0 0 0
240 80 1 0.5897 3.2536000243154932 7.366591008056764 1.0861156109497354 0 0 0
696 232 1 0.5897 4.169695078861667 11.072993948417416 0.2961448269657131 0 0 1
187 63 2 -1.1794 0.7439069318167215 10.385987912657347 0.2766420931194298 0 0 0
12 4 1 0.5897 1.0815033757531536 6.656237796188744 4.763537138720754 0 0 0
222 74 1 0.5897 3.0726010827103485 11.243556432000364 3.194121897313687 0 0 0
114 38 1 0.5897 -3.5642552324069827 6.082270745692852 1.8796434838827933 1 0 0
254 85 1 0.5897 -1.8232588899828213 8.161072485346248 4.661768921827281 1 0 0
253 85 2 -1.1794 -2.4285449114606754 8.90043999648816 4.605469857614959 1 0 0
257 86 1 0.5897 -4.234343351091888 8.568727816757104 4.795728350318292 1 0 0
191 64 1 0.5897 0.18997721544669854 9.712295543964858 8.731386222451404 0 0 0
837 279 1 0.5897 -6.2936964584975374 8.352518527682271 9.213942947770976 1 0 0
109 37 2 -1.1794 -4.473728872056835 6.047573301275723 7.414043906432416 1 0 0
111 37 1 0.5897 -5.3220177820907395 6.4909412383002705 7.406980914470089 1 0 0
293 98 1 0.5897 -4.218364076728486 10.340943469996448 7.323718106676881 1 0 0
8 3 1 0.5897 -0.6786410980245257 6.34655601970969 5.746165856718604 0 0 0
292 98 2 -1.1794 -5.146299784733472 10.149234311843362 7.459319196978317 1 0 0
258 86 1 0.5897 -5.194329663725558 9.08197464189972 5.847729805631009 1 0 0
246 82 1 0.5897 0.291001811049294 9.569872926902349 5.662001609242512 0 0 0
294 98 1 0.5897 -5.193222097530175 9.810457717744857 8.35320606770723 1 0 0
172 58 2 -1.1794 3.8081650483640557 8.412360263688944 5.113857803811503 0 0 0
64 22 2 -1.1794 1.958353677660119 7.084795378682807 8.261837451638051 0 0 0
65 22 1 0.5897 2.2865421116454634 7.719192126668879 8.89894584792316 0 0 0
202 68 2 -1.1794 -4.684572727287062e-05 8.67343550207039 7.181731139339988 0 0 0
203 68 1 0.5897 -0.7677670408095141 8.183742374016433 7.4766426081725115 0 0 0
204 68 1 0.5897 0.7444151873103797 8.126751886066131 7.432921123939946 0 0 0
228 76 1 0.5897 1.7529133088035032 11.033264850864189 6.018267598352022 0 0 0
235 79 2 -1.1794 -2.2537009898040354 7.6418101785317525 8.176064913005453 0 0 0
236 79 1 0.5897 -3.1099083707957713 7.366437198727479 7.8486229828688305 0 0 0
237 79 1 0.5897 -2.4382192022777596 8.414381958017756 8.710138114820316 0 0 0
302 101 1 0.5897 -2.3756298173360406 9.945511775670141 6.243965029836404 1 0 0
301 101 2 -1.1794 -2.5578297392603853 10.628410022399256 6.889395779156908 1 0 0
110 37 1 0.5897 -4.36117958502607 5.730441313966533 6.518059659805501 1 0 0
66 22 1 0.5897 2.7377413354017275 6.796815426614564 7.786623463016415 0 0 0
7 3 2 -1.1794 -0.6966029288741753 6.7313046487901955 4.870012954068837 0 0 0
588 196 1 0.5897 -1.6538732849353317 6.257082121347995 9.347479104380188 0 0 0
173 58 1 0.5897 3.1293134271444174 7.776222202111726 4.888847213079688 0 0 0
11 4 1 0.5897 2.241897261883045 5.734636232494238 5.073274924551116 0 0 0
303 101 1 0.5897 -1.7130480195509805 11.055191620630428 7.032119080541704 1 0 0
244 82 2 -1.1794 0.4921294523481965 10.155466600614204 4.932154045657072 0 0 0
617 206 1 0.5897 -7.374770905792259 7.387103537315134 11.97560708496013 1 0 0
794 265 1 0.5897 -5.337558250044765 10.708853067217763 12.52219393218372 1 0 0
809 270 1 0.5897 -7.682539980960162 10.650483528402138 12.851736281058567 1 0 0
836 279 1 0.5897 -5.082389693150412 8.24809132408096 10.115822467480218 1 0 0
742 248 2 -1.1794 0.15075061556525426 7.809169795165338 11.240938910662686 0 0 0
724 242 2 -1.1794 0.29962708430166796 10.577822322868649 12.891685418641789 0 0 0
616 206 2 -1.1794 -6.766293493043921 6.676475853346586 12.17793849779333 1 0 0
693 231 1 0.5897 -2.5951429473088874 9.3431067860445 10.680163474600405 0 0 0
649 217 2 -1.1794 -4.240105329626594 6.9842650312440515 11.114155372782621 1 0 0
650 217 1 0.5897 -3.5606269953496112 7.42662823696643 11.622806963111042 1 0 0
651 217 1 0.5897 -4.978822394125773 6.905560821649827 11.717696109907674 1 0 0
795 265 1 0.5897 -5.7769509374456485 9.785381497473436 11.406126791508951 1 0 0
744 248 1 0.5897 -0.04711964259628321 7.146137356997247 10.579634352954818 0 0 0
793 265 2 -1.1794 -6.007400243306356 10.065078930332348 12.29196646529 1 0 0
750 250 1 0.5897 -3.185529076651176 10.640731882366303 14.090552979216405 0 0 0
759 253 1 0.5897 -5.886369045151579 8.840346233096934 13.607810300945298 1 0 0
703 235 2 -1.1794 -2.2686940931657285 8.397055462265891 12.267705967674047 0 0 0
704 235 1 0.5897 -1.355923688981803 8.138490286091995 12.140390812231447 0 0 0
705 235 1 0.5897 -2.2864087472149137 8.794348102529508 13.138272596602835 0 0 0
743 248 1 0.5897 0.195108615691018 8.630548499666766 10.751580598967045 0 0 0
618 206 1 0.5897 -6.819657668627334 6.09215149182505 11.421772002707295 1 0 0
513 171 1 0.5897 -4.296650992895473 5.7981927361692165 14.193411955579673 0 0 0
678 226 1 0.5897 0.030373491466617608 9.190219491545696 14.113163499511979 0 0 0
192 64 1 0.5897 0.659588393131719 10.821403760298935 9.648397682105058 0 0 0
691 231 2 -1.1794 -2.6275438359695538 9.783783072310632 9.831191383693897 0 0 0
835 279 2 -1.1794 -5.764005993342591 8.856869602265578 9.831305544552299 1 0 0
190 64 2 -1.1794 0.1473464823242545 10.012901986922795 9.63904587768715 0 0 0
726 242 1 0.5897 -0.5297318163410845 10.899601318085486 12.538450146909796 0 0 0
692 231 1 0.5897 -1.7629507393051131 10.183014811044949 9.734866584788222 0 0 0
725 242 1 0.5897 0.566248800870877 11.24526837162789 13.52375288532616 0 0 0
663 221 1 0.5897 -6.703913505488157 5.801383021871944 13.79319627933049 1 0 0
514 172 2 -1.1794 -1.2435489792460572 6.284286851469924 14.393659760141722 0 0 0
586 196 2 -1.1794 -0.8774233669953264 5.800125412976188 9.670675390332992 0 0 0
266 89 1 0.5897 -3.5338981096559627 11.28339176731981 9.700389481643398 1 0 0
797 266 1 0.5897 -7.232685845180114 10.634062594908078 16.56150231872804 1 0 0
695 232 1 0.5897 -3.2285382578781476 10.159811059046921 18.507466479317586 0 0 0
741 247 1 0.5897 -6.018801357934892 8.944178480230596 18.38233125869963 0 0 0
613 205 2 -1.1794 -7.634179758895838 6.414048960414428 16.905843444737897 1 0 0
740 247 1 0.5897 -6.476248618632259 7.791165158065628 17.514650295443147 0 0 0
568 190 2 -1.1794 -1.4096944876662283 7.161205913004317 17.779421098801222 0 0 0
333 111 1 0.5897 -8.427765576593615 9.331041001676358 18.49476178587652 1 0 -1
762 254 1 0.5897 -7.81331047717214 8.277463594059917 14.686349733077915 1 0 0
758 253 1 0.5897 -5.801376151933109 9.232180825101345 15.06746277886286 1 0 0
83 28 1 0.5897 -4.991242967477796 6.970628927599031 18.814689962382232 0 0 -1
569 190 1 0.5897 -1.55159909338275 6.434845924904949 18.386324404803872 0 0 0
749 250 1 0.5897 -2.9899744325860214 9.638896104041649 15.208373908401633 0 0 0
798 266 1 0.5897 -8.292156059528502 9.614720413249264 16.20076434815835 1 0 0
615 205 1 0.5897 -7.43736896448198 5.962632631992586 16.085131322747095 1 0 0
796 266 2 -1.1794 -8.108004461038927 10.333337383165752 16.805561890741522 1 0 0
706 236 2 -1.1794 -3.2162118828928596 9.069299317099984 16.952982594672562 0 0 0
707 236 1 0.5897 -4.0555010539894845 8.61833265563171 17.04464333880133 0 0 0
708 236 1 0.5897 -2.5691585629489717 8.438733899072403 17.269011590378895 0 0 0
739 247 2 -1.1794 -5.69370417069383 8.272843473521727 17.782522395696923 0 0 0
731 244 1 0.5897 -1.8387959404463023 11.282662817361391 15.499811942418768 0 0 0
570 190 1 0.5897 -0.5517405896469638 6.986578012491533 17.39260723923855 0 0 0
805 269 2 -1.1794 -5.442081717152962 10.778677185231425 15.892265873233416 1 0 0
511 171 2 -1.1794 -3.9939874251878047 6.5857653445687605 14.64534845288226 0 0 0
676 226 2 -1.1794 0.25908966247088916 8.557259525024145 14.79367730022448 0 0 0
512 171 1 0.5897 -4.6741247108623245 7.237118906261823 14.474079570711535 0 0 0
748 250 2 -1.1794 -2.5573258789581317 10.007918709978426 14.438499339401721 0 0 0
331 111 2 -1.1794 -8.778009246642654 8.76454801713884 19.182140859415433 1 0 -1
82 28 2 -1.1794 -4.475849205753272 6.263839538220414 19.20322672901343 0 0 -1
515 172 1 0.5897 -2.1614661136139492 6.502395895254841 14.555166063992722 0 0 0
614 205 1 0.5897 -7.572284343422355 5.732719035550262 17.57518051371313 1 0 0
757 253 2 -1.1794 -5.908169981840077 8.474806305967157 14.492063598558302 1 0 0
516 172 1 0.5897 -0.7694882790006732 7.097385744951072 14.567674061194742 0 0 0
732 244 1 0.5897 -0.7360544984765021 11.308197720088959 16.53653433630695 0 0 0
807 269 1 0.5897 -4.733344507046316 11.11850770226297 16.438424383439205 1 0 0
84 28 1 0.5897 -4.125267291001057 5.782449981753344 18.453917257221065 0 0 -1
280 94 2 -1.1794 -3.5451891698292917 14.023593280338146 2.8598795411337923 1 0 0
281 94 1 0.5897 -3.3398579244680153 13.594818947639634 3.690541965748242 1 0 0
282 94 1 0.5897 -2.7223757783304867 14.431942918466724 2.590794199772135 1 0 0
500 167 1 0.5897 -1.7568087622794624 16.179155509570272 0.45312246181307464 1 0 0
313 105 2 -1.1794 -1.0874110480539807 14.985315862564214 1.7548993787725105 1 0 0
315 105 1 0.5897 -0.7840334161781719 14.2526088883599 1.2189308409681805 1 0 0
369 123 1 0.5897 1.0666583395623928 16.801652605474843 3.6132262272812286 0 0 0
223 75 2 -1.1794 -0.8012684079827728 12.091726714597707 3.4107830837335507 0 0 0
225 75 1 0.5897 -0.8767747267200781 12.826002012618709 4.0200962273755945 0 0 0
314 105 1 0.5897 -0.28488847093075487 15.392684722863054 2.0807026297285143 1 0 0
224 75 1 0.5897 -0.49076019999939646 11.363896946622683 3.949249498197084 0 0 0
367 123 2 -1.1794 1.0394292555755351 16.37194153407639 2.758448660309272 0 0 0
215 72 1 0.5897 2.122187198742626 12.803506920557107 1.758387951243273 0 0 0
252 84 1 0.5897 2.882477816365367 14.521070603054444 0.6967549192457344 0 0 0
423 141 1 0.5897 -2.2972073205934995 16.70340974979161 3.992857931731539 1 0 0
214 72 2 -1.1794 1.907278088982479 12.682488705033087 2.6831484319819303 0 0 0
407 136 1 0.5897 4.429641023523287 15.392008546425984 2.271446144875632 0 0 0
406 136 2 -1.1794 3.589648086472325 15.725067256197287 1.9557675992345191 0 0 0
408 136 1 0.5897 3.8232241588447886 16.385316848372497 1.3034038787852107 0 0 0
368 123 1 0.5897 1.9310177294869924 16.051316012502085 2.6224755911064457 0 0 0
216 72 1 0.5897 1.024349544957004 12.312908806104996 2.6780185376231693 0 0 0
180 60 1 0.5897 1.957787222472101 13.576900170594465 4.202824128305344 0 0 0
184 62 2 -1.1794 5.430336081069097 12.43117688491808 0.49758859637140773 0 0 0
306 102 1 0.5897 -4.669096065366334 11.436280181504822 4.0985496057659825 1 0 0
250 84 2 -1.1794 2.3673305718713635 13.813064698577149 0.3101334333536559 0 0 0
771 257 1 0.5897 -0.2661473408474828 11.92641082661319 0.043675506137873285 1 0 1
404 135 1 0.5897 -1.5893262277923657 15.855065453759874 7.705624761342456 0 0 0
326 109 1 0.5897 -3.200504014548925 11.78716067588632 5.733109609215541 1 0 0
325 109 2 -1.1794 -3.6410457847502293 12.49087741083744 5.256854879228419 1 0 0
327 109 1 0.5897 -3.9642977415844554 13.077686034771892 5.940444156896505 1 0 0
405 135 1 0.5897 -2.6178587005450673 16.342351306538205 8.703824675885144 0 0 0
211 71 2 -1.1794 -0.44685465825606485 12.308264355412328 7.495516558046925 0 0 0
227 76 1 0.5897 1.3647527570080555 11.90154135286683 7.195977905705346 0 0 0
213 71 1 0.5897 -0.6867794611198388 12.887445980669394 6.772311691065219 0 0 0
212 71 1 0.5897 -0.6852709435897406 12.796786510200025 8.283291254874733 0 0 0
340 114 2 -1.1794 3.6963463241811576 16.28845806457162 5.166228620863196 0 0 0
232 78 2 -1.1794 2.006468763571954 14.503492693794833 8.393467611119776 0 0 0
1004 335 1 0.5897 -5.101893859579703 16.73605253038997 8.937726369630726 1 0 0
234 78 1 0.5897 1.3880204469803354 15.07761979903362 7.941774017478857 0 0 0
370 124 2 -1.1794 0.07824365034660596 16.298397812073794 7.583843015369547 0 0 0
179 60 1 0.5897 2.04796251009033 13.17614299059922 5.659722525740854 0 0 0
277 93 2 -1.1794 -4.484456316963071 13.795499489170622 7.482251363206673 1 0 0
278 93 1 0.5897 -4.067040029532507 14.650985915088762 7.5825283478853205 1 0 0
756 252 1 0.5897 -1.581725892242472 14.505526826173336 9.123641303178394 0 0 0
175 59 2 -1.1794 -0.8325196539325281 14.027137360011587 5.4432119249176045 0 0 0
403 135 2 -1.1794 -2.4821940601841046 15.695554084228165 8.011475297318995 0 0 0
233 78 1 0.5897 2.7362599783232273 14.407951296249598 7.781557046096633 0 0 0
267 89 1 0.5897 -3.9031156935894655 12.455240988890994 8.816090227846614 1 0 0
279 93 1 0.5897 -5.414502723639494 13.962956365929243 7.634523000491254 1 0 0
177 59 1 0.5897 0.11660386563784497 14.14144504260823 5.395207037294925 0 0 0
226 76 2 -1.1794 2.118433195772285 11.627735427121365 6.6733054625757235 0 0 0
424 142 2 -1.1794 -4.914984543418077 16.11554791225582 5.009999803292841 1 0 0
176 59 1 0.5897 -1.187522967914958 14.90411961373803 5.298189953214666 0 0 0
341 114 1 0.5897 3.1442661392281757 15.517740493182306 5.034506666182888 0 0 0
372 124 1 0.5897 0.434723714333777 16.64244558990969 6.7649413196429835 0 0 0
178 60 2 -1.1794 1.9295160489363665 13.935784705977886 5.089635360577785 0 0 0
425 142 1 0.5897 -3.9620309638802333 16.123615197038802 4.920403486427303 1 0 0
690 230 1 0.5897 1.7169254304563424 12.939597995644794 9.409193639972804 0 0 0
462 154 1 0.5897 -5.084279418511425 16.922988487574365 6.479773044352167 1 0 0
754 252 2 -1.1794 -0.9576582129381261 13.930378559216491 9.5662009978171 0 0 0
421 141 2 -1.1794 -2.2195870620551506 16.3372909756651 4.873728289411378 1 0 0
688 230 2 -1.1794 1.8388347659519937 12.19127493052618 9.993344053851871 0 0 0
728 243 1 0.5897 -3.4405086925458876 12.088592806841236 12.597925132747255 0 0 0
755 252 1 0.5897 -0.3523292545173389 14.526780427002658 10.00664511369077 0 0 0
718 240 2 -1.1794 -1.6816451978325908 12.358504375003122 11.922909300974046 0 0 0
912 304 1 0.5897 0.9135126010743786 15.230801723936223 11.848376226747007 0 0 0
720 240 1 0.5897 -1.3400310802766722 12.918875996998404 12.61958065187458 0 0 0
831 277 1 0.5897 -7.543036269683354 12.194694010327924 14.197506909364156 1 0 0
871 291 2 -1.1794 -2.0558809365005963 16.41600571529002 12.340215568608013 0 0 0
727 243 2 -1.1794 -4.173998741811539 11.835767993162674 13.158482391212521 0 0 0
784 262 2 -1.1794 -6.428460406381542 14.075082379057864 12.149775480082425 1 0 0
729 243 1 0.5897 -4.294733758910102 12.581288447461983 13.746492477821468 0 0 0
911 304 1 0.5897 -0.4417212248267166 15.904522677368458 11.812208731418902 0 0 0
910 304 2 -1.1794 0.33514651164693365 15.737619897120203 11.278531760035 0 0 0
1005 335 1 0.5897 -4.745687462188648 15.809342328207478 10.08042020150527 1 0 0
962 321 1 0.5897 -5.76962103844757 16.933923851431324 12.602098184650677 1 0 0
719 240 1 0.5897 -1.4875795211490885 12.834319386607353 11.115464247090902 0 0 0
786 262 1 0.5897 -6.561404831754621 13.693186578942996 13.017234588701083 1 0 0
817 273 2 -1.1794 -3.846730274807169 14.601021367191041 11.239252518457128 1 0 0
818 273 1 0.5897 -4.663134775322133 14.481029304147793 11.724290911254508 1 0 0
819 273 1 0.5897 -3.6196768447796455 13.72382255050217 10.930787992823912 1 0 0
873 291 1 0.5897 -2.6207424324189725 15.664939691401568 12.158625499395908 0 0 0
846 282 1 0.5897 0.1318533251999332 16.890235472339953 14.092235311350963 0 0 0
1003 335 2 -1.1794 -5.4860325715985905 16.259045213069584 9.67323393679492 1 0 0
773 258 1 0.5897 -6.650760166267533 12.88797175964848 10.841542595226494 1 0 0
772 258 2 -1.1794 -6.588210540264423 12.332641780253114 10.064512171501232 1 0 0
682 228 2 -1.1794 -1.3190725496989089 13.899160570012308 14.157588939206237 0 0 0
785 262 1 0.5897 -7.226765082019637 14.576298301718712 11.983378191272084 1 0 0
925 309 2 -1.1794 -5.902430280283857 16.07100534117587 14.259045736446625 1 0 0
684 228 1 0.5897 -0.7636473593807187 14.663728469510744 14.309506786421586 0 0 0
774 258 1 0.5897 -5.660309183421485 12.105038057126718 10.006204055842367 1 0 0
265 89 2 -1.1794 -3.815605660486996 12.197562815135246 9.733653143481376 1 0 0
829 277 2 -1.1794 -6.816259058090328 12.741111058121824 14.496446113524128 1 0 0
737 246 1 0.5897 -0.9831441584490772 15.333289538956762 18.468096981665774 0 0 0
717 239 1 0.5897 -2.8984450121115497 12.411418648101927 17.08133831228851 0 0 0
783 261 1 0.5897 -8.831048179865299 14.403369380530942 16.848925931290303 1 0 0
251 84 1 0.5897 -5.081344666810372 14.331884260683879 18.96954069070369 0 0 -1
681 227 1 0.5897 -4.038203424720433 13.69839723033066 15.624182393466075 0 0 0
830 277 1 0.5897 -7.19181684694107 13.280020095531127 15.192625279255553 1 0 0
185 62 1 0.5897 -1.5556672464759354 13.213119911183513 19.0680471870604 0 0 -1
715 239 2 -1.1794 -3.836935716346657 12.57381966530227 17.176640189886406 0 0 0
716 239 1 0.5897 -3.9026472270129924 13.171861724604026 17.921024175737315 0 0 0
874 292 2 -1.1794 -3.409870762222952 16.467332511218757 17.081765014352484 0 0 0
907 303 2 -1.1794 -5.962668286437642 15.562318710840781 17.841670034283943 0 0 0
875 292 1 0.5897 -3.1335240073750485 16.81731181394072 16.23491287505339 0 0 0
876 292 1 0.5897 -2.67608590869525 15.923174957696402 17.36747010613783 0 0 0
736 246 2 -1.1794 -1.4262030717310425 14.717489368705198 17.884506692095044 0 0 0
909 303 1 0.5897 -5.1889283978185174 15.781052670265945 17.322395927943845 0 0 0
781 261 2 -1.1794 -7.960730784606026 14.062728214652669 16.642202828027095 1 0 0
782 261 1 0.5897 -7.679589907225628 13.620578144194887 17.443128456583942 1 0 0
730 244 2 -1.1794 -1.38746041189198 11.865254250844409 16.110510223123285 0 0 0
908 303 1 0.5897 -6.574849338184329 15.18209366317748 17.211801206163663 0 0 0
844 282 2 -1.1794 0.3367501523891612 16.117719930072624 14.618841382130306 0 0 0
683 228 1 0.5897 -1.131640597276827 13.316370999669909 14.893287009043592 0 0 0