LAMMPS data file via write_data, version 30 Jul 2021, timestep = 13500000

864 atoms
2 atom types
576 bonds
1 bond types
288 angles
1 angle types

0.45080260817136875 17.756769791819174 xlo xhi
1.622517196325095 22.006660603676856 ylo yhi
0.5499781290159973 21.66321767099121 zlo zhi

Masses

1 1.00794
2 15.9994

Pair Coeffs # lj/cut/tip4p/long/omp

1 0 0
2 0.21084 3.1668

Bond Coeffs # harmonic/omp

1 450 0.9572

Angle Coeffs # harmonic/omp

1 55 104.52

Atoms # full

301 1 2 -1.1794 0.6735339519663168 3.3148832679095612 1.6331438291525937 -1 2 7
657 1 1 0.5897 2.171000638308805 5.793284732579706 3.325666630665724 1 3 -1
655 1 2 -1.1794 2.499655783929588 5.638093920034452 2.4401365024862343 0 3 -1
365 1 1 0.5897 4.498829153050152 2.1229837740956397 1.705941214983977 0 5 3
656 1 1 0.5897 1.8480583198278817 5.062457669889364 2.039816751700303 0 3 -1
302 1 1 0.5897 1.1298431914077036 2.485510321730649 1.4913154997331979 -1 2 7
31 1 2 -1.1794 4.586226332223403 4.5170149302731435 3.8773703108872764 5 8 0
33 1 1 0.5897 3.9916128917899574 5.01889139254091 3.3199313653166382 5 8 0
729 1 1 0.5897 1.195436448460753 4.1635226086919594 4.726167195612473 -2 4 1
303 1 1 0.5897 0.5664706691388611 3.37057211421856 2.5826740756793383 -1 2 7
548 1 1 0.5897 2.9202210652165546 6.157644443109363 5.416561930651602 8 -2 5
547 1 2 -1.1794 2.00098068677398 6.038353919352508 5.177930104764062 8 -2 5
32 1 1 0.5897 4.733597578531119 3.701667474541452 3.3981464308816274 5 8 0
727 1 2 -1.1794 0.4829735829062898 3.7196333780350797 4.266220582561557 -2 4 1
24 1 1 0.5897 3.6750241482240904 3.243474167324906 9.533136400576462 -6 3 1
57 1 1 0.5897 3.539325668329796 2.8954696666854147 6.497684945242586 0 2 2
516 1 1 0.5897 1.6086051446891132 5.4054926941445585 7.337045162052683 1 -3 0
22 1 2 -1.1794 3.7700270752681884 4.130636686278111 9.186555864910389 -6 3 1
55 1 2 -1.1794 2.6099033847222026 2.6699590917596003 6.45911023007136 0 2 2
56 1 1 0.5897 2.4716554089429117 2.0927264465848494 7.210013998925196 0 2 2
515 1 1 0.5897 2.103682556371493 4.899372847443663 8.675132579755532 1 -3 0
514 1 2 -1.1794 1.3236026789423527 5.2371015971750765 8.23514724186085 1 -3 0
6 1 1 0.5897 0.47831141429923785 3.6079225891221327 8.189129588499048 -1 -1 -3
23 1 1 0.5897 4.335134795330852 4.02980820693605 8.420623690816914 -6 3 1
451 1 2 -1.1794 3.0948892086587287 1.734529814225784 10.954454727536271 -1 -1 5
697 1 2 -1.1794 4.5963356035029515 5.922070918050789 6.523606587223242 -5 1 -3
698 1 1 0.5897 4.764701895771309 5.198461870480041 5.920077397620746 -5 1 -3
685 1 2 -1.1794 2.869353111521314 1.856981165394313 15.898829176424327 8 -7 -5
330 1 1 0.5897 4.152201202786726 6.155046476098817 11.492125406936015 1 6 0
691 1 2 -1.1794 1.0746440558794634 4.428124550685823 14.889096537542166 2 2 4
526 1 2 -1.1794 1.5286871081562559 4.235762894822138 11.69913709265394 -3 -3 2
744 1 1 0.5897 4.146269978072189 4.827007836198348 14.693852092283796 -2 1 2
528 1 1 0.5897 1.4751302149236196 4.08449619301105 12.642765597728488 -3 -3 2
527 1 1 0.5897 0.6256686349356151 4.407025938916842 11.431931569623734 -3 -3 2
453 1 1 0.5897 2.577614516496214 2.4986339200730026 11.208939037898077 -1 -1 5
533 1 1 0.5897 2.0892680546556983 6.049694577393362 12.077954475135524 -8 -1 -2
693 1 1 0.5897 1.0256004938928993 5.33822683045315 14.596713743480052 2 2 4
687 1 1 0.5897 3.3349828908023924 2.5505658878134985 15.43158561258599 8 -7 -5
742 1 2 -1.1794 4.262548869322057 3.8769821391781885 14.70381409814078 -2 1 2
749 1 1 0.5897 4.570140925307945 2.1749768622062047 12.029800523589316 4 5 -1
203 1 1 0.5897 2.4236910889045915 4.824893823995463 16.21551623940779 -3 4 1
493 1 2 -1.1794 0.9477379124548044 6.625354068367642 18.036265422653518 -4 -2 -1
587 1 1 0.5897 3.4739332791884885 3.497875434792176 20.562079251256694 1 2 1
708 1 1 0.5897 3.3197199994662654 3.4071299560553223 18.047246044031155 0 -2 -5
204 1 1 0.5897 2.4339875601656678 5.459736320485479 17.58978954179014 -3 4 1
202 1 2 -1.1794 2.9556783319974973 4.908116414818787 17.00689812453119 -3 4 1
706 1 2 -1.1794 3.668159684708174 3.0341201624154976 18.85696439228491 0 -2 -5
588 1 1 0.5897 3.115770095479588 4.679142215212327 21.43847268032161 1 2 1
87 1 1 0.5897 0.8055958187546861 5.774683252417907 20.837249384910766 -3 4 1
586 1 2 -1.1794 3.5525620323264366 3.8276541084594653 21.457193222690034 1 2 1
85 1 2 -1.1794 1.6992835122839267 5.951884128945424 20.543835182156357 -3 4 1
384 1 1 0.5897 1.2601193928328005 2.261096680920237 16.84748409972279 -8 -4 -3
494 1 1 0.5897 1.1176165591939893 6.2917291544749165 18.917183347258646 -4 -2 -1
707 1 1 0.5897 4.400353007895072 2.4867152094455403 18.573401648823317 0 -2 -5
836 1 1 0.5897 4.741321586507182 5.6362425598301265 17.213469543807157 -1 4 -1
745 1 2 -1.1794 2.2567693148386256 10.515415299846419 2.28799359771635 0 5 -7
539 1 1 0.5897 2.791358513081899 10.945533772310284 5.3131753338563765 2 -3 2
746 1 1 0.5897 1.6254722878300727 11.112060707750361 2.690046334914936 0 5 -7
747 1 1 0.5897 2.8484348722303667 10.27584194319626 3.0012264510341744 0 5 -7
549 1 1 0.5897 1.6152144110255957 6.909935797630173 5.2656870754137985 8 -2 5
361 1 2 -1.1794 4.143928738262195 10.400327300659626 4.200041230592923 6 -5 0
278 1 1 0.5897 2.0404416008349244 9.11742164782355 1.0180652723281436 0 1 3
522 1 1 0.5897 3.5885838240691514 11.371269561838252 1.0439381998827117 -2 0 -2
391 1 2 -1.1794 4.668999502338961 7.261793592854066 0.6807926992632064 2 -4 -2
363 1 1 0.5897 4.6367055491798705 9.79751343884213 3.6433085371783855 6 -5 0
210 1 1 0.5897 0.7421044772781124 7.614410552799421 2.2194727627279676 1 -1 0
362 1 1 0.5897 4.504985315586701 11.263384439060047 3.997712734738238 6 -5 0
392 1 1 0.5897 3.7678721035864853 6.957185052177165 0.7873451035965301 2 -4 -2
369 1 1 0.5897 4.649634971643192 8.989420643123132 5.775850587891993 0 8 -3
135 1 1 0.5897 4.023161359796138 8.780377246903546 10.50521637401458 -1 -5 0
341 1 1 0.5897 3.721739735201135 10.537010574493838 8.513056493985165 1 6 4
597 1 1 0.5897 0.8757439480601533 9.421344280669121 6.063335206616942 2 -5 0
646 1 2 -1.1794 1.0641317071375545 7.797385572051754 9.399321976764364 -9 -1 0
647 1 1 0.5897 1.3096494940519992 6.923364730313022 9.096028058985075 -9 -1 0
648 1 1 0.5897 1.8677192808580156 8.312026815926986 9.324189266484527 -9 -1 0
133 1 2 -1.1794 3.8850351148265654 8.952310650527373 9.573803314574862 -1 -5 0
340 1 2 -1.1794 3.63877630114796 11.404008655788456 8.116064669820645 1 6 4
595 1 2 -1.1794 0.652237745725412 8.501477291545651 6.204952297795751 2 -5 0
134 1 1 0.5897 4.569780944820489 8.449489207271125 9.132823387501302 -1 -5 0
540 1 1 0.5897 2.3668397824670047 11.125809251445158 6.755058281752912 2 -3 2
596 1 1 0.5897 0.5190061258988107 8.429654636737073 7.150093103660181 3 -5 0
488 1 1 0.5897 0.6235301917518585 10.889926356229761 9.964944625640038 0 -4 3
534 1 1 0.5897 1.864396919517469 7.170785256872036 11.085824444633273 -8 -1 -2
538 1 2 -1.1794 2.0169032046214648 11.001083187866659 5.8729132726495 2 -3 2
532 1 2 -1.1794 2.437934997845948 6.897182984845291 11.801618698533149 -8 -1 -2
109 1 2 -1.1794 1.951400160212907 8.196326374886617 15.914262884143232 -1 -1 -6
28 1 2 -1.1794 3.60374073566718 6.893876579286233 14.281630724419854 -7 1 6
30 1 1 0.5897 3.1410756908536888 7.10650233536029 13.471129354377592 -7 1 6
473 1 1 0.5897 1.6523541005668794 10.37324551216786 12.112454515676674 2 2 0
472 1 2 -1.1794 2.067637975705274 10.43052760096298 12.972939201424563 2 2 0
141 1 1 0.5897 4.283365667396533 11.793638721092382 15.694606892214958 -1 -1 -2
474 1 1 0.5897 2.926754976245964 10.026166814065444 12.852175619443846 2 2 0
29 1 1 0.5897 3.054576655308591 7.260375164082135 14.974650126677597 -7 1 6
68 1 1 0.5897 0.6240458090808629 10.593586783696132 14.46424743830789 3 -4 -4
110 1 1 0.5897 2.142181802128685 9.133794254409816 15.944870279797433 -1 -1 -6
813 1 1 0.5897 0.508320067371953 7.599139846316727 14.80045102370227 -1 4 -5
181 1 2 -1.1794 3.634202062165643 10.315872426446761 18.959253898316646 -4 2 -1
182 1 1 0.5897 3.032120873414797 10.113934502908853 19.675414683472603 -3 2 -1
390 1 1 0.5897 3.179173094430818 10.691317538266631 17.259838117927877 2 6 3
802 1 2 -1.1794 0.8758630918269076 11.474893136053424 20.055673718118594 7 1 -2
455 1 1 0.5897 4.5644792310070414 9.02199864549252 19.306636279706254 0 -2 0
279 1 1 0.5897 1.1923036524059143 8.752185904633954 20.931671253074573 0 1 2
183 1 1 0.5897 4.214794186327831 10.987970417790637 19.316139370427006 -4 2 -1
277 1 2 -1.1794 2.016808586159911 8.539293724395135 21.368788387595483 0 1 2
803 1 1 0.5897 0.5529733281581012 10.985283604990592 19.299238285166215 7 1 -2
111 1 1 0.5897 1.6304623796326991 7.987977359337564 16.791622201425596 -1 -1 -6
86 1 1 0.5897 1.8524931293212288 6.866709799728266 20.78010443370234 -3 4 1
388 1 2 -1.1794 2.8714739791024773 10.990032834708412 16.40411255519712 2 6 3
389 1 1 0.5897 2.1043016077792864 11.52808566691562 16.599356223773558 2 6 2
399 1 1 0.5897 3.42463987888189 14.356867983821234 3.588992290433156 4 5 -8
552 1 1 0.5897 2.6828623075615265 15.32304427091483 1.2436335746187903 0 4 -3
397 1 2 -1.1794 3.00614436605155 15.04805500565216 3.075877144555982 4 5 -8
520 1 2 -1.1794 4.2629287948634165 11.847311897020456 0.5593670441307432 -2 0 -2
542 1 1 0.5897 1.289659179765966 14.629864693572395 2.7742350560380733 -5 1 3
398 1 1 0.5897 2.7904374972577832 15.725517266877002 3.7167214657699343 4 5 -8
443 1 1 0.5897 0.7946271124609823 11.912377662187424 4.765181397927767 5 6 -2
394 1 2 -1.1794 3.5909664011729396 13.468912613281372 10.279140856673093 1 1 4
53 1 1 0.5897 1.993109674438337 13.622892897756696 7.791420295447867 -5 -2 2
156 1 1 0.5897 1.0707945038617046 15.121230781719186 10.604072427081144 3 3 -3
155 1 1 0.5897 1.967967298014835 16.33950547593504 10.65538450650006 3 3 -3
245 1 1 0.5897 4.103594171708342 14.3741230135919 7.145314243264537 -1 4 -1
52 1 2 -1.1794 2.2438066462271338 14.23801166402216 7.10225766098212 -5 -2 2
54 1 1 0.5897 1.4888095113126005 14.260459132543966 6.51434614776853 -5 -2 2
342 1 1 0.5897 3.1890318978093486 11.929033801413876 8.77807608637467 1 6 4
395 1 1 0.5897 2.9579185247629867 14.030422358069936 10.726494326562747 1 1 4
234 1 1 0.5897 2.3814199614004217 16.21001642406985 7.021507994456644 0 2 1
831 1 1 0.5897 4.719627900749917 15.194413308885752 9.905129326945247 5 3 6
787 1 2 -1.1794 0.8225807220785224 12.340460418992652 8.706840744298448 3 -4 4
396 1 1 0.5897 4.082265019609565 13.050521426956271 10.986087069387082 1 1 3
154 1 2 -1.1794 1.8418306829685545 15.475327067395723 11.047117069109243 3 3 -3
37 1 2 -1.1794 2.2774878841723 13.191262968163926 14.024763250412763 -3 0 -4
18 1 1 0.5897 0.5232297256271281 15.517547491322684 12.55594011415629 0 3 1
38 1 1 0.5897 2.451767579312662 12.320412754481154 13.667807850789297 -3 0 -4
482 1 1 0.5897 2.206973417357342 15.983319906622617 15.944764135774212 1 6 0
448 1 2 -1.1794 3.640124116905435 15.487517699692866 13.9363624790027 4 1 -2
450 1 1 0.5897 4.515304110825155 15.516690329860614 13.549863083269772 4 1 -2
449 1 1 0.5897 3.393877899564815 14.56315389747275 13.903314502864932 4 1 -2
39 1 1 0.5897 1.3350177965692045 13.197959787454977 14.19174709275688 -3 0 -4
720 1 1 0.5897 3.2519460040154207 13.523685931252045 18.778038817093737 6 4 0
289 1 2 -1.1794 2.411312639734404 16.752444421355435 18.987344294897312 -7 -5 -9
733 1 2 -1.1794 0.7089680431143692 13.145220404450948 16.84030302993414 2 -1 -3
718 1 2 -1.1794 3.0354210044083714 13.190871018723035 19.64897919457679 6 4 0
291 1 1 0.5897 2.524402335011606 16.19063902886787 18.220691409691675 -7 -5 -9
46 1 2 -1.1794 4.612071372605345 14.505034712567905 17.1593449411588 2 -4 -1
800 1 1 0.5897 0.711563957751054 15.025169515287734 20.876804025607854 -2 -3 4
481 1 2 -1.1794 2.2847565313329588 15.328698902861658 16.638762929269994 1 6 0
521 1 1 0.5897 3.7813675120479857 12.323355081294473 20.996100623726942 -2 0 -3
719 1 1 0.5897 2.8012085936187487 13.970532475774055 20.152424305701537 6 4 0
551 1 1 0.5897 2.887125974432946 16.207986801953755 21.14572393177782 0 4 -4
290 1 1 0.5897 1.5690222724965133 16.487517375415962 19.356843856987567 -7 -5 -9
734 1 1 0.5897 1.2689039250884826 13.891130037480329 16.625220470980423 2 -1 -3
804 1 1 0.5897 1.4656817816862662 12.13036292593712 19.683316700704413 7 1 -2
483 1 1 0.5897 3.210753420667709 15.086340452972921 16.637364652303987 1 6 0
550 1 2 -1.1794 2.5410817181573617 15.35585058055374 21.410835845335644 0 4 -4
47 1 1 0.5897 4.774401420077486 13.721251579507426 16.634462751818713 2 -4 -1
500 1 1 0.5897 2.1625990608033674 21.331489972956483 2.4994670326423316 0 -2 -3
256 1 2 -1.1794 2.6544605292289973 21.190651157153674 4.3467637253479605 2 -5 -1
642 1 1 0.5897 2.1303045315906965 17.320495977578993 5.2304820968835735 4 0 -4
150 1 1 0.5897 4.114718509203977 18.09469251685156 2.175513279043118 -4 1 1
114 1 1 0.5897 4.392742928102434 20.87943066587393 4.536752404428904 -2 -4 1
257 1 1 0.5897 2.1133211196371295 20.516514512534226 4.75771137384436 2 -5 -1
148 1 2 -1.1794 4.54827493824808 18.154348694443037 3.02677341213005 -4 1 1
640 1 2 -1.1794 2.1855583876774665 17.35052305318674 4.275353191271024 4 0 -4
524 1 1 0.5897 0.5689802822558193 17.597590783094084 3.170600742967259 1 -1 5
499 1 2 -1.1794 1.9386360869755745 21.394527626000468 1.5710045262691072 0 -2 -3
501 1 1 0.5897 1.0985005911839778 20.942133634459523 1.4955634490962482 0 -2 -3
641 1 1 0.5897 2.8952341187842494 17.96706826263618 4.095322744963362 4 0 -4
258 1 1 0.5897 2.579977547902399 21.94636300411734 4.929448613689651 2 -5 -1
149 1 1 0.5897 4.5716867783939295 17.252946196362196 3.347864876917029 -4 1 1
127 1 2 -1.1794 0.508583119119173 19.84868266207185 5.7627171518812155 -2 1 -3
233 1 1 0.5897 2.281176328127651 17.46294350398417 7.865232415018907 0 2 1
229 1 2 -1.1794 4.1993695546452425 19.390444390396127 6.6496040626394395 4 6 0
643 1 2 -1.1794 2.6320828044852793 20.98883263705488 8.444699274847181 3 -6 1
644 1 1 0.5897 3.345971418211764 20.575371705868232 7.959327414632045 3 -6 1
645 1 1 0.5897 1.8747176567569617 20.426241882940456 8.283214392936129 3 -6 1
730 1 2 -1.1794 2.750039325308821 17.581204691718924 9.756154926598231 1 3 -4
732 1 1 0.5897 3.46925630715526 16.97096971633835 9.91898456634184 1 3 -4
731 1 1 0.5897 2.668484048072785 18.07860676313328 10.56985660075018 1 3 -4
452 1 1 0.5897 2.720016871169353 21.84284952945891 10.118059498709089 -1 -2 5
232 1 2 -1.1794 1.925752440184783 17.04983990018213 7.078340111830671 0 2 1
231 1 1 0.5897 4.6563597738001565 19.71277777895773 5.872779076883983 4 6 0
797 1 1 0.5897 2.2010500469430996 20.009993586920867 14.153830068908254 2 -7 -4
413 1 1 0.5897 4.600992274215485 21.26763398597002 16.06089234657818 5 0 1
286 1 2 -1.1794 3.3943662048324543 19.048615978604705 15.367863963644561 3 1 2
752 1 1 0.5897 1.8014727929111323 17.783344692552248 14.650967046679703 4 0 -1
79 1 2 -1.1794 2.629816368104997 17.790237794228002 12.859776478072924 2 0 -4
796 1 2 -1.1794 1.4125531299547975 20.533102797649455 14.009569843890361 2 -7 -4
686 1 1 0.5897 2.424851885895766 21.745212664299846 15.211327068803397 8 -8 -5
288 1 1 0.5897 4.189381827921065 18.517744655078964 15.31994698706895 3 1 2
80 1 1 0.5897 3.3164757899784227 18.375063944763188 12.539396449170523 2 0 -4
179 1 1 0.5897 1.1543793029698726 19.67042196168817 12.236905774067381 -8 1 -3
319 1 2 -1.1794 4.327989469286939 19.53819040882634 11.582064272891861 -2 -2 0
751 1 2 -1.1794 1.165013294455197 17.361051841472175 15.227815100563465 4 0 -1
287 1 1 0.5897 3.1539443627729997 19.037628795841435 16.294279085651798 3 1 2
320 1 1 0.5897 3.8133046408678597 20.279864007929802 11.263946943069188 -2 -2 0
798 1 1 0.5897 0.7429661365967206 20.11146332112517 14.548129416708518 2 -7 -4
753 1 1 0.5897 0.6451243089045027 18.0829979885048 15.58090915607972 4 0 -1
81 1 1 0.5897 3.0466870522436613 16.92950175763466 12.898981243691814 2 0 -4
178 1 2 -1.1794 0.8609449137439487 19.72107773165437 11.327231992549404 -8 1 -3
755 1 1 0.5897 2.2714704521339484 19.772607771991744 18.55515738078854 -5 -3 -2
346 1 2 -1.1794 2.214095064421396 21.154958329897713 19.805281047739726 2 1 -2
754 1 2 -1.1794 2.4696459056685875 19.13187136326184 17.872254334019875 -5 -3 -2
400 1 2 -1.1794 3.5001195534529406 18.104791336137236 21.53248668490717 -3 -3 3
756 1 1 0.5897 2.4037467232440526 18.284278273738934 18.312037577391557 -5 -3 -2
347 1 1 0.5897 2.640180015279146 21.253193064487704 20.656746080578586 2 1 -2
402 1 1 0.5897 3.8437613178800927 18.991776909782615 21.4259545106745 -3 -3 3
348 1 1 0.5897 2.4899875092140684 21.92524840575005 19.308586244837507 2 1 -2
438 1 1 0.5897 4.52421663143095 18.25352716142219 18.580968536985733 -4 7 2
401 1 1 0.5897 2.549708756380804 18.208503435040438 21.486351304839268 -3 -3 3
151 1 2 -1.1794 0.7457104736150373 18.202037223146185 20.931764084474594 2 -1 0
805 1 2 -1.1794 7.639862628175959 2.9513285692450744 1.4502787058500526 1 0 -3
807 1 1 0.5897 8.201012674925302 3.364143551239211 2.1066948279640245 1 0 -3
636 1 1 0.5897 8.172444853190095 3.5033654855640193 4.628359724060784 -7 -2 0
806 1 1 0.5897 6.908477804286511 2.5913500749478873 1.9519523028657717 1 0 -3
364 1 2 -1.1794 5.119388999363701 2.22905768431691 2.426927190299364 0 5 3
842 1 1 0.5897 7.995551470292073 6.475397727858681 5.692594593551969 -2 0 3
50 1 1 0.5897 8.634954844140589 5.350296004800926 3.4844687682685995 6 2 0
567 1 1 0.5897 6.12459588849715 5.56194987236603 3.9411693131020358 -1 7 -4
634 1 2 -1.1794 7.733196151391003 2.9090618948824774 5.236659545982975 -7 -2 0
49 1 2 -1.1794 8.960864439268565 4.470823224755051 3.293422717021739 6 2 0
195 1 1 0.5897 6.661226452642521 4.379245439980421 0.6943837098641819 0 -4 3
393 1 1 0.5897 5.185915860065296 6.459865208816842 0.6041317728578935 2 -4 -2
565 1 2 -1.1794 6.777094887106346 6.251298092531445 4.064532970628666 -1 7 -4
377 1 1 0.5897 6.983090683472461 4.701031741158761 8.946314216426503 3 4 3
271 1 2 -1.1794 7.2830294978729855 3.3039743027608917 9.989723627215714 -2 3 2
699 1 1 0.5897 4.851907157684617 6.705356879285246 6.036396488510209 -5 1 -3
378 1 1 0.5897 6.096135901016057 5.456537379955768 7.979739839169072 3 4 3
376 1 2 -1.1794 6.874811532558643 5.554922356570829 8.527605631828282 3 4 3
841 1 2 -1.1794 8.68427338074264 6.210401208881574 6.302236850420569 -2 0 3
273 1 1 0.5897 6.849071971357648 2.9970168806935567 10.785740847793981 -2 3 2
272 1 1 0.5897 8.209210176452732 3.1074653879666045 10.130293705805125 -2 3 2
283 1 2 -1.1794 5.234547709530666 2.984454076960747 6.857660431805714 4 2 -3
285 1 1 0.5897 5.861435935902526 3.1925739058151796 6.164925851628348 4 2 -3
486 1 1 0.5897 6.919393501862152 1.7577275941886397 9.118102544547549 -2 2 -3
284 1 1 0.5897 5.606320831134548 2.218892950670227 7.295692690726061 4 2 -3
447 1 1 0.5897 8.00500820686873 6.334288109335184 9.690539208675727 1 -1 0
843 1 1 0.5897 8.214689205945513 5.825143185396545 7.0420439863076645 -2 0 3
635 1 1 0.5897 8.408767995717222 2.674388111847268 5.872819006640774 -7 -2 0
329 1 1 0.5897 4.837644213591864 5.208138438438649 10.530173064879405 1 6 0
862 1 2 -1.1794 7.992049024814411 2.1090889125311607 13.303916051731983 0 -2 -1
776 1 1 0.5897 6.574232073943326 6.319649532975912 12.075964036998148 4 -3 2
864 1 1 0.5897 7.062077647137938 2.058770938045924 13.082982019070739 0 -2 -1
491 1 1 0.5897 7.532959899068003 3.103203053945545 14.894104694896182 0 3 3
65 1 1 0.5897 8.359947836973634 5.82625722312095 14.277450300522451 5 1 -4
490 1 2 -1.1794 7.0728527840204505 3.3438488732611367 15.698203603962355 0 3 3
492 1 1 0.5897 6.694965155955345 2.522804308834737 16.01331577486998 0 3 3
64 1 2 -1.1794 8.338278911954587 5.7979981863195915 15.233953862798257 5 1 -4
748 1 2 -1.1794 5.342910352767755 2.516071346712709 12.479995764850669 4 5 -1
750 1 1 0.5897 5.004870882025731 3.2129843325732086 13.04240105641631 4 5 -1
743 1 1 0.5897 5.168583722158695 3.7490300779853105 14.984736075938082 -2 1 2
66 1 1 0.5897 7.731208573832253 5.087049083760477 15.439343752249705 5 1 -4
328 1 2 -1.1794 5.017256420371603 5.872517807055527 11.195413694964785 1 6 0
790 1 2 -1.1794 8.585827517594954 2.217850681840198 18.191957323472764 2 5 1
537 1 1 0.5897 7.03644509022944 5.117882581086112 18.23440029712093 7 5 3
835 1 2 -1.1794 5.502521697225803 6.207508057044876 17.315463240886455 -1 4 -1
791 1 1 0.5897 8.10929552747273 3.044886561836223 18.120305198849078 2 5 1
535 1 2 -1.1794 7.547987221735887 4.785422416785498 18.9719781425449 7 5 3
536 1 1 0.5897 6.9537905572324705 4.840509272237634 19.720354488849924 7 5 3
193 1 2 -1.1794 6.029296727009081 5.021186863647206 21.483986265046074 0 -4 2
702 1 1 0.5897 8.5980740146243 2.2737128230283488 21.232154588888385 3 1 2
194 1 1 0.5897 5.220573681400841 4.523113543148208 21.365403417140534 0 -4 2
792 1 1 0.5897 8.892604245006615 2.1953876054419803 19.09837737328261 2 5 1
282 1 1 0.5897 7.82795002828305 10.067429020955531 5.649808627189435 1 -1 1
71 1 1 0.5897 5.921922034523164 9.024228663073842 2.256022397552668 3 4 -8
581 1 1 0.5897 7.677309005819734 11.208612918463361 3.7075981513023697 -2 -5 2
280 1 2 -1.1794 7.597582855816577 9.696461797703563 4.7980561991670285 1 -1 1
566 1 1 0.5897 6.503799100776522 6.949643476217514 3.4697314663585246 -1 7 -4
281 1 1 0.5897 8.371347564906614 9.197432503752413 4.536448191537351 1 -1 1
296 1 1 0.5897 7.259762835067273 10.896833113992319 1.7396646621575247 -1 3 3
368 1 1 0.5897 6.059490470195932 8.798714096600973 5.258458595375626 0 8 -2
297 1 1 0.5897 6.013796273530887 11.177256199547902 0.9268138635306898 -1 3 3
70 1 2 -1.1794 5.543022857832373 8.529216019094807 2.9823892550054087 3 4 -8
295 1 2 -1.1794 6.66352614815059 10.497637866249745 1.1061341383391898 -1 3 3
72 1 1 0.5897 4.953255725343716 7.902282483446736 2.5636949223004892 3 4 -8
582 1 1 0.5897 9.016033211230882 11.729583281349235 3.2299507042871833 -2 -5 2
379 1 2 -1.1794 6.979571866174246 9.994693546899429 10.60066126042696 11 5 -2
163 1 2 -1.1794 8.337510467821001 10.9511047029254 7.1410617691739535 -5 1 -1
211 1 2 -1.1794 6.513410668825953 8.441072440402 8.386249130063412 4 1 3
213 1 1 0.5897 6.187963724866673 8.490420550856673 7.487458947742434 4 1 3
212 1 1 0.5897 6.681707983079686 7.509801411517805 8.529734415877744 4 1 3
164 1 1 0.5897 7.5787528953708785 11.437393055132498 7.4635578737624915 -5 1 -1
367 1 2 -1.1794 5.436348172983922 8.458659612938 5.900537365840297 0 8 -2
380 1 1 0.5897 6.774992989522461 9.471844701609204 9.825442555846454 11 5 -2
165 1 1 0.5897 8.527790772779694 10.317157044523647 7.83251276462971 -5 1 -1
445 1 2 -1.1794 8.6206034988035 6.881158948535879 10.178536005379563 0 -1 0
446 1 1 0.5897 8.269115961884419 6.902627006861539 11.068570896685396 0 -1 0
509 1 1 0.5897 8.622181160924784 11.748783906175701 10.797356593875074 4 0 3
63 1 1 0.5897 5.399212671241605 11.71458961663005 8.30968585871737 0 3 3
381 1 1 0.5897 7.776893034369619 9.59944100941927 10.95314021611246 11 5 -2
671 1 1 0.5897 8.404657149849106 10.666073470962484 13.535467939093275 4 3 1
785 1 1 0.5897 5.053363994103862 7.941901156370237 14.479260752458096 4 4 1
784 1 2 -1.1794 5.786740238791067 8.5471834218012 14.369911248251668 4 4 1
861 1 1 0.5897 4.90407028326773 11.591413640632068 12.36798412758689 -2 -2 3
674 1 1 0.5897 5.627284506195161 9.785114192135692 11.701084833253512 -5 -1 -5
670 1 2 -1.1794 7.812773723007494 11.213504219641814 14.051378605835046 4 3 1
786 1 1 0.5897 5.922564660853263 8.919507523183952 15.24117153539825 4 4 1
140 1 1 0.5897 5.787280890905104 11.675947198243811 15.821559793908472 -1 -1 -2
672 1 1 0.5897 7.6076428062866555 10.684701867442547 14.822392156384963 4 3 1
675 1 1 0.5897 5.165431064222326 9.273764080311302 13.04903429826981 -5 -1 -5
777 1 1 0.5897 6.786262228754848 7.342659238107117 13.171515797761003 4 -3 2
775 1 2 -1.1794 7.259992404152846 6.760278006243268 12.577718846495669 4 -3 2
673 1 2 -1.1794 4.884889519194396 9.806439375919705 12.304900756721517 -5 -1 -5
466 1 2 -1.1794 7.804241230904444 7.82149024763029 19.76786600111834 2 -4 6
454 1 2 -1.1794 5.134730264214522 8.255211521470887 19.36173684027922 0 -2 0
243 1 1 0.5897 6.870326490316914 10.630458405906374 17.17730944896351 0 0 2
187 1 2 -1.1794 8.459563431854658 7.930550036965116 17.029111779550153 -1 4 3
429 1 1 0.5897 7.2320945176081795 11.2920525388229 19.16449352818852 1 1 -5
468 1 1 0.5897 8.151136006647492 7.787818787928684 18.87640672271219 2 -4 6
467 1 1 0.5897 6.897145278725846 8.107988895273479 19.66173242383156 2 -4 6
456 1 1 0.5897 4.884512961532975 7.828440224506418 20.181150888109535 0 -2 0
837 1 1 0.5897 5.30270055911432 6.738167612238442 18.086594214378152 -1 4 -1
274 1 2 -1.1794 8.413994289395314 10.345360976802349 19.95061522789338 -3 2 -3
275 1 1 0.5897 8.291316478764458 9.396620582803582 19.91863112120006 -3 2 -3
276 1 1 0.5897 7.969535786881682 10.61788057896469 20.753334189839542 -3 2 -3
242 1 1 0.5897 7.424236105005609 9.318320043545269 16.66421312271818 0 0 2
241 1 2 -1.1794 6.9131890360543 10.08137047954623 16.39446422534156 0 0 2
189 1 1 0.5897 8.402305837949584 7.190365253653605 16.42494857451603 -1 4 3
427 1 2 -1.1794 6.657993648282359 11.79798370530063 18.589478117235434 1 1 -5
100 1 2 -1.1794 5.484964395461738 14.021802950838616 1.603051166054139 6 -3 0
101 1 1 0.5897 4.857423347765057 13.333842436411992 1.381531048523909 6 -3 0
218 1 1 0.5897 7.620376926754109 13.710664063417166 3.2974603842038412 4 1 -1
9 1 1 0.5897 4.86725521419554 13.78670746033434 5.188569004006715 4 0 1
217 1 2 -1.1794 7.743172591898788 14.500022173511928 3.824745443918106 4 1 -1
8 1 1 0.5897 5.3399128741947495 13.822529013487815 3.750841411763056 4 0 1
102 1 1 0.5897 5.221705643425335 14.768852700623949 1.0656534298352107 6 -3 0
263 1 1 0.5897 7.878509484338922 15.9017607862335 2.398015657243895 1 -3 6
773 1 1 0.5897 6.745882043547978 15.853275539908326 4.507882319541668 -1 -4 5
219 1 1 0.5897 8.152265972423368 14.188164225014308 4.631944008604497 4 1 -1
772 1 2 -1.1794 6.119558059957699 16.42145902544425 4.956270900745497 -1 -4 5
774 1 1 0.5897 5.866152804109661 15.929878494107077 5.737521670073301 -1 -4 5
809 1 1 0.5897 7.041572163769492 13.567853352072719 0.7362535465067477 3 -3 -2
7 1 2 -1.1794 4.835771133512191 13.29339228794222 4.368922050675723 4 0 1
262 1 2 -1.1794 7.779510470303414 16.574419904190925 1.724296964065687 1 -3 6
580 1 2 -1.1794 8.073563220065916 11.872381122288695 3.143185530721398 -2 -5 2
574 1 2 -1.1794 7.277875277923015 13.1762133015023 10.96195455128136 3 0 -1
265 1 2 -1.1794 7.938145900583635 15.115551632784802 8.784983238407092 -2 -1 -1
757 1 2 -1.1794 8.988244102061097 13.89487056818041 6.401523277353211 -2 3 4
829 1 2 -1.1794 5.06136151145611 16.06196854449869 10.12134223535122 5 3 6
244 1 2 -1.1794 5.0336930982074355 14.49642716343875 6.9550667421939165 -1 4 -1
759 1 1 0.5897 8.99408541515312 12.997523092931319 6.734547074173077 -2 3 4
266 1 1 0.5897 7.497061738887289 14.308268412635352 9.049377884979732 -2 -1 -1
62 1 1 0.5897 6.571806664669129 11.983702883690011 9.228597415430345 0 3 3
830 1 1 0.5897 5.264632366162548 16.01389287689556 11.055458502329486 5 3 6
267 1 1 0.5897 8.182855931541768 15.536304495809143 9.609167396973968 -2 -1 -1
61 1 2 -1.1794 6.25962526165448 12.133126438747631 8.33618650344479 0 3 3
833 1 1 0.5897 5.664381321396436 16.710878999475938 8.466493572918498 3 -2 -1
758 1 1 0.5897 8.7648837017817 14.43160070262863 7.161921791899269 -2 3 4
246 1 1 0.5897 5.480814867040611 13.88570587744175 7.5409729179450435 -1 4 -1
435 1 1 0.5897 6.625899469366943 15.080856381916792 13.048253278828046 -3 3 -3
104 1 1 0.5897 7.443401979193685 14.523560425857434 15.9332565656372 -2 0 6
171 1 1 0.5897 7.706065465407504 13.076509814249718 13.766873028160386 -3 4 -3
434 1 1 0.5897 6.689729089335319 16.514893341899274 12.567414889401928 -3 3 -3
139 1 2 -1.1794 5.097727672335136 12.259710230823723 15.505477301221749 -1 -1 -2
169 1 2 -1.1794 7.966326273711933 13.99437838868911 13.844323945078155 -3 4 -3
433 1 2 -1.1794 6.077089589460306 15.797711391940856 12.730235391581266 -3 3 -3
170 1 1 0.5897 8.828673020988727 14.035013079342114 13.430894187258401 -3 4 -3
840 1 1 0.5897 7.989185009736895 16.49294024995661 15.977091268556757 0 -3 -2
860 1 1 0.5897 5.156574044175008 12.540497381622547 13.52002961236147 -2 -2 3
575 1 1 0.5897 6.626589254653083 13.092090984645486 11.658334078943534 3 0 -1
339 1 1 0.5897 4.883418831319754 16.470554974745525 15.168498435350367 -1 -1 2
859 1 2 -1.1794 4.887385780229539 12.519453417982247 12.60172982985777 -2 -2 3
741 1 1 0.5897 8.87002264704217 16.237508110085543 11.915707705142427 -2 0 2
576 1 1 0.5897 7.877829599673499 13.853211752336492 11.274933745901135 3 0 -1
739 1 2 -1.1794 9.044885767925704 15.577623644018768 11.244752046221718 -2 0 2
428 1 1 0.5897 6.749744758588598 12.70110903116452 18.89302224278795 1 1 -5
570 1 1 0.5897 7.079740515503483 15.027668185847524 18.335096635539287 2 -2 0
808 1 2 -1.1794 7.818887134749108 13.363072711403355 21.329867079618584 3 -3 -3
569 1 1 0.5897 6.138976642524787 15.244361467419996 19.501192562060602 2 -2 0
105 1 1 0.5897 8.866823455860546 14.735373173300431 16.40309364068379 -2 0 6
48 1 1 0.5897 5.321523903675628 14.514798059001594 17.801807054908164 2 -4 -1
568 1 2 -1.1794 6.605242346204932 14.559436644463915 19.021957361562123 2 -2 0
810 1 1 0.5897 7.674379705374386 13.80961382435104 20.495670325733034 3 -3 -3
357 1 1 0.5897 9.014533042509257 12.523401437547513 18.793380593161103 1 0 0
214 1 2 -1.1794 5.6732791682875705 16.238446059841493 21.04655239935944 -2 2 1
103 1 2 -1.1794 7.955992581763276 14.886256886025022 16.655661901139098 -2 0 6
215 1 1 0.5897 6.460302449539459 16.50164082688316 21.523514604493112 -2 2 1
819 1 1 0.5897 7.1940611838763315 20.09852685275669 2.5506210113900982 4 -2 2
113 1 1 0.5897 4.951068499093507 19.666761317098388 3.8229434213101725 -2 -4 1
817 1 2 -1.1794 6.8343133381240415 19.48843449754424 1.9067782200939625 4 -1 2
571 1 2 -1.1794 8.365481703747655 21.03637327832223 3.5440402650411333 2 -3 -4