LAMMPS data file via write_data, version 30 Jul 2021, timestep = 34000000

972 atoms
2 atom types
648 bonds
1 bond types
324 angles
1 angle types

-0.06274587236841889 20.062746872337797 xlo xhi
0.04710654864815744 19.952894451335318 ylo yhi
0.018631329331357804 20.681366670659443 zlo zhi

Masses

1 1.008
2 15.999

Pair Coeffs # lj/cut/tip4p/long/omp

1 0 0
2 0.21084 3.1668

Bond Coeffs # harmonic/omp

1 450 0.9572

Angle Coeffs # harmonic/omp

1 55 104.52

Atoms # full

10 4 2 -1.1794 1.281627368980571 3.971677108740255 3.83824084505601 0 0 0
11 4 1 0.5897 1.1022197255816981 3.188057219038021 3.318632697977377 0 0 0
12 4 1 0.5897 2.2362370460654715 4.0409085239730675 3.8462852695193486 0 0 0
33 11 1 0.5897 1.5942793734449319 2.2002922723906 1.4041522853696837 0 0 0
31 11 2 -1.1794 0.9331342551728843 1.9811265177919097 2.0607159684688887 0 0 0
18 6 1 0.5897 4.20656177577396 3.374285699733123 3.0609998717512257 0 0 0
4 2 2 -1.1794 4.184555703805112 1.4593412727045536 3.268970779356479 0 0 0
16 6 2 -1.1794 4.107947988606052 4.25489009868202 3.42299683182194 0 0 0
23 8 1 0.5897 2.5555890089870927 1.0621685195498076 4.340406939857241 0 0 0
5 2 1 0.5897 4.320987074260367 0.8134486257517655 2.5758141093709526 0 0 0
17 6 1 0.5897 4.3083543894811696 4.838861147212085 2.691502651814319 0 0 0
13 5 2 -1.1794 4.788683015008023 5.967548511523354 1.3346057847805735 0 0 0
32 11 1 0.5897 0.09789843716744748 2.163719903879987 1.630351874734542 0 0 0
114 38 1 0.5897 3.335248702859158 7.764885028597759 3.7589428050298954 0 0 0
20 7 1 0.5897 0.8197657807919334 5.2109337701627485 2.6152447809163046 0 0 0
126 42 1 0.5897 4.256078206068838 9.608194696213333 3.316424083809367 0 0 0
111 37 1 0.5897 3.5165180916174505 9.23099755557104 0.31171688037601764 0 0 0
130 44 2 -1.1794 2.103041675466516 7.627216025398648 5.062608273464709 0 0 0
6 2 1 0.5897 4.888594308500887 1.2915406939590373 3.895376494763061 0 0 0
14 5 1 0.5897 4.046510934951308 5.903572333778471 0.733527205117662 0 0 0
139 47 2 -1.1794 0.84081320698703 8.677792279543082 1.9468053535597252 0 0 0
236 79 1 0.5897 1.0992823720868476 0.2084040202469814 2.0259302071866787 0 1 0
141 47 1 0.5897 0.8452494050047682 7.749162970472406 2.178862737004353 0 0 0
112 38 2 -1.1794 4.141231194607998 7.829662993818262 3.2467147232693265 0 0 0
140 47 1 0.5897 0.9992531791787516 9.132615430667382 2.774040590555218 0 0 0
15 5 1 0.5897 4.590609477366229 6.728532200159695 1.880422384517853 0 0 0
19 7 2 -1.1794 0.6986898475633512 5.892343265394756 1.9539868646236107 0 0 0
674 225 1 0.5897 1.787794625629854 5.638068465541168 0.5232608039353488 0 0 1
110 37 1 0.5897 2.0673196586427323 9.122767519797225 0.735750692785022 0 0 0
113 38 1 0.5897 4.843002580660381 7.732015997055282 3.8902939095059414 0 0 0
132 44 1 0.5897 1.147754756803221 7.659445860397146 5.1128703484761635 0 0 0
22 8 2 -1.1794 1.8801460498299587 0.9726160269302324 5.012697584718188 0 0 0
102 34 1 0.5897 0.10425523967282344 0.9078842564972411 4.9733342728969445 1 0 0
325 109 2 -1.1794 2.762020227555871 2.633632169727641 7.1057314848823605 0 0 0
326 109 1 0.5897 2.5266670824373683 2.073084926937709 6.366363330857919 0 0 0
327 109 1 0.5897 3.6962878901446543 2.47444599416045 7.239700579354592 0 0 0
355 119 2 -1.1794 0.9023311390049341 1.971856165578596 9.015805259014208 0 0 0
356 119 1 0.5897 1.5775732830648908 2.254793358856398 8.39919504700967 0 0 0
27 9 1 0.5897 2.462256895996262 4.432886243462897 6.753055164496789 0 0 0
329 110 1 0.5897 4.0743950273669265 0.7227631453060186 9.452090297523174 0 0 0
561 187 1 0.5897 0.6549569994106533 0.25998671338853474 8.7605321820132 0 1 0
341 114 1 0.5897 3.9626116589568996 3.28424017068906 10.28278993276619 0 0 0
342 114 1 0.5897 4.14799051716953 4.726596755147487 9.861985517410531 0 0 0
438 146 1 0.5897 4.114234035952381 8.788640081843294 10.09488065128349 0 0 0
335 112 1 0.5897 1.0417696388010729 3.198101815784336 10.137585241581668 0 0 0
345 115 1 0.5897 0.5325646360069136 6.755346077894127 8.93004984946049 0 0 0
25 9 2 -1.1794 2.49369293744567 5.389406505246335 6.7701306708538525 0 0 0
344 115 1 0.5897 0.5933985621476452 5.308614939701577 9.371804106148373 0 0 0
468 156 1 0.5897 4.454958850756168 9.00329673340102 7.325998758310207 0 0 0
339 113 1 0.5897 4.005002263451553 5.769767765616585 7.764619857692485 0 0 0
437 146 1 0.5897 4.331535422520749 7.3615643186697595 9.63868840229579 0 0 0
463 155 2 -1.1794 0.4908455018514959 8.603823204032103 8.91010034503467 0 0 0
464 155 1 0.5897 1.2804614398536005 8.786733799947333 8.40095004143227 0 0 0
343 115 2 -1.1794 0.4433148257083315 5.859901690454573 8.60379729391736 0 0 0
26 9 1 0.5897 1.8217533145044928 5.640327482129287 7.403966909537432 0 0 0
337 113 2 -1.1794 4.539220009812322 5.912759222567587 8.545909784553475 0 0 0
435 145 1 0.5897 2.3394447007125017 8.721522280974312 6.482137178957813 0 0 0
433 145 2 -1.1794 2.5600553083340882 9.233917479942495 7.259985469993519 0 0 0
328 110 2 -1.1794 4.003703024507041 1.4541332899145436 10.065568546060724 0 0 0
131 44 1 0.5897 2.338728047536705 6.807842123785206 5.497700568168554 0 0 0
443 148 1 0.5897 0.8207025248888732 9.824852965926825 10.185572230962324 0 0 0
24 8 1 0.5897 2.070490015104823 0.13449316992575297 5.434035045276702 0 0 0
357 119 1 0.5897 0.07700764370340005 2.1351504858791945 8.559346633268465 0 0 0
649 217 2 -1.1794 2.5111326570287478 2.72131825410776 13.866696229871236 0 0 0
650 217 1 0.5897 2.318717923886918 2.1370968985383603 13.133258171055756 0 0 0
651 217 1 0.5897 1.8880437908884062 2.465852162003352 14.546936066033624 0 0 0
348 116 1 0.5897 2.4443148035840516 1.0486671888392183 11.151702825581006 0 0 0
346 116 2 -1.1794 1.8823155709032655 0.8588557032688376 11.902949045098314 0 0 0
350 117 1 0.5897 2.4494925302682913 4.4459102651160665 13.773918596417063 0 0 0
347 116 1 0.5897 0.9980067127861714 1.0625974786569368 11.598573314007938 0 0 0
683 228 1 0.5897 4.404594709988604 2.5513786078853635 14.187339237482984 0 0 0
336 112 1 0.5897 2.0664174572892766 4.131224745478751 10.746822836061966 0 0 0
789 263 1 0.5897 1.179216325818684 8.920514370587595 15.2813162038046 0 0 0
334 112 2 -1.1794 1.1230993453721314 4.007445959311746 10.64214786737204 0 0 0
456 152 1 0.5897 2.332976700167614 6.735940123140404 12.617447596944386 0 0 0
454 152 2 -1.1794 2.070543350697152 7.4851486078876714 12.08260575086351 0 0 0
436 146 2 -1.1794 4.092420553365553 7.883266296892346 10.404798342100921 0 0 0
792 264 1 0.5897 4.358534135750267 9.515599837762025 14.411733688425171 0 0 0
349 117 2 -1.1794 2.532448554917265 5.398177616347389 13.82411847910699 0 0 0
757 253 2 -1.1794 2.479640124041691 9.251077149099116 14.101880664218852 0 0 0
759 253 1 0.5897 2.4156531570117825 8.663499807500882 13.348933772680356 0 0 0
351 117 1 0.5897 3.3009958256403142 5.543364120248817 14.375883665950314 0 0 0
455 152 1 0.5897 2.7785015283389383 7.5855371749098435 11.446264054835838 0 0 0
668 223 1 0.5897 1.1622746546061782 5.777686516035999 14.958761636609625 0 0 0
533 178 1 0.5897 0.21992815710062652 7.722156926133568 11.833692823294468 1 0 0
340 114 2 -1.1794 3.800210094382544 4.183077077577348 10.569013825481887 0 0 0
330 110 1 0.5897 4.681150877163726 1.2846420426377434 10.72020997915384 0 0 0
653 218 1 0.5897 3.37016444032187 0.9737644164981359 17.60271784167869 0 0 0
652 218 2 -1.1794 4.186298108887634 1.2091856634341753 17.161511068888572 0 0 0
664 222 2 -1.1794 3.985702792964874 3.931468180706023 17.533093954041156 0 0 0
671 224 1 0.5897 2.21119989612844 1.2023275532688629 19.4118684385018 0 0 0
666 222 1 0.5897 4.05891400385035 3.001710104019491 17.31765932481637 0 0 0
670 224 2 -1.1794 1.9848069852598633 0.5695386909442136 18.730263801920927 0 0 0
665 222 1 0.5897 3.044545088599111 4.085587892850149 17.614372589304352 0 0 0
681 227 1 0.5897 0.7474328877979247 2.8003852140473446 16.500988487188366 0 0 0
672 224 1 0.5897 1.0310836279348428 0.617692276201536 18.665346470922245 0 0 0
658 220 2 -1.1794 1.2683555068570627 4.207176962676252 17.543947796922517 0 0 0
659 220 1 0.5897 0.707712664217909 4.322327637274258 18.31119481731249 0 0 0
654 218 1 0.5897 4.269881977115294 0.5696768317497487 16.454185156766115 0 0 0
679 227 2 -1.1794 0.6028112402716702 2.072667044245567 15.8962072533119 0 0 0
660 220 1 0.5897 0.9500663068079982 4.854499653552012 16.91473123395992 0 0 0
662 221 1 0.5897 4.442669291797029 5.019612721293646 16.23624753106335 0 0 0
858 286 1 0.5897 0.4252040926816358 7.514761743367006 18.630733512975837 1 0 0
663 221 1 0.5897 4.491862460620292 6.514917048461028 16.004947518987606 0 0 0
779 260 1 0.5897 2.3674206928746195 8.200486749263503 19.38579615678352 0 0 0
675 225 1 0.5897 2.361387497613325 6.076764190904071 19.855380854220037 0 0 0
787 263 2 -1.1794 0.668768958600482 8.700425675011115 16.060579230926592 0 0 0
760 254 2 -1.1794 4.384943016122963 7.976794949215997 17.055316671495383 0 0 0
780 260 1 0.5897 2.9737102222946414 7.6949217244412615 18.09397174567951 0 0 0
788 263 1 0.5897 0.8264972023391233 9.426667316450839 16.66385862890001 0 0 0
761 254 1 0.5897 4.367590764531743 8.93279016367061 17.010755378324333 0 0 0
778 260 2 -1.1794 2.265005127359611 7.525656806106261 18.714697694272147 0 0 0
109 37 2 -1.1794 2.6228683078491963 9.348894837443666 20.65250994035334 0 0 -1
669 223 1 0.5897 0.5748424062967866 6.898755349171122 15.789423162536316 0 0 0
884 295 1 0.5897 0.663185417349188 0.3402434709694746 15.693653119134574 0 1 0
2 1 1 0.5897 2.4075952137817365 3.5314804351616957 20.38856847731622 0 0 -1
673 225 2 -1.1794 2.3951801154292234 5.367600319012582 20.497406848865054 0 0 0
667 223 2 -1.1794 0.4811340158676918 5.964208888819436 15.604870642795138 0 0 0
3 1 1 0.5897 3.58542769735526 2.601445027151354 20.587254647659893 0 0 -1
1 1 2 -1.1794 2.6291526932819607 2.6140942769896776 20.54833730747974 0 0 -1
661 221 2 -1.1794 4.580889480833906 5.67575511144143 15.553155813433362 0 0 0
120 40 1 0.5897 1.126159167578425 11.365059348209973 3.2073203684137566 0 0 0
129 43 1 0.5897 0.7425922001955455 13.332737264880656 2.179736650455025 0 0 0
118 40 2 -1.1794 1.3202190414728834 10.671726652557725 3.838101362233023 0 0 0
119 40 1 0.5897 2.276120007195532 10.645315372564673 3.879131810370402 0 0 0
240 80 1 0.5897 2.6620932443792165 14.135643011328451 4.399293338254644 0 0 0
127 43 2 -1.1794 0.6888461491891846 12.419079134600906 1.8994784692801947 0 0 0
123 41 1 0.5897 4.065568256303176 12.296453913319967 0.8347731237025405 0 0 0
222 74 1 0.5897 4.323647989534424 13.960544441005752 2.523755984251845 0 0 0
124 42 2 -1.1794 4.093828622667803 10.547371531393571 3.404893687791346 0 0 0
783 261 1 0.5897 1.9645994161235825 12.246595433923206 0.569307134713845 0 0 1
220 74 2 -1.1794 4.1511937215411825 14.304858582108695 3.400110813484364 0 0 0
219 73 1 0.5897 3.609318417374668 15.716798859731798 0.4544104654625488 0 0 0
121 41 2 -1.1794 4.787716417996916 12.354708409460596 1.4603241268191889 0 0 0
235 79 2 -1.1794 0.9445998113118783 19.179279137739606 1.8909323406008494 0 0 0
122 41 1 0.5897 4.5769815883420195 11.705449683636086 2.131376690286663 0 0 0
234 78 1 0.5897 3.129004711443288 17.148664710233284 3.776382963229907 0 0 0
221 74 1 0.5897 4.15016363700219 15.25551805154838 3.2885186286980304 0 0 0
890 297 1 0.5897 1.9858517375434035 18.814594206234744 0.5358618361283064 0 0 1
249 83 1 0.5897 1.4300300848500866 15.373540597227562 1.5619284890767131 0 0 0
229 77 2 -1.1794 4.4533156283714295 19.029831340646318 1.8249592470860172 0 0 0
230 77 1 0.5897 4.0009568005935945 18.944947520995413 0.9856559485826555 0 0 0
247 83 2 -1.1794 0.7875928669115801 15.141638759233874 2.232543169703378 0 0 0
248 83 1 0.5897 0.9461773766982624 15.76401020212877 2.9423069189681654 0 0 0
226 76 2 -1.1794 1.4054069877874307 17.308193664215317 3.7361894732594463 0 0 0
228 76 1 0.5897 0.6905852658766235 17.486311938094836 4.347349153144563 0 0 0
232 78 2 -1.1794 4.066211074351154 17.053902535766078 3.606676533670633 0 0 0
233 78 1 0.5897 4.241181095452447 17.65586050294963 2.8832887834186836 0 0 0
227 76 1 0.5897 1.3642127092846195 18.0250168758499 3.1031613741752486 0 0 0
125 42 1 0.5897 4.637128899847949 10.816036659397547 4.145762828999404 0 0 0
238 80 2 -1.1794 1.9134682096774216 14.111555608285789 4.995267246744478 0 0 0
237 79 1 0.5897 0.02718342951847319 19.123960114231167 1.6236628266619306 0 0 0
317 106 1 0.5897 0.18223165163677635 13.823366163748174 4.820607196229673 1 0 0
217 73 2 -1.1794 2.6856559598460032 15.842425155055768 0.23713812411074287 0 0 0
133 45 2 -1.1794 2.1322563187557035 11.942029965508405 6.77104696705326 0 0 0
134 45 1 0.5897 1.4772244279530609 12.279280637812409 7.382122875520576 0 0 0
135 45 1 0.5897 2.9688586654790576 12.083088231204744 7.214185490935321 0 0 0
453 151 1 0.5897 0.6124116022594799 12.143452433763722 9.605835706560583 0 0 0
451 151 2 -1.1794 0.3994197219249553 12.728955966003463 8.879146571985519 0 0 0
450 150 1 0.5897 4.136853317372445 11.304787740501165 9.756691118963001 0 0 0
446 149 1 0.5897 4.135931035797871 13.159548833536785 8.863783722857038 0 0 0
573 191 1 0.5897 0.6835682762644373 14.566424955621466 9.09243014483049 0 0 0
445 149 2 -1.1794 4.363440109478566 12.425285171885236 8.29340846360307 0 0 0
239 80 1 0.5897 2.024284798371745 13.297877108686396 5.487085367151443 0 0 0
551 184 1 0.5897 0.8081186829781425 18.092089580669928 10.02378638428522 0 0 0
555 185 1 0.5897 4.120224030904495 18.996087334964244 7.893754926264035 0 0 0
571 191 2 -1.1794 0.821684929477417 15.473068608156003 8.818304089435374 0 0 0
241 81 2 -1.1794 2.6434449676470453 18.873465622303556 6.833258036788379 0 0 0
558 186 1 0.5897 4.053772295138136 17.9055341327333 9.976047708760749 0 0 0
542 181 1 0.5897 2.240151041158595 15.827255404796619 7.542847894561079 0 0 0
543 181 1 0.5897 2.5256878090054604 15.445431585994516 6.105927781424107 0 0 0
541 181 2 -1.1794 2.859048160294712 15.977691264732305 6.828306045396464 0 0 0
576 192 1 0.5897 4.635327900648811 15.746072194254563 7.136113499304566 0 0 0
559 187 2 -1.1794 0.4688331404257827 19.2305569206493 8.67721899427607 0 0 0
242 81 1 0.5897 2.7080485706089434 17.938274213354696 6.639701011647896 0 0 0
243 81 1 0.5897 1.905086378124219 18.94284772041219 7.438417613163044 0 0 0
572 191 1 0.5897 0.8859963910457477 15.96425917194571 9.637377782652255 0 0 0
553 185 2 -1.1794 4.625511755535174 19.01044037198256 8.706615595741605 0 0 0
544 182 2 -1.1794 4.009462972706526 14.600132130757116 10.120863909146662 0 0 0
434 145 1 0.5897 2.4056357721594863 10.142293888231796 7.000701830056093 0 0 0
557 186 1 0.5897 3.9286913975160593 16.436252620892233 10.318738439350584 0 0 0
457 153 2 -1.1794 2.434511907999486 11.900744495594815 13.574842874173772 0 0 0
458 153 1 0.5897 1.8831572676925035 12.240723918054181 14.279577934846087 0 0 0
459 153 1 0.5897 3.328070399348647 12.10857682735856 13.847803638270145 0 0 0
562 188 2 -1.1794 1.9026640933859178 13.918741940571653 11.629967773832373 0 0 0
563 188 1 0.5897 2.0037590768903115 13.207514701744854 12.26257454088318 0 0 0
449 150 1 0.5897 4.518643545548495 11.021403903056617 11.194025099228 0 0 0
545 182 1 0.5897 3.272675419575226 14.253988930445999 10.624373499928526 0 0 0
769 257 2 -1.1794 4.639427137401348 12.567484245066565 15.274318781691012 0 0 0
567 189 1 0.5897 2.222271030150629 19.082782621516415 12.915709624088706 0 0 0
444 148 1 0.5897 1.9728216233695548 10.684161190914711 10.660941458523254 0 0 0
564 188 1 0.5897 1.9797409090756752 14.717187866275907 12.152259207292015 0 0 0
550 184 2 -1.1794 0.9953067844242844 17.481691396411506 10.736976951290123 0 0 0
642 214 1 0.5897 0.10967252463573826 14.128576817257697 11.881255436952943 1 0 0
556 186 2 -1.1794 3.728478639836041 17.310942442790413 10.651991940413575 0 0 0
442 148 2 -1.1794 1.0168212234899396 10.638543375742247 10.649987197007832 0 0 0
866 289 1 0.5897 3.439187430923178 15.649283155631327 13.954519744880026 0 0 0
867 289 1 0.5897 2.057175743558886 15.696415097606826 14.570599927833554 0 0 0
885 295 1 0.5897 0.9841357790843175 19.03592484218479 14.842445688423647 0 0 0
566 189 1 0.5897 2.417896200646775 17.700643975991383 13.501631157226438 0 0 0
865 289 2 -1.1794 2.52059316897977 15.813068842079593 13.741198829567482 0 0 0
879 293 1 0.5897 3.789957023571814 18.947416330826726 14.833565045093316 0 0 0
552 184 1 0.5897 1.9492249496416036 17.489319280782517 10.815210116495898 0 0 0
565 189 2 -1.1794 2.406917441049879 18.62822090211958 13.737635451382863 0 0 0
758 253 1 0.5897 2.3787106666777134 10.12783823073771 13.731305197167385 0 0 0
877 293 2 -1.1794 4.51505435354969 19.048245573088487 15.450226180222067 0 0 0
896 299 1 0.5897 -0.029262514476517225 15.695785861534064 15.415699917655509 0 0 0
546 182 1 0.5897 4.776345245407372 14.424018883318853 10.66590790791071 0 0 0
448 150 2 -1.1794 3.90136620925634 10.762780001267036 10.509702934671388 0 0 0
768 256 1 0.5897 1.166957542208987 11.541150883765825 16.937185183318718 0 0 0
888 296 1 0.5897 2.5465682986135065 13.398491081505078 19.16778957247987 0 0 0
766 256 2 -1.1794 1.3950809964582958 10.845057224777873 17.553353391045988 0 0 0
773 258 1 0.5897 3.1517416226301163 10.779581661599753 17.287738475760662 0 0 0
886 296 2 -1.1794 2.1959319252930753 14.192732095354282 18.76473425682925 0 0 0
774 258 1 0.5897 4.330229754252268 11.352507100867419 16.529638439878674 0 0 0
772 258 2 -1.1794 4.10206225479341 10.707630256036524 17.199213133876675 0 0 0
869 290 1 0.5897 3.3326547968325064 14.40427859337532 17.604549556792804 0 0 0
767 256 1 0.5897 0.7414125325485131 10.916478255220921 18.248944733921064 0 0 0
868 290 2 -1.1794 4.100814462659512 14.594868802016553 17.06622279879356 0 0 0
965 322 1 0.5897 0.49612721615088606 14.1821535632277 18.866542133302865 1 0 0
870 290 1 0.5897 4.844800220997713 14.456924527617845 17.652449240650235 0 0 0
781 261 2 -1.1794 2.618054870043702 12.099868003101943 20.548161848741948 0 0 0
771 257 1 0.5897 4.3957747324431535 13.271269743622744 15.8756238446804 0 0 0
895 299 2 -1.1794 0.8222492958728866 15.499186940478708 15.806143927497162 0 0 0
887 296 1 0.5897 2.294807059546593 14.866792667926452 19.437134344401755 0 0 0
878 293 1 0.5897 4.338338956496575 18.404152218511868 16.13591588578084 0 0 0
876 292 1 0.5897 1.0396163285073563 18.150668023524233 16.974816069410984 0 0 0
881 294 1 0.5897 3.1736526719972593 17.370503949200476 17.777755603157118 0 0 0
882 294 1 0.5897 4.241298023675375 16.364918596826385 17.402647738957597 0 0 0
897 299 1 0.5897 0.9217281686829379 16.14700646788934 16.503779719313428 0 0 0
874 292 2 -1.1794 1.3232016165488873 17.542445553365496 17.65738663913738 0 0 0
875 292 1 0.5897 0.6202411194131687 17.565526416608407 18.306641085478297 0 0 0
891 297 1 0.5897 2.4368006987653628 19.103385062956313 19.78253993898776 0 0 0
880 294 2 -1.1794 4.114594675537741 17.28771970487766 17.62310563175882 0 0 0
889 297 2 -1.1794 2.6339762845028156 18.556695950652994 20.5431278296858 0 0 0
782 261 1 0.5897 2.651245464890616 11.148504168062344 20.448095569772597 0 0 0
218 73 1 0.5897 2.620848417702087 16.76450270683366 20.651289685936796 0 0 -1
777 259 1 0.5897 0.8136076083686095 13.699292368064393 15.768327831944854 0 0 0
775 259 2 -1.1794 0.69709179473833 12.756172337586209 15.653610427823782 0 0 0
883 295 2 -1.1794 0.5138749185254807 19.302543594955445 15.632401047073165 0 0 0
69 23 1 0.5897 6.644993174033552 2.201306793987049 1.5826437414991805 0 0 0
47 16 1 0.5897 7.6701373387854 3.3981749087144526 3.107082940702857 0 0 0
53 18 1 0.5897 9.796913253576655 4.165771975711249 3.830883680917669 0 0 0
34 12 2 -1.1794 5.419664100999493 2.550791641371388 0.324117522740295 0 0 0
142 48 2 -1.1794 5.371824326510112 9.11151417159134 0.3721491536884404 0 0 0
46 16 2 -1.1794 7.959464333241582 4.161309063868794 3.607232863171078 0 0 0
67 23 2 -1.1794 7.422101838947556 1.987597312726369 2.0989938635356293 0 0 0
48 16 1 0.5897 7.283272327036952 4.281826206650132 4.2739075389725 0 0 0
68 23 1 0.5897 8.156490310739603 2.1599789457241654 1.509791704633279 0 0 0
166 56 2 -1.1794 8.82771821877116 7.612578578136138 4.875124158493532 0 0 0
273 91 1 0.5897 7.246469416276571 0.14739678548049628 2.1654050913475773 0 1 0
176 59 1 0.5897 7.694779456144435 7.936784677830353 2.015904031979154 0 0 0
177 59 1 0.5897 8.218802452051387 9.188635598463545 1.3449797325869923 0 0 0
58 20 2 -1.1794 8.833281433039273 0.623169341943253 4.969041458926698 0 0 0
143 48 1 0.5897 6.064759227892365 9.003829933801136 1.0236566679158596 0 0 0
57 19 1 0.5897 7.738166417160926 5.518008215256391 2.3266786191440816 0 0 0
175 59 2 -1.1794 7.5878517293214385 8.887833973822698 1.9989201258937128 0 0 0
711 237 1 0.5897 8.685333302859625 5.620519919738155 0.3380562766288187 0 0 1
56 19 1 0.5897 6.639439074858649 5.907490291280556 1.3607924797353552 0 0 0
55 19 2 -1.1794 7.557720361231474 6.077051919016823 1.570915514617282 0 0 0
29 10 1 0.5897 7.05842678205192 0.7752809077007994 4.901510788905153 0 0 0
9 3 1 0.5897 5.10572264401663 4.601490438620647 4.853810855015011 0 0 0
138 46 1 0.5897 6.976024435763422 7.599395581505059 4.9180323075015595 0 0 0
28 10 2 -1.1794 6.110270631907538 0.6940723573062293 5.004157721199249 0 0 0
136 46 2 -1.1794 6.056191618922055 7.440140108123293 5.1294400738948145 0 0 0
37 13 2 -1.1794 9.231614786043187 2.618650833821525 0.09355142164680785 0 0 0
145 49 2 -1.1794 9.576854802534553 9.40045437337106 0.07572317402195239 0 0 0
8 3 1 0.5897 5.82771464604934 4.022486430203658 6.051910457116131 0 0 0
362 121 1 0.5897 9.356937966258732 3.4846648408232133 6.5575993554161975 0 0 0
392 131 1 0.5897 8.252215634605932 2.452256166782389 8.120696213158935 0 0 0
7 3 2 -1.1794 5.866444340504823 4.738907168801696 5.418272498717482 0 0 0
358 120 2 -1.1794 5.5731878931604815 2.453344595246559 7.09216724015622 0 0 0
393 131 1 0.5897 7.658630593012508 1.3048694473822267 8.910032465147019 0 0 0
59 20 1 0.5897 9.078163251540884 1.321766107204551 5.575872929856928 0 0 0
360 120 1 0.5897 5.772934627855681 1.7811601800308785 6.440609315646206 0 0 0
391 131 2 -1.1794 7.678883399563975 2.260685482071015 8.862878975529041 0 0 0
361 121 2 -1.1794 9.406530327751634 2.556765402662472 6.787276815544834 0 0 0
359 120 1 0.5897 6.125571920627752 2.232448062514642 7.842051076532238 0 0 0
470 157 1 0.5897 8.656323955140728 9.016926496463483 7.805013145084321 0 0 0
137 46 1 0.5897 6.016057457361042 6.506891100189966 5.338372564458529 0 0 0
168 56 1 0.5897 8.891260442385013 8.228695700529629 5.6049402564115605 0 0 0
499 167 2 -1.1794 7.526845323036778 8.57135801524025 9.08862514659019 0 0 0
62 21 1 0.5897 8.484071622076675 5.417936268610963 7.182756394318639 0 0 0
469 157 2 -1.1794 9.11715000104329 9.298617122879824 7.014728536745307 0 0 0
61 21 2 -1.1794 9.190896273936994 5.230409880149497 6.565143110928662 0 0 0
381 127 1 0.5897 7.533937097799902 5.243669274832789 9.258143307759653 0 0 0
501 167 1 0.5897 6.682440468396382 8.804065092645699 8.702622130415907 0 0 0
466 156 2 -1.1794 5.41066193466531 9.013938922207833 7.274585374788908 0 0 0
380 127 1 0.5897 7.519555846729081 6.680182884210078 8.780545104609898 0 0 0
338 113 1 0.5897 5.4419865400465675 5.8548472266240665 8.23315887722066 0 0 0
379 127 2 -1.1794 7.311939400716312 5.788032456761438 8.502725015457699 0 0 0
500 167 1 0.5897 7.736822545895638 9.304885488927598 9.666629782470123 0 0 0
467 156 1 0.5897 5.61751657484654 8.443808007440596 6.534031504346837 0 0 0
63 21 1 0.5897 9.98598211990998 5.51147911130289 7.017928917966491 0 0 0
167 56 1 0.5897 9.004664850899099 6.757375100563172 5.266970641994485 0 0 0
371 124 1 0.5897 7.75517834618876 3.4652404728154105 10.215041818212875 0 0 0
331 111 2 -1.1794 5.798343454219232 4.718682377186697 12.483001132144121 0 0 0
372 124 1 0.5897 7.224574825491244 4.236651227736777 11.404733825490256 0 0 0
682 228 2 -1.1794 5.353960808904928 2.5289556676097513 14.067586609574027 0 0 0
491 164 1 0.5897 9.076939677443445 7.622931554442281 11.402256996587727 0 0 0
382 128 2 -1.1794 8.669788654199975 0.8565574652448734 12.109589008718595 0 0 0
684 228 1 0.5897 5.5616894477846595 3.3600880352034626 13.640646381036149 0 0 0
794 265 1 0.5897 9.033124492333954 8.710275157374147 13.426523408359998 0 0 0
354 118 1 0.5897 5.7133086585329504 1.432740568556741 12.736742293785916 0 0 0
384 128 1 0.5897 9.397530433435117 0.9286190921236085 11.492010273251955 0 0 0
353 118 1 0.5897 6.878674172269116 0.9071812840943808 11.925873676951372 0 0 0
686 229 1 0.5897 8.780766608932597 2.468243453335036 14.826049776563908 0 0 0
386 129 1 0.5897 9.029648718215885 4.608463106142916 13.940434244140725 0 0 0
383 128 1 0.5897 8.823653532394603 1.5561129266867306 12.744566241522564 0 0 0
352 118 2 -1.1794 5.927952522004509 0.8416238765829267 12.01509398957401 0 0 0
685 229 2 -1.1794 9.214790264933791 2.742161976135216 14.018054662856251 0 0 0
332 111 1 0.5897 5.015045559716292 4.591392392279773 11.947813131988195 0 0 0
461 154 1 0.5897 5.666825522433575 8.247078812195786 13.082490243796604 0 0 0
790 264 2 -1.1794 5.296123044068287 9.53003084509132 14.219779562549451 0 0 0
791 264 1 0.5897 5.711134570534001 9.228084879109305 15.027772876154229 0 0 0
387 129 1 0.5897 9.052832513545765 6.036668345825496 13.438875094112355 0 0 0
333 111 1 0.5897 5.9098307270130155 5.66851033693039 12.523114951084402 0 0 0
705 235 1 0.5897 7.762424070596523 5.922258533104943 15.496691277749523 0 0 0
793 265 2 -1.1794 9.112940958637267 9.150316773640805 14.272857255607397 0 0 0
460 154 2 -1.1794 5.906464638932454 7.5841636722936965 12.434901030605706 0 0 0
462 154 1 0.5897 5.293163263651694 7.721182146050637 11.712875345310193 0 0 0
492 164 1 0.5897 7.749702354207274 7.4860026637049835 12.117405621017367 0 0 0
490 164 2 -1.1794 8.693693748350565 7.401187863120525 12.250913932121586 0 0 0
385 129 2 -1.1794 9.065089389242555 5.516178972207127 14.242130297554601 0 0 0
370 124 2 -1.1794 7.962900667257651 4.196362776335524 10.79690091524585 0 0 0
377 126 1 0.5897 9.739476943899373 4.076744342617816 10.473973336145427 0 0 0
717 239 1 0.5897 6.603322232953774 2.2454547896169044 15.341898266066929 0 0 0
824 275 1 0.5897 7.851669660646043 8.800434065354118 15.470910938578387 0 0 0
710 237 1 0.5897 9.3043227350916 4.469753249579347 20.236282537350903 0 0 0
815 272 1 0.5897 8.975098195327028 6.719109553276937 19.079617552014838 0 0 0
695 232 1 0.5897 7.790622113802071 3.294875022481336 17.252999497869162 0 0 0
708 236 1 0.5897 7.864531299524068 0.8762738268364645 18.513606697641336 0 0 0
715 239 2 -1.1794 7.295464609197224 2.1123251557311185 15.989532998971455 0 0 0
677 226 1 0.5897 5.426204901560305 0.9665849218637032 18.336011252066484 0 0 0
655 219 2 -1.1794 6.004383908325214 4.677173281013977 19.29857250782883 0 0 0
657 219 1 0.5897 6.77601029242668 4.343469704220195 18.840945871177126 0 0 0
706 236 2 -1.1794 8.816861818377996 0.8803526984319611 18.609403980403087 0 0 0
716 239 1 0.5897 7.28725241640474 1.1703592025674678 16.159391551618953 0 0 0
676 226 2 -1.1794 6.11682503900103 0.8429826303124758 18.987152726492567 0 0 0
694 232 2 -1.1794 8.147474954126936 4.01381242804399 17.774545921397532 0 0 0
38 13 1 0.5897 9.039205100934177 2.122221081761313 19.960791030914677 0 0 -1
785 262 1 0.5897 6.077618300267349 6.466051473492239 19.257599534139807 0 0 0
144 48 1 0.5897 5.505045112607704 8.389151054799793 20.421137800416666 0 0 -1
696 232 1 0.5897 7.84501712336563 4.805811765760184 17.33015858559704 0 0 0
703 235 2 -1.1794 7.172218286336036 6.043015436314532 16.240543980908335 0 0 0
823 275 2 -1.1794 7.166367719797225 8.698344354869702 16.131330796466003 0 0 0
35 12 1 0.5897 5.737868465711591 1.9228887374281358 20.33821234906344 0 0 -1
702 234 1 0.5897 9.903956118074916 4.1612304533404165 17.700944759686422 0 0 0
784 262 2 -1.1794 6.16702291000893 7.397926164293903 19.058008791055762 0 0 0
825 275 1 0.5897 7.171437889348028 7.764211311895122 16.340014921681515 0 0 0
786 262 1 0.5897 7.106770033411978 7.526841454199775 18.929958262207897 0 0 0
816 272 1 0.5897 9.056840295991622 8.209935105792628 19.329779521163452 0 0 0
814 272 2 -1.1794 8.86204922279729 7.566265052054467 18.6486115042485 0 0 0
704 235 1 0.5897 6.322546438116737 5.735329131512414 15.92505165126986 0 0 0
762 254 1 0.5897 5.020598798453417 7.780122276580241 17.743420801483737 0 0 0
709 237 2 -1.1794 9.355748065207408 5.419012039184593 20.34798248892926 0 0 0
707 236 1 0.5897 8.995876362422807 0.1981435012068431 19.256541626668565 0 0 0
656 219 1 0.5897 5.268961967892081 4.438742637407736 18.734206501251506 0 0 0
36 12 1 0.5897 5.647684344968488 3.406781874550681 20.624204237064987 0 0 -1
275 92 1 0.5897 7.8839607536609275 13.795763562845993 5.0713070206525765 0 0 0
276 92 1 0.5897 9.238360628316574 14.245938041810783 4.566660138822287 0 0 0
285 95 1 0.5897 7.630411970070415 14.379356782591408 2.0797789774042164 0 0 0
819 273 1 0.5897 8.507319649428174 12.314591972556132 0.4067181048361241 0 0 1
163 55 2 -1.1794 7.446376149234793 12.566262251797538 1.8414837201957381 0 0 0
156 52 1 0.5897 8.922537218447875 11.062464538603713 3.909791352578773 0 0 0
154 52 2 -1.1794 7.992623420851265 10.842161444167548 3.963314369293676 0 0 0
165 55 1 0.5897 7.493147715094285 11.942049399027805 2.5656660552915556 0 0 0
164 55 1 0.5897 6.529153176469812 12.548802409898025 1.5684518446201334 0 0 0
250 84 2 -1.1794 5.461093534587335 15.71617006618499 0.41417325596594684 0 0 0
927 309 1 0.5897 8.416139053667846 18.97979554601517 0.5982849538391155 0 0 1
262 88 2 -1.1794 7.953230539844119 17.276212563863893 3.8302012864550483 0 0 0
264 88 1 0.5897 8.878917000811704 17.445925817674016 4.004670278254434 0 0 0
254 85 1 0.5897 9.02614786525537 15.888245729839703 0.7836880562147599 0 0 0
263 88 1 0.5897 7.514484744508459 17.462792804287382 4.660231732538573 0 0 0
283 95 2 -1.1794 7.665784214121991 15.303934445824666 1.8345690002674013 0 0 0
251 84 1 0.5897 6.22341041875073 15.588942689224037 0.9788705819933201 0 0 0
231 77 1 0.5897 5.3817401636384865 19.06399636939952 1.5947319789770862 0 0 0
284 95 1 0.5897 7.679128788875498 15.77310644047365 2.6688271955211844 0 0 0