LAMMPS (30 Jul 2021)
Processor partition = 0
  using 2 OpenMP thread(s) per MPI task
using multi-threaded neighbor list subroutines
variable        pid world 0 1
variable        phase world IceII IceIh

shell cd ${phase}
shell cd IceII
include Restart.lmp
echo both
log log.lammps
#include		in.partitions
include		in.temp
variable        temperature equal 150.10
variable	tempDamp equal 100.0
include		in.pressure
variable        pressure equal 2068.4
variable        pressureDamp equal 1000.0 # This is 1 ps
include		in.seed
variable        seed equal 745823

units		real
atom_style	full
box tilt large
read_restart	restart.lmp.${pid}
read_restart	restart.lmp.0
Reading restart file ...
  restart file = 30 Jul 2021, LAMMPS = 30 Jul 2021
  restoring atom style full from restart
  triclinic box = (-10.633577 -9.2360052 0.095740961) to (12.613577 12.226003 21.764258) with tilt (-8.9623989 2.1956332 2.7610955)
  2 by 4 by 4 MPI processor grid
  restoring pair style lj/cut/tip4p/long/omp from restart
  restoring bond style harmonic/omp from restart
  restoring angle style harmonic/omp from restart
  1296 atoms
  864 bonds
  432 angles
Finding 1-2 1-3 1-4 neighbors ...
  special bond factors lj:    0        0        0       
  special bond factors coul:  0        0        0       
     2 = max # of 1-2 neighbors
     1 = max # of 1-3 neighbors
     1 = max # of 1-4 neighbors
     2 = max # of special neighbors
  special bonds CPU = 0.002 seconds
  read_restart CPU = 0.008 seconds
include 	in.setup
variable	out_freq equal 1000
variable	out_freq2 equal 10000
variable	out_freq3 equal 1000

timestep	2.0

neigh_modify    delay 7 every 1

include		in.tip4p
# This is TIP4P/Ice

# create groups ###
group ox type 2
432 atoms in group ox
group hy type 1
864 atoms in group hy

# set charges - beside manually ###
set group ox charge -1.1794
Setting atom values ...
  432 settings made for charge
set group hy charge 0.5897
Setting atom values ...
  864 settings made for charge

# ### TIP3P Potential Parameters ###
pair_style lj/cut/tip4p/long/omp 2 1 1 1 0.1577 8.5
pair_coeff 1 1*2 0.000 0.000
pair_coeff 2 2 0.21084 3.1668
bond_style  harmonic
bond_coeff  1 450 0.9572
angle_style harmonic
angle_coeff 1 55 104.52
kspace_style pppm/tip4p/omp 1.0e-5
pair_modify tail yes

thermo          ${out_freq}
thermo          1000
thermo_style    custom step temp pe etotal epair emol press lx ly lz vol pxx pyy pzz pxy pxz pyz enthalpy

restart 	${out_freq3} restart.lmp.${pid} restart2.lmp.${pid}
restart 	1000 restart.lmp.${pid} restart2.lmp.${pid}
restart 	1000 restart.lmp.0 restart2.lmp.${pid}
restart 	1000 restart.lmp.0 restart2.lmp.0


include         in.dump
dump            myDump all atom ${out_freq2} dump.water.${pid}
dump            myDump all atom 10000 dump.water.${pid}
dump            myDump all atom 10000 dump.water.0
dump            myDump2 all dcd ${out_freq2} dump.dcd
dump            myDump2 all dcd 10000 dump.dcd
dump_modify     myDump append yes
dump_modify     myDump2 append yes


variable natoms 	equal  "count(all)"                        # NUMBER ATOMS
variable H      	equal  "enthalpy/v_natoms"                 # ENTHALPY-per-atom
variable Vol      	equal  "vol/v_natoms"                 # volume-per-atom
fix AVG all 		ave/time ${out_freq} 1 ${out_freq} v_Vol v_H file vol_enthalpy.dat
fix AVG all 		ave/time 1000 1 ${out_freq} v_Vol v_H file vol_enthalpy.dat
fix AVG all 		ave/time 1000 1 1000 v_Vol v_H file vol_enthalpy.dat


timer           timeout 10:00:00 every 1000
New timer settings: style=normal  mode=nosync  timeout=10:00:00

fix 		1 all shake 1e-6 200 0 b 1 a 1
Finding SHAKE clusters ...
       0 = # of size 2 clusters
       0 = # of size 3 clusters
       0 = # of size 4 clusters
     432 = # of frozen angles
  find clusters CPU = 0.007 seconds
fix             2 all nph tri ${pressure} ${pressure} ${pressureDamp}
fix             2 all nph tri 2068.4 ${pressure} ${pressureDamp}
fix             2 all nph tri 2068.4 2068.4 ${pressureDamp}
fix             2 all nph tri 2068.4 2068.4 1000
fix             3 all temp/csvr ${temperature} ${temperature} ${tempDamp} ${seed}
fix             3 all temp/csvr 150.1 ${temperature} ${tempDamp} ${seed}
fix             3 all temp/csvr 150.1 150.1 ${tempDamp} ${seed}
fix             3 all temp/csvr 150.1 150.1 100 ${seed}
fix             3 all temp/csvr 150.1 150.1 100 745823


run             250000
PPPM initialization ...
  extracting TIP4P info from pair style
  using 12-bit tables for long-range coulomb (../kspace.cpp:340)
  G vector (1/distance) = 0.36716188
  grid = 30 40 32
  stencil order = 5
  estimated absolute RMS force accuracy = 0.0045677183
  estimated relative force accuracy = 1.3755548e-05
  using double precision FFTW3
  3d grid and FFT values/proc = 7752 1200
Last active /omp style is kspace_style pppm/tip4p/omp
Neighbor list info ...
  update every 1 steps, delay 7 steps, check yes
  max neighbors/atom: 2000, page size: 100000
  master list distance cutoff = 10.8154
  ghost atom cutoff = 10.8154
  binsize = 5.4077, bins = 7 5 5
  1 neighbor lists, perpetual/occasional/extra = 1 0 0
  (1) pair lj/cut/tip4p/long/omp, perpetual
      attributes: half, newton on, omp
      pair build: half/bin/newton/tri/omp
      stencil: half/bin/3d/tri
      bin: standard
Setting up Verlet run ...
  Unit style    : real
  Current step  : 18000000
  Time step     : 2
  Walltime left : 9:59:59.91
Per MPI rank memory allocation (min/avg/max) = 10.64 | 10.65 | 10.65 Mbytes
Step Temp PotEng TotEng E_pair E_mol Press Lx Ly Lz Volume Pxx Pyy Pzz Pxy Pxz Pyz Enthalpy 
18000000    158.78491   -6592.0685    -6183.604   -6592.0685            0    3304.8881    23.247154    21.462008    21.668517    10811.087    3443.0089    3275.2199    3196.4356     12.59345   -457.33948   -223.13687   -5662.5269 
18001000    152.58796   -6621.8741   -6229.3508   -6621.8741            0    2957.9096    23.331657    21.427012    21.679072    10837.969    2596.2753    3190.3913    3087.0623    241.96657    767.23681   -394.31457   -5761.8217 
18002000    150.60076   -6612.6537   -6225.2425   -6612.6537            0    2747.9056    23.327858    21.381272    21.732157    10839.549    3355.4057    2878.5926    2009.7185    -1479.828   -754.43896   -426.12805   -5790.8434 
18003000    146.06828   -6605.9567    -6230.205   -6605.9567            0    1413.1078    23.362799    21.337453    21.894118    10914.275    2019.3057    1483.8234    736.19442    325.07924   -292.53634   -465.47883   -6005.2757 
18004000    145.98262    -6629.414   -6253.8826    -6629.414            0    1041.2436    23.227844    21.427678    21.925539    10912.752    2261.1578    397.31093    465.26215   -139.78362   -130.62934    554.99021   -6088.1673 
18005000    153.44675   -6629.0909   -6234.3585   -6629.0909            0    1892.7684    23.298726    21.630545    21.561516     10866.23    2172.2766    500.02933    3005.9993    418.57067   -8.2949274     546.3571   -5934.4062 
18006000    156.21828   -6620.1022   -6218.2402   -6620.1022            0    1850.3483    23.320258    21.518771    21.621103    10849.973    526.38108    2293.6018     2731.062    511.10832   -587.90354    1532.0108    -5925.449 
18007000     148.6534   -6622.1719   -6239.7701   -6622.1719            0    1049.4387    23.379659    21.372733     21.79378    10890.073    817.80282    1999.0126    331.50074    244.28284    190.54298   -317.36137   -6073.0977 
18008000    143.54839   -6590.0949   -6220.8254   -6590.0949            0    1727.0557     23.40638    21.184793    22.025278    10921.439    1589.5228    3228.3869    363.25737   -1342.0868   -239.50527     255.1238   -5945.7435 
18009000    160.37503   -6616.7329   -6204.1779   -6616.7329            0    1279.1343    23.412198    21.385682    21.824705    10927.321    797.83296    2728.5727    310.99725    -759.4766    694.65752   -1272.5181   -6000.3302 
18010000    151.01523   -6606.9774   -6218.4999   -6606.9774            0    3029.9837    23.284114    21.463999    21.691308     10840.67    3943.1949    1977.7833    3168.9728   -161.26857    -54.97821    1489.5234   -5739.4594 
18011000    151.86955   -6620.7707   -6230.0955   -6620.7707            0    3571.8582     23.21433    21.544758    21.580306    10793.328    3572.1788    3473.6941    3669.7017    374.57475   -790.14311    221.77533   -5667.8507 
18012000    154.29123   -6601.6636   -6204.7588   -6601.6636            0    2280.9765    23.166385    21.460862    21.868761    10872.505    3716.5254    1394.7447    1731.6593     767.0445   -1160.1535     15.17375   -5843.0773 
18013000    150.67217   -6602.4738   -6214.8788   -6602.4738            0    775.75118     23.45387      21.4154    21.788895    10943.996    31.203142    1447.2898    848.76062    303.35137    400.92383   -468.60262   -6091.0635 
18014000    147.55291    -6628.056   -6248.4852    -6628.056            0    1863.2122    23.564238    21.245376    21.705748    10866.572    77.394675    3055.7804    2456.4614   -380.82809    1236.4904   -695.70441   -5953.2074 
18015000    151.65665   -6615.8281   -6225.7007   -6615.8281            0    3851.0416    23.448812     21.25661    21.636061    10784.327    3298.9303    4578.0429    3676.1515     74.36507    50.395544    49.484125   -5620.0152 
18016000    152.70692    -6626.036   -6233.2068    -6626.036            0    3183.7631    23.251667    21.371705    21.783504    10824.828     2971.589    3952.6435    2627.0568   -546.74872    492.80189   -502.36033   -5730.5892 
18017000    153.05372   -6622.2439   -6228.5225   -6622.2439            0    1796.6136    23.206943    21.446285    21.855958     10877.77    2693.7588    1720.8306    975.25149    189.99788    192.22902    38.613717   -5943.5057 
18018000     148.3301   -6626.0784   -6244.5082   -6626.0784            0    2482.7297    23.122951    21.581202    21.772396    10864.884    3647.8868     2043.354    1756.9482     987.6895   -355.37481   -285.38182   -5851.1118 
18019000    152.38367    -6623.095   -6231.0972    -6623.095            0     2626.302    23.326551    21.496648    21.588582    10825.436    2287.0336    2853.1758    2738.6966    703.81176    302.06705    167.12556   -5816.4623 
18020000    149.09465   -6625.8873   -6242.3504   -6625.8873            0    1448.9268    23.444048    21.442057    21.686734    10901.674    468.52862     1708.037    2170.2149    564.01474    179.01812    -45.60112   -6011.9859 
18021000    150.12593   -6634.4972   -6248.3074   -6634.4972            0    1452.1074    23.413909    21.250957    21.900747     10897.11    1288.0345    2113.9543    954.33323   -227.99214    494.38299    300.43085   -6017.5339 
18022000    155.30007   -6622.0844   -6222.5845   -6622.0844            0    2717.7897    23.323029    21.279878    21.848206     10843.51    2687.2767    4241.5002    1224.5921   -581.75821   -268.25181   -1339.6722   -5792.7892 
18023000    154.02228   -6633.0717   -6236.8588   -6633.0717            0    1690.2977    23.320715    21.420145    21.755864    10867.774    2258.0337    1700.6032    1112.2564   -603.10341    732.05856     75.24322   -5968.9545 
18024000    163.35011   -6610.0623   -6189.8541   -6610.0623            0    1909.5184     23.30887    21.583154    21.642019    10887.644    1799.9851    1567.4149    2361.1552   -459.70573   -322.01087   -355.30688    -5886.651 
18025000    151.62931   -6597.0967   -6207.0395   -6597.0967            0    1701.7235    23.250915    21.533394    21.751844     10890.52    2666.0728    574.36241    1864.7354     305.5199    99.457521    366.48928   -5936.7598 
18026000    155.69606   -6608.3313   -6207.8127   -6608.3313            0    2523.1215    23.136229    21.481605    21.840239    10854.672    3615.7161    2321.0729    1632.5755    50.045793   -1039.0009   -483.11021   -5808.3918 
18027000    149.57151   -6602.6934   -6217.9298   -6602.6934            0    1913.7369    23.343585    21.394072    21.781468    10877.977    707.32958     3242.207    1791.6741    429.65357    1079.6782   -50.776852   -5914.3266 
18028000    149.15749    -6633.932   -6250.2335    -6633.932            0    1806.3461    23.507223    21.412454    21.581998    10863.241    556.03154    2075.5499     2787.457    477.32227   -179.71299   -290.72846   -5964.0554 
18029000    148.81921   -6628.1166   -6245.2882   -6628.1166            0    1689.9052    23.383461     21.35599    21.812008    10892.414    1045.4274    2515.6419    1508.6464    425.63028    296.91376   -402.43029   -5976.8389 
18030000    157.51409   -6612.8881   -6207.6928   -6612.8881            0    1687.9542    23.244135    21.445063     21.89282    10912.956    2189.2621    1847.0226    1027.5779    490.31577   -342.90207   -510.82486   -5939.0476 
18031000    148.86813   -6595.7927   -6212.8385   -6595.7927            0    2692.5015    23.175492    21.492948    21.780507     10849.08    3480.6265    2727.4513    1869.4268  -0.90961565    203.79501   -314.87796   -5786.8236 
18032000    149.77554   -6601.8345    -6216.546   -6601.8345            0    2166.8483    23.329601    21.537539    21.642362    10874.469     2647.232    897.53117    2955.7817    593.02014    219.07009    81.023785   -5872.8991 
18033000    148.04435   -6611.3156   -6230.4805   -6611.3156            0     1525.551    23.357132    21.506402    21.692455    10896.725    704.71499    1329.8043    2542.1338    167.41161   -9.0414516   -146.17148   -5988.0437 
18034000    149.18189   -6624.9162   -6241.1548   -6624.9162            0    2106.7649     23.26396    21.371325    21.879472    10878.072    2928.1734    2164.7053     1227.416    985.82996   -635.62365   -636.04756    -5906.926 
18035000    145.32992    -6617.013   -6243.1606    -6617.013            0    2914.9377    23.229124    21.375074    21.819741     10834.03    3209.1666    2933.1998    2602.4466   -804.94942    -38.18115    62.228512   -5782.5911 
18036000    148.82871   -6624.2245   -6241.3717   -6624.2245            0    1746.6927    23.389044     21.44111    21.643337    10853.853     1467.305    1895.9053    1876.8679   -41.808159    377.10335    -86.82847   -5964.8837 
18037000    149.65243   -6610.3048    -6225.333   -6610.3048            0    2123.6265    23.381012    21.525514    21.550137    10845.932    1734.9532    982.41932     3653.507    219.61746   -298.69382   -391.32002   -5889.4246 
18038000     154.4978   -6627.0969   -6229.6607   -6627.0969            0    1756.2237    23.174009    21.467743    21.903263    10896.735    2209.8044    1778.1949    1280.6719   -154.11032    566.52781   -71.384418   -5950.5657 
18039000    151.49469   -6619.2555   -6229.5446   -6619.2555            0    1854.9583    23.203828    21.496943    21.841633    10894.855     2922.215    1436.6069    1206.0529   -596.48733   -248.99253    37.803558   -5934.8098 
18040000    154.14657   -6639.4813   -6242.9487   -6639.4813            0    1330.9254    23.307765    21.460582     21.76388    10886.253    526.64192    1779.0937    1687.0405    339.08031    257.90136   -429.78792   -6031.6445 
18041000    147.47001   -6621.6585   -6242.3009   -6621.6585            0    2846.0428    23.367073    21.405293    21.647979    10827.866    2263.9121    3215.8624    3058.3539    316.82827     445.8233    556.73395   -5792.8729 
18042000    153.59378   -6628.2784   -6233.1678   -6628.2784            0    2272.3678     23.45542    21.364405    21.621437    10834.742     2164.779    2582.0012    2070.3232   -484.61696    207.65438   -266.11121   -5874.1027 
18043000    151.10187   -6607.7559   -6219.0555   -6607.7559            0    2011.7798     23.35055    21.309618    21.867637    10881.146    2095.5943    2371.3467    1568.3985    1195.8347   -465.45066     491.4691   -5899.8055 
18044000    147.20711   -6603.5194   -6224.8381   -6603.5194            0     2348.391    23.267002    21.459813     21.78626        10878    3520.7163    1996.8434    1527.6135   -594.24579   -864.08658   -876.23746   -5852.2788 
18045000    137.81205   -6626.2276   -6271.7145   -6626.2276            0    1555.3637    23.272222    21.442023    21.772997    10864.802    1504.5903    1461.8587    1699.6422    855.89954   -441.43965   -208.06752    -6025.264 
18046000    152.44913    -6614.441   -6222.2749    -6614.441            0    2461.6011    23.329099    21.531797    21.592445    10846.261    2134.2872    2149.9596    3100.5564    -353.6657    496.19276    983.45653   -5832.8949 
18047000    149.16017   -6629.4589   -6245.7535   -6629.4589            0    2781.7342    23.286955    21.470639    21.690229    10844.807    3298.6845     1750.107     3296.411     131.2418   -413.27082    215.11944   -5805.7933 
18048000    154.72829   -6615.5618   -6217.5327   -6615.5618            0      2876.13    23.218412    21.439047    21.755505    10829.469    3502.1321    3041.8058    2084.4521   -338.36408   -638.52037    339.19847   -5763.2862 
18049000    154.32693   -6613.9316    -6216.935   -6613.9316            0    2114.2359    23.312668    21.496664    21.683112    10866.374    2091.0538    1797.3127    2454.3413    501.41672   -67.534242   -981.78601   -5881.8816 
18050000    152.76973   -6620.7719   -6227.7811   -6620.7719            0    1569.7313    23.377129    21.388542    21.743159    10871.639     1046.355    1417.6276    2245.2114    850.99759    302.22245    1359.4358   -5978.8976 
18051000    157.56816   -6621.4311   -6216.0966   -6621.4311            0    1409.4723    23.420089    21.449152    21.694521    10898.048    1171.9023    844.43096    2212.0838    236.50471    101.22396    3.6813287   -5992.0795 
18052000    146.38093   -6625.8183   -6249.2623   -6625.8183            0    1382.5122    23.302306    21.363571    21.890908    10897.742    1651.4439    1560.0066    936.08598    19.832041    88.516551   -294.40492   -6029.5363 
18053000    152.26957   -6634.7904   -6243.0862   -6634.7904            0    3140.2154    23.296634    21.411042    21.719243    10833.672    3074.6169    3705.9961    2640.0331   -774.41307   -292.61271   -95.651461   -5746.9385 
18054000    154.21379   -6616.4863   -6219.7808   -6616.4863            0    1938.0244    23.344168    21.445465    21.696094     10861.64    975.40426    1578.3288      3260.34    1005.7097    67.229417    1155.5598   -5912.7863 
18055000    147.49152   -6597.7994   -6218.3864   -6597.7994            0    1776.7721    23.274627    21.606903    21.605392    10865.192    638.06428    2096.6162    2595.6357   -121.99255    -19.67757    626.22294   -5936.8432 
18056000    155.31956   -6607.6207   -6208.0706   -6607.6207            0    1576.5791    23.279813     21.45225    21.861871    10917.914    2218.8712    2009.6574    501.20865    219.69353    406.84874    -1362.558   -5957.0373 
18057000    150.34311   -6615.6479   -6228.8994   -6615.6479            0    2494.3791    23.360593    21.325955    21.808577    10864.749    3045.3599     2749.478    1688.2992   -335.18497   -891.43736   -610.45025    -5833.662 
18058000    152.94687    -6624.745   -6231.2985    -6624.745            0    2988.5936    23.531952    21.230075     21.66395    10822.987    2562.0393    3944.0252    2459.7161   -738.23297   -697.30028    23.420506   -5759.5724 
18059000    150.45532   -6612.4029   -6225.3657   -6612.4029            0    2276.9634     23.40155    21.297017    21.777538    10853.559    1808.9933    2682.7702    2339.1266   -74.394934    305.69233    628.34839   -5864.9497 
18060000    146.43178   -6629.6882   -6253.0014   -6629.6882            0    1597.2515    23.280908    21.499526    21.782688    10902.855    1672.6412    1150.3706    1968.7428   -80.307407    216.70167   -817.42507   -5999.0272 
18061000    149.32697   -6617.3068   -6233.1722   -6617.3068            0    1683.0751    23.237756    21.538761    21.799419    10910.881    1905.0966    990.74233    2153.3865   -178.13773    680.49715    802.97842   -5965.3546 
18062000    152.72524   -6616.5906   -6223.7142   -6616.5906            0    2145.7562    23.218713    21.576809    21.708986    10875.892    3306.1111    344.28226    2786.8751   -779.33196    37.098041   -57.844793   -5883.3678 
18063000    154.81579   -6596.8205   -6198.5664   -6596.8205            0    2586.4779    23.221471    21.443578    21.780326    10845.545    2718.7548    2480.4449    2560.2339    -725.6231    21.153656   -261.08221   -5789.4602 
18064000    146.10419   -6608.4377   -6232.5936   -6608.4377            0    4112.6403    23.366057     21.24013    21.748751    10793.863    2910.2092    4861.2583    4566.4534   -369.25151    442.92505   -377.61745   -5585.1924 
18065000    148.62515   -6640.1557   -6257.8265   -6640.1557            0    2367.9409    23.390166    21.308526    21.725505    10828.208    1540.2735    3348.9078    2214.6414   -157.17616    325.98754   -59.987338   -5883.8853 
18066000    151.15583   -6600.2079   -6211.3687   -6600.2079            0    1408.5322    23.553143    21.264141    21.789109      10912.8    539.73066    2075.1191    1610.7469   -58.587399    999.24775    -403.0423    -5987.198 
18067000    146.29059   -6633.6277   -6257.3041   -6633.6277            0    1297.3301    23.371287    21.398814    21.797865    10901.501    1269.6318    918.71475    1703.6436   -329.93367    50.634973    296.30839   -6051.0452 
18068000    147.99617   -6631.4385   -6250.7274   -6631.4385            0    1426.5594    23.283488    21.491726     21.77905    10898.287    1856.5364    1218.7879    1204.3539   -877.91947    286.40065   -387.47774   -6023.9896 
18069000    140.70324   -6622.4091   -6260.4586   -6622.4091            0    2317.4408    23.087137    21.630731    21.724417    10848.992    3624.4058    1276.1595     2051.757   -700.94677    -690.9545   -376.20236   -5893.7898 
18070000    151.95949   -6628.1596    -6237.253   -6628.1596            0    2464.8789    23.132617    21.559531    21.730042    10837.388    4240.8533    724.37344    2429.4099   -360.23878   -82.517427    17.160497   -5847.6735 
18071000    149.29535   -6614.0017   -6229.9485   -6614.0017            0    2087.2056    23.231153    21.500506    21.753055     10865.25    2866.3247    2306.7615    1088.5306     270.4477    390.64884    26.908975    -5899.213 
18072000    163.64549   -6616.4042   -6195.4362   -6616.4042            0    1646.9555    23.416444    21.382108     21.74719    10888.664    1339.8822    2750.5761    850.40819    546.62419   -351.24873   -319.09162   -5933.8996 
18073000     147.8368   -6624.1127   -6243.8115   -6624.1127            0    2667.2247    23.549749    21.254103    21.648265     10835.58    1703.9652    4138.8547    2158.8542   -427.48722   -541.30976   -1905.7645   -5822.3212 
18074000    149.36361    -6617.737   -6233.5082    -6617.737            0    1353.5627    23.421208    21.374386    21.763037     10894.88    1032.4711    1571.7871      1456.43   -142.34011    979.75665    54.909449   -6018.4398 
18075000    149.56771   -6617.6539   -6232.9001   -6617.6539            0    2415.3634    23.322205     21.34579    21.828869    10867.085    1935.4461    3255.2069    2055.4373    767.91777    44.725407   -187.77035   -5850.1005 
18076000    149.55176   -6620.1021   -6235.3893   -6620.1021            0    2530.8247    23.262533    21.482702    21.712534    10850.667    2195.9088    2679.5261    2717.0391    807.40834    173.70749   -203.56189   -5834.8968 
18077000    145.19737   -6615.8183   -6242.3069   -6615.8183            0    2320.9027    23.175422    21.541931    21.699921    10833.541    2307.8494    1637.9862    3016.8723    24.312781    218.24938    1826.4091   -5875.6134 
18078000     152.2163   -6598.0116   -6206.4444   -6598.0116            0    1823.5485    23.337305    21.555134    21.652658    10892.126    1636.8907    1385.7313    2448.0234    442.90319   -321.37387   -737.94747   -5916.7729 
18079000    149.62403   -6631.8931   -6246.9944   -6631.8931            0    2186.0268    23.364767    21.294922    21.816289    10854.714    1165.5476    3785.2353    1607.2976   -206.89252    537.20861   -578.05856   -5900.9357 
18080000    153.10094   -6601.7584   -6207.9156   -6601.7584            0    3255.4592    23.377822      21.2388    21.844995    10846.409    3017.1326    3733.3327    3015.9123   -795.36825    555.11532   -666.83017   -5692.9548 
18081000    145.27778   -6615.5055   -6241.7872   -6615.5055            0    2134.5932    23.397435    21.344396    21.734622    10854.359    1364.5862    2954.9726    2084.2207    144.32998    162.97612   -267.21521   -5903.8818 
18082000    143.76533   -6609.0148   -6239.1873   -6609.0148            0    1851.1174        23.34    21.469671     21.68534     10866.57    2060.3872    1567.0081    1925.9568    -144.6617    142.20145     165.1673   -5945.8263 
18083000     147.1166   -6614.9606   -6236.5121   -6614.9606            0    1221.9772    23.304161    21.496017    21.761566    10901.384    1398.6824    1172.6977    1094.5514   -373.30979   -724.99103   -96.240914   -6042.2354 
18084000    157.04096   -6605.4273    -6201.449   -6605.4273            0    1309.8369    23.234846    21.536695    21.805067    10911.295    280.99507    1270.2564    2378.2592    887.26932   -104.29455    538.93249   -5993.0146 
18085000    150.41757   -6624.1008   -6237.1608   -6624.1008            0    2601.8674    23.168292    21.565102    21.721053    10852.415    3191.6346    2875.3589    1738.6086   -138.18514   -200.54139   -560.54551   -5825.3598 
18086000    153.97842   -6635.2508   -6239.1507   -6635.2508            0    2083.8914    23.182296    21.451125    21.772865    10827.348    3013.2782    1640.5358      1597.86   -187.93335    183.10487   -36.522649   -5910.0922 
18087000    144.78474   -6623.9475   -6251.4976   -6623.9475            0    1376.7708    23.324198    21.475945     21.76416    10901.868    2007.7028    833.13074    1289.4788   -612.71232     42.55781    -446.7589   -6032.6013 
18088000    145.68972   -6604.9719    -6230.194   -6604.9719            0    1209.8597    23.442343     21.34055    21.813283    10912.585     458.7726    2022.6987    1148.1078    320.14562    329.51731    222.44929   -6037.6462 
18089000    144.97722   -6632.9849   -6260.0398   -6632.9849            0    2333.1311    23.372874    21.311696    21.758328    10838.163    1974.9507    2222.5134    2801.9291   -387.20007    582.51011   -263.67093    -5891.257 
18090000     151.1888   -6632.8965   -6243.9726   -6632.8965            0    1958.4255    23.406304    21.315081    21.755761    10854.108    2097.4889    1922.9702    1854.8174    27.449032   -487.42165   -285.44338   -5933.9616 
18091000    147.96954   -6632.1864   -6251.5438   -6632.1864            0    1074.9674    23.465873    21.509957    21.588873    10896.982    688.57083   -108.70543    2645.0367   -350.76964   -242.49799    468.29018   -6080.7086 
18092000    150.27883   -6616.6735   -6230.0904   -6616.6735            0    2091.0036    23.274019    21.602032    21.595123    10857.296    2166.1142    1496.1841    2610.7125    177.60039    394.92279    604.52275   -5898.9956 
18093000      148.737   -6618.5562   -6235.9393   -6618.5562            0    1339.0863    23.222859    21.592623     21.71828    10890.467    378.61636    1601.8787    2036.7639    247.36705   -134.82368    304.31671   -6023.2572 
18094000    148.30361   -6608.5396   -6227.0376   -6608.5396            0     1431.281    23.161152    21.531722    21.838697    10890.947    2802.0472    704.00347    787.79232    210.63263    108.39846    47.343552   -5999.7025 
18095000    143.87527   -6626.6908   -6256.5805   -6626.6908            0     757.2767    23.317745    21.515906    21.778706    10926.429    404.48434    972.08781    895.25796    928.70017   -178.95788   -423.07155   -6135.9078 
18096000    156.48117   -6614.3603   -6211.8221   -6614.3603            0    3254.6419    23.335848    21.377625     21.70952     10830.12    3306.4888    3014.6441    3442.7928    311.34101   -775.69693   -161.75828   -5697.7638 
18097000    146.77926   -6611.6943   -6234.1136   -6611.6943            0     2829.761    23.451842    21.249736    21.739903    10833.982    2157.7892    3902.6552    2428.8387    -566.8097    339.72019    -11.07786   -5787.0042 
18098000     147.6405   -6635.1029   -6255.3067   -6635.1029            0    1868.9329    23.466314    21.276443    21.769396    10869.017    1253.3499    3301.3129    1052.1358     186.5436   -641.81949   -887.96915   -5959.0557 
18099000    154.21723   -6625.0486   -6228.3342   -6625.0486            0    1365.5868    23.371413    21.387309    21.813358    10903.443     1735.133    724.42344    1637.2041   -628.97472   -38.971792    255.42422   -6011.1846 
18100000    149.79465   -6631.7952   -6246.4576   -6631.7952            0    1319.7073    23.302392    21.505344    21.750339     10899.66    1538.4903    986.01113    1434.6203    478.62314   -839.17399    -423.6172   -6036.6765 
18101000    147.00915   -6629.7446   -6251.5726   -6629.7446            0     1877.403    23.094439    21.586114    21.790076    10862.771     1968.491    2208.9886    1454.7293    -269.8181    487.46209    1149.0484   -5954.1499 
18102000    150.43678   -6622.2131   -6235.2236   -6622.2131            0     2122.842    23.241221    21.632214    21.589597    10854.366    2659.4442    1007.9192    2701.1625    538.63144   -259.61237   -454.74932   -5899.1782 
18103000    153.25685   -6612.1514   -6217.9075   -6612.1514            0    1784.1607    23.268704    21.541998    21.690189    10872.302    1740.3758    2133.3829    1478.7233    430.32566    117.60493    113.46006   -5935.0086 
18104000    151.17725   -6620.9187   -6232.0244   -6620.9187            0     1965.703    23.337036     21.34631    21.854258    10886.909    2075.6568    2233.3442    1588.1081    109.19858   -400.48765   -390.36921   -5919.9211 
18105000    151.99373   -6614.3448   -6223.3502   -6614.3448            0    1469.8017    23.427039    21.224816    21.931589    10905.145    850.62343    3939.0489   -380.26731    429.48633   -932.14693   -942.30109   -5989.5925 
18106000    152.84926   -6636.4914    -6243.296   -6636.4914            0    2201.5383    23.357382     21.43859    21.704984    10868.756    2017.6965    2242.5638    2344.3545    -337.9128   -638.45283    456.63238   -5894.3309 
18107000    153.77415   -6639.9604   -6244.3857   -6639.9604            0     1249.058    23.453447    21.477275    21.620113    10890.399    500.45848    1174.2604    2072.4552    326.55785   -731.63588    -16.04813   -6046.0037 
18108000    150.71481   -6626.9906   -6239.2859   -6626.9906            0    1664.2301    23.338114    21.386174    21.760397    10860.896    1376.5399    1604.6122    2011.5383   -518.20063   -109.22689    1483.0835   -5975.6802 
18109000    151.68896    -6630.779   -6240.5684    -6630.779            0     2026.677    23.247403    21.424368    21.803445    10859.444    2686.7828    2151.3179    1241.9304   -240.20148   -701.06575   -1094.1838   -5919.5958 
18110000    147.60186   -6622.2444   -6242.5476   -6622.2444            0     1890.525    23.183687    21.508758    21.795962    10868.607    1834.4186    1666.0514     2171.105   -309.79928    906.67228    910.90317   -5942.8852 
18111000     155.5985   -6632.3151   -6232.0474   -6632.3151            0    843.70321    23.281116    21.565187    21.750357    10920.019    1215.6739    144.87401    1170.5617    -83.94291    260.10271   -546.23116   -6097.6815 
18112000    148.70727   -6610.6938   -6228.1534   -6610.6938            0    2144.7392    23.140549    21.530022       21.804    10863.113    2446.0111    1787.7619    2200.4446   -419.82707    928.23854    893.15022    -5888.368 
18113000    154.16601   -6624.1376   -6227.5549   -6624.1376            0    2378.3011    23.298392    21.498156    21.700384    10869.125    1799.3552    2215.0974    3120.4508   -281.11924    1469.0844    -152.0488   -5850.5584 
18114000    155.34443    -6622.771    -6223.157    -6622.771            0    1804.2368    23.408873    21.451066    21.680544    10886.783    819.37993    2840.2877    1753.0427   -248.27524   -7.1052345   -319.20362   -5936.6937 
18115000    150.54131   -6616.9271   -6229.6687   -6616.9271            0    1346.4944     23.37613     21.39132    21.802061    10902.039    2333.8147    591.08605    1114.5824   -1353.5834    142.77909   -278.49441   -6015.5827 
18116000    147.39388   -6635.9535   -6256.7917   -6635.9535            0    2191.9092    23.294893    21.357281    21.785221    10838.487    2546.8489     2483.108    1545.7707   -766.94963    -75.24255   -68.589625   -5910.3206 
18117000    140.98556   -6632.0542   -6269.3774   -6632.0542            0    2487.8705    23.342788    21.348311    21.737105    10832.232    2871.9762     1880.537    2711.0982    335.56955   -970.00519    397.14168   -5876.3511 
18118000    145.78742    -6622.972   -6247.9427    -6622.972            0    2284.4616    23.353868    21.459004    21.676231    10863.059    2832.6958    1936.4733    2084.2157   -898.05163    26.720366   -301.28839   -5886.0233 
18119000    147.52423   -6618.4407   -6238.9436   -6618.4407            0     2360.105    23.281027    21.476982    21.710867    10855.568    3556.1952    1267.6321    2256.4876    123.13645    342.13732    1177.7801   -5865.2981 
18120000    150.04931   -6622.2804   -6236.2877   -6622.2804            0    1614.0769    23.223116    21.596354    21.732968    10899.836    2653.8467    938.74769    1249.6363    271.12941   -712.61282   -1045.9291   -5979.7093 
18121000    150.41828   -6625.9113   -6238.9694   -6625.9113            0    1616.4827    23.116036    21.563751    21.854334    10893.696    2807.4369    961.85727     1080.154   -1231.2331    122.54574   -9.3101447   -5982.1533 
18122000    152.67003   -6600.9848   -6208.2504   -6600.9848            0    2137.0617    23.280459    21.494381    21.709001    10863.164    2746.4224    1400.7612    2264.0016   -676.05925    -347.9493    348.59492   -5869.6798 
18123000     147.5013   -6618.5291    -6239.091   -6618.5291            0    2990.6419    23.358162    21.386423    21.675228    10827.807     2390.665    3282.4657    3298.7951   -372.96518    208.53909    400.54872   -5766.8314 
18124000    149.93447   -6609.7108   -6224.0135   -6609.7108            0    2464.2524    23.418036    21.296626     21.79026    10867.351    2364.0114    2694.1011    2334.6447   -525.67149   -532.29715    517.24279   -5833.4562 
18125000    154.78737    -6615.657   -6217.4759    -6615.657            0    2785.0049    23.312226      21.3257    21.853944    10864.678    2665.4729    2883.8268    2805.7152    312.58547   -149.68985    175.27931   -5776.1914 
18126000    152.44939   -6629.8753   -6237.7085   -6629.8753            0    2254.2263    23.260509    21.390392    21.846911    10869.962    1582.5435    3477.7575    1702.3779   -2.9884499   -687.91535   -1191.7613   -5880.3523 
18127000    149.34888   -6622.5042   -6238.3133   -6622.5042            0    1768.9875    23.303349    21.501269    21.703584    10874.615    1952.4159    999.64858    2354.8979    -166.0284    369.55675     171.7469   -5957.7605 
18128000    153.76509    -6628.887   -6233.3357    -6628.887            0    2277.2017    23.287537    21.546609    21.595974    10836.157    1900.8195    1574.0239    3356.7617     423.3878    433.12109    397.58541   -5873.4599 
18129000     151.8133   -6597.7965   -6207.2661   -6597.7965            0    2638.1899    23.316503    21.458212    21.680073    10847.201    3330.5413    2181.6913     2402.337    721.66147   -1056.0287   -117.37827   -5789.9168 
18130000    143.57991   -6627.4753   -6258.1247   -6627.4753            0    3638.4005    23.247856    21.295424    21.801884    10793.523    3998.1172    3709.2972    3207.7872   -3.2154204    254.23477    201.48329   -5685.3951 
18131000    149.87517   -6642.6615   -6257.1168   -6642.6615            0    1127.0031    23.274225    21.507702    21.786756    10905.907    862.78134    874.26167    1643.9662    302.50182   -10.321358   -354.80254   -6077.8653 
18132000    154.79836   -6610.7481   -6212.5388   -6610.7481            0    2194.9947    23.237092     21.47281    21.790084    10872.504    2593.5543    1820.3225    2171.1071    311.07851    281.10798    74.805894   -5864.4909 
18133000    152.03994   -6615.7575    -6224.644   -6615.7575            0     2257.586    23.321303     21.50948    21.656496    10863.529    1561.0641    2723.3134    2488.3804   -178.57012    377.04062   -467.89622    -5866.967 
18134000    144.33498   -6628.2402   -6256.9473   -6628.2402            0     1474.376    23.237958    21.429045    21.827678    10869.469    2450.7169    1215.3899    757.02105     451.2863    60.953771    121.31223   -6023.2291 
18135000    146.24557   -6632.2228    -6256.015   -6632.2228            0    1099.5547    23.287264    21.420066    21.856153    10902.171    1552.4642    1026.3065    719.89347   -1112.8091   -273.02638    152.06564   -6081.1891 
18136000    153.03609   -6607.6489   -6213.9729   -6607.6489            0    3058.6764    23.322124    21.310938    21.761529    10815.836    3278.2337    3116.8643    2780.9313    438.25356   -589.26757    168.91228   -5731.5038 
18137000    152.11224   -6631.4952   -6240.1957   -6631.4952            0    2867.9186    23.313151    21.345418    21.775731    10836.235    3445.1724    2535.3882    2623.1953   -154.11602   -787.59146   -183.65948   -5786.9631 
18138000    152.29312   -6640.8383   -6249.0735   -6640.8383            0    1674.2608    23.244285    21.428548    21.818365    10867.537    1589.3427    2360.7008    1072.7389    249.48105    776.68558    -967.7364   -5983.7168 
18139000    153.85853   -6641.3816   -6245.5899   -6641.3816            0    1198.2855    23.301906     21.53633    21.719234    10899.527    681.09781    831.98966    2081.7691    696.24394   -255.53277   -268.51867   -6055.1124 
18140000    144.28428   -6608.5227   -6237.3602   -6608.5227            0     1542.072    23.322916    21.485456    21.745898    10896.945    1429.5998    987.37231    2209.2438    67.244872   -202.95858    294.50464   -5992.2929 
18141000    147.72426   -6628.6508   -6248.6391   -6628.6508            0    2591.2858    23.237705    21.383992    21.804425    10834.943    3520.8419    1964.8121    2288.2032    -204.8364    54.762136   -470.57955   -5839.1731 
18142000    148.98056   -6616.4332   -6233.1897   -6616.4332            0     3067.251    23.346911    21.351649    21.767743    10851.112    2320.5628    3677.8011     3203.389    590.67042   -569.46337    670.50553   -5747.7901 
18143000    152.92071    -6626.152   -6232.7728    -6626.152            0    1491.1913    23.395398     21.31021    21.811989    10874.604    1515.2994    1643.7859    1314.4884   -257.68857     55.02878   -161.77296   -5996.2774 
18144000    147.49764   -6617.5789   -6238.1502   -6617.5789            0    2321.1659    23.351068    21.413687    21.658163    10829.784    2918.5104     1950.819    2094.1683   -92.549995     -443.781   -886.05326   -5871.5423 
18145000    156.46221   -6608.8777   -6206.3882   -6608.8777            0    2683.8359    23.261897    21.432207     21.73449    10835.813    2853.6369     2800.794    2397.0769    162.90862    237.48617   -104.58416   -5782.2637 
18146000     148.1457   -6620.4048    -6239.309   -6620.4048            0    2064.7832     23.26072    21.544964    21.703488    10876.733    2122.3972    2243.4849    1828.4675   -596.79888    785.04587   -1104.2748   -5911.7807 
18147000    152.37985   -6640.3754   -6248.3875   -6640.3754            0    2211.9328    23.183202    21.534415    21.761839    10864.308    3141.0464    1121.5365    2373.2156   -437.62793    47.129238    476.26194   -5897.9183 
18148000    144.96091   -6629.9846   -6257.0815   -6629.9846            0    1691.9776    23.352686    21.414408    21.731589    10867.619    1718.8418    2229.5308    1127.5604   -69.737196   -1079.4394   -1239.8535   -5988.9148 
18149000    151.26455   -6604.8549    -6215.736   -6604.8549            0    1836.0347     23.34722    21.341752    21.823287    10873.902    2393.0543    2227.9203    887.12937   -233.10203    593.26155   -456.78066    -5924.569 
18150000    147.92485   -6619.6411   -6239.1134   -6619.6411            0    2330.3296    23.413614    21.268053    21.840922    10875.948    1310.1057    3014.2176    2666.6656     612.8714    751.05856    352.14488   -5869.4892 
18151000    159.05705   -6629.5252   -6220.3607   -6629.5252            0    1574.7431    23.377701    21.424831    21.731344    10884.433    1563.3237    1759.8818    1401.0237    460.85771   -514.59491    67.589111   -5970.3886 
18152000    151.66056   -6643.4744   -6253.3368   -6643.4744            0    2282.1677    23.226322     21.43736      21.7644    10836.734    2485.9261    2519.7393    1840.8377   -386.21213    449.58817   -559.36828    -5892.657 
18153000    155.40246   -6610.1879   -6210.4246   -6610.1879            0    1783.2189    23.217494    21.596397    21.694412    10877.887    1780.6647     1627.659    1941.3331   -454.32458   -320.16928   -828.21499   -5927.5297 
18154000    147.84805   -6616.2778   -6235.9477   -6616.2778            0    1355.1982    23.196738    21.631582    21.690897    10884.105    1832.1965   -224.77019    2458.1683    379.92877    155.44348    926.21821   -6020.8323 
18155000    148.15088   -6630.0475   -6248.9384   -6630.0475            0    2901.6719    23.245793    21.423651    21.730349    10821.925    4223.7946    1825.7058    2655.5152   -403.46248   -394.46929   -34.382312   -5790.9771 
18156000    145.89905   -6640.4081   -6265.0917   -6640.4081            0    3028.7155    23.343468    21.245232    21.779328    10801.183    2889.3153    4176.6008    2020.2304    482.26636   -267.83928   -122.65235   -5787.9958 
18157000    141.60527   -6606.2483   -6241.9774   -6606.2483            0    2021.4151    23.468139    21.244334    21.799208    10868.322    2313.6015    2361.7046    1388.9392   -573.42136    -567.9519    183.82952   -5921.5764 
18158000    146.39699   -6624.3452   -6247.7479   -6624.3452            0    2224.3574     23.40064    21.371145    21.747976     10876.13    2219.4927      1449.31    3004.2695   -225.34017    354.15746    221.11587   -5894.9265 
18159000     149.7747    -6617.427   -6232.1408    -6617.427            0     1510.744    23.305655    21.502328     21.73492     10891.93    1097.4346    2029.2939    1405.5037    405.84998    51.996523   -310.72589   -5992.1627 
18160000    147.71659   -6617.5599   -6237.5679   -6617.5599            0    2847.6448    23.113466    21.561338    21.728343    10828.478    3072.9592     2927.276    2542.6993    1029.9778     320.7968    695.60772   -5787.8615 
18161000    152.81371   -6646.9453   -6253.8414   -6646.9453            0     1806.795    23.232307    21.541591    21.708904    10864.457    1716.8171    2007.8973    1695.6707     603.5988    213.39684   -543.76001   -5967.5602 
18162000    149.51332    -6619.203   -6234.5891    -6619.203            0    1028.8712    23.290032    21.435562    21.844232    10905.403    1052.4004    1933.8113    100.40196    50.637938   -14.045038    579.43732   -6070.9532 
18163000    142.54446   -6602.6685   -6235.9815   -6602.6685            0    1067.7728    23.437992    21.318838    21.875042    10930.319    1503.7036    615.74998    1083.8649   -837.93098   -23.535544     598.6393   -6065.7706 
18164000    151.89558   -6640.6825   -6249.9404   -6640.6825            0    2459.4223    23.416643    21.315975    21.711097    10837.063    2582.1712    2600.3106    2195.7853   -332.75376   -682.29903    307.37663    -5861.235 
18165000    150.35542   -6623.8464   -6237.0663   -6623.8464            0    2614.3963    23.357434    21.366933    21.735693    10847.778    3327.9925    2004.6791    2510.5174   -151.40338   -35.572259   -344.80327   -5823.4591 
18166000    152.97722   -6609.1204   -6215.5958   -6609.1204            0    2025.8854    23.261159    21.521486    21.729054    10877.884    1844.1125    3658.1482     575.3955    388.15056   -266.00505   -581.77341   -5894.2037 
18167000     152.2158    -6632.664   -6241.0982    -6632.664            0    1509.7696    23.246523    21.460268    21.781353    10866.207    1968.0053    1900.1445    661.15914    141.07501   -63.759388   -447.35833   -6001.8412 
18168000    157.27268   -6620.0894    -6215.515   -6620.0894            0    763.30039    23.269975    21.602899    21.728352    10922.819    1510.9436    268.32394    510.63357   -327.32995    322.24026   -708.50153   -6093.9227 
18169000    158.92978   -6609.4439   -6200.6067   -6609.4439            0    2865.8575    23.301762    21.386463    21.761134    10844.493    3156.5759    2385.8468    3055.1498   -137.81663    662.25769    557.46737   -5747.3547 
18170000    147.94526   -6617.4725   -6236.8923   -6617.4725            0    3477.7176     23.35425     21.28448    21.735126    10804.163    3783.3864    2758.6981    3891.0684   -338.21195    405.47501    497.13954   -5688.9165 
18171000    148.43546    -6615.175   -6233.3338    -6615.175            0    2850.8807    23.357208    21.344137    21.739724     10838.11    3347.3144    2276.6645    2928.6634   -575.51298   -340.30893   -217.73829   -5782.7158 
18172000     147.7781   -6613.6052    -6233.455   -6613.6052            0    2909.0255    23.309008     21.34436    21.775964    10833.887    2717.2032    3553.7889    2456.0844   -158.75837    798.79609    107.07608   -5773.8257 
18173000    145.60806   -6618.7325   -6244.1647   -6618.7325            0    1579.0585    23.367624    21.504766     21.65884    10883.898     1212.974    2131.3525    1392.8488   -497.24771   -428.69269   -908.32064   -5993.5199 
18174000    150.99958   -6638.1474   -6249.7102   -6638.1474            0    1677.4006    23.233944    21.447969    21.823767    10875.239    978.82709    2373.5567    1679.8182    655.97238    650.98441   -389.99452   -5983.6674 
18175000    148.03584   -6615.6575   -6234.8444   -6615.6575            0    1995.3751    23.186638    21.593505    21.744114    10886.861    2738.8782    912.33637    2334.9108   -1287.8827    69.958038   -233.09558   -5918.0313 
18176000    156.81921   -6656.8165   -6253.4086   -6656.8165            0     1394.041    23.218126    21.456096    21.807074    10863.637    1618.3058    589.94605     1973.871    564.12704    415.66829    1101.2442   -6032.5437 
18177000    157.13599   -6612.2804   -6208.0577   -6612.2804            0     2145.774      23.3501    21.507224    21.625233    10860.102    1061.8544    2419.2038    2956.2636   -157.06907    766.17143   -148.44917   -5868.2026 
18178000    152.53792   -6616.8578   -6224.4633   -6616.8578            0    2791.0289    23.420496    21.402905    21.609799    10832.272    1429.3042    3885.5876    3058.1948    460.19811    463.09587    847.34126   -5783.5433 
18179000    146.60758   -6607.6557   -6230.5167   -6607.6557            0    1594.8625    23.425386    21.338667    21.791227    10892.705    717.79355    2099.9445    1966.8494    730.80108   -129.56647    590.45999   -5977.1585 
18180000     147.3857   -6608.8337    -6229.693   -6608.8337            0    2051.0785    23.341081    21.414468    21.814027    10903.454     1619.974    2250.5327    2282.7288    -201.6179   -130.05068    71.955675   -5903.5393 
18181000    145.86863   -6617.9347   -6242.6965   -6617.9347            0     2149.819    23.307527    21.428828    21.767618    10871.902     2844.955    1198.2421    2406.2598    153.59202   -260.39821    518.59321   -5901.8308 
18182000     146.6177   -6597.8514   -6220.6863   -6597.8514            0    2773.9637    23.255525    21.520243    21.661362    10840.743    2539.2468    2414.6354    3368.0088   -1385.9069    509.27823    50.420503   -5782.1196 
18183000    154.96733   -6643.2461    -6244.602   -6643.2461            0    2472.1195    23.226322    21.477405    21.703855    10826.775    3217.5699     1292.218    2906.5706    147.24991    322.61409    665.66244   -5854.2608 
18184000    149.29792   -6627.0919   -6243.0321   -6627.0919            0    1378.4077    23.315802    21.556479    21.650505    10881.687    1159.8032    776.31334    2199.1065    59.990241   -23.683431   -50.311374   -6024.2812 
18185000    152.75976   -6615.8483   -6222.8831   -6615.8483            0    1315.2561    23.317818    21.448482    21.806569    10906.158    1545.8655    1419.8276    980.07504     754.6777   -714.90448   -29.600993   -6013.6849 
18186000    152.72552   -6615.8519   -6222.9748   -6615.8519            0    2005.3145    23.399828    21.245176    21.895573    10885.022    1044.4776    3235.6365    1735.8295   -84.728535     219.0545    812.52313   -5904.6374 
18187000    144.51019   -6628.0552   -6256.3116   -6628.0552            0    2542.2277    23.381005    21.343212    21.739812    10848.726    2191.6395    3505.8713    1929.1724    302.99029   -676.50701   -208.35458   -5854.0866 
18188000    150.15192   -6602.8913   -6216.6347   -6602.8913            0    2066.6325    23.326321    21.523197    21.670831    10879.993    1438.9176    1946.3088    2814.6713        40.49    690.24733    727.60979   -5888.7148 
18189000     141.2125   -6625.9276   -6262.6671   -6625.9276            0    2510.6276    23.173524    21.608888     21.63492    10833.775    3564.0715    1447.4202    2520.3913    69.181218   -82.120484   -425.05279   -5865.9892 
18190000    158.61004   -6605.4619   -6197.4472   -6605.4619            0    3897.7543    23.147663     21.41111    21.798372    10803.647     4703.975    4082.5505    2906.7374   -38.849737   -108.12155   -611.82518   -5583.3166 
18191000    151.50544   -6608.3327   -6218.5942   -6608.3327            0    2232.2983    23.306009    21.360485    21.844004    10874.549    2276.8862    1945.0636    2474.9451   -77.705189    333.97215    1553.0691   -5864.5647 
18192000    146.72136   -6608.0725   -6230.6408   -6608.0725            0    1844.8387    23.517383    21.374346    21.681701    10898.712    1503.4147     1430.151    2600.9504    557.16774   -351.25188   -7.0180116   -5937.4101 
18193000    152.68019    -6633.877   -6241.1165    -6633.877            0     2941.364    23.330292    21.461907    21.600136    10815.459    2939.7523    2425.2835    3459.0561   -40.265738   -72.866407    648.30394   -5777.1681 
18194000    149.42281   -6614.9262   -6230.5451   -6614.9262            0    1576.7741    23.185746    21.571589     21.78529    10895.986    2612.4516    899.74573    1218.1251    -883.0738    1144.8046   -198.16398    -5979.985 
18195000    156.98425    -6625.849   -6222.0166    -6625.849            0     2367.226     23.09419    21.673892    21.688576    10856.021    2950.9654    2025.5569    2125.1556   -579.86297   -391.30813    284.10908    -5847.228 
18196000    146.74033   -6617.0092   -6239.5286   -6617.0092            0     2179.672    23.141075    21.568668    21.763701    10862.746    2563.8213    1776.5976    2198.5971     888.8944    555.48727    -343.2902   -5894.2206 
18197000    150.24048   -6618.2115    -6231.727   -6618.2115            0    1803.3697    23.335471    21.408147     21.81524    10898.222    1371.6439    2499.3907    1539.0746    178.72573   -523.03596   -377.50542   -5945.1005 
18198000     157.0293   -6626.6233    -6222.675   -6626.6233            0    1655.8965    23.413274    21.273215    21.872427    10894.123    1814.9202    1957.9455    1194.8237   -265.02911   -668.93979    91.710102   -5959.5868 
18199000    149.27061    -6606.193   -6222.2034    -6606.193            0    2467.7386    23.371018    21.326328    21.782067    10856.574    1727.2588    3046.4996    2629.4573   -600.14475    354.76424   -47.795899   -5831.4814 
18200000    148.22396   -6625.9623   -6244.6652   -6625.9623            0    2390.4253    23.287181    21.428201    21.743443     10850.03    2475.0919    2703.5044    1992.6795    115.42581   -398.44355    -258.4847   -5866.4125 
18201000    152.14735   -6621.5562   -6230.1664   -6621.5562            0    1778.9985     23.32183    21.503513    21.651433    10858.221    1076.4736    1905.5065    2355.0154     525.3266    142.78955   -134.36167   -5948.4513 
18202000    147.02161   -6613.1963   -6234.9922   -6613.1963            0    2107.2405    23.202387    21.577267    21.673319    10850.619    2361.2974     1232.636    2727.7881   -588.63145    293.33705   -8.1038149   -5901.5316 
18203000    142.76066   -6630.3337   -6263.0906   -6630.3337            0    1714.7478    23.193878    21.423069    21.895674    10879.611    1705.2771    2208.1716    1230.7946    739.17784    525.20423    174.20507   -5991.0151 
18204000    146.80858   -6616.7283   -6239.0722   -6616.7283            0     2925.028    23.296358    21.426616    21.754886    10859.215    3552.5044      2083.38    3139.1998   -1142.0934    309.39267    130.38213    -5775.834 
18205000    149.45779   -6630.2613   -6245.7902   -6630.2613            0     2607.181    23.399454    21.325614    21.688372    10822.665    2291.5873    2725.5659    2804.3898   -24.637249    334.38753    15.776286   -5834.2794 
18206000    150.09531   -6642.7999   -6256.6889   -6642.7999            0    1613.4855     23.47572    21.455347    21.588405    10873.642    581.94368    1508.3376    2750.1752   -567.38959   -246.13914   -606.60571   -6000.8209 
18207000    141.12822    -6619.409   -6256.3653    -6619.409            0    646.67975    23.372095    21.444094    21.834095    10943.104    1241.0856    501.09051    197.86317     245.7109     109.8762     600.3364   -6153.1591 
18208000    149.24199    -6620.134   -6236.2181    -6620.134            0    1031.4696    23.256591    21.495297    21.870486    10933.216    1358.9276    966.26708    769.21424   -878.92262    166.88391    68.132976   -6071.7505 
18209000    151.63274   -6612.3353   -6222.2693   -6612.3353            0    2899.9142    23.294805    21.430217    21.738365    10852.068    3424.1431    2862.4934    2413.1062   -117.44184    -819.6892    256.84581   -5763.3106 
18210000    152.36463   -6627.7284   -6235.7797   -6627.7284            0     3272.462    23.388487    21.410253    21.589331    10810.931    2906.5049    2619.4603    4291.4207    19.508353    352.48716   -95.586641   -5719.8226 
18211000    148.11069    -6602.111   -6221.1053    -6602.111            0    3032.1629    23.363653     21.30481     21.76401    10833.214    1675.9236     3498.146    3922.4191   -41.859065    701.78296    1420.8643   -5742.0499 
18212000    147.13864   -6621.9064   -6243.4012   -6621.9064            0     1793.351    23.301545    21.383065    21.870506    10897.164    2150.7245    2189.3693    1039.9591   -224.04273   -260.82788      259.328   -5958.3948 
18213000    146.44835   -6616.4752   -6239.7458   -6616.4752            0     2766.302    23.308684    21.452745    21.697491    10849.511    3662.7661    2823.6602    1812.4796   -36.442295   -1017.3561     4.233218   -5802.0366 
18214000    154.15758   -6629.0177   -6232.4567   -6629.0177            0    2711.6535    23.190738    21.581101    21.621338    10821.083    2669.6229    2881.6481    2583.6895    75.868414    459.74168   -471.13581   -5804.5187 
18215000    144.20445   -6629.7283   -6258.7712   -6629.7283            0    2086.7694    23.233492    21.510623    21.687213    10838.551    1453.4545    2270.5742    2536.2793      627.086    26.951888    209.12993   -5928.9173 
18216000    151.93439   -6628.1808   -6237.3389   -6628.1808            0    1973.1655    23.294279    21.401691    21.823148    10879.646    2375.3452    2397.1981    1146.9533    839.87323   -822.96783   -300.97164   -5924.2597 
18217000    148.67577   -6620.2617   -6237.8023   -6620.2617            0    2866.0465    23.314202    21.291513    21.847406    10844.935    3324.9731    3223.7836    2049.3828   -605.91462    -366.7266   -216.89856    -5784.502 
18218000    152.79976     -6608.23    -6215.162     -6608.23            0    2960.2074    23.525777     21.37902    21.539008    10833.218     1764.419    3347.0239    3769.1793    589.63735    255.28351   -741.82311   -5747.4747 
18219000    149.86769   -6622.1429   -6236.6174   -6622.1429            0    3072.4227    23.354515    21.291117    21.778123    10829.034    1536.4642    5018.1763    2662.6274    1387.4727    -27.75132   -653.47439   -5751.3886 
18220000    138.19129   -6616.4737    -6260.985   -6616.4737            0    2017.3561    23.255871    21.375693    21.871132    10872.366    2832.1934    1394.1415    1825.7333   -788.08766    125.06626    41.511683   -5941.1084 
18221000    142.22381   -6610.5253   -6244.6632   -6610.5253            0    2218.9762    23.191519    21.457833    21.819584    10858.292    3102.5853    2073.1049    1481.2384   -318.05135    379.21439     159.8615   -5893.2727 
18222000    149.66095   -6633.4055   -6248.4118   -6633.4055            0    1893.4615    23.271573    21.570261    21.633242    10859.323    1239.4779    1367.9884    3072.9182    599.82753    326.70395    82.491184   -5948.5404 
18223000    150.98327   -6636.9559   -6248.5606   -6636.9559            0    2180.5871    23.277186    21.491347    21.661515    10836.348    1843.3924    1762.8534    2935.5156    93.719527    236.25138    760.76233   -5903.9471 
18224000    159.07642   -6623.8964   -6214.6821   -6623.8964            0    1646.0154    23.233469    21.527309     21.74339    10875.045    1814.8416    2112.3467     1010.858   -2.3290743   -910.16896   -40.441071   -5953.6218 
18225000    150.44812   -6631.2231   -6244.2045   -6631.2231            0    2385.9172    23.302222    21.447011    21.727859     10858.78    1969.4261    2218.5042    2969.8214    1135.0285    75.519924   -729.01983   -5866.3606 
18226000    152.57234   -6629.8438   -6237.3607   -6629.8438            0    2543.6132    23.286788    21.306423     21.84558    10838.863    2439.2738    3110.8038     2080.762   -696.63557    589.82219     681.2838   -5835.2824 
18227000    156.30455   -6602.1122   -6200.0283   -6602.1122            0     1584.089    23.402933    21.435017    21.755359    10913.408    1577.0594    1568.6281    1606.5793   -215.51661    67.102528   -769.95815   -5947.9033 
18228000     151.7761   -6596.1609   -6205.7261   -6596.1609            0    1815.2644     23.34685    21.479247    21.700829    10882.375     1689.073    1762.0734    1994.6469    350.60116    23.877778    889.08826   -5917.6286 
18229000    152.94004   -6617.3286   -6223.8997   -6617.3286            0     2998.436    23.253112    21.503409    21.656981    10828.949    2707.8686     3171.161    3116.2785    1029.0641    339.05935   -169.56133   -5750.3593 
18230000    153.62951   -6611.7662   -6216.5637   -6611.7662            0    1172.7035    23.227503    21.554828    21.814078    10921.542     1563.863    525.85514    1428.3922   -371.94877    138.22592    8.6345842    -6029.776 
18231000    150.39269   -6603.8002   -6216.9242   -6603.8002            0    2109.2551    23.273046    21.446894     21.81038    10886.314    2364.9739     913.0024    3049.7891    25.963235   -658.97379     116.2025   -5882.0467 
18232000    149.30845   -6611.4827   -6227.3958   -6611.4827            0    1406.4715    23.449089    21.392392    21.739777     10905.37    573.77851    1792.1275    1853.5083    1367.0804     249.5015   -310.90291   -6003.7054 
18233000    150.29647   -6635.5432   -6248.9147   -6635.5432            0    1535.4519    23.455963    21.329976    21.764722     10889.22    964.91764    1809.0682      1832.37    1061.1474    -305.5055    501.47301   -6005.0725 
18234000    144.58082   -6607.9965   -6236.0711   -6607.9965            0    1999.9392    23.386224    21.334515     21.81584    10884.659    1694.9348    2121.7964    2183.0863    18.798912   -358.00522   -559.78011   -5918.5976 
18235000    148.51725   -6621.4792   -6239.4276   -6621.4792            0    2170.9185    23.213757    21.363915    21.930665    10876.222    3139.9754    766.60283    2606.1771   -373.23014   -225.98936    470.08974   -5895.0797 
18236000    151.13307   -6626.4337    -6237.653   -6626.4337            0    2523.0751    23.255229    21.475207    21.737335    10855.861    1741.3355    2580.9537    3246.9362   -67.146196    1292.6348   -126.55341   -5838.1957 
18237000    148.03566   -6630.8712   -6250.0585   -6630.8712            0    1531.7231    23.317029    21.546963    21.658659    10881.552     684.1141    1685.4747    2225.5804    44.294564    478.26611   -98.295384   -6006.9798 
18238000    154.62205   -6613.1654   -6215.4096   -6613.1654            0     2059.037     23.35991    21.435187    21.717175    10874.312    1521.9049    2423.4761      2231.73   -475.34941    749.36643   -474.59365   -5888.8655 
18239000    145.73976   -6618.6519   -6243.7452   -6618.6519            0    985.20703    23.400448    21.361307    21.872094    10933.076    632.93565    859.02982    1463.6556    528.88908   -1266.8221    1005.3958   -6086.6563 
18240000    150.72661   -6615.9843   -6228.2493   -6615.9843            0    3247.6105     23.29193    21.238598    21.867697    10817.686    3620.3157    3570.0806    2552.4351    238.91203   -450.35964   -225.30628   -5715.8905 
18241000    149.06978   -6625.0123   -6241.5394   -6625.0123            0    3063.1117    23.266182    21.378124    21.774409    10830.314     3412.978    3438.9116    2337.4456   -970.28626    273.37613   -587.80887   -5757.7239 
18242000    150.61399   -6627.7244   -6240.2791   -6627.7244            0    1912.0655    23.276551    21.565432    21.658796    10872.041    1469.1101    2020.6772    2246.4091    4.3469635    967.41826    305.32297   -5937.1067 
18243000    144.72055   -6597.4417   -6225.1569   -6597.4417            0    1467.4692    23.332431    21.574098    21.684566    10915.493    1414.7584    1229.8779    1757.7712    676.94017    281.92104    64.945896   -5991.5486 
18244000    147.79216   -6615.4001   -6235.2138   -6615.4001            0    1987.0667    23.360771    21.452707    21.703255    10876.625    1426.4541    1556.5869    2978.1592    456.84153   -138.67946     1078.176   -5920.0164 
18245000    162.57641   -6621.4585   -6203.2406   -6621.4585            0    2471.7133    23.381915     21.33919    21.736076     10845.24    1997.6947     3077.464    2339.9814    840.10914   -355.64327    358.61494   -5812.2979 
18246000    146.50624   -6619.4199   -6242.5415   -6619.4199            0    1822.2373     23.40521    21.374926    21.721068    10866.716    1046.4282    2565.6547    1854.6291   -1066.9613    59.269228   -449.08585   -5953.7535 
18247000    146.83147   -6612.2283   -6234.5133   -6612.2283            0    1397.6874    23.392872    21.452295    21.725075    10902.312    735.06775    1278.3738    2179.6206   -213.17646    350.54721    576.19278   -6012.2823 
18248000    148.19476   -6607.5576   -6226.3356   -6607.5576            0    1300.7439    23.260606     21.46328    21.891945    10929.529    1245.7243      1507.53    1148.9775   -414.64271    180.94719    221.13611   -6019.0023 
18249000    148.87374    -6627.122   -6244.1533    -6627.122            0    2332.1749    23.147343    21.598138    21.689531    10843.453    3004.4802     1712.947    2279.0975   -549.47401    270.26966   -1219.7719   -5875.3417 
18250000    156.24886   -6602.7228   -6200.7821   -6602.7228            0    2088.0389    23.165564    21.512255    21.841176    10884.409    3356.7091    1520.1518    1387.2558    421.30692   -321.26179    586.49266   -5869.3311 
Loop time of 615.92 on 64 procs for 250000 steps with 1296 atoms

Performance: 70.139 ns/day, 0.342 hours/ns, 405.897 timesteps/s
195.6% CPU use with 32 MPI tasks x 2 OpenMP threads

MPI task timing breakdown:
Section |  min time  |  avg time  |  max time  |%varavg| %total
---------------------------------------------------------------
Pair    | 38.082     | 48.098     | 65.483     |  87.5 |  7.81
Bond    | 0.67798    | 0.9969     | 1.5769     |  18.2 |  0.16
Kspace  | 325.31     | 340.24     | 358.04     |  34.6 | 55.24
Neigh   | 1.856      | 2.0704     | 2.2239     |   6.0 |  0.34
Comm    | 82.538     | 90.243     | 96.787     |  35.5 | 14.65
Output  | 0.56404    | 0.56441    | 0.56619    |   0.0 |  0.09
Modify  | 111.14     | 115.49     | 118.73     |  17.4 | 18.75
Other   |            | 18.22      |            |       |  2.96

Nlocal:        40.5000 ave          49 max          31 min
Histogram: 2 2 4 2 2 7 3 4 3 3
Nghost:        3062.34 ave        3106 max        3029 min
Histogram: 2 3 5 7 5 3 1 2 3 1
Neighs:        12831.4 ave       15663 max        9868 min
Histogram: 3 1 4 1 7 5 1 5 2 3

Total # of neighbors = 410606
Ave neighs/atom = 316.82562
Ave special neighs/atom = 2.0000000
Neighbor list builds = 4191
Dangerous builds = 0

unfix		3
unfix		2
unfix		1

write_data	data.final.${pid}
write_data	data.final.0
System init for write_data ...
PPPM initialization ...
  extracting TIP4P info from pair style
  using 12-bit tables for long-range coulomb (../kspace.cpp:340)
  G vector (1/distance) = 0.3671099
  grid = 30 40 32
  stencil order = 5
  estimated absolute RMS force accuracy = 0.0045648427
  estimated relative force accuracy = 1.3746888e-05
  using double precision FFTW3
  3d grid and FFT values/proc = 7752 1200
Last active /omp style is kspace_style pppm/tip4p/omp
WARNING: Not all mixed pair coeffs generated from mixing. Use write_data with 'pair ij' option to store all pair coeffs. (../write_data.cpp:312)

write_restart   restart.lmp.${pid}
write_restart   restart.lmp.0
System init for write_restart ...
PPPM initialization ...
  extracting TIP4P info from pair style
  using 12-bit tables for long-range coulomb (../kspace.cpp:340)
  G vector (1/distance) = 0.3671099
  grid = 30 40 32
  stencil order = 5
  estimated absolute RMS force accuracy = 0.0045648427
  estimated relative force accuracy = 1.3746888e-05
  using double precision FFTW3
  3d grid and FFT values/proc = 7752 1200
Last active /omp style is kspace_style pppm/tip4p/omp
Total wall time: 0:10:16
