LAMMPS data file via write_data, version 30 Jul 2021, timestep = 7000000

972 atoms
2 atom types
648 bonds
1 bond types
324 angles
1 angle types

-0.07376366534200152 20.07376466534075 xlo xhi
-0.12175982721549161 20.12176082721198 ylo yhi
-0.1345433261049198 20.83454132610678 zlo zhi

Masses

1 1.008
2 15.999

Pair Coeffs # lj/cut/tip4p/long/omp

1 0 0
2 0.21084 3.1668

Bond Coeffs # harmonic/omp

1 450 0.9572

Angle Coeffs # harmonic/omp

1 55 104.52

Atoms # full

31 11 2 -1.1794 1.0452431173902796 2.323301925773197 1.5885683512125977 0 0 0
4 2 2 -1.1794 4.755715816308568 0.8732860380577666 2.9124980989949885 0 0 0
33 11 1 0.5897 1.6345275416088259 2.4131538213906274 0.8396097687538926 0 0 0
12 4 1 0.5897 2.3909603222818916 3.9983290075301277 3.5306597994881397 0 0 0
23 8 1 0.5897 3.2271188243930613 0.764703251285743 4.241046926150061 0 0 0
16 6 2 -1.1794 4.044210521737516 3.4536407664849076 3.3805633150784455 0 0 0
10 4 2 -1.1794 1.4478510025768638 4.120163364206178 3.421348539976792 0 0 0
11 4 1 0.5897 1.1826636099399468 3.418989836263304 2.8261257234714794 0 0 0
18 6 1 0.5897 4.142589805304405 2.5381923078526394 3.1188226735162248 0 0 0
236 79 1 0.5897 0.9379158983636879 0.38393044644225616 1.376148140031939 0 1 0
17 6 1 0.5897 4.214532757081144 3.9514909952919464 2.580930982592559 0 0 0
5 2 1 0.5897 4.645074538451356 0.10577606654265101 2.3513317148840027 0 0 0
32 11 1 0.5897 0.1705507452692956 2.2812723106181454 1.2020320292136921 0 0 0
81 27 1 0.5897 0.023433522888598943 4.444085684715198 4.878440698514643 1 0 0
22 8 2 -1.1794 2.43457577400952 0.7475556056485732 4.777548599282494 0 0 0
102 34 1 0.5897 0.26843031599024636 1.1049735687541467 5.107491668861711 1 0 0
27 9 1 0.5897 2.197739996546325 4.052905472648716 6.795186495214124 0 0 0
356 119 1 0.5897 1.2717852142481734 1.8226669621541234 8.45558426531641 0 0 0
355 119 2 -1.1794 0.49078671336871127 1.7583407809858378 9.00527261740318 0 0 0
325 109 2 -1.1794 2.6049315061721274 2.3361540396238585 7.082568011884226 0 0 0
326 109 1 0.5897 2.577514967227478 1.8250602560086897 6.273678470770756 0 0 0
327 109 1 0.5897 3.5373249453890896 2.4813591711866287 7.2432054392379746 0 0 0
342 114 1 0.5897 3.809125603831239 4.3980398292364775 9.686147453969623 0 0 0
561 187 1 0.5897 0.6164686239362125 0.028023501113773885 9.347201417212753 0 1 0
330 110 1 0.5897 4.142508211962435 0.533520281337167 9.40469421959854 0 0 0
341 114 1 0.5897 3.757481469587425 2.9250928220342542 10.032114227005748 0 0 0
328 110 2 -1.1794 4.129005039499725 1.24778266865386 10.041780773588703 0 0 0
340 114 2 -1.1794 3.401754599205921 3.7758643992096483 10.28882003976234 0 0 0
348 116 1 0.5897 2.34913211383171 0.6182332348590106 11.276509441941133 0 0 0
651 217 1 0.5897 1.7599686569763815 2.419918057195879 14.561771421292343 0 0 0
650 217 1 0.5897 2.329127092032335 1.7509463169885762 13.32866690618958 0 0 0
334 112 2 -1.1794 0.8833812539145866 3.855716696714791 11.140401442538566 0 0 0
346 116 2 -1.1794 2.1084761456669425 0.37709106781214496 12.171064495260252 0 0 0
649 217 2 -1.1794 2.5501659488931443 2.370779120429034 14.023788899888537 0 0 0
683 228 1 0.5897 4.500150992047489 2.4405898768662837 14.705761690803707 0 0 0
347 116 1 0.5897 1.1604190763881024 0.5041838824472833 12.207079085544677 0 0 0
336 112 1 0.5897 1.8385784971121153 3.8117487308542386 11.096551866113467 0 0 0
350 117 1 0.5897 2.6728363941837854 4.357542311280619 13.7713188094413 0 0 0
329 110 1 0.5897 4.809021867081514 1.0175808752275575 10.674912960722747 0 0 0
335 112 1 0.5897 0.5839898473186383 3.2683409795842877 10.446413697900969 0 0 0
332 111 1 0.5897 4.825154406489913 3.937072119342357 11.67916193210366 0 0 0
679 227 2 -1.1794 0.5304899689279463 2.096148475308629 15.875197282827221 0 0 0
653 218 1 0.5897 3.3317104326546363 0.9269594321457881 17.84311273181995 0 0 0
665 222 1 0.5897 3.035862399635349 3.9114220757729647 17.822764822021725 0 0 0
681 227 1 0.5897 0.4878712372530738 2.700814513152164 16.616010267766534 0 0 0
654 218 1 0.5897 4.33598004684755 0.4833526922951489 16.800711189523078 0 0 0
652 218 2 -1.1794 4.247672841931438 1.0267833106799744 17.583760129025286 0 0 0
664 222 2 -1.1794 3.8240925324409156 3.7877156707227555 17.293939393001097 0 0 0
670 224 2 -1.1794 1.7872743362714554 0.38114308571481104 18.63588057017015 0 0 0
658 220 2 -1.1794 0.983922914875786 4.123684798058739 17.9267412513732 0 0 0
666 222 1 0.5897 4.017622103050591 2.8530997157069704 17.366636383559708 0 0 0
671 224 1 0.5897 1.9798978814760009 1.147409226845216 19.176238726437752 0 0 0
672 224 1 0.5897 0.8333248203310983 0.3767394815680964 18.557053726530633 0 0 0
659 220 1 0.5897 0.41425314947286274 4.355164600840833 18.66033160913009 0 0 0
660 220 1 0.5897 0.8830060583811611 4.846329125119191 17.307206671854402 0 0 0
2 1 1 0.5897 2.4848222423146824 3.4710146216004882 20.510473730044218 0 0 -1
656 219 1 0.5897 4.959945167304725 4.425488161346912 18.584849938266352 0 0 0
1 1 2 -1.1794 2.649052264035641 2.5308878214972377 20.436879307163686 0 0 -1
884 295 1 0.5897 0.8610729779141679 0.21856787632066826 16.31438548955208 0 1 0
3 1 1 0.5897 3.5707618740094915 2.428980054281097 20.674174302592203 0 0 -1
674 225 1 0.5897 2.0219322877097743 5.782872047315735 0.4484521535141113 0 0 1
110 37 1 0.5897 1.538857249698948 9.130072781282216 0.4652502703138095 0 0 0
20 7 1 0.5897 0.9685769791060725 5.729250448027318 2.434553877229898 0 0 0
112 38 2 -1.1794 3.8928191405422767 7.358482878400712 3.381978768679703 0 0 0
19 7 2 -1.1794 0.7642842270096464 6.1886674677584805 1.620011251884797 0 0 0
114 38 1 0.5897 3.073311921778754 7.311331022636916 3.8743567827318195 0 0 0
14 5 1 0.5897 4.174099500009554 5.395120515165755 0.610306118278491 0 0 0
132 44 1 0.5897 0.7974014595632554 7.566385972898692 5.059615147228458 0 0 0
140 47 1 0.5897 0.8782112992149518 9.28258321013158 2.6072760713291196 0 0 0
139 47 2 -1.1794 0.5022101418672005 8.885276551535396 1.8217770562867093 0 0 0
141 47 1 0.5897 0.5197343188616967 7.944407918779774 1.996888608226962 0 0 0
15 5 1 0.5897 4.537377410007352 6.295618270619571 1.771804640513796 0 0 0
13 5 2 -1.1794 4.752928934863232 5.453793217427297 1.3704082470440646 0 0 0
126 42 1 0.5897 3.7387761014173004 9.361576965016019 3.257305042997893 0 0 0
113 38 1 0.5897 4.577081231036022 7.285257618864579 4.047333720334013 0 0 0
111 37 1 0.5897 2.985060736681424 8.945397461586488 0.057437481407111884 0 0 0
142 48 2 -1.1794 4.606301920811925 8.66084337555756 0.3167903327537313 0 0 0
26 9 1 0.5897 1.7400612269067082 5.415787215932426 7.269446574418517 0 0 0
343 115 2 -1.1794 0.9530123830229755 5.62547411542278 9.040454284223147 0 0 0
463 155 2 -1.1794 0.6195231224382477 8.65404265790621 8.88450638714558 0 0 0
465 155 1 0.5897 -0.056344711895357696 8.842713827842687 8.23344307799631 0 0 0
25 9 2 -1.1794 2.1194170357777846 4.964830193547113 6.51512677381177 0 0 0
339 113 1 0.5897 4.113640967184894 5.7549330633137625 7.593997303630112 0 0 0
345 115 1 0.5897 0.9661548312308339 6.493612165171358 9.443438412435128 0 0 0
435 145 1 0.5897 2.3243258385202896 8.401939334794097 6.455114967895944 0 0 0
464 155 1 0.5897 1.4315846950415243 8.6049699727857 8.380112715670794 0 0 0
468 156 1 0.5897 4.623766639585386 9.119629344114676 7.26225838771455 0 0 0
337 113 2 -1.1794 4.551012734699877 5.778703801947434 8.445114798813057 0 0 0
433 145 2 -1.1794 2.799106319884534 8.878118481083181 7.136357319924586 0 0 0
437 146 1 0.5897 3.6925980491376733 7.046388260695172 9.504067539269297 0 0 0
438 146 1 0.5897 4.032025188564304 8.521689477519718 9.517511142129026 0 0 0
131 44 1 0.5897 1.8335343807537443 6.558357550294631 5.509244684207415 0 0 0
443 148 1 0.5897 0.8213263270090119 9.932385490650548 10.131004251378002 0 0 0
436 146 2 -1.1794 3.8722207692359825 7.776415731282729 10.096547822084068 0 0 0
434 145 1 0.5897 2.545498386803248 9.79258178205613 7.011114769405256 0 0 0
344 115 1 0.5897 1.1930238648114828 5.028338534903657 9.749038386086053 0 0 0
130 44 2 -1.1794 1.742619206796122 7.430376153044925 5.125134269385541 0 0 0
349 117 2 -1.1794 2.6390026091597187 5.288532355957667 13.991168343309303 0 0 0
757 253 2 -1.1794 2.894773136365035 9.45001345332517 14.34165955304857 0 0 0
454 152 2 -1.1794 2.219864509983889 7.61921814697643 12.367851166445146 0 0 0
455 152 1 0.5897 2.8509313578793134 7.708002537357686 11.653609174082707 0 0 0
456 152 1 0.5897 2.3845231312130717 6.747194281832264 12.726595476573095 0 0 0
759 253 1 0.5897 2.6370906680745523 8.851883832321349 13.64017037654669 0 0 0
792 264 1 0.5897 4.718929710576469 8.978769428644826 14.243476531478919 0 0 0
668 223 1 0.5897 1.348556446480952 5.617936131632217 15.2509357013561 0 0 0
789 263 1 0.5897 1.537740391898907 8.938815485106838 15.541546126781254 0 0 0
351 117 1 0.5897 3.5327702834315806 5.505028400900125 14.256816786276438 0 0 0
533 178 1 0.5897 0.479945714091329 7.559860562730204 12.620215960135727 1 0 0
673 225 2 -1.1794 2.4168163962392404 5.366017821138197 20.651650836841945 0 0 0
780 260 1 0.5897 2.7673184461058495 7.524477809739612 17.969849618223215 0 0 0
778 260 2 -1.1794 2.013971207349015 7.3896977763070995 18.544808088907878 0 0 0
675 225 1 0.5897 2.305143568897628 6.004019092461719 19.946842467061657 0 0 0
779 260 1 0.5897 2.0360158962461896 8.132996876139332 19.14750805862301 0 0 0
760 254 2 -1.1794 4.34316108628358 8.077855092756819 17.037080279008386 0 0 0
858 286 1 0.5897 0.2790860148201634 7.44812468756725 18.511883782655133 1 0 0
761 254 1 0.5897 4.040682426960451 8.984727638446765 17.085328101608205 0 0 0
662 221 1 0.5897 4.302864436779209 5.17651098908592 16.13108018011826 0 0 0
788 263 1 0.5897 0.7109401854204415 9.222858993750684 16.77754971074564 0 0 0
109 37 2 -1.1794 2.1346796843733875 9.230218213463036 20.69188570305421 0 0 -1
669 223 1 0.5897 0.8420910742391744 6.781565686377426 16.076426004652625 0 0 0
787 263 2 -1.1794 0.8158047710374465 8.591737937916688 16.065535575215186 0 0 0
667 223 2 -1.1794 0.6939258735866521 5.850775486180168 15.909351878856272 0 0 0
663 221 1 0.5897 4.3513234735128234 6.682669100272166 15.985962243059651 0 0 0
661 221 2 -1.1794 4.691620333097985 5.873994961529412 15.60321252512041 0 0 0
222 74 1 0.5897 4.016125347936862 13.520510502531543 2.267331797941341 0 0 0
125 42 1 0.5897 4.551118421509285 10.544592722687785 3.739502375321033 0 0 0
120 40 1 0.5897 1.0389926554321025 11.624849166984113 3.2515437186639713 0 0 0
119 40 1 0.5897 2.0177571505942287 10.66343790747511 3.891604856043224 0 0 0
123 41 1 0.5897 4.18395054916678 11.451427083095032 1.7418431424020644 0 0 0
240 80 1 0.5897 2.4347251295777927 13.95908841098496 4.366885060838651 0 0 0
220 74 2 -1.1794 3.779173628845375 14.019158142266827 3.049308228716656 0 0 0
118 40 2 -1.1794 1.0843073979966218 10.867905179262467 3.8357036706614114 0 0 0
129 43 1 0.5897 0.7740001968092839 13.769626301830497 1.9858398256982577 0 0 0
122 41 1 0.5897 4.215769506886335 12.057993049983814 0.3550881719752215 0 0 0
127 43 2 -1.1794 0.760031934138379 12.929097913167848 1.5280595047036576 0 0 0
124 42 2 -1.1794 3.7608472949092655 10.318489022739643 3.2489734167479423 0 0 0
783 261 1 0.5897 1.5831698600995163 12.288982332322474 0.1643562106439314 0 0 1
121 41 2 -1.1794 4.668947161315131 12.07223934081332 1.198124185551689 0 0 0
221 74 1 0.5897 4.166057655063714 14.883412634485422 2.9091836405512677 0 0 0
238 80 2 -1.1794 1.7851906214774773 13.827108416953356 5.057512570039322 0 0 0
133 45 2 -1.1794 2.3619581289197074 11.628177554438958 6.967502689059703 0 0 0
134 45 1 0.5897 1.677951871733795 11.83678593927561 7.603807081587354 0 0 0
135 45 1 0.5897 3.1243286557480348 12.12601528496219 7.262791604768645 0 0 0
239 80 1 0.5897 1.9911897009668786 12.965155121229122 5.419184755653921 0 0 0
451 151 2 -1.1794 0.05430085284429684 12.43911313601276 8.555496673996574 0 0 0
317 106 1 0.5897 -0.06422907903054978 14.278640181935932 5.217961227612702 1 0 0
445 149 2 -1.1794 4.655791879680525 12.755817508552278 8.227522728116359 0 0 0
450 150 1 0.5897 3.850220192084031 11.733610118006839 9.602964454983038 0 0 0
453 151 1 0.5897 0.17227844101171472 11.857946214222126 9.306892847384027 0 0 0
573 191 1 0.5897 0.37417166113400907 14.476127485102518 9.477873066639798 0 0 0
446 149 1 0.5897 4.512783295611961 13.429542516936905 8.892286902196677 0 0 0
448 150 2 -1.1794 3.5643424162107804 11.032335024193864 10.188379340299381 0 0 0
563 188 1 0.5897 2.015687042237847 13.567361020340083 12.411234836316233 0 0 0
449 150 1 0.5897 4.168641247890409 11.076967517565247 10.929400101407316 0 0 0
562 188 2 -1.1794 1.9786216258591542 14.36792696311012 11.887809783324503 0 0 0
769 257 2 -1.1794 4.392442354102832 12.416772800831609 15.349424074492234 0 0 0
457 153 2 -1.1794 2.191347304584442 12.081689468527319 13.474061417500298 0 0 0
458 153 1 0.5897 1.6657953409723902 12.294803389342608 14.245193791714055 0 0 0
459 153 1 0.5897 3.093045368962831 12.259548308073958 13.741566898531534 0 0 0
444 148 1 0.5897 1.7988392448371822 10.856803218393853 10.825117705989474 0 0 0
442 148 2 -1.1794 0.8628742863679173 10.68696872824812 10.718452646862797 0 0 0
758 253 1 0.5897 2.760408731816588 10.323414442155668 13.973754440795172 0 0 0
545 182 1 0.5897 3.5955065377370086 14.411789831524167 10.591380914320771 0 0 0
512 171 1 0.5897 -0.06696999027268191 11.570925992287542 12.47361055625496 1 0 0
546 182 1 0.5897 4.922989228747366 14.466740620937193 11.317101257296565 0 0 0
642 214 1 0.5897 0.10796993082260542 14.403504299911697 12.038627958343655 1 0 0
544 182 2 -1.1794 4.536516733846567 14.503478122931693 10.442130327272281 0 0 0
767 256 1 0.5897 0.4113630639976434 11.124219646371337 18.470649544531653 0 0 0
869 290 1 0.5897 3.241511711822939 14.483351289083418 17.413165871269236 0 0 0
768 256 1 0.5897 0.6938811760369255 11.464301341468115 17.022714895805834 0 0 0
886 296 2 -1.1794 2.28053757339141 14.398631109815598 18.91437369022581 0 0 0
774 258 1 0.5897 3.9659349945911524 11.202942724762792 16.62014777815753 0 0 0
781 261 2 -1.1794 2.1753048753276287 12.02789157886081 20.42812731180046 0 0 0
772 258 2 -1.1794 3.6168698221526467 10.685693067886092 17.346006217988126 0 0 0
888 296 1 0.5897 2.6366045717420676 13.565812194556491 19.223919989030193 0 0 0
766 256 2 -1.1794 0.9653905681219093 10.878820572735993 17.72964130416196 0 0 0
773 258 1 0.5897 2.723536654275237 11.008900861805797 17.46321920961762 0 0 0
771 257 1 0.5897 4.29067686699452 13.296545069189456 15.712582456227642 0 0 0
868 290 2 -1.1794 4.065166039298653 14.616619182524715 16.944047672578584 0 0 0
965 322 1 0.5897 0.3823943927947044 14.131076045264352 18.98332049315782 1 0 0
777 259 1 0.5897 0.7321400190634872 13.592296756892816 15.95677250797984 0 0 0
887 296 1 0.5897 2.4984532116790676 15.024360787767796 19.605200398619445 0 0 0
782 261 1 0.5897 2.0110240149557677 11.092214576818982 20.31088019613582 0 0 0
775 259 2 -1.1794 0.6410154187589945 12.690074175114185 15.65030200770901 0 0 0
870 290 1 0.5897 4.743065434657647 14.384515762816113 17.578722419926322 0 0 0
765 255 1 0.5897 4.770980091086093 10.760226368300287 18.51367665717718 0 0 0
227 76 1 0.5897 1.871570938168187 18.7345731439481 2.905578111860831 0 0 0
234 78 1 0.5897 3.6531069742279603 17.214090669251394 3.7883935903174173 0 0 0
229 77 2 -1.1794 4.63583482002607 18.745824937495783 1.6141229828694899 0 0 0
247 83 2 -1.1794 0.9111835262385614 15.601703864412551 2.3774608969344153 0 0 0
226 76 2 -1.1794 1.8866873743276866 17.99892331297905 3.517786456789039 0 0 0
233 78 1 0.5897 4.5083320527171455 17.387261468429394 2.5512068252615787 0 0 0
232 78 2 -1.1794 4.41690341401395 16.85181638010199 3.33937469888324 0 0 0
235 79 2 -1.1794 0.7470310598505245 19.69491343137948 1.4768710515278747 0 0 0
230 77 1 0.5897 4.186615064138401 18.69024457973607 0.770676733957119 0 0 0
249 83 1 0.5897 1.6447095440420638 15.710182750962943 1.7721144378147984 0 0 0
217 73 2 -1.1794 2.6617304093577667 16.02420671501048 0.24772522504459205 0 0 0
248 83 1 0.5897 0.871209583947739 16.429259895994697 2.8568304718195776 0 0 0
890 297 1 0.5897 1.8856337568438708 18.89604541622048 0.32362623871260754 0 0 1
228 76 1 0.5897 1.1435204795960452 18.156123024604096 4.100222535160428 0 0 0
219 73 1 0.5897 3.5860041893059913 15.776399018978084 0.22396996203817882 0 0 0
218 73 1 0.5897 2.6518426270935267 16.9407920841318 -0.02798294448883354 0 0 0
241 81 2 -1.1794 2.140311760990475 18.58360969333919 7.044246976408633 0 0 0
572 191 1 0.5897 0.805736889048643 15.864308052617819 9.90052910134743 0 0 0
243 81 1 0.5897 1.555556033580945 18.73154488007127 7.787513412736303 0 0 0
555 185 1 0.5897 3.7677709521118845 18.757597075916895 8.208735975853676 0 0 0
571 191 2 -1.1794 0.7682750447330142 15.281287965058157 9.14227261729748 0 0 0
576 192 1 0.5897 4.4085460253192155 15.719640240455702 7.020284439450436 0 0 0
242 81 1 0.5897 2.07335978167595 17.644911188435586 6.869331851656871 0 0 0
559 187 2 -1.1794 0.562582639680052 19.316364726016896 9.378369686010346 0 0 0
542 181 1 0.5897 2.0903770716020533 15.702360850862604 7.42657515506757 0 0 0
541 181 2 -1.1794 2.6633175763192645 15.93935451806054 6.697313687538253 0 0 0
553 185 2 -1.1794 4.399967782167892 18.747806988917688 8.927420356057386 0 0 0
24 8 1 0.5897 2.418600179215768 20.111187179580632 5.154052817469321 0 -1 0
543 181 1 0.5897 2.5791139815619393 15.212726722929487 6.079948591566988 0 0 0
567 189 1 0.5897 2.384050635042258 19.546349765870215 13.430913955436525 0 0 0
866 289 1 0.5897 3.3335237977048213 16.141820503425013 14.02762912827461 0 0 0
556 186 2 -1.1794 4.152313928249486 17.167029721025337 11.102205543732605 0 0 0
565 189 2 -1.1794 2.4264770345707323 18.886726931786963 14.123221019345118 0 0 0
566 189 1 0.5897 2.2910638335534603 18.054445380276196 13.670284307140289 0 0 0
879 293 1 0.5897 3.910610141562691 19.120049572460882 15.054748712826468 0 0 0
867 289 1 0.5897 1.9755196641146546 15.759751985570263 14.576866667169924 0 0 0
865 289 2 -1.1794 2.401880824713745 16.138349083189354 13.808026590844023 0 0 0
552 184 1 0.5897 2.3708116948267572 17.19659286906122 11.044536040324385 0 0 0
885 295 1 0.5897 1.042195298767178 19.312442096073333 15.34614326002829 0 0 0
550 184 2 -1.1794 1.421343647250387 17.22748087587883 10.927023110208498 0 0 0
621 207 1 0.5897 0.2336323305610506 17.448809938436334 12.245436541372541 1 0 0
551 184 1 0.5897 1.2669725365473021 18.031343958506596 10.430830068344735 0 0 0
557 186 1 0.5897 4.570723887665091 16.42660547916252 10.662971064599118 0 0 0
564 188 1 0.5897 2.174708565349926 15.069752405555235 12.508498145525367 0 0 0
896 299 1 0.5897 0.04251361599047729 15.714658730889195 15.562392924682872 0 0 0
558 186 1 0.5897 4.0345989648348715 17.820008820373886 10.412279160566555 0 0 0
891 297 1 0.5897 2.261044860441957 19.34125883901049 19.89526277780196 0 0 0
876 292 1 0.5897 1.199327258154176 18.45993132829113 17.357924950254493 0 0 0
874 292 2 -1.1794 1.3444070054231598 17.6818005542481 17.8961493558293 0 0 0
882 294 1 0.5897 4.119588973852847 16.501259478127267 17.179385415142576 0 0 0
880 294 2 -1.1794 4.185097067643542 17.349524860346566 17.618004049136935 0 0 0
881 294 1 0.5897 3.3330538422039417 17.469255485015914 18.037448327929233 0 0 0
875 292 1 0.5897 0.7262098250179347 17.77284609512423 18.621284573718903 0 0 0
897 299 1 0.5897 0.9463114986534689 16.110727872516005 16.71056430353562 0 0 0
889 297 2 -1.1794 2.603296339229441 18.87761465309167 20.65954821300172 0 0 0
878 293 1 0.5897 4.533717874414149 18.574711488678997 16.322163852942907 0 0 0
883 295 2 -1.1794 0.5214728292212092 19.593565054157867 16.098540447287746 0 0 0
895 299 2 -1.1794 0.8072254204164231 15.42340371081801 16.05903084527283 0 0 0
877 293 2 -1.1794 4.644788897654285 19.25174554297068 15.654674801704777 0 0 0
68 23 1 0.5897 8.177483837125594 2.281011802772717 1.2893846424715074 0 0 0
69 23 1 0.5897 6.723968198346845 1.899202678698944 1.4723322791196094 0 0 0
67 23 2 -1.1794 7.568799451823827 1.9000503327897666 1.9223517592348793 0 0 0
46 16 2 -1.1794 7.965226564591584 4.147412302820197 3.545851576094664 0 0 0
47 16 1 0.5897 7.7484950617551975 3.267385735134044 3.2379466452438144 0 0 0
59 20 1 0.5897 9.348986430773163 0.7873615971724033 3.9316743634646594 0 0 0
273 91 1 0.5897 7.428062872980433 0.02390220409453428 1.3569647969713414 0 1 0
48 16 1 0.5897 7.4780917803703355 4.242050852376337 4.3644029245158755 0 0 0
6 2 1 0.5897 5.470357959432366 0.6372004633696123 3.5039377590600633 0 0 0
53 18 1 0.5897 9.802629389183119 4.033825053308379 3.902345281347211 0 0 0
34 12 2 -1.1794 5.290374253219416 2.4332236494779216 0.39352589165160423 0 0 0
9 3 1 0.5897 5.3160753646094365 4.290047121151031 4.751392803146803 0 0 0
58 20 2 -1.1794 8.688699471661495 0.6618910002218098 4.613247855639966 0 0 0
37 13 2 -1.1794 9.445032539750269 2.542996037617643 -0.0469879127634968 0 0 0
36 12 1 0.5897 5.492183862025562 3.2633871334236884 -0.03809288568541547 0 0 0
391 131 2 -1.1794 8.054769018681077 1.547483775485049 8.874808252426943 0 0 0
8 3 1 0.5897 5.5944543469755 3.782984113426071 6.150438375848961 0 0 0
359 120 1 0.5897 5.484405205618026 1.5986267279841175 6.648759444037564 0 0 0
392 131 1 0.5897 8.532073801166247 1.579986022084878 8.045707532699977 0 0 0
60 20 1 0.5897 8.952827958820041 1.256150004034089 5.3156274335981815 0 0 0
358 120 2 -1.1794 5.478354936631806 2.3258974082400337 7.271086899391113 0 0 0
393 131 1 0.5897 7.912305735349059 0.6143027311525487 9.033284602527209 0 0 0
360 120 1 0.5897 6.075925526312606 2.051506733968407 7.966703349228878 0 0 0
362 121 1 0.5897 9.235530150208845 3.453667052133305 6.5083833178015835 0 0 0
361 121 2 -1.1794 9.367420737974145 2.5075406813933583 6.448000390610207 0 0 0
7 3 2 -1.1794 5.788730789653553 4.506846688461431 5.555039994138699 0 0 0
371 124 1 0.5897 7.927292276328863 3.0103648463361616 10.06575349286684 0 0 0
28 10 2 -1.1794 6.1038437360900994 0.28963775639346495 5.36058234310453 0 0 0
29 10 1 0.5897 7.027107515091387 0.5376107677682339 5.312476872460241 0 0 0
372 124 1 0.5897 7.3083678593304775 3.74835786620766 11.233784627692058 0 0 0
686 229 1 0.5897 8.82289794324549 2.3129788143352803 14.483025142985055 0 0 0
384 128 1 0.5897 9.292996599702047 0.6053003506479988 11.122584423956411 0 0 0
352 118 2 -1.1794 5.9079729489394515 0.7251374995328445 12.274851144557601 0 0 0
386 129 1 0.5897 8.968060836068078 4.4144962914019565 13.770115526948697 0 0 0
685 229 2 -1.1794 9.087682219503149 2.7110393104550776 13.653736616242691 0 0 0
382 128 2 -1.1794 8.691509901312648 0.5520428875792125 11.865253990402621 0 0 0
377 126 1 0.5897 9.721187105263345 4.182784169912785 10.534188783559259 0 0 0
682 228 2 -1.1794 5.402597584589673 2.3424545248288386 14.402156899937744 0 0 0
383 128 1 0.5897 8.946237079085538 1.2793771279073962 12.433013646324817 0 0 0
354 118 1 0.5897 5.760627923332214 1.1448628209470455 13.122412620566749 0 0 0
353 118 1 0.5897 6.8277720198034295 0.9009033847659844 12.07667784617633 0 0 0
717 239 1 0.5897 6.7243574639835115 2.1983243140130715 15.503326357872865 0 0 0
684 228 1 0.5897 5.498755124675078 3.004286907855945 13.717321975776395 0 0 0
331 111 2 -1.1794 5.620532975217559 4.05825145266883 12.19775254070303 0 0 0
370 124 2 -1.1794 7.927034407090659 3.857429188502636 10.51154040149163 0 0 0
708 236 1 0.5897 7.881979394711744 0.7293688954621208 18.92077164793745 0 0 0
694 232 2 -1.1794 7.918688571760563 3.9055467872463394 18.03049878304148 0 0 0
657 219 1 0.5897 6.4409573858273 4.646317832463032 18.807973194268797 0 0 0
715 239 2 -1.1794 7.4611935562351475 1.9950577413845076 16.0795356367164 0 0 0
710 237 1 0.5897 9.160826384396996 4.365269327974393 20.303885218341456 0 0 0
706 236 2 -1.1794 8.791163381376805 0.5976177576717985 18.651943479753825 0 0 0
677 226 1 0.5897 5.596332200120878 0.653674411113838 18.7919540840359 0 0 0
38 13 1 0.5897 9.125437768631834 1.8755854682095687 20.314912278229436 0 0 -1
655 219 2 -1.1794 5.5817266094021685 4.841653381579922 19.181889699136562 0 0 0
695 232 1 0.5897 7.747149510742813 3.1479575341530044 17.471135466113296 0 0 0
35 12 1 0.5897 5.599631907784951 1.7639639055336955 20.752108911910113 0 0 -1
676 226 2 -1.1794 6.071254873267903 0.561677464116641 19.61795184177916 0 0 0
716 239 1 0.5897 7.395066101411283 1.052091948359157 16.23012551118424 0 0 0
702 234 1 0.5897 9.586408459789869 3.8238947108248396 17.653192275004493 0 0 0
696 232 1 0.5897 7.862313179273977 4.657150095685853 17.440452362076726 0 0 0
56 19 1 0.5897 6.471682216775852 5.636550588799046 1.251694549052021 0 0 0
55 19 2 -1.1794 7.396937485451521 5.850850526808207 1.3710232579596506 0 0 0
177 59 1 0.5897 7.915769579414485 9.088381658896612 1.2742664591562005 0 0 0
175 59 2 -1.1794 7.141943380780267 8.872384670174691 1.7946571855945332 0 0 0
711 237 1 0.5897 8.398565938011366 5.55027092935405 -0.11141160600317551 0 0 1
176 59 1 0.5897 7.1080307471612 7.915804186560676 1.788623602912665 0 0 0
143 48 1 0.5897 5.324657047715976 8.790641209870202 0.93595528489183 0 0 0
145 49 2 -1.1794 9.2667900158181 9.501642294744762 -0.02337465963900437 0 0 0
57 19 1 0.5897 7.696153920983781 5.250641199980319 2.0540261267715954 0 0 0
138 46 1 0.5897 6.929785796224472 7.395211223140278 4.99389644464675 0 0 0
501 167 1 0.5897 6.699637620400512 8.625288382110204 8.814886359237276 0 0 0
338 113 1 0.5897 5.476226640649973 5.638834425221792 8.243497711685013 0 0 0
380 127 1 0.5897 7.582104579596079 6.840357739391056 9.061306276323931 0 0 0
500 167 1 0.5897 7.329170392785427 9.495739226114214 9.881660738689135 0 0 0
499 167 2 -1.1794 7.396288441126121 8.633555496727675 9.471307463107987 0 0 0
471 157 1 0.5897 8.608710932785835 9.432527886737473 7.939519231023247 0 0 0
62 21 1 0.5897 8.58716983348179 5.489187796034117 7.309511947107936 0 0 0
168 56 1 0.5897 8.865116472290357 8.250766301366678 5.880485747130429 0 0 0
469 157 2 -1.1794 9.108209738790215 9.623515676254348 7.145603319925472 0 0 0
467 156 1 0.5897 5.704568579504668 8.45156616838856 6.439137355648552 0 0 0
379 127 2 -1.1794 7.547924322052739 5.971009385968862 8.662161989539134 0 0 0
381 127 1 0.5897 7.728622604214886 5.368430085100529 9.383633671975112 0 0 0
61 21 2 -1.1794 9.284978614811541 5.303385774252165 6.681207728613268 0 0 0
466 156 2 -1.1794 5.5723033948896825 9.094053321784882 7.136266804326965 0 0 0
137 46 1 0.5897 5.964545670944593 6.303217605177489 5.4035440123580365 0 0 0
136 46 2 -1.1794 6.002701971821883 7.229441271661902 5.165034643853909 0 0 0
470 157 1 0.5897 9.996847766478238 9.328425059167374 7.344352897097193 0 0 0
167 56 1 0.5897 9.10490861931118 6.778661370987114 5.6211037512140605 0 0 0
166 56 2 -1.1794 8.844590093553935 7.591165340646212 5.187154563180401 0 0 0
461 154 1 0.5897 5.269604060111738 7.284880420255234 11.446575138530124 0 0 0
491 164 1 0.5897 9.264390776712801 7.5131721549539145 11.475685158201138 0 0 0
794 265 1 0.5897 9.335220614688314 8.096255003584352 13.573664465030784 0 0 0
460 154 2 -1.1794 5.711842483570923 6.747123250389745 12.103445060494543 0 0 0
791 264 1 0.5897 6.140862479413836 8.860409307424348 14.749492563690085 0 0 0
790 264 2 -1.1794 5.63046872711533 9.002835817004996 13.952317831037053 0 0 0
490 164 2 -1.1794 8.58606265334362 7.3527585652791245 12.131747247923835 0 0 0
387 129 1 0.5897 8.743591788035967 5.737649337128767 13.06951694612683 0 0 0
492 164 1 0.5897 7.765892957995224 7.371949226154219 11.63856890171546 0 0 0
333 111 1 0.5897 5.71495171549547 5.007721219517869 12.274033460844976 0 0 0
793 265 2 -1.1794 9.661275201465989 8.763312613527534 14.177803512242688 0 0 0
462 154 1 0.5897 5.819901341312644 7.328364461998888 12.856276298442236 0 0 0
385 129 2 -1.1794 8.95513899969805 5.359327930562459 13.9229858982665 0 0 0
705 235 1 0.5897 7.715646260403991 5.681148220182112 15.35209248534764 0 0 0
795 265 1 0.5897 9.354527780123496 9.591637975698399 13.808976984516448 0 0 0
825 275 1 0.5897 8.336603982185505 8.70295477544584 15.37800506346825 0 0 0
815 272 1 0.5897 8.774060543065469 6.823409679733917 19.19552516681923 0 0 0
785 262 1 0.5897 5.887025208615627 6.540332147158498 19.378363849350997 0 0 0
816 272 1 0.5897 8.898948463478265 8.254693264273843 19.672727474213275 0 0 0
784 262 2 -1.1794 5.92526686715874 7.476266061291389 19.181434932901247 0 0 0
824 275 1 0.5897 7.445828022873141 7.677720770941817 16.046855497039104 0 0 0
786 262 1 0.5897 6.843961725213355 7.639235440685442 18.967705759339815 0 0 0
814 272 2 -1.1794 8.730621219013075 7.729600559853641 18.890289690800643 0 0 0
144 48 1 0.5897 5.033235468076439 8.367336473319115 20.480984339240536 0 0 -1
703 235 2 -1.1794 7.289905813612852 5.977476278170794 16.15658993341814 0 0 0
823 275 2 -1.1794 7.5787760933500525 8.621381942790984 15.957063298798095 0 0 0
709 237 2 -1.1794 9.08043284606826 5.316062503092914 20.228007239971262 0 0 0
762 254 1 0.5897 4.987457371842679 8.002034134411591 17.740837638995494 0 0 0
804 268 1 0.5897 7.805105732025957 9.950878033339409 16.956696354351763 0 0 0
704 235 1 0.5897 6.3716120856123935 5.73053659381094 16.047115380458244 0 0 0
164 55 1 0.5897 6.46649975235518 12.697992038462678 1.717771706555897 0 0 0
154 52 2 -1.1794 8.189418360417136 10.798723872689983 3.439226408309919 0 0 0
156 52 1 0.5897 9.138708861688093 10.867981573466016 3.3378653636775546 0 0 0
165 55 1 0.5897 7.888963632473467 12.403436300041276 2.1441369001071697 0 0 0
819 273 1 0.5897 8.352239214560505 12.421283690382426 0.22834317639029938 0 0 1
163 55 2 -1.1794 7.355000100980607 13.052668878242812 1.686301830164756 0 0 0
285 95 1 0.5897 7.534493362868169 15.004891845302252 1.6940644722944194 0 0 0
275 92 1 0.5897 7.719322245244975 14.603181542090256 4.955967360845161 0 0 0
246 82 1 0.5897 5.216722472259449 13.97346932923494 4.27859948241889 0 0 0
274 92 2 -1.1794 8.672344174509139 14.689571326992896 4.977717059978512 0 0 0
116 39 1 0.5897 6.905333593601748 10.97285148601154 4.654710341630483 0 0 0
155 52 1 0.5897 7.9511617201210285 10.017279617378065 2.940405104250599 0 0 0
244 82 2 -1.1794 5.872533731419103 13.915295377675294 4.973417539668601 0 0 0