LAMMPS data file via write_data, version 30 Jul 2021, timestep = 2000000

972 atoms
2 atom types
648 bonds
1 bond types
324 angles
1 angle types

0.021140774759558667 19.97886022523975 xlo xhi
0.008783037766681545 19.99121796222643 ylo yhi
0.12096678196495247 20.579031218038196 zlo zhi

Masses

1 1.008
2 15.999

Pair Coeffs # lj/cut/tip4p/long/omp

1 0 0
2 0.21084 3.1668

Bond Coeffs # harmonic/omp

1 450 0.9572

Angle Coeffs # harmonic/omp

1 55 104.52

Atoms # full

23 8 1 0.5897 2.8670920444624293 1.2146938806304977 4.8811591270904415 0 0 0
10 4 2 -1.1794 1.5486881348056998 3.795696971975048 4.171300587162795 0 0 0
11 4 1 0.5897 1.4178346497013612 2.939138316829395 3.7645090757909525 0 0 0
12 4 1 0.5897 2.476237932573555 3.987831550717721 4.033094969590788 0 0 0
31 11 2 -1.1794 1.052486674188537 1.6945830716868766 2.3043255354736445 0 0 0
33 11 1 0.5897 1.7816632419822727 1.8962957500355428 1.7178176133934802 0 0 0
20 7 1 0.5897 1.1156285992710895 4.8810678349800565 2.6494397292849063 0 0 0
3 1 1 0.5897 3.949668930034368 2.2954958547174575 0.5753911632942939 0 0 0
109 37 2 -1.1794 2.6055957488706056 8.984196725693591 0.1903924144030234 0 0 0
102 34 1 0.5897 0.4863780278713509 0.9259569643102823 4.903185365513137 1 0 0
139 47 2 -1.1794 0.8273595905253219 8.75655509445996 2.4077824136889023 0 0 0
111 37 1 0.5897 3.5065028387258836 9.209270517775048 0.42293269980035836 0 0 0
19 7 2 -1.1794 1.028524841018644 5.697840407719248 2.157914541730101 0 0 0
17 6 1 0.5897 4.550720332043566 4.608829011907248 2.581100817714158 0 0 0
18 6 1 0.5897 4.4007824525234165 3.2469380185994092 3.2251659117320592 0 0 0
110 37 1 0.5897 2.164311631837603 8.861308178696532 1.0309801203365816 0 0 0
5 2 1 0.5897 4.347857721010751 0.8567879719690606 2.9885056638068117 0 0 0
4 2 2 -1.1794 4.33685331417544 1.3692066602803454 3.79701551928971 0 0 0
16 6 2 -1.1794 4.217711799662404 4.175706024201433 3.367152794400542 0 0 0
1 1 2 -1.1794 2.9957144445369215 2.3328701407417927 0.5050410063361134 0 0 0
14 5 1 0.5897 3.963207730754913 5.533659514519881 0.6223421232294699 0 0 0
112 38 2 -1.1794 3.8507262543012604 7.999344067969394 3.060602086416434 0 0 0
114 38 1 0.5897 3.243559182033311 7.694905137707041 3.735184193073587 0 0 0
15 5 1 0.5897 4.239248254803968 6.544962578826264 1.7147132436927914 0 0 0
141 47 1 0.5897 1.026448495580828 7.916216942960949 2.820695159071388 0 0 0
140 47 1 0.5897 0.8824249707853854 9.393158117635553 3.1205698225420195 0 0 0
13 5 2 -1.1794 4.659575978729488 5.863083178708934 1.1905940634989494 0 0 0
674 225 1 0.5897 1.6899755486282881 5.161156940450792 0.5864323152708698 0 0 1
21 7 1 0.5897 0.09214392486639979 5.767065632001941 1.9714287245973976 0 0 0
113 38 1 0.5897 4.714458060072519 7.934454106204415 3.4681576022075506 0 0 0
32 11 1 0.5897 0.27184467743973956 1.9537866716541106 1.8146413286837937 0 0 0
130 44 2 -1.1794 2.16125624043195 7.423280106067411 5.16175328925057 0 0 0
132 44 1 0.5897 1.2282933418682316 7.60595949681224 5.049547815677733 0 0 0
2 1 1 0.5897 2.8125927560567696 3.2190962630811324 0.1930226037008821 0 0 0
126 42 1 0.5897 3.9325099076493495 9.944556726772655 3.3384341435298164 0 0 0
81 27 1 0.5897 0.04336000946929676 4.332178560407509 5.075067737892252 1 0 0
325 109 2 -1.1794 3.121591854780249 2.775294209257943 7.310337738998335 0 0 0
326 109 1 0.5897 2.863157946518011 2.091724854806522 6.69205835208775 0 0 0
327 109 1 0.5897 4.078675755495049 2.7595256846574476 7.299330917888894 0 0 0
355 119 2 -1.1794 0.9983009550609805 2.2127700332443454 8.907853060329757 0 0 0
356 119 1 0.5897 1.78458524082603 2.349231472231393 8.379144470791642 0 0 0
337 113 2 -1.1794 4.208753037313547 6.14198730255911 8.653252864548202 0 0 0
343 115 2 -1.1794 0.8055571614479516 5.627707362833736 9.057770777273106 0 0 0
27 9 1 0.5897 2.4775846281654403 4.464310144745505 6.691611788726951 0 0 0
330 110 1 0.5897 4.203862310915701 0.6170421750365785 9.372711508177021 0 0 0
339 113 1 0.5897 3.6701381779044016 5.727209430870308 7.979318617476205 0 0 0
463 155 2 -1.1794 0.9382876862415349 8.382810135260042 8.762222061208268 0 0 0
433 145 2 -1.1794 3.2567738364234833 9.168190145069074 7.372586300946594 0 0 0
25 9 2 -1.1794 2.36747931241433 5.391803821166364 6.901144936308721 0 0 0
465 155 1 0.5897 0.2424407914684536 8.762529415113827 8.22559066369711 0 0 0
328 110 2 -1.1794 4.065139598643817 1.3096637938170308 10.018741637896056 0 0 0
344 115 1 0.5897 0.8337741480225906 5.114050392033552 9.865067741149955 0 0 0
345 115 1 0.5897 1.0645873294683947 6.509533043195991 9.325281930939216 0 0 0
464 155 1 0.5897 1.749135663988256 8.677940095506639 8.347764292883863 0 0 0
435 145 1 0.5897 3.067834428307362 8.542175821827408 6.6734638426688 0 0 0
443 148 1 0.5897 0.8628712492042869 9.610116702980921 10.282709259873265 0 0 0
26 9 1 0.5897 1.7571578771358756 5.400466129365241 7.63860441385767 0 0 0
342 114 1 0.5897 3.9927460603878675 4.641948640196143 9.750971779781736 0 0 0
437 146 1 0.5897 4.1596362954075 7.6786341116912435 9.45986846825868 0 0 0
22 8 2 -1.1794 2.1157664410744683 0.9626548512070414 5.418155413267532 0 0 0
131 44 1 0.5897 2.1920645874196616 6.524564633446072 5.489857710749411 0 0 0
357 119 1 0.5897 0.27993797094214207 2.515265167814752 8.35214053680253 0 0 0
561 187 1 0.5897 0.6948948021480905 0.35487138657993844 8.931579181707248 0 1 0
24 8 1 0.5897 2.291556864353086 0.05489836878523921 5.665866486838782 0 0 0
436 146 2 -1.1794 4.259558612200613 8.359295952688887 10.125458754850275 0 0 0
438 146 1 0.5897 4.151367730009333 9.18098041627284 9.64645378270479 0 0 0
341 114 1 0.5897 3.981030551186886 3.1582512527438675 10.051776348730284 0 0 0
329 110 1 0.5897 4.832665033877003 1.2632680797287041 10.588965372767785 0 0 0
649 217 2 -1.1794 2.779788973065413 2.4110300819794874 14.14747425988616 0 0 0
650 217 1 0.5897 2.365323294711454 1.9605768695401464 13.411494909236842 0 0 0
335 112 1 0.5897 0.9566870517063856 3.107013013233449 10.53839138531105 0 0 0
792 264 1 0.5897 4.224165503895459 9.429809258465573 14.174519907766602 0 0 0
349 117 2 -1.1794 2.7588798128366787 5.324243912319818 13.434618960505912 0 0 0
757 253 2 -1.1794 2.2410407971425435 9.29379403953169 14.032630090307704 0 0 0
347 116 1 0.5897 1.1322930970014484 0.6443094571213115 11.78079767780329 0 0 0
346 116 2 -1.1794 2.0665735059839143 0.5808300678647639 11.979487526567548 0 0 0
348 116 1 0.5897 2.4953742000979022 0.5940205807775631 11.123696056939668 0 0 0
350 117 1 0.5897 2.607657379741952 4.385940934972856 13.548627884328647 0 0 0
668 223 1 0.5897 1.3951323469710677 5.593649354278678 14.793031994883883 0 0 0
454 152 2 -1.1794 2.153438385974284 7.544365388105312 11.691446729609908 0 0 0
351 117 1 0.5897 3.5564466161272126 5.50115517914693 13.933571868326402 0 0 0
759 253 1 0.5897 2.1357537552920007 8.868611899348847 13.181444392622849 0 0 0
340 114 2 -1.1794 3.8415196511675185 4.013969392934835 10.457455895334892 0 0 0
651 217 1 0.5897 2.3083574680280488 2.0952311530756567 14.918461013657062 0 0 0
455 152 1 0.5897 2.8431696686434624 7.875815609805626 11.11634201539419 0 0 0
456 152 1 0.5897 2.4910603449930155 6.70887310307678 12.014217001333485 0 0 0
336 112 1 0.5897 2.08664390411696 3.826596929960695 11.243829497745478 0 0 0
683 228 1 0.5897 4.655468943102615 2.576001088457266 14.223743971708714 0 0 0
334 112 2 -1.1794 1.1374355980160662 3.704259069325221 11.264339329021116 0 0 0
680 227 1 0.5897 0.1771668617335847 1.4015835738949654 15.303929548938525 0 0 0
533 178 1 0.5897 0.39440524934261606 7.412818775731067 12.017601877296613 1 0 0
661 221 2 -1.1794 4.729068719681795 5.972245238417142 15.218995558099149 0 0 0
332 111 1 0.5897 4.957745542374747 4.594529543136202 11.806294611039961 0 0 0
789 263 1 0.5897 1.3724093104943713 8.618666402225612 15.394626864472755 0 0 0
652 218 2 -1.1794 4.253681492926921 1.293591858017965 16.97657312640269 0 0 0
658 220 2 -1.1794 1.1804411296700363 3.6448359571366975 17.399101256561668 0 0 0
787 263 2 -1.1794 0.8442924692525553 8.39799943932367 16.161963016862753 0 0 0
664 222 2 -1.1794 3.8899579960134254 4.098841098700101 17.07734978597252 0 0 0
666 222 1 0.5897 4.095750394264945 3.1662941746272892 17.012263170053828 0 0 0
671 224 1 0.5897 2.6388122747420453 1.2119582625934475 19.633374934512887 0 0 0
653 218 1 0.5897 3.633125662192561 0.9220012424219417 17.603639712311445 0 0 0
665 222 1 0.5897 2.9426533468636475 4.12675485551533 17.212324262784993 0 0 0
660 220 1 0.5897 0.938118785093208 4.3424460082614456 16.790039540016068 0 0 0
662 221 1 0.5897 4.439446235667778 5.301452934563791 15.83742745747111 0 0 0
858 286 1 0.5897 0.20389541234781253 7.144555736255833 18.83041032520896 1 0 0
788 263 1 0.5897 0.9717741752085405 9.133849344933452 16.76079003680273 0 0 0
670 224 2 -1.1794 2.4522318050266705 0.7539986441145275 18.813705916907445 0 0 0
672 224 1 0.5897 1.5996184405886464 1.091480021763307 18.53888776221852 0 0 0
760 254 2 -1.1794 4.147580272353665 8.164977442160174 16.818003731132123 0 0 0
778 260 2 -1.1794 2.172744315365006 7.105565845229482 18.75457584052854 0 0 0
779 260 1 0.5897 2.2805023627552057 7.794461137073586 19.41043863952189 0 0 0
780 260 1 0.5897 2.6231225315390634 7.440017360838635 17.978881396217965 0 0 0
654 218 1 0.5897 4.320207357276351 0.6346335742533213 16.285419259237834 0 0 0
675 225 1 0.5897 2.3213876927758386 5.592924535600369 19.73789491843549 0 0 0
679 227 2 -1.1794 0.7695748865333825 1.2307050736878073 16.036218859484627 0 0 0
761 254 1 0.5897 3.8166910283559994 9.063174460647863 16.81347308500417 0 0 0
669 223 1 0.5897 0.8547505231226821 6.635474675719609 15.749468104291688 0 0 0
681 227 1 0.5897 0.6912701603177213 2.0047182719039345 16.593983047521057 0 0 0
659 220 1 0.5897 0.5932826106665755 3.763430342089558 18.145824044236388 0 0 0
667 223 2 -1.1794 0.8104403337694422 5.701773693703973 15.543260625581715 0 0 0
663 221 1 0.5897 4.406161813888848 6.794287002767838 15.588108943164933 0 0 0
762 254 1 0.5897 4.850823558465947 8.171535718534836 17.467444806885428 0 0 0
673 225 2 -1.1794 2.377840305296002 4.925548974119856 20.421816267117798 0 0 0
120 40 1 0.5897 1.0788950826865495 11.391766831985946 3.4459896707021325 0 0 0
230 77 1 0.5897 4.170519673161874 19.04882448319293 1.02141590618952 0 0 0
129 43 1 0.5897 0.8268924206579462 13.14504782271667 2.1199725675209047 0 0 0
240 80 1 0.5897 2.854069899979448 14.303894697705 4.455676676275407 0 0 0
222 74 1 0.5897 4.35074544153695 13.990844159333447 2.5046640124896666 0 0 0
217 73 2 -1.1794 2.6531448031407514 15.863988219279674 0.49700338389564547 0 0 0
118 40 2 -1.1794 1.249734561045094 10.788133566339013 4.169043346434538 0 0 0
123 41 1 0.5897 3.8865740279734786 12.304824208301216 0.6068763428855444 0 0 0
119 40 1 0.5897 2.2032646399740754 10.778040582646142 4.253080637198369 0 0 0
122 41 1 0.5897 4.241788441663381 11.98717107180993 2.0439902325308643 0 0 0
233 78 1 0.5897 3.801024626889871 18.192351466085405 3.173645339605304 0 0 0
890 297 1 0.5897 1.6159748522057993 18.763217005958268 0.6855446744251761 0 0 1
783 261 1 0.5897 1.7411809678259895 11.839570521914311 0.4199638511861616 0 0 1
249 83 1 0.5897 1.5100200318113266 15.220330153970346 1.7900597286019204 0 0 0
247 83 2 -1.1794 0.8006135027430884 15.015864418654266 2.3994252594384586 0 0 0
235 79 2 -1.1794 0.6251021112401592 18.879102540690972 2.2065567143196643 0 0 0
234 78 1 0.5897 2.999921032862929 17.23560447771513 4.031005012282668 0 0 0
226 76 2 -1.1794 1.1224833979672584 17.012929945045272 4.193630892502446 0 0 0
227 76 1 0.5897 0.8847012956104094 17.688435491862926 3.558415012088445 0 0 0
221 74 1 0.5897 4.364556792504428 15.454193802547374 2.892484782882716 0 0 0
232 78 2 -1.1794 3.895622075390656 17.44870871081396 3.7689405715893405 0 0 0
127 43 2 -1.1794 0.6547995755447256 12.23300198105067 1.8858380947524418 0 0 0
125 42 1 0.5897 4.477330911995172 11.033873859269043 4.237731768735932 0 0 0
220 74 2 -1.1794 4.597191156925529 14.583445406201895 3.2149042490522626 0 0 0
248 83 1 0.5897 0.9142050968844215 15.638375382795193 3.1176850640798897 0 0 0
124 42 2 -1.1794 3.91074279348948 10.891072981879294 3.4794508558547665 0 0 0
228 76 1 0.5897 0.5905257201896569 17.21046600615697 4.964600037551117 0 0 0
121 41 2 -1.1794 4.362516235785881 12.648847327761493 1.3628553464319166 0 0 0
229 77 2 -1.1794 4.448090073131557 19.47132016208956 1.8343375821761583 0 0 0
236 79 1 0.5897 0.7008756295664385 19.81090212456798 2.412198814378857 0 0 0
238 80 2 -1.1794 2.2855225924160485 14.231348634134985 5.222412081376051 0 0 0
219 73 1 0.5897 3.6048644248061703 15.824544125823163 0.4019862931444184 0 0 0
218 73 1 0.5897 2.432031693166728 16.778417885014726 0.3205309086766128 0 0 0
133 45 2 -1.1794 2.7638165910546872 11.855260874417684 6.708976891869235 0 0 0
134 45 1 0.5897 2.058011037600507 11.817031078904863 7.354562977770671 0 0 0
135 45 1 0.5897 3.4270011119477353 12.416165324696681 7.111380450563345 0 0 0
576 192 1 0.5897 4.535892676736199 15.725310908496708 7.613180800911194 0 0 0
553 185 2 -1.1794 4.150193269088901 19.119392718690754 8.386655401448982 0 0 0
451 151 2 -1.1794 0.6993900253631077 11.940734278541367 8.578104750902341 0 0 0
445 149 2 -1.1794 4.855407794734569 13.174936144933469 8.067079873890899 0 0 0
559 187 2 -1.1794 0.6272432623785533 19.40413239014783 8.72935320742134 0 0 0
558 186 1 0.5897 3.688492897638447 18.010679706495758 9.71249049242982 0 0 0
572 191 1 0.5897 1.645471430043951 14.701897477964643 10.039811403760083 0 0 0
446 149 1 0.5897 4.714920395129005 13.947669131194424 8.614302922173385 0 0 0
543 181 1 0.5897 2.642876039097583 15.303999578892284 6.5425259623018155 0 0 0
551 184 1 0.5897 0.70265782531112 17.962251195648776 10.049030949626612 0 0 0
555 185 1 0.5897 3.5174131270718463 18.987738333303113 7.6804936548674805 0 0 0
571 191 2 -1.1794 1.2613813690949056 14.5982330537039 9.169091405280591 0 0 0
541 181 2 -1.1794 2.766303110176792 15.814212959294819 7.343038626462081 0 0 0
450 150 1 0.5897 4.179379058476711 11.842923065945604 9.470868095729754 0 0 0
542 181 1 0.5897 2.2078649799833583 15.383803563498848 7.990549102399981 0 0 0
242 81 1 0.5897 2.2340965753968023 17.45821190034753 6.841725297481875 0 0 0
241 81 2 -1.1794 2.169057753371982 18.40176898466232 6.694318024743056 0 0 0
243 81 1 0.5897 1.5796669105324568 18.71204511651849 7.381845437693723 0 0 0
453 151 1 0.5897 0.7476086158790333 11.388594471017289 9.358599192726695 0 0 0
573 191 1 0.5897 1.1670838663935938 13.651992580379977 9.059480156995944 0 0 0
434 145 1 0.5897 3.106940500456125 10.025482724406542 6.9739536418442905 0 0 0
448 150 2 -1.1794 3.5931573328336865 11.288155631085228 9.985591567074827 0 0 0
239 80 1 0.5897 2.3460229831527855 13.311392232574972 5.479887560214275 0 0 0
554 185 1 0.5897 5.00363900037555 19.077217836949295 7.955091961191642 0 0 0
544 182 2 -1.1794 4.314639354946729 14.827158129579246 10.239377216234214 0 0 0
557 186 1 0.5897 4.06977498986307 16.666049061625813 10.294402221660475 0 0 0
317 106 1 0.5897 0.3593221882383854 14.279377633118857 5.276827485550079 1 0 0
457 153 2 -1.1794 2.482738729363005 11.971510872157205 13.54583064691337 0 0 0
458 153 1 0.5897 1.7030377636517815 12.158288811180492 14.068854262014716 0 0 0
459 153 1 0.5897 3.1597220150617873 12.540270795384773 13.912610368868155 0 0 0
562 188 2 -1.1794 1.8213367830869698 14.188150958254674 11.876291163901673 0 0 0
563 188 1 0.5897 2.1121422557938554 13.34020937494688 12.212007544604319 0 0 0
545 182 1 0.5897 3.5589799782100946 14.510309477437142 10.73431693967792 0 0 0
769 257 2 -1.1794 4.380471328983241 12.963724993450478 15.144603929692419 0 0 0
550 184 2 -1.1794 0.9195700465241031 17.26007441082492 10.662409518078992 0 0 0
879 293 1 0.5897 4.030149286678644 18.71848765287833 14.707022889329203 0 0 0
758 253 1 0.5897 2.107746048623212 10.224648003972401 13.85400119617736 0 0 0
552 184 1 0.5897 1.8674683099187377 17.32683399802457 10.77820475988902 0 0 0
567 189 1 0.5897 2.7463637926147446 19.046028885357977 13.083380762533764 0 0 0
548 183 1 0.5897 4.962072836634858 18.02543711792795 11.596531203068539 0 0 0
564 188 1 0.5897 1.8128716835851528 14.760031899165154 12.643913409857094 0 0 0
444 148 1 0.5897 1.943128679879423 10.61624391858234 10.618691549044248 0 0 0
775 259 2 -1.1794 0.40005915894545613 12.576964207846483 15.118438288668765 0 0 0
866 289 1 0.5897 3.798098899482625 15.504472328001617 13.941975384205948 0 0 0
565 189 2 -1.1794 2.527437170370514 18.491342590028665 13.832215969508193 0 0 0
566 189 1 0.5897 2.636879622689032 17.59715065312711 13.50858129860177 0 0 0
885 295 1 0.5897 0.7716732798618043 18.395264419222876 14.815217988577636 0 0 0
867 289 1 0.5897 2.4780389078538594 15.327001914902453 14.661843786696195 0 0 0
865 289 2 -1.1794 2.8534491947779883 15.60901038598891 13.827610843902184 0 0 0
556 186 2 -1.1794 3.6514460449072264 17.497094584804856 10.51947929355975 0 0 0
896 299 1 0.5897 0.2835368188856832 15.683942948005079 15.430502443564516 0 0 0
442 148 2 -1.1794 1.037050595549854 10.382550966227356 10.82060998640039 0 0 0
877 293 2 -1.1794 4.527617679975135 19.07169768388527 15.444689041696236 0 0 0
777 259 1 0.5897 0.47566755888003576 13.496222393499867 15.374419324740794 0 0 0
449 150 1 0.5897 3.813826381668395 11.485427267623152 10.89596234157178 0 0 0
965 322 1 0.5897 0.16760095558746002 14.380891903983759 18.706544198519847 1 0 0
875 292 1 0.5897 0.6261928189947576 17.228168031312862 18.63169531039663 0 0 0
888 296 1 0.5897 2.0616567364099656 13.29711446725413 19.270452577319205 0 0 0
768 256 1 0.5897 0.6807045849169364 11.78972006100305 16.802044627402594 0 0 0
884 295 1 0.5897 0.4607243402086567 19.39503344448986 15.908828981320774 0 0 0
773 258 1 0.5897 2.741007373617011 10.886469171746231 16.813953865109983 0 0 0
869 290 1 0.5897 3.3060073448670115 14.310268649987728 17.48631471822245 0 0 0
878 293 1 0.5897 4.291152100434122 18.5114238099356 16.183975886017688 0 0 0
887 296 1 0.5897 2.079985114118491 14.765814314312857 19.636921024652068 0 0 0
781 261 2 -1.1794 2.21524739434238 11.676216549153777 20.062555890449946 0 0 0
886 296 2 -1.1794 1.9170172473720812 14.170103378922068 18.90560334359125 0 0 0
891 297 1 0.5897 2.2245714966012917 19.126398979447444 19.805676307912535 0 0 0
772 258 2 -1.1794 3.6949274352307655 10.864606271630548 16.89103063053031 0 0 0
883 295 2 -1.1794 0.29211798211021955 18.492528878155014 15.637995620664237 0 0 0
868 290 2 -1.1794 4.038720388869131 14.723435803984783 17.029379235489692 0 0 0
895 299 2 -1.1794 0.9478352971399125 15.208901579998122 15.929887584554546 0 0 0
880 294 2 -1.1794 3.838440299907658 17.423030724558046 17.57918323910008 0 0 0
874 292 2 -1.1794 1.1890727990596988 17.11182232723661 17.8661666818747 0 0 0
766 256 2 -1.1794 0.9736548796618798 11.075569061604238 17.36815486510383 0 0 0
897 299 1 0.5897 0.9616483402307935 15.641891047528047 16.783493785161383 0 0 0
876 292 1 0.5897 0.8107616341612743 17.686411352353744 17.200514910197892 0 0 0
882 294 1 0.5897 3.9620659169951047 16.587319042652453 17.12907474505267 0 0 0
881 294 1 0.5897 2.89635285858847 17.47078796133426 17.742171249211502 0 0 0
774 258 1 0.5897 3.9989715123930334 11.558414061752341 16.305765492895684 0 0 0
870 290 1 0.5897 4.80262767629722 14.523122777881076 17.570403287791976 0 0 0
889 297 2 -1.1794 2.2830993541097695 18.48656262497193 20.515287836367136 0 0 0
767 256 1 0.5897 0.3131941577031252 11.03109865239451 18.059686043553803 0 0 0
873 291 1 0.5897 4.867184202363761 17.937793892157814 18.965051399748873 0 0 0
782 261 1 0.5897 2.3030001754182523 10.723873775102879 20.022618132481515 0 0 0
764 255 1 0.5897 4.914441971383881 11.336952458060468 18.44729523879462 0 0 0
771 257 1 0.5897 4.320359937287534 13.550588101388772 15.898494968367816 0 0 0
175 59 2 -1.1794 7.613705853652014 9.019706982536992 1.877524722595146 0 0 0
142 48 2 -1.1794 5.28982789600646 9.408785315058042 0.42111376106546733 0 0 0
137 46 1 0.5897 6.222403188611979 6.664021963065365 4.792023511631799 0 0 0
53 18 1 0.5897 9.81102935601485 4.510296446946839 3.9256161238669742 0 0 0
138 46 1 0.5897 7.208878148726663 7.811197524304585 4.737730673315367 0 0 0
68 23 1 0.5897 8.482797661906151 2.901673074736621 1.3282268716713366 0 0 0
67 23 2 -1.1794 7.734908189273668 2.6401681629151996 1.865504353832824 0 0 0
47 16 1 0.5897 7.7581524104611495 4.207665082509481 3.0390351820971353 0 0 0
69 23 1 0.5897 6.968958959917717 2.8886896941205196 1.3478690781898095 0 0 0
46 16 2 -1.1794 7.931563805524954 4.760618362225402 3.800958184017788 0 0 0
41 14 1 0.5897 9.83601840149614 1.2364415872564993 3.6090855638019583 0 0 0
177 59 1 0.5897 8.13157046822094 9.35320107133102 1.1447394341454855 0 0 0
166 56 2 -1.1794 8.859269854986211 7.624597840908111 5.076319583396732 0 0 0
55 19 2 -1.1794 7.366002965154666 6.334904298114274 1.2310640707254632 0 0 0
176 59 1 0.5897 7.5797786230906725 8.073551534520268 1.73645688007579 0 0 0
56 19 1 0.5897 6.459055240337456 6.089970350195181 1.047176293984714 0 0 0
48 16 1 0.5897 7.258129468277749 4.513880243381385 4.4349391810619725 0 0 0
57 19 1 0.5897 7.599511160549505 5.825616284874811 2.0072488103217996 0 0 0
143 48 1 0.5897 6.069102443443148 9.391949727876616 0.9768530732540694 0 0 0
273 91 1 0.5897 7.363433500611395 0.7468042547696713 2.19012384860937 0 1 0
34 12 2 -1.1794 5.702816776241575 2.934426855308375 0.23089420025076662 0 0 0
9 3 1 0.5897 5.128681414036687 4.497700518602136 4.931799734252544 0 0 0
6 2 1 0.5897 5.075732712948285 1.0330184788334842 4.304368886983005 0 0 0
136 46 2 -1.1794 6.275978230393135 7.610717626820011 4.661089054505784 0 0 0
359 120 1 0.5897 6.481243341873828 2.699594282181232 7.9951838297156845 0 0 0
393 131 1 0.5897 7.500098869546576 1.004252749190682 8.916260415523649 0 0 0
7 3 2 -1.1794 5.731747078088024 4.909988577488725 5.550432846873609 0 0 0
59 20 1 0.5897 9.23844848599019 1.2196072989555575 5.859118252691593 0 0 0
392 131 1 0.5897 8.523630133810704 2.0046728310468627 8.422617661132685 0 0 0
362 121 1 0.5897 9.21827932240156 3.4913271205423495 6.952603304257643 0 0 0
500 167 1 0.5897 7.556650208323069 8.881116417608244 9.70743650974195 0 0 0
381 127 1 0.5897 7.169061917859874 5.180026932754068 9.463535394312933 0 0 0
8 3 1 0.5897 5.774724321811321 4.299760360284231 6.286726131924902 0 0 0
391 131 2 -1.1794 7.7908983528389175 1.9089725240175768 9.03114959097185 0 0 0
467 156 1 0.5897 5.92019020407172 8.584568368738825 6.221072375394295 0 0 0
379 127 2 -1.1794 6.997539843672621 5.620842313909752 8.631271471047478 0 0 0
470 157 1 0.5897 9.155846723957005 8.774211595625124 7.897788500071731 0 0 0
360 120 1 0.5897 6.067466191122297 1.9390058948200828 6.7531772118328055 0 0 0
380 127 1 0.5897 7.18168665581388 6.543765420735228 8.806163025944237 0 0 0
466 156 2 -1.1794 6.061990963193903 9.079817058498296 7.0279240147739195 0 0 0
499 167 2 -1.1794 7.671576016045178 8.27754196750048 8.973381648526347 0 0 0
358 120 2 -1.1794 5.864793261797659 2.723321730956677 7.263172284376248 0 0 0
61 21 2 -1.1794 9.052002671030195 5.235019055523015 6.560897184732954 0 0 0
501 167 1 0.5897 7.14655791779298 8.655166178910237 8.267591630306555 0 0 0
167 56 1 0.5897 8.837491585995211 6.736422451268857 5.4326139044639685 0 0 0
62 21 1 0.5897 8.27798040802161 5.637596322801098 6.954759154739054 0 0 0
361 121 2 -1.1794 9.576681429059581 2.618555283580866 7.1141870530256215 0 0 0
468 156 1 0.5897 5.188886655282607 9.172292250590555 7.409380713529003 0 0 0
168 56 1 0.5897 9.165468775267806 8.16724703512452 5.803027640677632 0 0 0
469 157 2 -1.1794 9.596023151392012 9.140307480690833 7.130572805204646 0 0 0
28 10 2 -1.1794 6.477258513004007 0.5878293020393935 5.507742734182059 0 0 0
63 21 1 0.5897 9.738504513956846 5.339482425069261 7.2198257072084635 0 0 0
29 10 1 0.5897 7.426935305941135 0.6357858640011333 5.397353214091101 0 0 0
338 113 1 0.5897 5.09739385404614 6.119072638276574 8.298069806981063 0 0 0
371 124 1 0.5897 7.799420720671888 3.3640489184195643 10.340393509718854 0 0 0
58 20 2 -1.1794 9.056802743114288 0.47860396815126016 5.2809774542057175 0 0 0
685 229 2 -1.1794 8.923684185024939 2.7083065671825395 13.715605983360609 0 0 0
352 118 2 -1.1794 6.051889289678489 1.0501673518527377 11.975509643326866 0 0 0
386 129 1 0.5897 8.857811468725547 4.545617797571708 13.484246713990148 0 0 0
382 128 2 -1.1794 8.945944942079176 0.5018566813878484 12.296201103280287 0 0 0
372 124 1 0.5897 7.200381027811554 4.344277417462691 11.326543566170542 0 0 0
794 265 1 0.5897 9.474775031028566 8.637754045774017 13.499966836794702 0 0 0
461 154 1 0.5897 6.078833880066612 8.33601506035458 12.818859043154426 0 0 0
383 128 1 0.5897 9.059235577428012 1.317646920767802 12.784010588129679 0 0 0
686 229 1 0.5897 8.373849269435551 2.4760788707257855 14.464030671582012 0 0 0
684 228 1 0.5897 5.716906533372547 3.507541126743039 13.678064313759615 0 0 0
791 264 1 0.5897 5.528202399127348 9.60249405151218 14.92410775882529 0 0 0
353 118 1 0.5897 7.003094505660522 0.9688965360633754 11.904926209941257 0 0 0
370 124 2 -1.1794 8.003047219180507 4.154315067687252 10.840723771318931 0 0 0
385 129 2 -1.1794 9.093618469452165 5.430465389244916 13.763056361406218 0 0 0
462 154 1 0.5897 5.681314496127631 7.814475307882779 11.45418859991949 0 0 0
331 111 2 -1.1794 5.666091152334271 4.830839274528364 12.405279803261372 0 0 0
377 126 1 0.5897 9.69852830313148 3.4910461693992314 10.761719647671498 0 0 0
354 118 1 0.5897 5.91602831382225 1.649657118628365 12.70935371726015 0 0 0
492 164 1 0.5897 8.243803608777718 7.455078030546069 11.871947235868841 0 0 0
682 228 2 -1.1794 5.596635715148154 2.6382646981892104 14.060414402602644 0 0 0
384 128 1 0.5897 9.63404922495194 0.5224006156826819 11.631007306231197 0 0 0
491 164 1 0.5897 9.581850025770267 7.468665207845314 11.163667771882634 0 0 0
333 111 1 0.5897 5.557664279629931 5.771411575999463 12.54595352192864 0 0 0
387 129 1 0.5897 9.184735007115137 5.922842529571823 12.947182478526633 0 0 0
490 164 2 -1.1794 9.186940865380569 7.4581812935177965 12.035640271996037 0 0 0
793 265 2 -1.1794 9.65324745018128 9.27329098381942 14.193223069307185 0 0 0
460 154 2 -1.1794 6.136238793633905 7.562480459128939 12.257901964043864 0 0 0
790 264 2 -1.1794 5.136942601578859 9.692242578960064 14.055054585511966 0 0 0
687 229 1 0.5897 9.817539254005105 2.536769788595088 14.012110197825278 0 0 0
705 235 1 0.5897 7.932014363112503 6.105872476359959 14.902694247501405 0 0 0
824 275 1 0.5897 8.21768242424435 8.9354717603715 14.919337818714496 0 0 0
823 275 2 -1.1794 7.382748125333227 8.887667536406203 15.385161100569428 0 0 0
704 235 1 0.5897 6.495140189384732 6.22663847571803 15.364313420781869 0 0 0
38 13 1 0.5897 9.242806526948018 2.834779188168162 19.75730419732578 0 0 -1
703 235 2 -1.1794 7.398205360189771 6.297069210549415 15.67398997833423 0 0 0
716 239 1 0.5897 7.500331030337844 1.0030035553676098 16.182430629235622 0 0 0
710 237 1 0.5897 9.909941008030037 5.3451022215195225 19.801935113808106 0 0 0
677 226 1 0.5897 5.582718375486599 0.9522197212263472 17.997231874070472 0 0 0
707 236 1 0.5897 8.957377311803878 0.5675246489404623 18.96883099046859 0 0 0
816 272 1 0.5897 8.967462998931806 8.808814453329308 18.529611086310886 0 0 0
708 236 1 0.5897 7.9554247384220504 1.5678697826495258 18.4326480371459 0 0 0
657 219 1 0.5897 6.813648362546098 4.632770340011781 18.378249607394608 0 0 0
786 262 1 0.5897 7.127145568886466 7.721192175148986 18.342093542342564 0 0 0
694 232 2 -1.1794 8.228577879522826 4.3529065760706285 17.386879311806005 0 0 0
695 232 1 0.5897 7.935682713860392 3.5131611816884107 17.032833043332605 0 0 0
709 237 2 -1.1794 9.931040605886782 6.279346175924213 20.00911451623641 0 0 0
815 272 1 0.5897 9.294362816160286 7.35594077205941 18.80223973888081 0 0 0
706 236 2 -1.1794 8.878722236553012 1.4723786549259643 18.666700229721137 0 0 0
814 272 2 -1.1794 8.971846911875948 7.944020265690047 18.119224357804683 0 0 0
696 232 1 0.5897 7.997512020638306 4.991442041144489 16.712227321940887 0 0 0
144 48 1 0.5897 5.470940893356918 8.76713165799526 20.192298582976576 0 0 -1
715 239 2 -1.1794 7.371759128516114 1.946615965971234 16.0860077609712 0 0 0
655 219 2 -1.1794 6.014372990501473 4.896920227693437 18.834055248593177 0 0 0
784 262 2 -1.1794 6.227265160857959 7.560566850431579 18.626309713011498 0 0 0
785 262 1 0.5897 6.158674022155067 6.607250088861994 18.678607756566127 0 0 0
676 226 2 -1.1794 6.150487044020968 0.8026590949699705 18.75333071750786 0 0 0
825 275 1 0.5897 7.297995617079013 7.966693084928195 15.631963321539859 0 0 0
36 12 1 0.5897 5.734079701970618 3.789153379082463 20.259115423415068 0 0 -1
656 219 1 0.5897 5.3055930157488005 4.63993394714874 18.244154235415607 0 0 0
689 230 1 0.5897 9.93183717591393 1.3457511101086252 17.06589689907727 0 0 0
145 49 2 -1.1794 9.394529509081186 9.685238960862103 20.24667514009244 0 0 -1
37 13 2 -1.1794 9.466256935624697 3.5519329938950883 20.350646010947013 0 0 -1
35 12 1 0.5897 6.019003567836632 2.320680984024 20.02585730312511 0 0 -1
711 237 1 0.5897 9.142895788432218 6.427089920518498 20.531980439776667 0 0 0
717 239 1 0.5897 6.635635451120281 2.0278269991827345 15.479443418578311 0 0 0
264 88 1 0.5897 8.53286532349432 16.966193682546006 3.9846481591012473 0 0 0
165 55 1 0.5897 7.401454462044356 11.875190246218772 1.970205039464378 0 0 0
285 95 1 0.5897 7.4615695271299805 14.417860510282416 1.631150656281268 0 0 0
927 309 1 0.5897 8.55940402345654 19.34203390608856 0.3359205724219172 0 0 1
262 88 2 -1.1794 7.747649959430187 16.43266890799587 4.107497056953224 0 0 0
254 85 1 0.5897 8.975929754819248 16.102068029333033 0.6517843053753245 0 0 0
154 52 2 -1.1794 7.956802360437159 11.041770827142168 3.6782437303609345 0 0 0
163 55 2 -1.1794 7.144954571354842 12.585747517802778 1.3823143557638076 0 0 0
164 55 1 0.5897 6.193911829787934 12.642702848193373 1.4752522942053843 0 0 0
156 52 1 0.5897 8.905203633263252 11.146300419068377 3.7555818346994103 0 0 0
246 82 1 0.5897 5.503348430796916 14.233337206931001 4.686984559394063 0 0 0
116 39 1 0.5897 6.784014993587977 11.139036818058843 5.020666229617687 0 0 0