LAMMPS (30 Jul 2021)
Processor partition = 0
  using 2 OpenMP thread(s) per MPI task
using multi-threaded neighbor list subroutines
variable        pid world 0 1
variable        phase world IceIII Liquid

shell cd ${phase}
shell cd IceIII
include Restart.lmp
echo both
log log.lammps
#include		in.partitions
include		in.temp
variable        temperature equal 262.76
variable	tempDamp equal 100.0
include		in.pressure
variable        pressure equal 3750.0
variable        pressureDamp equal 1000.0 # This is 1 ps
include		in.seed
variable        seed equal 745823

units		real
atom_style	full

read_restart	restart.lmp.${pid}
read_restart	restart.lmp.0
Reading restart file ...
  restart file = 30 Jul 2021, LAMMPS = 30 Jul 2021
  restoring atom style full from restart
  orthogonal box = (-0.18574927 -0.0021034584 -0.12192757) to (20.185750 20.002104 20.821926)
  4 by 2 by 4 MPI processor grid
  restoring pair style lj/cut/tip4p/long/omp from restart
  restoring bond style harmonic/omp from restart
  restoring angle style harmonic/omp from restart
  972 atoms
  648 bonds
  324 angles
Finding 1-2 1-3 1-4 neighbors ...
  special bond factors lj:    0        0        0       
  special bond factors coul:  0        0        0       
     2 = max # of 1-2 neighbors
     1 = max # of 1-3 neighbors
     1 = max # of 1-4 neighbors
     2 = max # of special neighbors
  special bonds CPU = 0.002 seconds
  read_restart CPU = 0.008 seconds
include 	in.setup
variable	out_freq equal 1000
variable	out_freq2 equal 10000
variable	out_freq3 equal 1000

timestep	2.0

neigh_modify    delay 7 every 1

include		in.tip4p
# This is TIP4P/Ice

# create groups ###
group ox type 2
324 atoms in group ox
group hy type 1
648 atoms in group hy

# set charges - beside manually ###
set group ox charge -1.1794
Setting atom values ...
  324 settings made for charge
set group hy charge 0.5897
Setting atom values ...
  648 settings made for charge

# ### TIP3P Potential Parameters ###
pair_style lj/cut/tip4p/long/omp 2 1 1 1 0.1577 8.5
pair_coeff 1 1*2 0.000 0.000
pair_coeff 2 2 0.21084 3.1668
bond_style  harmonic
bond_coeff  1 450 0.9572
angle_style harmonic
angle_coeff 1 55 104.52
kspace_style pppm/tip4p/omp 1.0e-5
pair_modify tail yes

thermo          ${out_freq}
thermo          1000
thermo_style    custom step temp pe etotal epair emol press lx ly lz vol pxx pyy pzz pxy pxz pyz enthalpy

restart 	${out_freq3} restart.lmp.${pid} restart2.lmp.${pid}
restart 	1000 restart.lmp.${pid} restart2.lmp.${pid}
restart 	1000 restart.lmp.0 restart2.lmp.${pid}
restart 	1000 restart.lmp.0 restart2.lmp.0


include         in.dump
dump            myDump all atom ${out_freq2} dump.water.${pid}
dump            myDump all atom 10000 dump.water.${pid}
dump            myDump all atom 10000 dump.water.0
dump            myDump2 all dcd ${out_freq2} dump.dcd
dump            myDump2 all dcd 10000 dump.dcd
dump_modify     myDump append yes
dump_modify     myDump2 append yes


variable natoms 	equal  "count(all)"                        # NUMBER ATOMS
variable H      	equal  "enthalpy/v_natoms"                 # ENTHALPY-per-atom
variable Vol      	equal  "vol/v_natoms"                 # volume-per-atom
fix AVG all 		ave/time ${out_freq} 1 ${out_freq} v_Vol v_H file vol_enthalpy.dat
fix AVG all 		ave/time 1000 1 ${out_freq} v_Vol v_H file vol_enthalpy.dat
fix AVG all 		ave/time 1000 1 1000 v_Vol v_H file vol_enthalpy.dat


timer           timeout 02:55:00 every 1000
New timer settings: style=normal  mode=nosync  timeout=02:55:00

fix 		1 all shake 1e-6 200 0 b 1 a 1
Finding SHAKE clusters ...
       0 = # of size 2 clusters
       0 = # of size 3 clusters
       0 = # of size 4 clusters
     324 = # of frozen angles
  find clusters CPU = 0.000 seconds
fix             2 all nph aniso ${pressure} ${pressure} ${pressureDamp}
fix             2 all nph aniso 3750 ${pressure} ${pressureDamp}
fix             2 all nph aniso 3750 3750 ${pressureDamp}
fix             2 all nph aniso 3750 3750 1000
fix             3 all temp/csvr ${temperature} ${temperature} ${tempDamp} ${seed}
fix             3 all temp/csvr 262.76 ${temperature} ${tempDamp} ${seed}
fix             3 all temp/csvr 262.76 262.76 ${tempDamp} ${seed}
fix             3 all temp/csvr 262.76 262.76 100 ${seed}
fix             3 all temp/csvr 262.76 262.76 100 745823


run             250000
PPPM initialization ...
  extracting TIP4P info from pair style
  using 12-bit tables for long-range coulomb (../kspace.cpp:340)
  G vector (1/distance) = 0.3716677
  grid = 24 24 25
  stencil order = 5
  estimated absolute RMS force accuracy = 0.0035004007
  estimated relative force accuracy = 1.0541353e-05
  using double precision FFTW3
  3d grid and FFT values/proc = 3458 576
Last active /omp style is kspace_style pppm/tip4p/omp
Neighbor list info ...
  update every 1 steps, delay 7 steps, check yes
  max neighbors/atom: 2000, page size: 100000
  master list distance cutoff = 10.8154
  ghost atom cutoff = 10.8154
  binsize = 5.4077, bins = 4 4 4
  1 neighbor lists, perpetual/occasional/extra = 1 0 0
  (1) pair lj/cut/tip4p/long/omp, perpetual
      attributes: half, newton on, omp
      pair build: half/bin/newton/omp
      stencil: half/bin/3d
      bin: standard
Setting up Verlet run ...
  Unit style    : real
  Current step  : 7000000
  Time step     : 2
  Walltime left : 2:54:59.95
Per MPI rank memory allocation (min/avg/max) = 10.19 | 10.19 | 10.20 Mbytes
Step Temp PotEng TotEng E_pair E_mol Press Lx Ly Lz Volume Pxx Pyy Pzz Pxy Pxz Pyz Enthalpy 
 7000000    265.26021   -4653.7148   -4142.1382   -4653.7148            0    3250.7169      20.3715    20.004208    20.943853    8534.9492    53.997361    5521.9428    4176.2106    125.00586    393.91916   -168.14057   -3737.5101 
 7001000    263.44032   -4699.1453   -4191.0785   -4699.1453            0    3920.5742    20.114629     19.95581    20.866571    8375.9193    4036.8117    3434.0974    4290.8135    364.35614   -391.30406   -183.32933   -3712.1639 
 7002000     248.3872   -4654.5199   -4175.4843   -4654.5199            0    3687.9413    20.306476    19.968917    20.680269    8385.8148    3629.0306    2854.1655     4580.628   -347.55959    2598.5776    569.13646   -3724.4546 
 7003000    264.78678   -4695.3668   -4184.7033   -4695.3668            0    3034.8491    20.120353     20.13425    20.855272    8448.6423    3500.2057    2778.0769    2826.2648    2.2139863   -37.068438   -984.59998    -3810.765 
 7004000    250.38998   -4707.2924   -4224.3942   -4707.2924            0    1207.6378    20.078432    20.161148     21.10902    8545.0208    2949.6271    156.71229    516.57404    33.548754   -914.68129   -688.83638    -4073.898 
 7005000    259.01083   -4669.9286   -4170.4044   -4669.9286            0    4129.3053     20.08479    20.087355    20.678908    8342.9118    5366.2225    3074.0204     3947.673   -600.56481    259.73215     445.2442   -3667.9803 
 7006000    267.88969   -4658.5424   -4141.8946   -4658.5424            0    4417.6047    20.146895    20.040325    20.573344    8306.4947    3850.6693    3511.9491    5890.1957   -404.67972    166.82415   -399.66927   -3606.7384 
 7007000    274.77041   -4701.1055   -4171.1877   -4701.1055            0    4513.9896    20.138301    19.967315    20.817907    8371.0427    4140.9981    4266.5862    5134.3844   -125.91711   -1899.7294   -70.373639    -3620.106 
 7008000    259.20837   -4667.0043   -4167.0992   -4667.0043            0    4348.6539     19.74155    20.189741    20.969368    8357.9034    5923.6323    4025.8462    3096.4832   -257.66388    1135.6743    187.98654   -3637.0355 
 7009000    264.56943   -4654.2057   -4143.9613   -4654.2057            0    4608.1978    20.090808    19.904342     20.93359    8371.2235     4957.711    4598.6497    4268.2327   -170.71177   -231.47186   -184.92568   -3581.3662 
 7010000    264.15705   -4663.5808   -4154.1317   -4663.5808            0    4057.0374     20.05541    20.189634    20.753423    8403.2973    5954.2739    2417.6245    3799.2137    160.35695   -499.17508   -1066.2282   -3656.9277 
 7011000     262.5271    -4687.106   -4180.8004    -4687.106            0    4297.1898    20.118712    20.182655    20.660317    8389.1015    4378.5286    3767.6328    4745.4081   -133.55198   -111.54117    -654.4453   -3655.0546 
 7012000    254.10778   -4622.4218   -4132.3535   -4622.4218            0    1927.1648     19.96691    20.132262    21.084898    8475.6878     3777.362     547.5718    1456.5605   -335.21221      141.373   -66.705357   -3894.1382 
 7013000    271.59736   -4662.2744    -4138.476   -4662.2744            0    4339.2058    20.078126    20.154432    20.731265    8389.1805    5324.4697    3052.7779    4640.3699    788.23944    735.17466    2253.0099   -3607.5847 
 7014000    257.04342   -4684.6814   -4188.9515   -4684.6814            0    3011.6225    20.280539    19.990278    20.582625    8344.4766    1494.9347    3166.0531    4373.8798    724.06845    601.05398    -499.1405   -3822.4502 
 7015000    261.30412   -4691.2458   -4187.2989   -4691.2458            0    1287.5426    20.090685    20.169982    21.004272    8511.5351    2021.7546    938.66904    902.20433   -91.100209    313.70324    793.83869   -4027.4736 
 7016000    258.82839   -4677.0748   -4177.9025   -4677.0748            0    3996.1861    19.981198    20.013464    21.114159    8443.4039    4822.1041    3582.1989    3584.2554   -1049.6047    129.89488   -276.37006   -3685.8186 
 7017000    270.69303   -4703.5128   -4181.4585   -4703.5128            0    3365.7328    20.234003    20.016746     20.83837    8439.9337    2607.7156    4516.1973    2973.2854   -216.67515   -1096.9923      109.487   -3767.1779 
 7018000    246.54692   -4676.5103   -4201.0238   -4676.5103            0    4341.1516    20.162339    20.056269    20.678032    8361.8094    4109.1612    3714.8808    5199.4128    156.54306   -926.47744   -664.34027   -3671.6272 
 7019000    253.56566   -4667.9042   -4178.8815   -4667.9042            0    5314.8317    20.128027    20.010742    20.902076    8418.8703    6220.4125     4958.405    4765.6777   -67.986834    59.382168    116.07958   -3526.3233 
 7020000    253.29354   -4679.3706   -4190.8727   -4679.3706            0    3604.5403     20.06762    20.132265    21.082456    8517.4521    3354.3882     4195.283    3263.9496    830.26231    315.21057   -497.56793   -3743.1228 
 7021000    257.97454   -4701.2421   -4203.7165   -4701.2421            0    5547.7152    19.965739    20.019936    20.903256    8355.2993     4798.754    6434.5376    5409.8541    63.317408     663.7397   -463.38516   -3527.7082 
 7022000    264.24697   -4689.5792   -4179.9567   -4689.5792            0    3030.1709    20.091928    20.113633    20.767065    8392.4212    791.12134     4108.847    4190.5444    139.55504    444.06981    39.154355   -3809.0793 
 7023000    258.49554   -4702.0717   -4203.5414   -4702.0717            0    4220.0261     20.25376    20.050057    20.560072    8349.2199    4258.1299    3600.7549    4801.1935    268.78066   -21.085666    123.39989   -3689.6907 
 7024000    266.05612   -4640.0799   -4126.9683   -4640.0799            0    4448.5243    20.131598    19.942143     20.90904    8394.2938    5677.7584    4635.4641    3032.3504   -747.06987    -808.9896   -1630.6546   -3582.3703 
 7025000    269.22343     -4659.79     -4140.57     -4659.79            0    3110.1742    20.031086    20.075889    21.188532    8520.7958    1826.1394    4745.2964    2759.0867   -472.30435    41.938507   -1400.1612   -3754.0778 
 7026000    270.60834   -4668.2642   -4146.3733   -4668.2642            0    3113.3051    20.104209    20.175302    20.800055    8436.6786    3402.5902    2284.7259     3652.599    631.21793   -1012.1748   -115.53299   -3763.3113 
 7027000    288.12475   -4687.5353   -4131.8625   -4687.5353            0    3303.7539    20.151955    20.038384    20.777346    8390.1546    3423.3055    3499.3005    2988.6556    467.92997    854.00472    786.90638   -3727.6093 
 7028000    266.47614   -4702.6713   -4188.7496   -4702.6713            0    3923.7503    19.955948    20.119813    20.836177    8365.9325    5835.2683    1369.4279    4566.5546    125.61354   -822.67251    212.48673   -3710.0186 
 7029000    260.05684   -4669.0303   -4167.4888   -4669.0303            0    3783.0412    20.213731     19.92192    20.938139    8431.7119    3537.6843    5170.1257    2641.3134   -35.602517   -1235.3525   -1708.1904   -3702.2963 
 7030000     260.6289   -4660.3187   -4157.6739   -4660.3187            0     4162.875    20.085826    20.222606    20.754763    8430.3304    4730.7504    3894.1337     3863.741   -514.30501    524.93465     849.5228   -3645.8579 
 7031000    282.87319   -4691.6503   -4146.1055   -4691.6503            0    4224.5798    20.128374    19.955913    20.770398     8343.055    3767.7949    4553.1516    4352.7928   -34.419753    112.01925   -283.51105   -3632.0802 
 7032000    264.00892   -4671.8106   -4162.6472   -4671.8106            0    3244.0671    20.032538    20.089487    20.956415    8433.7709    3481.4044    4101.9877    2148.8091   -168.45743    1199.6624   -1277.2881   -3763.6337 
 7033000    257.72618   -4666.9873   -4169.9407   -4666.9873            0    4166.3317    20.076934    19.957859    20.875165    8364.5246    3319.8464     4687.791    4491.3578   -459.29908    283.06468   -834.28889   -3661.6982 
 7034000    260.95368   -4703.1029   -4199.8318   -4703.1029            0     3813.874    20.117035    20.216585    20.660577      8402.61    5114.5164    2510.7173    3816.3883    370.36045   -772.46115    364.72818   -3732.4665 
 7035000    250.10509   -4716.1159   -4233.7672   -4716.1159            0    3665.1621    20.253372    19.926273     20.81857    8401.8385    2840.5865    4882.2092    3272.6907    387.31116   -931.64596    340.78515   -3784.6669 
 7036000    261.24905    -4707.328   -4203.4872    -4707.328            0    4662.7678    19.918258    20.199203    20.732617    8341.4146    5718.3213    4063.3162    4206.6659    278.89072   -1887.5039    885.73291   -3636.2569 
 7037000    264.72447   -4697.6118   -4187.0684   -4697.6118            0    2804.5086    20.224515    20.122475    20.831276     8477.648     3018.026    2442.3481    2953.1517    566.88382    1452.0708   -404.00861   -3840.3251 
 7038000    265.21167   -4667.3167   -4155.8337   -4667.3167            0    5980.8959    20.113804    19.514984    21.089762    8278.1652    5870.0091    6708.8696     5363.809    1442.2139    1286.2673   -1028.5376   -3433.7688 
 7039000    251.31306   -4683.2357   -4198.5574   -4683.2357            0    3497.7074    20.199978    19.985454    20.897469    8436.4279    1553.4304    4676.3473    4263.3445    371.86752    286.45675   -1647.1908   -3768.2112 
 7040000    265.20629    -4698.898   -4187.4254    -4698.898            0    3460.9457    20.113228     20.23105    20.580425    8374.4163    6295.7455    1171.5867     2915.505   -3.7741545   -489.83139    359.15784   -3764.7322 
 7041000    262.74253    -4682.033   -4175.3119    -4682.033            0    2805.9128    20.008335    20.079722    21.080508    8469.3429    4164.5662    2044.2473    2208.9248    326.76429    696.70774    685.18726   -3828.7349 
 7042000    266.26829   -4696.4354   -4182.9146   -4696.4354            0    5833.5256    19.987024    19.842043    20.898983    8288.1897    5614.8893    7367.7925    4517.8951    451.23272    399.46136   -815.70774   -3477.7887 
 7043000    267.97968   -4668.0674    -4151.246   -4668.0674            0    3430.3575    20.221573    20.220027     20.46811    8369.0161    3340.6536    3112.4669     3837.952   -1059.7124    1251.4555    913.67427   -3732.5588 
 7044000    249.34149   -4692.4217   -4211.5457   -4692.4217            0    2816.6437    20.001443    20.208489    20.819102    8415.0588    3332.9194    2129.6746    2987.3372    72.634756    1076.1084   -632.20047   -3865.8731 
 7045000    262.98249   -4715.9603   -4208.7765   -4715.9603            0    4204.0228    20.090707    19.939683    20.996151    8411.1069    6467.0342    2963.0141    3182.0201    379.02844    -217.2319    357.14264   -3693.0801 
 7046000    256.12631   -4683.3904   -4189.4292   -4683.3904            0    4429.9534    20.023153     20.10437    20.709766    8336.7756    4892.9336    4374.8917    4022.0348    607.61598    245.62222   -93.093144   -3650.8208 
 7047000    259.19402   -4683.7118   -4183.8343   -4683.7118            0    4978.7471    20.112912    20.124983    20.691041    8375.1543    5439.9778    3494.7403    6001.5233    363.90605    66.795407    92.418747    -3575.715 
 7048000     254.4646   -4692.9585   -4202.2021   -4692.9585            0    3091.4145    19.970337    20.079724    20.997039    8419.7888    2540.5189    2597.2016    4136.5232   -246.15322    313.59264   -655.02197    -3822.595 
 7049000    273.67436   -4695.8653   -4168.0613   -4695.8653            0    3672.7834     20.12403    19.891795    20.892881    8363.4843    2595.4386    4133.3763    4289.5352   -8.4845082    1178.3125   -1134.8818   -3720.0815 
 7050000    262.71586   -4708.3511   -4201.6815   -4708.3511            0    4389.6098    20.010608    20.357354    20.580587    8383.7702    3804.8527      3849.23    5514.7466    308.14183   -815.46325   -457.50373   -3664.9697 
 7051000    277.08016   -4644.7973   -4110.4249   -4644.7973            0    3689.5812    20.003018    20.334633    20.832179    8473.5723    5040.6858    2297.1766    3730.8812   -194.81079    1681.1587   -32.803705   -3654.4725 
 7052000    267.94422   -4723.9724   -4207.2195   -4723.9724            0    4302.6988    19.941128    20.023115     20.94908    8364.6223    5528.9612    3587.4015    3791.7337   -116.59231   -40.831068    79.306212   -3682.3357 
 7053000    251.50534   -4699.9274   -4214.8782   -4699.9274            0    4272.8629    20.187507    20.016006    20.571389    8312.3481    2275.4828    6824.0508    3719.0552   -152.21472   -769.28969    -673.0685   -3696.8915 
 7054000     273.2827   -4670.7908   -4143.7421   -4670.7908            0    3956.5884    20.121625    20.213554    20.624735    8388.6892    4611.1523    3023.4089     4235.204    368.66107    582.21301      211.608   -3659.6914 
 7055000    264.24853   -4692.2627   -4182.6372   -4692.2627            0    2264.8959    20.247902     19.94916    21.086582    8517.4744    2277.8443    3487.8569    1028.9864   -953.55397    1261.0137    717.07795    -3901.295 
 7056000    270.65301   -4659.7824   -4137.8053   -4659.7824            0     4535.941    20.007839    20.045301    20.958386    8405.6361    5826.6588    3213.4064    4567.7578    327.12244    687.57445    540.03047   -3581.7553 
 7057000     255.8772   -4704.0815   -4210.6009   -4704.0815            0     2589.108    20.265928      20.1449    20.732181    8464.0182    2501.2799    3003.9509    2262.0934    762.09902    650.63646   -975.28302   -3891.0039 
 7058000    261.59752   -4680.9203   -4176.4075   -4680.9203            0    3809.7359      20.1942    20.356277    20.690277     8505.333     3924.466    2412.7819    5091.9599   -1103.9798    1591.6585    507.61126   -3703.8419 
 7059000    246.47103   -4661.2646   -4185.9245   -4661.2646            0    5458.3681    20.086511    20.113392    20.797905    8402.5172    4627.1843    5991.7876    5756.1324    532.03415    763.75193   -502.80517   -3517.0447 
 7060000    259.64417   -4674.3736    -4173.628   -4674.3736            0    5393.2802    20.146186    20.015415    20.816362    8393.8705    5095.8749    4468.7218     6615.244   -848.51693    807.28385   -639.89627   -3513.4043 
 7061000     263.1281    -4675.471   -4168.0064    -4675.471            0     3210.379      20.1663    20.174095     20.69064    8417.7152    3767.4725    3257.0893    2606.5751    161.85692   -593.78307   -213.58374   -3773.8882 
 7062000    277.46144   -4662.8141   -4127.7064   -4662.8141            0    3071.7314    20.129346    20.265054    20.782069    8477.4693    2673.0732    2441.2628    4100.8581   -208.56426    384.63876    101.75118   -3747.9323 
 7063000    270.34948   -4663.3877    -4141.996   -4663.3877            0    4186.8567    20.120026    19.910693    21.018853    8420.2297    4436.7084    4385.7006    3738.1612    55.596558   -514.63204    794.83489   -3627.8482 
 7064000    262.05564   -4686.7594   -4181.3631   -4686.7594            0    3392.2536    20.141523    20.078981     20.79162     8408.573     3071.069     4483.674    2622.0179   -209.80852    29.529885   -473.98301   -3765.3696 
 7065000    277.08217   -4721.0507   -4186.6744   -4721.0507            0    2144.2585    20.286981    20.172747    20.545428     8408.096    657.57768    1652.0889    4123.1088   -123.03471    835.57163    180.71964    -3923.738 
 7066000    267.57114   -4649.6362   -4133.6027   -4649.6362            0    3895.7113    20.110332    20.109695    20.872988    8441.3001    3302.9385    5106.2398    3277.9555    508.15927     845.9675    158.13139   -3654.0107 
 7067000      265.534   -4708.5157   -4196.4111   -4708.5157            0    3516.2574    20.144542    20.089118    20.811674    8422.1949     3701.527    2690.8345    4156.4108    5.2523847    930.39413   -51.324373   -3764.5124 
 7068000    251.90512   -4671.2411   -4185.4209   -4671.2411            0    3524.8817    20.113495    20.126914    20.839417    8436.2668    3180.0079    4276.8979    3117.7391   -95.655451    294.44209    -335.3014   -3751.7396 
 7069000    265.39388   -4724.4196   -4212.5852   -4724.4196            0    3114.8309    20.050226    20.212414    20.734067    8402.7599    4480.4973     2107.765    2756.2303   -405.55525   -994.25996   -2036.0679   -3830.8763 
 7070000    264.04857   -4667.4851   -4158.2453   -4667.4851            0    3947.5964    20.165474    20.139034    20.598631    8365.3753    1877.2825    4115.5432    5849.9635    229.48788   -1064.8518   -400.97019   -3676.6369 
 7071000    267.12235   -4694.2554   -4179.0875   -4694.2554            0    3629.7402    20.006971    20.102388     20.95826    8429.1584    5113.0147    1884.3522    3891.8537   -234.20035    40.589532    71.431217   -3732.8813 
 7072000    285.59896   -4664.7783   -4113.9767   -4664.7783            0    4125.2033    20.140992     19.90848    20.900938    8380.7861    4722.0023    2623.7994    5029.8082   -710.98585    930.10067    -12.37726    -3609.773 
 7073000    256.18675   -4704.0498   -4209.9721   -4704.0498            0    4911.6577    20.025736    20.209183    20.764624    8403.5213    4418.9163    5026.8587    5289.1982   -210.05277    420.67165    444.00091   -3608.0154 
 7074000    243.11718   -4684.0922   -4215.2203   -4684.0922            0    2832.4398    19.918623    20.179787    21.046882     8459.869    3297.2912    3833.2397    1366.7884   -221.95673    198.72369    490.06146   -3865.7581 
 7075000    268.83826   -4710.4571   -4191.9799   -4710.4571            0    3337.8525    20.185263    20.011479    20.789559    8397.6714    3753.8133    2726.7313    3533.0129    350.45004   -204.58731    1161.9196   -3783.1884 
 7076000    273.87159   -4715.6352   -4187.4508   -4715.6352            0    2790.9522    20.050504    20.075538     20.92285    8421.9632    3663.4994    2519.6688    2189.6883    109.34553    691.61216    318.56692   -3844.6502 
 7077000    244.94845   -4699.8616   -4227.4579   -4699.8616            0    3585.1929    20.166059     20.06816     20.84065    8434.1211    4029.6186    3632.3615    3093.5988    1163.7448   -511.64404   -119.32764   -3786.4684 
 7078000    279.45512   -4681.3621   -4142.4094   -4681.3621            0    3156.0002    20.200583     19.93802    20.982542    8450.9211    2793.7176    2824.8608    3849.4224    689.85286    589.74825    1464.8047   -3753.4387 
 7079000    271.21814   -4721.9318   -4198.8648   -4721.9318            0    2471.0681    20.054621    20.023073    20.971935    8421.3884    1952.6673    3079.5972    2380.9399    739.56765    293.45845   -548.68694   -3895.3748 
 7080000    265.07094   -4670.3038   -4159.0922   -4670.3038            0    2911.8157    20.310156    20.122713    20.669067    8447.3532    3781.3471    1186.3597    3767.7402    6.6859854    537.28721    1948.2785   -3800.3682 
 7081000    265.85659   -4676.8035   -4164.0767   -4676.8035            0    4390.8938    20.085983    20.021131    20.917256    8411.7511    3956.9991    4693.2402    4522.4422   -724.71443    1542.6945   -1150.9871   -3625.4161 
 7082000    256.30103     -4703.51   -4209.2119     -4703.51            0    3922.4977    19.998463    20.286739    20.655276    8379.9199    3491.7411    3178.6163    5097.1358    234.62738   -955.07341    1007.7823   -3729.8335 
 7083000    262.47961   -4670.8815   -4164.6675   -4670.8815            0    2949.6274    20.259617    19.962039    20.778735    8403.4039    1118.0039     4988.713    2742.1654   -163.73114   -303.29449    823.65482   -3803.1759 
 7084000    272.41026   -4657.8127   -4132.4466   -4657.8127            0    3974.5124    20.070928    19.978708    20.870735    8368.9812    3476.6815    4487.5231    3959.3325   -189.10165   -485.60348   -252.64809   -3647.3454 
 7085000    252.32438   -4688.0486   -4201.4198   -4688.0486            0    3618.1401    20.161557    19.880461    20.927707    8388.2656    5420.1298    3912.2105    1522.0799    433.83266   -334.18835    761.90365   -3758.7973 
 7086000    258.61752   -4689.8976    -4191.132   -4689.8976            0    2979.1245    19.995617    20.418518    20.613146    8415.9533    3941.7926    1779.0012    3216.5798   -439.24026    460.24934    508.27195   -3825.4801 
 7087000    259.20665   -4692.3347   -4192.4329   -4692.3347            0    2348.1778    20.262122    20.114504    20.779635    8469.0008    2333.0006    3650.1579    1061.3749    309.36121     353.6956   -1102.9105   -3902.4054 
 7088000    267.71646   -4693.1496   -4176.8359   -4693.1496            0    3776.4506    20.189365    19.967905    20.954113    8447.4269    3149.3148    3531.8722    4648.1646     488.6486    365.11083   -448.38337   -3711.5883 
 7089000    242.68824   -4692.0382   -4223.9935   -4692.0382            0    3814.7178    20.122479    19.874776    20.943151    8375.7894    3722.8289    3973.3957    3747.9289    -713.5835    648.31692    108.17906    -3758.017 
 7090000    255.38037   -4680.0303   -4187.5078   -4680.0303            0     3485.945    20.275022     20.12505     20.58277    8398.5077    3122.7854    3638.4907    3696.5588    -52.80142   -425.00027   -728.04115   -3760.5366 
 7091000    262.77118   -4700.6295   -4193.8532   -4700.6295            0    3905.1542     20.22319    20.180074    20.686404    8442.2346    2111.1606    4554.8548    5049.4472    404.73797   -464.64806   -774.48206   -3713.0454 
 7092000    269.95331    -4705.881   -4185.2533    -4705.881            0    3581.0704    20.016064    20.074885    20.927435    8409.0657    5052.6035    2571.6713    3118.9364    632.11707   -212.27471   -550.67273   -3746.0795 
 7093000     277.4438   -4686.9065   -4151.8328   -4686.9065            0    4188.4474    20.156228    20.106407     20.70511    8391.1462    2798.5534    6168.7217    3598.0671    71.785064   -332.03316   -129.67656   -3639.2663 
 7094000    265.82534   -4701.4583   -4188.7917   -4701.4583            0    4256.2877    20.091424    20.176049    20.644522     8368.578    2950.2369    5705.1786    4113.4476   -563.46627   -487.35368    -309.3949   -3669.3241 
 7095000    252.95878   -4714.6144   -4226.7621   -4714.6144            0    4441.2122    20.185549     19.90526    20.862395    8382.4811    4026.5894    5292.9536    4004.0938    161.29512   -356.96941   -1948.8514   -3683.8244 
 7096000    260.80841   -4663.9621   -4160.9712   -4663.9621            0    3026.1968    19.888609    20.091459    21.133336    8444.6948     3820.833    3202.8026    2054.9548    197.63961   -0.9509266   -1839.5912   -3788.2732 
 7097000    266.88862   -4698.1282   -4183.4111   -4698.1282            0    1951.5041    20.363426    19.992385    20.794812    8465.8477    759.72026    3265.6277    1829.1643    -99.37844    146.22904   -1473.2667   -3942.4673 
 7098000    262.97197   -4687.2461   -4180.0825   -4687.2461            0    4803.7766    19.969781    20.181379    20.853277      8404.24    5254.6295    4460.1265    4696.5737   -1089.8128    283.45972   -579.10946    -3591.297 
 7099000    267.40978   -4698.9221   -4183.1998   -4698.9221            0    5299.2667    19.944596    19.978681    20.923886    8337.4726    7172.3846    3439.9582    5285.4572   -261.53743    2336.9614   -759.41261   -3538.8435 
 7100000    277.28063   -4707.9951   -4173.2361   -4707.9951            0       2044.2    19.943542     20.07398     21.00653    8409.8857    3810.3552    1503.1174    819.12751   -337.14511    10.570248   -662.97953   -3922.5159 
 7101000     253.7615   -4714.8071   -4225.4067   -4714.8071            0    2136.3656    20.090993    20.245727    20.774465    8450.1542     2268.793    2134.1874    2006.1163    60.454501    61.027611   -1087.2168   -3962.1277 
 7102000    266.52292   -4682.9671   -4168.9552   -4682.9671            0    2420.8861    20.147834    20.141605    20.696813    8398.9677    2579.5613    1313.0555    3370.0415   -410.45592    -457.4611   -201.59523   -3872.4201 
 7103000    262.32444   -4683.4297    -4177.515   -4683.4297            0    1845.9953    20.089979    20.228575    20.998453     8533.596    1559.4788    2038.9051    1939.6021    539.00491   -540.87131    236.17001   -3947.7739 
 7104000    263.56296   -4665.7609   -4157.4576   -4665.7609            0    2906.6929    19.995615    20.123103     20.88076    8401.8712    3983.0941    1650.8151    3086.1696    267.73237   -580.97055    371.58778   -3801.2928 
 7105000    264.11171   -4645.8958   -4136.5341   -4645.8958            0     3371.494    20.102963    20.141259    21.034916     8517.016    4114.1719    3766.9156    2233.3944   -811.07652   -823.72287    1084.8964   -3717.7543 
 7106000    257.15808   -4706.8598   -4210.9088   -4706.8598            0    3187.7438    20.184152    20.125472     20.73333    8422.2018    3082.6069    3945.2264     2535.398   -347.91031   -834.38313    1387.2259   -3819.3609 
 7107000    259.66233   -4687.8727    -4187.092   -4687.8727            0    3419.3179    20.064806    20.288965     20.78311    8460.6823    4290.0008    1627.4652    4340.4877    446.13142    633.76724    925.82598   -3765.1811 
 7108000    257.53805   -4662.8565   -4166.1727   -4662.8565            0     2934.118      20.2191    19.949355    21.038136    8485.9006    3152.7519     2963.966    2685.6361   -463.44723   -166.62245   -365.85551   -3803.0517 
 7109000    259.90113    -4673.023   -4171.7818    -4673.023            0    3149.1425    20.025937    19.956649    20.974451    8382.4521    2611.1675    4344.5405    2491.7196   -765.63172    794.87848    912.43831   -3786.8008 
 7110000    265.47139   -4664.5115   -4152.5276   -4664.5115            0    3417.0941    20.178913    20.255899    20.555822    8402.0284    4410.5433     2400.312    3440.4271   -974.79779   -97.930385   -1242.2365   -3733.8141 
 7111000    283.27103    -4697.079    -4150.767    -4697.079            0    3170.0635    20.096641     20.19628    20.854116    8464.2142    5410.2395    1668.4798    2431.4714     25.09139   -877.90392   -2.8330087   -3759.4484 
 7112000    262.22554   -4672.2833   -4166.5593   -4672.2833            0    2637.2737    20.299295    20.179936    20.846153    8539.3866    3352.4029    2132.1123    2427.3059   -230.81643   -519.39026    311.05683    -3838.118 
 7113000    259.81996   -4712.8417   -4211.7571   -4712.8417            0    4237.5262    20.139469    19.839009    20.927744    8361.6195    3565.7916    3957.1332    5189.6539    352.87103    68.837651   -442.86271   -3695.0092 
 7114000     267.6315   -4683.1729   -4167.0231   -4683.1729            0     3938.467    19.987573    20.118844    20.899944    8404.4289    5646.6722    2358.1336    3810.5951   -181.66727   -838.17541    176.66064   -3684.2853 
 7115000    258.72782   -4687.0581   -4188.0798   -4687.0581            0    3024.8204    20.244977    19.995373    20.801154    8420.4292      1146.91    6362.0364    1565.5149    174.77417   -550.00761    631.49528   -3816.6218 
 7116000    264.29577   -4714.6453   -4204.9287   -4714.6453            0    3555.0977    20.341156    20.089961    20.473175    8366.4252    2235.1154    4286.5918     4143.586    240.85185   -1218.8051   -46.050438   -3771.1509 
 7117000    236.00354   -4675.8641   -4220.7114   -4675.8641            0    3635.7782    20.201768    20.004661    20.882943    8439.4134    2624.4261    4730.6713    3552.2372    450.88236    1360.2694    888.83637   -3773.2192 
 7118000    256.40769   -4690.0616   -4195.5578   -4690.0616            0    5360.8715    19.912904    19.934053    21.054915    8357.6411    6677.4583    5104.7917    4300.3645    393.14796   -70.274351   -877.68685   -3542.1339 
 7119000    256.56959   -4692.6475   -4197.8315   -4692.6475            0    4292.7849    20.232207    20.089757    20.697058    8412.5287    2536.4729    5735.6185    4606.2633    1262.6545    929.18757   -252.78366   -3671.1579 
 7120000    267.94172   -4687.7423   -4170.9942   -4687.7423            0    4558.8361    20.011732    20.191297    20.760519    8388.5543      4190.61    4442.8113    5043.0871    262.06627    296.75448    1155.9628   -3613.2732 
 7121000    260.62429   -4713.7249   -4211.0891   -4713.7249            0    4563.1029    20.004859    19.957679    20.953676    8365.7671    3819.7068    4548.5433    5321.0587   -1145.6078   -53.984362    1037.0783   -3654.3625 
 7122000    274.51113   -4680.8972   -4151.4794   -4680.8972            0    3350.5266    20.081184    20.273017    20.782142     8460.539    4111.5289     3002.548    2937.5031   -312.02497   -10.140864    181.34826   -3738.0636 
 7123000    260.33589   -4676.9606    -4174.881   -4676.9606            0    5164.4897    20.179256    19.985569    20.663283    8333.3762    3898.9957     5985.245    5609.2284   -254.27787    465.77901    156.57289   -3547.2212 
 7124000    263.55659   -4684.6501    -4176.359   -4684.6501            0    2901.0741    20.133815    20.140266     20.79508    8432.4132    2467.3335    3416.6272    2819.2615    214.48555    235.88666   -566.65772   -3819.5904 
 7125000    261.99718   -4643.0184   -4137.7348   -4643.0184            0    2681.7421     20.33207    20.096182    20.726685    8468.8609    621.14211    3735.8224    3688.2617    395.84025     626.8419    1626.0955   -3806.5138 
 7126000    254.99267   -4694.7186   -4202.9438   -4694.7186            0    5396.5487    20.015586    19.908043    20.939944    8343.9636    6527.2346    4270.3469    5392.0647    337.76343    1561.1664   -1377.0041   -3546.2477 
 7127000    258.85135      -4680.8   -4181.5834      -4680.8            0     4311.565    20.080965     19.99844     20.76479      8338.89    5362.1327    3225.1554    4347.4068   -40.344994   -168.67587   -1808.9613    -3657.236 
 7128000    257.86547   -4692.3266   -4195.0114   -4692.3266            0    4845.6306    20.211013    20.259272    20.380265    8344.9116     5222.997    4887.0816    4426.8133     379.2147    1830.0474    71.455053   -3605.2885 
 7129000    266.09225   -4644.4807   -4131.2995   -4644.4807            0     4513.059    20.296643    19.955778    20.662737    8369.1377    3036.0598    4951.3826    5551.7348   -416.49315     663.5696   -1068.7875   -3580.4567 
 7130000     251.8775   -4708.1377   -4222.3708   -4708.1377            0    3887.5673    20.085328    19.857036    21.043963    8393.0705    5440.8231    2612.8919    3608.9869    -826.7986    450.03239    755.85382   -3746.5158 
 7131000     249.8344    -4698.581   -4216.7543    -4698.581            0     3410.891    20.121981    19.978266    20.950181    8422.0208    3790.6808    2805.3552     3636.637     266.3888    7.1374381     1209.228   -3797.8064 
 7132000    286.06907   -4696.5917   -4144.8835   -4696.5917            0    3509.3226     20.20121    20.135655    20.594056     8376.933    1482.0175    3781.3296    5264.6207   -238.56623    659.95476    -217.0748   -3716.1531 
 7133000    273.68405   -4666.0407    -4138.218   -4666.0407            0    3953.9494    20.144424    20.039344    20.689505    8351.9612    3649.7335    4535.7499    3676.3647    792.31048    940.62157    338.00413    -3656.608 
 7134000    266.91959   -4718.7214   -4203.9445   -4718.7214            0    3610.3229    20.173043    19.961786    20.995799    8454.7978     4768.004    3225.2712    2837.6935   -366.18602    948.15432    16.867035   -3758.7752 
 7135000    259.80818   -4695.3473   -4194.2854   -4695.3473            0    3650.1193    19.959937    20.220642    20.845955    8413.4846    3399.9224    3772.7111    3777.7244   -155.20247   -194.12897    -449.2634   -3746.4083 
 7136000    272.24317   -4693.6256   -4168.5818   -4693.6256            0    2988.8907    20.369646    20.039708    20.633385    8422.5839    1815.4823    3029.3017     4121.888    257.31986   -150.05788   -760.28861   -3801.4421 
 7137000     258.8125   -4697.5099   -4198.3683   -4697.5099            0    6004.9756     20.11508    20.055157    20.595633    8308.5066    6423.9443     5648.483    5942.4996   -1219.6038    1102.0542   -1336.5045   -3470.7391 
 7138000    270.62357   -4725.2078   -4203.2875   -4725.2078            0    2957.6691    20.194768    20.003298      20.9353     8457.065    2492.5836    3361.2585    3019.1652   -36.098122    256.11385    1056.6792   -3838.4957 
 7139000     237.7616   -4685.5947   -4227.0515   -4685.5947            0    2502.7157     20.10273    20.080159    20.857181     8419.335    2188.5672    3993.6575    1325.9225   -875.78344   -214.33205   -812.03228   -3919.7496 
 7140000    258.87998   -4673.4663   -4174.1945   -4673.4663            0    3766.5089    20.185895    20.065971    20.792185     8421.866    3237.6147    3934.8407    4127.0713    90.662687    1019.7096   -1694.5896   -3711.5757 
 7141000    267.95268   -4692.4638   -4175.6945   -4692.4638            0    4939.1779    20.018636    19.897585    20.919679    8332.7787    5183.6484    5163.2559    4470.6293    624.56966   -178.29898   -554.49078   -3575.4608 
 7142000    258.33962   -4679.8335   -4181.6038   -4679.8335            0    3742.2789    20.211037    20.129669    20.830805    8474.8356    4147.9036    3069.4099    4009.5232    410.86647   -439.16881   -626.27689   -3719.0702 
 7143000     257.8379   -4689.8144   -4192.5524   -4689.8144            0    3197.2822     20.04976    20.319008     20.70428    8434.7422    2237.0359    4046.7387     3308.072   -776.65301   -534.58299    443.85835   -3799.2481 
 7144000    275.34178    -4710.064   -4179.0442    -4710.064            0    4478.2195    20.119255    19.867501    20.951803    8374.8405    3813.6697    6447.5968    3173.3921   -339.92069    756.88911   -1431.3745   -3632.0814 
 7145000    261.05917   -4681.2986   -4177.8241   -4681.2986            0    4890.9012    19.931221    20.276732    20.773379    8395.3537    4357.4303    4739.8817    5575.3916   -285.93564   -469.81541    1041.8739   -3578.9938 
 7146000    254.39351   -4698.3761   -4207.7568   -4698.3761            0    4307.5617    20.171611    20.034121    20.619647    8332.8224    3996.3897    4914.1962    4012.0993   -193.99107    1665.2394    66.538088   -3684.2775 
 7147000    253.10647   -4706.1515   -4218.0143   -4706.1515            0    1948.3436    20.111398    20.493185     20.52713    8460.1866    1615.1824    85.464193    4144.3842   -833.27544   -325.29763    626.35112   -3977.6216 
 7148000    266.76086   -4714.1666   -4199.6959   -4714.1666            0    3007.3201    20.094343    20.239216     20.67982    8410.3534    2972.5377     2694.681    3354.7416    542.26955    87.658874   -573.90909   -3830.8289 
 7149000    274.42783   -4686.0793   -4156.8221   -4686.0793            0    3483.4591    20.222535     20.01687    20.867531    8447.0062    1871.3476    4975.6577    3603.3722    681.38728    -680.5824   -244.99827   -3727.6916 
 7150000     259.3493   -4688.7464   -4188.5695   -4688.7464            0    6050.2164    19.944197    20.027811    20.904877     8350.215    6665.6957    6115.3281    5369.6252    688.72005     1911.021    11.376565   -3451.7782 
 7151000     277.5625   -4681.1445   -4145.8419   -4681.1445            0    4652.3262    20.164408    19.885695    20.822223    8349.3629    5549.6765    3614.9215    4792.3807    1150.3108    769.21636   -416.15398   -3579.3426 
 7152000    269.11484   -4673.9815   -4154.9709   -4673.9815            0    3077.7137    19.987588    20.147457     20.90804    8419.6483    5323.9782    2233.3804    1675.7824   -148.85018    1402.2347    389.62226   -3777.0525 
 7153000    257.48149   -4682.7217    -4186.147   -4682.7217            0    4069.8014    20.179568    20.022239    20.549203    8302.7029    3544.2022    4340.5001    4324.7018   -752.72121    542.30921   -1031.6487   -3693.3493 
 7154000    264.21274   -4698.9229   -4189.3664   -4698.9229            0    4103.9968    20.106642    20.043913    20.706885    8345.2013    4982.1554    3221.4937    4108.3414    740.49472   -57.338608   -1173.6212   -3689.8846 
 7155000    248.52035   -4671.5999   -4192.3075   -4671.5999            0    5012.4509    20.074725    20.139061    20.777327    8399.9846    5241.3472    5152.7837    4643.2218    243.56955   -134.63629   -1076.7832   -3578.2564 
 7156000    262.10953   -4705.6891   -4200.1889   -4705.6891            0    4344.9993    20.179956    20.094886    20.686335    8388.5967    4423.0271    3964.0281    4647.9427   -102.01337   -901.11617   -64.049425   -3668.6256 
 7157000    265.73886   -4693.1004   -4180.6007   -4693.1004            0    2565.0259    19.965021    20.211498    20.940704    8450.0554    4259.5231    1625.3166    1810.2379    356.66229   -755.52244    35.502522   -3864.4987 
 7158000    244.84123   -4689.0358   -4216.8388   -4689.0358            0    3136.0293    19.960942    20.099437    21.107742     8468.504    2816.9257    4056.5417    2534.6205    18.153805    775.25779    -393.5502   -3829.5253 
 7159000    266.07828   -4712.0528   -4198.8984   -4712.0528            0    5116.9632    20.071686    19.987346    20.873127    8373.8754    5939.9814    4905.5785    4505.3299    322.78069   -981.14647    -905.5407   -3573.9925 
 7160000    256.00825   -4674.7911   -4181.0576   -4674.7911            0    2487.1217    20.154227    20.198859    20.652304    8407.3961    2858.3853    3218.5344    1384.4453    236.88242     1262.739    560.00326   -3876.1036 
 7161000    262.91326   -4709.0291   -4201.9788   -4709.0291            0    5315.3555    20.171477    20.085734     20.64525    8364.6075    5198.2418     5593.352    5154.4728   -670.18463   -1528.2001    127.31626   -3553.5627 
 7162000    256.02223   -4665.2495   -4171.4891   -4665.2495            0    3274.5885    20.134506    20.112957     20.81184    8428.0555    4759.3935    2536.4474    2527.9246   -505.37384    452.24899   -590.99154   -3768.9946 
 7163000    265.97056    -4689.754   -4176.8074    -4689.754            0    2267.0387    20.231806    19.996985    20.869031    8443.0904    1658.5515    3577.5505    1565.0142    514.92705    657.72668   -473.03589   -3897.6582 
 7164000    251.73292   -4680.5191   -4195.0309   -4680.5191            0    3378.4885    19.913798     20.26095    20.927972    8443.8605    3242.3255     3525.777    3367.3629    -526.8599   -2766.8472   -787.00756   -3778.9868 
 7165000    257.19366   -4684.7713   -4188.7517   -4684.7713            0      3527.22    20.363594    19.850543    20.838542    8423.5306     1604.526    5412.9215    3564.2126    7.3319585   -1865.3521   -399.37627   -3755.4378 
 7166000    266.56385   -4669.5592   -4155.4684   -4669.5592            0    4673.6725    20.062297    20.116512    20.656953     8336.804    1919.8228    6771.2916    5329.9032   -85.586545    2146.3172    618.83092   -3587.2258 
 7167000    264.50916   -4685.4118   -4175.2837   -4685.4118            0    5074.8914    19.912879    19.890202    21.004214    8319.1639    4703.7077    5003.0965      5517.87   -247.03029    251.75945      165.433    -3559.565 
 7168000    272.56183   -4675.2993   -4149.6409   -4675.2993            0    4771.7481    19.826517    20.196789    20.762861    8314.1136     5449.573    4763.3262     4102.345   -174.08068    88.206538    -740.9733   -3571.0529 
 7169000    266.21894    -4661.481   -4148.0554    -4661.481            0    4709.9737    19.963927    20.167977    20.751383    8355.1714    6289.0772    3738.8416    4102.0022   -624.05224    441.19383    262.45889   -3574.1376 
 7170000    260.32395   -4661.3594   -4159.3028   -4661.3594            0    4782.3694    20.076528    20.143303    20.734219    8385.0755    5299.8168    4163.8283    4883.4632   -339.46745    997.49209     833.5187   -3574.4777 
 7171000    271.20738    -4684.078   -4161.0317    -4684.078            0    2945.2662    20.275871    20.054958    20.699815    8417.2021    3201.7174    2498.3322    3135.7491   -231.06118      -400.89    178.30791   -3799.4819 
 7172000    257.86514   -4691.2709   -4193.9563   -4691.2709            0     4189.132    20.253922    19.996239    20.696642    8382.1868    3348.5329    5453.5865    3765.2765   -28.475231     200.7282   -80.527301   -3681.8534 
 7173000    260.68545   -4707.6861   -4204.9323   -4707.6861            0    4531.2642    20.088704    20.131245    20.659241    8354.8165    3045.8537    5448.3219     5099.617   -108.98094   -42.573736    981.74625   -3652.8139 
 7174000    266.19047   -4699.6173   -4186.2466   -4699.6173            0    5125.7263     19.93698    19.823347    21.119105    8346.6439    5488.6554    6046.9054    3841.6182     181.9497    -43.28178    194.24374   -3562.3061 
 7175000    265.41364   -4708.1347   -4196.2622   -4708.1347            0     4675.335    20.192338     19.99494    20.680147    8349.4973    4954.3972    4293.7578    4777.8501    199.03413      1529.96   -1230.4131    -3626.952 
 7176000    251.53836   -4696.8133   -4211.7004   -4696.8133            0     4551.889     20.12164    20.029327    20.701835    8343.3135    3427.5281    4820.4057    5407.7332   -332.27824    574.10185   -1105.4323   -3657.8326 
 7177000    259.62255   -4679.7894   -4179.0855   -4679.7894            0    2412.1593    20.392776    20.121133    20.661371    8477.8931    1454.5388     2112.574     3669.365   -440.07263    1854.1877    261.29499   -3880.8428 
 7178000    261.98704   -4688.0584   -4182.7944   -4688.0584            0    4418.6779     20.29981    20.063532    20.667549    8417.6009    2681.0274    5062.0018    5513.0043   -232.77659    1630.4543    -1058.368   -3640.3483 
 7179000    269.68482   -4680.9264   -4160.8166   -4680.9264            0    3432.7747    20.046095    19.985698    21.007291    8416.2601    4614.1414    3357.7191    2326.4635   -1340.5157    1231.2304    117.61706   -3739.4692 
 7180000     260.6439   -4658.2263   -4155.5526   -4658.2263            0    4625.9766    19.784135    20.203147    21.085148    8427.7716    6189.3303    3867.4985    3821.1011    44.584262   -673.39411   -297.48607   -3586.9719 
 7181000     256.6355   -4687.1088   -4192.1657   -4687.1088            0    3435.9645    20.168952    20.137287    20.670802    8395.4044    3288.7006    1610.9071     5408.286    216.02697   -988.79488    873.50724   -3771.4718 
 7182000    253.99256   -4669.6469   -4179.8009   -4669.6469            0    2502.1134    20.158201    20.350235    20.588315    8445.8233    3456.2006    964.31126    3085.8285   -203.63547    1848.2112   -19.339318   -3871.6064 
 7183000    260.14694   -4712.3558   -4210.6406   -4712.3558            0    2713.9063    20.265112    19.901833    20.940251    8445.4728    673.57992    6003.1407    1464.9982   -102.08773    133.48137    1070.6692   -3876.3727 
 7184000    258.54755   -4713.0694   -4214.4387   -4713.0694            0    2969.6219    20.086842    20.211349    20.898001    8484.2159    2387.2382    3301.1174      3220.51    544.43682   -193.93071   -1130.5586   -3846.9968 
 7185000    263.96352   -4658.5501   -4149.4743   -4658.5501            0    3074.3628    20.343147    19.943927    20.830701    8451.4785    1923.2505    3298.5248    4001.3132    9.2711193    15.674546   -528.53328   -3770.5401 
 7186000    258.37741   -4645.9549   -4147.6524   -4645.9549            0    3075.4865    19.870523    20.007534    20.995908    8347.1367    4840.6062    2636.0669    1749.7865    -718.9932   -57.864317    1067.8787   -3773.2598 
 7187000    253.40644    -4681.757   -4193.0414    -4681.757            0    4396.1096    20.033688    20.101148     20.75466    8357.9043    4237.7431      4395.45    4555.1358   -851.82197   -849.56091    803.95723   -3657.1931 
 7188000    261.32236   -4677.1621   -4173.1799   -4677.1621            0    1618.6876    20.433888    20.087721     20.80688    8540.6052    529.14826    1633.3247    2693.5899   -614.31871    621.47172   -29.954916   -3971.5627 
 7189000    259.75177   -4722.1757   -4221.2225   -4722.1757            0    2263.1871    20.173771    20.033297    20.724612    8375.7928    3122.2674    2144.1527    1523.1411   -398.14921    955.16045   -286.84487   -3944.7689 
 7190000    271.63106   -4664.4995   -4140.6362   -4664.4995            0    4738.7334    20.168124    19.996836     20.72117    8356.8203     4783.972    3800.9297    5631.2985   -745.24744   -937.00667    299.90077   -3563.0999 
 7191000    265.16641   -4683.6662   -4172.2705   -4683.6662            0    4644.8298    20.036749    19.921424    20.972472     8371.384    5374.7103    4669.0996    3890.6794   -525.05152    318.68239   -1413.0611   -3605.1923 
 7192000    264.29626    -4677.275   -4167.5575    -4677.275            0     3935.502     20.00563    20.321967    20.518322    8341.8007    4302.6171    3727.5789    3776.3101   -764.88964    580.70226    96.602872   -3688.7776 
 7193000     261.5971   -4678.5255   -4174.0135   -4678.5255            0    5002.1231     20.11115    20.129724    20.607541    8342.5898    2984.7753    5534.0534    6487.5408    662.76047    -224.6917    629.86193   -3565.4146 
 7194000    282.22147   -4703.2465   -4158.9587   -4703.2465            0    2776.5425    20.091356    20.010187    20.972192    8431.4879    1665.1295    4364.0158    2300.4822    650.83407    -558.5303    664.35306   -3817.5423 
 7195000     259.0365   -4685.3356   -4185.7619   -4685.3356            0    3617.0205    20.192465    19.965418    20.787949    8380.6825    2031.0674     5489.387     3330.607    -498.3261   -15.756219   -1220.8105   -3743.6764 
 7196000    266.57713   -4700.0486   -4185.9321   -4700.0486            0    4015.9413    20.176236    20.090505    20.683569    8384.1005    2783.6262    4177.8404    5086.3573   -461.34306   -450.50894   -103.09867   -3694.8889 
 7197000    267.20853   -4695.0254   -4179.6913   -4695.0254            0     2096.528    20.236138    20.156226    20.709881    8447.2327    3060.5707    345.28498    2883.7282   -307.71942    624.16093   -1053.1169   -3921.4112 
 7198000    259.30963   -4677.3088   -4177.2084   -4677.3088            0    3472.0274    20.141988      20.1225     20.79036    8426.4816    5238.7819    2241.8559    2935.4444    4.5778326   -273.69184   -453.96057   -3750.5254 
 7199000     266.7449   -4673.3394   -4158.8995   -4673.3394            0    2376.4968      20.0832    19.964525      20.9871    8414.8098    4322.3337      1025.85    1781.3067   -338.66825    1301.0033    268.07274   -3867.2525 
 7200000    262.04896   -4706.9465   -4201.5631   -4706.9465            0    2803.9485    20.272342    19.895504    20.864663    8415.3123    2727.5102    1877.3213    3807.0139   -288.43684    665.34075    608.05788   -3857.4381 
 7201000    258.79162   -4686.3996   -4187.2982   -4686.3996            0    3509.3385    20.106611    20.086968    20.787741    8395.7707    3111.3233    4551.5004    2865.1916    521.02451    489.11899   -707.36404   -3757.6018 
 7202000    261.86321   -4688.1324   -4183.1072   -4688.1324            0    2876.4829    20.252987    20.064733    20.886404    8487.6241    2567.4929    2856.8689    3205.0869   -385.21329   -1243.7948   -189.91231   -3827.0467 
 7203000    263.58741   -4708.8902   -4200.5397   -4708.8902            0    3995.9004     20.06574    20.160785    20.817033     8421.345    3743.0375     4634.479    3610.1847    181.11404    89.552623    1394.9237   -3709.7765 
 7204000    256.96006    -4695.747   -4200.1779    -4695.747            0    4510.3548     20.18628    19.890079    20.792441    8348.3044    2403.1935    6118.4886    5009.3822    251.40867   -99.925995   -155.02527   -3651.0357 
 7205000    254.95072   -4718.3316   -4226.6377   -4718.3316            0     1596.703    20.276687    20.081366    20.775605    8459.4852    3556.0089   -1427.9439    2662.0439     252.0713   -1217.1258    456.31985   -4029.6478 
 7206000     262.0281    -4720.053   -4214.7098    -4720.053            0    3193.4715    20.214775     20.13218    20.717838    8431.4868    841.21781    4569.4731    4169.7237   -975.18119   -103.75651   -547.58975   -3822.0258 
 7207000    264.27308    -4696.218   -4186.5451    -4696.218            0    2670.0261    20.199513    20.126842    20.863202    8481.9852    3098.6167    2621.8183    2289.6433   -874.50011    1587.3968   -720.76917   -3856.2601 
 7208000    259.15187   -4662.5821   -4162.7859   -4662.5821            0     4265.578    19.898118    20.037739    20.881353    8325.6728    3270.1295    5822.3194    3704.2852   -370.18077     446.8695   -1251.8693   -3644.8534 
 7209000    266.07402   -4703.8356   -4190.6895   -4703.8356            0     3991.746    20.183372    20.045175    20.752867    8396.1791    989.50764     5289.155    5696.5753   -141.70001    177.15063   -1253.5867   -3701.9016 
 7210000    280.18586   -4700.0895   -4159.7275   -4700.0895            0    4197.2232    20.064261    20.277044    20.580621    8373.1001    4391.6692    4259.7797    3940.2209     49.91729    1489.3134   -857.66264   -3647.1917 
 7211000    261.45268   -4680.4651   -4176.2316   -4680.4651            0    5446.3097    20.118286    19.865232    20.886815    8347.5081    4252.8227    7001.8714    5084.2349   -749.96101    64.488737    1245.6259   -3513.1988 
 7212000     251.4475     -4663.16   -4178.2223     -4663.16            0    4308.3052     20.01904    20.129206    20.831969    8394.6036    4757.1914    4123.6525    4044.0717   -513.57391   -1624.5838   -1368.9076   -3650.7708 
 7213000    277.50958   -4685.9501   -4150.7495   -4685.9501            0    3995.3786    20.211012    20.311518    20.359941    8358.0882    4443.5114    1890.5564    5652.0681   -355.66929   -900.38066   -9.5726794   -3663.7363 
 7214000    269.49451   -4691.7024   -4171.9596   -4691.7024            0    3880.8516     20.11123    19.931568    20.895597    8375.9655    4658.0267    2785.2007    4199.3275      -151.12    924.33115    870.58216   -3697.8947 
 7215000    257.56651   -4719.0316   -4222.2929   -4719.0316            0    4792.9786    20.022179    19.940908    20.765407    8290.8055    6036.4935    3929.0844    4413.3579   -796.46335   -66.006377    202.07577     -3642.76 
 7216000    260.30007   -4695.8451   -4193.8346   -4695.8451            0    3804.6948    20.156767    20.346979    20.477766    8398.5324    790.17401    5254.9009    5369.0094    827.24023    970.78198    165.81726   -3727.8204 
 7217000    250.07241   -4695.0956   -4212.8099   -4695.0956            0    5219.3222    20.067438    19.853719    20.872274    8315.7912    4473.5744    7437.5532     3746.839    491.46408    1299.8739    80.828036   -3579.8247 
 7218000    262.88228   -4670.6826    -4163.692   -4670.6826            0    4091.6891    20.347876    19.815969    20.989752    8463.3383    3490.6093    4484.8147    4299.6433   -661.73188    158.57522    -1214.795   -3658.6584 
 7219000    272.56806     -4697.58   -4171.9096     -4697.58            0    1643.7133    20.256325    20.119974    20.880449    8509.9676    2202.2289    698.55603     2030.355   -298.57527      714.441   -763.56179   -3967.9098 
 7220000    260.41053   -4711.4449   -4209.2213   -4711.4449            0    2722.2409    20.198389    20.146661    20.769939    8451.9136    3525.5401    2754.7761    1886.4065   -475.99823     62.82483    617.47617   -3873.6711 
 7221000    255.79094   -4676.2182   -4182.9038   -4676.2182            0    4599.1408    20.094416    20.052248    20.686349    8335.3204    4769.9543    3809.5407    5217.9275    312.69453   -1420.3704   -1080.0643   -3623.8226 
 7222000    260.59428   -4717.9614   -4215.3835   -4717.9614            0    3186.5001    19.944435    19.955803    21.074268    8387.7104    3282.8053    3878.8459    2397.8492   -251.46299   -990.24886   -1370.3869   -3825.5912 
 7223000    240.91105   -4667.8678   -4203.2506   -4667.8678            0    3949.9356     20.08739    20.029974    20.699114    8328.2861    3366.4578    5629.9686    2853.3803   -710.44173   -58.951496    523.15735   -3723.4934 
 7224000    246.35474   -4659.6848   -4184.5689   -4659.6848            0     3348.646    20.183189    20.175213    20.715043    8435.1685    1886.0098     4221.916    3938.0121   -6.3873276   -117.78071    946.85932   -3772.6243 
 7225000     263.5612   -4707.4872   -4199.1873   -4707.4872            0    4001.7003    20.282054    20.070081    20.545757    8363.4068    3835.1716    3729.1786    4440.7506    227.76367    847.96918    1008.7264   -3711.0931 
 7226000     260.1493   -4678.8155   -4177.0957   -4678.8155            0    6580.7187    19.916194    20.039605    20.854234    8323.1884    8068.6632    4563.7838    7109.7092    277.60027    1183.5443     523.8073   -3378.2941 
 7227000    273.36822   -4642.7449   -4115.5313   -4642.7449            0    2854.5043    20.231749    19.899164    21.044651    8472.4688     3170.119    2338.4571    3054.9368   -666.37701    227.87112     801.9071   -3762.8223 
 7228000    269.92368   -4685.3118   -4164.7413   -4685.3118            0    2460.8807    20.215032    20.150983    20.783142    8466.0702    1035.8712    2956.8839     3389.887   -806.28045    251.74132   -1004.7099   -3860.8989 
 7229000    268.41624   -4689.1888   -4171.5255   -4689.1888            0    3625.9873    20.179751    20.152072    20.700425    8418.1135    4382.1504     2377.707    4118.1044    283.37811   -41.185394    11.187959   -3726.3646 
 7230000    267.93034   -4665.7964   -4149.0702   -4665.7964            0     662.6925    20.173334    20.131527    21.062988    8554.1007   -897.19925    1619.6176    1265.6592   -616.11232    -415.8429    1730.7962   -4066.3975 
 7231000    277.15328   -4689.7523   -4155.2389   -4689.7523            0    1821.6847    20.071386     19.95458    21.087655    8445.9446    1615.4228    2888.6312    961.00024    222.31344    253.57454     1299.024   -3930.8521 
 7232000    268.13875   -4691.2159   -4174.0878   -4691.2159            0     3788.229    20.056232    20.069151    20.708369     8335.358    4530.8082    1564.3718    5269.5071    136.43058   -57.656293   -609.22168   -3713.5807 
 7233000    252.84432   -4675.9015     -4188.27   -4675.9015            0    2765.0555      20.0645     20.31886    20.753632    8461.0024    3575.4694    528.14053    4191.5566    276.73373    838.40262    317.66628   -3847.0759 
 7234000    269.24454   -4677.4986   -4158.2379   -4677.4986            0    5179.6265    19.911634    20.164888    20.956729    8414.4592    4878.5542    5145.7467    5514.5787   -476.96389    1044.0577    821.81551   -3522.6135 
 7235000    253.06392   -4693.0618   -4205.0068   -4693.0618            0    4666.0933    20.099496    20.008023    20.730108    8336.6372    5689.7154    3397.2639    4911.3005   -566.72755    552.31727   -1384.8523   -3637.6971 
 7236000    250.53662   -4679.0096   -4195.8287   -4679.0096            0    2414.7273     20.25275    20.079985    20.708648    8421.6874    1822.9115    3547.5091    1873.7614   -486.59315   -416.39106   -45.217462   -3899.2478 
 7237000     265.9737   -4693.6512   -4180.6985   -4693.6512            0    3900.7249    20.067268     20.19423    20.740976    8405.1359    3835.2868    2773.5809    5093.3068    69.349901    844.12487    799.17232   -3702.5465 
 7238000    263.33311   -4675.6196   -4167.7595   -4675.6196            0    2503.8435    20.212031    19.996829    20.960931    8471.9166    2602.2384    2711.6154    2197.6767    23.385601   -783.37529   -199.69085   -3858.3991 
 7239000    261.06003   -4691.4064   -4187.9302   -4691.4064            0    4043.3952    20.113146    20.021831    20.783712    8369.6426    4698.5018    3159.4926    4272.1911    257.31417   -1067.3348   -540.23569   -3694.3827 
 7240000    264.84489    -4671.524   -4160.7484    -4671.524            0    2711.4824    20.201737    19.994186    20.749893    8381.2403    1610.8303    3060.2407    3463.3762    212.09093     1099.072    609.19229    -3829.319 
 7241000    259.59091   -4701.7286   -4201.0858   -4701.7286            0    4933.8486      20.0132    19.906862    21.041062    8382.7591    3947.9725    6050.3153    4803.2581   -157.61182   -685.91113    30.553495   -3597.9033 
 7242000    252.97147    -4659.463   -4171.5863    -4659.463            0    4300.4603    20.103514    20.095439    20.875737    8433.5672    4649.1979    3800.4797    4451.7033    96.724698    117.57017   -778.28818   -3642.6515 
 7243000    260.75338   -4658.9142   -4156.0294   -4658.9142            0    1487.1517    20.480413    19.902393    20.997273    8558.6822   -802.36715     3847.776    1416.0462   -487.79408   -688.76203    413.96996   -3970.4037 
 7244000    272.37832   -4687.3642   -4162.0597   -4687.3642            0    4319.6496    19.923333     20.09944    20.853003    8350.5401    7322.7243    1727.3512    3908.8733    271.95558     532.6767    574.79294   -3635.9953 
 7245000    280.72394   -4673.7776   -4132.3779   -4673.7776            0    4318.2827     20.18422    20.010452    20.983253    8475.0388    2519.6551    5692.9884    4742.2047    -278.9423    889.98924   -811.83761   -3598.6392 
 7246000    261.38205   -4670.0812    -4165.984   -4670.0812            0     2419.968    20.095302    20.109731    20.939336    8461.8185     2898.999    2463.2095    1897.6954   -957.80914    -127.7253    562.21374   -3867.3431 
 7247000    266.09859   -4686.7885    -4173.595   -4686.7885            0    2414.6858    19.886644    20.161105    20.911745    8384.2865    3410.1855    2175.9489     1657.923    67.969045    274.12169    187.42694   -3878.3364 
 7248000    260.25773   -4658.7046   -4156.7756   -4658.7046            0    2635.3997     20.21655    19.945328    21.186965    8543.1289    1223.2279    4898.4881     1784.483   -243.58313   -66.481088    322.51603   -3828.4239 
 7249000    265.26109   -4714.3944    -4202.816   -4714.3944            0    4064.2778    20.159839    20.053553    20.754816    8390.6824    2009.0976    6132.3541    4051.3817   -251.76067    -249.1997    290.07257   -3705.4724 
 7250000    276.21719   -4664.0308   -4131.3227   -4664.0308            0    3098.5492    20.167542    20.081243    20.738772    8398.9811    2722.3968     2729.238    3844.0127   -982.79777   -878.52427    451.68775   -3751.7798 
Loop time of 369.611 on 64 procs for 250000 steps with 972 atoms

Performance: 116.880 ns/day, 0.205 hours/ns, 676.386 timesteps/s
195.5% CPU use with 32 MPI tasks x 2 OpenMP threads

MPI task timing breakdown:
Section |  min time  |  avg time  |  max time  |%varavg| %total
---------------------------------------------------------------
Pair    | 26.406     | 34.841     | 42.938     |  70.6 |  9.43
Bond    | 0.88448    | 1.1652     | 1.6735     |  17.2 |  0.32
Kspace  | 158.11     | 172.2      | 182.6      |  44.5 | 46.59
Neigh   | 2.2254     | 2.6812     | 3.0896     |  15.9 |  0.73
Comm    | 67.225     | 74.474     | 81.165     |  46.1 | 20.15
Output  | 0.50235    | 0.50267    | 0.50441    |   0.0 |  0.14
Modify  | 69.862     | 72.675     | 76.181     |  16.8 | 19.66
Other   |            | 11.07      |            |       |  3.00

Nlocal:        30.3750 ave          39 max          24 min
Histogram: 3 2 3 5 6 4 7 0 1 1
Nghost:        2568.41 ave        2599 max        2535 min
Histogram: 2 2 1 2 6 7 4 5 1 2
Neighs:        9379.88 ave       11587 max        6882 min
Histogram: 2 2 4 2 4 4 6 2 2 4

Total # of neighbors = 300156
Ave neighs/atom = 308.80247
Ave special neighs/atom = 2.0000000
Neighbor list builds = 8540
Dangerous builds = 0

unfix		3
unfix		2
unfix		1

write_data	data.final.${pid}
write_data	data.final.0
System init for write_data ...
PPPM initialization ...
  extracting TIP4P info from pair style
  using 12-bit tables for long-range coulomb (../kspace.cpp:340)
  G vector (1/distance) = 0.37211018
  grid = 24 24 25
  stencil order = 5
  estimated absolute RMS force accuracy = 0.0034455786
  estimated relative force accuracy = 1.0376258e-05
  using double precision FFTW3
  3d grid and FFT values/proc = 3458 576
Last active /omp style is kspace_style pppm/tip4p/omp
WARNING: Not all mixed pair coeffs generated from mixing. Use write_data with 'pair ij' option to store all pair coeffs. (../write_data.cpp:312)

write_restart   restart.lmp.${pid}
write_restart   restart.lmp.0
System init for write_restart ...
PPPM initialization ...
  extracting TIP4P info from pair style
  using 12-bit tables for long-range coulomb (../kspace.cpp:340)
  G vector (1/distance) = 0.37211018
  grid = 24 24 25
  stencil order = 5
  estimated absolute RMS force accuracy = 0.0034455786
  estimated relative force accuracy = 1.0376258e-05
  using double precision FFTW3
  3d grid and FFT values/proc = 3458 576
Last active /omp style is kspace_style pppm/tip4p/omp
Total wall time: 0:06:09
