LAMMPS data file via write_data, version 30 Jul 2021, timestep = 21500000

972 atoms
2 atom types
648 bonds
1 bond types
324 angles
1 angle types

0.08944613029021475 19.910554869707184 xlo xhi
0.06113953171245612 19.938861468287037 ylo yhi
0.2247542889442542 20.475243711064813 zlo zhi

Masses

1 1.008
2 15.999

Pair Coeffs # lj/cut/tip4p/long/omp

1 0 0
2 0.21084 3.1668

Bond Coeffs # harmonic/omp

1 450 0.9572

Angle Coeffs # harmonic/omp

1 55 104.52

Atoms # full

4 2 2 -1.1794 4.271311903911231 1.507469309402941 3.552123469525559 0 0 0
6 2 1 0.5897 4.768742928679262 1.2431546401494924 4.3259693547018365 0 0 0
5 2 1 0.5897 4.388406413931868 0.7862827828747001 2.933759011805893 0 0 0
10 4 2 -1.1794 1.7131887883127344 4.202938995974239 3.988715879762389 0 0 0
11 4 1 0.5897 1.508603064889649 3.3618766687079815 3.5800803480309304 0 0 0
12 4 1 0.5897 2.669114851404709 4.2498720886108625 3.9756598902191063 0 0 0
16 6 2 -1.1794 4.453164911229111 4.305506367411833 3.6374571892863092 0 0 0
18 6 1 0.5897 4.397018314811326 3.401029358775092 3.3292276976669344 0 0 0
23 8 1 0.5897 2.644490746298346 1.030677135736044 4.540949831424846 0 0 0
31 11 2 -1.1794 1.2082136249057922 1.9623939936391472 2.4524782398620184 0 0 0
33 11 1 0.5897 1.8599807316257928 2.1062759917972866 1.766463637840172 0 0 0
3 1 1 0.5897 3.7311281556790696 2.5173690336884436 0.5599230492658781 0 0 0
17 6 1 0.5897 4.489871491468708 4.829840576411714 2.8375355934945152 0 0 0
102 34 1 0.5897 0.1274482245060256 0.9347809387341321 5.108985799468848 1 0 0
22 8 2 -1.1794 2.0372921416380145 0.947195832851396 5.276126675025255 0 0 0
236 79 1 0.5897 0.93694763061877 0.21857109165893512 2.113011948651387 0 1 0
32 11 1 0.5897 0.3757596828472478 2.205396111695789 2.047367625887518 0 0 0
81 27 1 0.5897 0.32430646339556846 4.161439775225123 5.224367486932229 1 0 0
1 1 2 -1.1794 2.795814406139354 2.513610772070172 0.3566167003662799 0 0 0
356 119 1 0.5897 1.4446118373704466 2.1845030168941846 8.491163043655796 0 0 0
328 110 2 -1.1794 3.97793642523743 1.501865089704669 10.129934011853992 0 0 0
325 109 2 -1.1794 2.6746345817919654 2.7957200021943174 7.160621326809845 0 0 0
326 109 1 0.5897 2.520829703569479 2.124627256761957 6.495690896990089 0 0 0
327 109 1 0.5897 3.583473275334691 2.662840260755539 7.429904781745746 0 0 0
330 110 1 0.5897 4.244831252397617 0.885067508295357 9.448404150682082 0 0 0
355 119 2 -1.1794 0.8090835689463202 2.0514824290247393 9.19440873791954 0 0 0
27 9 1 0.5897 2.803742385862904 4.574882972892889 6.639988290699391 0 0 0
561 187 1 0.5897 0.7291530415906721 0.31297672631486917 8.866533584092265 0 1 0
24 8 1 0.5897 2.341461333233237 0.17439751961490446 5.752021006013972 0 0 0
341 114 1 0.5897 4.203395298869175 3.3509327476080886 10.108312260366194 0 0 0
335 112 1 0.5897 1.279288301037483 3.405024934305133 10.17133602172871 0 0 0
342 114 1 0.5897 4.306595237015608 4.814361826202757 9.734601024534975 0 0 0
683 228 1 0.5897 4.253230588445606 2.6159145221071163 14.228592348972551 0 0 0
334 112 2 -1.1794 1.4548010188894913 4.18868842425928 10.69216363771512 0 0 0
346 116 2 -1.1794 1.9447021371788424 0.5247685262566086 11.87692978286303 0 0 0
347 116 1 0.5897 1.0187317379736145 0.7231933335800483 11.73773795290799 0 0 0
348 116 1 0.5897 2.3862501886640954 0.8898666361924045 11.110195470418011 0 0 0
350 117 1 0.5897 2.5442128107500634 4.454942491476446 13.248491588407425 0 0 0
649 217 2 -1.1794 2.562400926876972 2.506969783398198 13.752550618481672 0 0 0
650 217 1 0.5897 2.2538648092868825 1.8218422450109415 13.159603112631707 0 0 0
651 217 1 0.5897 2.081904723518119 2.3544040961199793 14.5661732117594 0 0 0
336 112 1 0.5897 2.40905772184348 4.224731013123603 10.757411635559196 0 0 0
329 110 1 0.5897 4.471403983644607 1.2320083789246465 10.904405394003176 0 0 0
340 114 2 -1.1794 4.188729705010889 4.231074376342186 10.484306251442204 0 0 0
405 135 1 0.5897 0.2155850647957914 4.560064873153723 11.993455044228025 1 0 0
652 218 2 -1.1794 4.0616851719915275 1.4320126462133844 16.870777816879254 0 0 0
653 218 1 0.5897 3.2510562714615494 1.0950273764715852 17.252208849548186 0 0 0
654 218 1 0.5897 4.313393252205756 0.7742948147876808 16.22252221230957 0 0 0
658 220 2 -1.1794 1.4592852250053312 4.125262082774426 17.452198833257764 0 0 0
659 220 1 0.5897 0.7036640697362332 4.211240911716443 18.033401952995042 0 0 0
664 222 2 -1.1794 4.204277789729107 4.2613677932922345 17.423559240780587 0 0 0
665 222 1 0.5897 3.284009066667717 4.359843728510398 17.66762001986938 0 0 0
666 222 1 0.5897 4.282130256590182 3.349222971361488 17.14396371682112 0 0 0
670 224 2 -1.1794 2.0728543912414015 0.8171331813376121 18.45978208971514 0 0 0
671 224 1 0.5897 2.338948826004711 1.472659763302648 19.104504471175872 0 0 0
672 224 1 0.5897 1.1194532303957372 0.7792228367124417 18.535531442564082 0 0 0
681 227 1 0.5897 0.99908736415561 2.7615338792053925 16.396227192825936 0 0 0
660 220 1 0.5897 1.3412725825242526 4.817031429170882 16.801262475245515 0 0 0
884 295 1 0.5897 0.7915156900549013 0.295597677911717 15.458512312974321 0 1 0
679 227 2 -1.1794 0.7632565002252597 2.0591583772266153 15.790228788076487 0 0 0
2 1 1 0.5897 2.5829284620241695 3.4316994960519676 20.439732459744146 0 0 -1
110 37 1 0.5897 1.9994970445120008 9.184113167911484 0.9965725115002725 0 0 0
141 47 1 0.5897 1.135276470388838 8.112735554828664 2.818873977834258 0 0 0
139 47 2 -1.1794 0.848977492178619 8.966035612010533 2.4931169595151723 0 0 0
114 38 1 0.5897 3.3956932800641506 7.9823478597244435 3.9392905809808934 0 0 0
111 37 1 0.5897 3.4520177692141973 9.358743978726297 0.6075386653403048 0 0 0
14 5 1 0.5897 3.9993801633055712 5.883907995416701 0.9614619672806701 0 0 0
15 5 1 0.5897 4.461940298594651 6.820654435500461 2.057042745036571 0 0 0
19 7 2 -1.1794 1.0250822986967965 6.165754288509248 2.220250110599901 0 0 0
126 42 1 0.5897 4.34217207030822 9.990455396434976 3.4845270298556077 0 0 0
112 38 2 -1.1794 4.189715462673822 8.16617145003943 3.4373957864744416 0 0 0
674 225 1 0.5897 1.9277266945054254 5.46966963106946 0.8657518544487582 0 0 1
130 44 2 -1.1794 1.9974734882021032 7.696190946366484 5.0088787147875795 0 0 0
140 47 1 0.5897 1.1655725957834837 9.59063891577891 3.14566740909843 0 0 0
20 7 1 0.5897 1.1843900243710723 5.421507617511293 2.8006988309055156 0 0 0
13 5 2 -1.1794 4.737342849266726 6.060322652080261 1.5449287534839096 0 0 0
132 44 1 0.5897 1.0694430962238468 7.471032041499045 4.944109862710742 0 0 0
113 38 1 0.5897 4.899685644794482 7.813340824088776 3.973696850803247 0 0 0
21 7 1 0.5897 0.15944313970395996 5.9985036358580555 1.84767080504078 0 0 0
109 37 2 -1.1794 2.567937969565478 9.335261896808774 0.24148990264247772 0 0 0
26 9 1 0.5897 2.072486660790513 5.706966519205826 7.329544302392814 0 0 0
464 155 1 0.5897 1.6934761977381128 8.821375597812851 8.273825784045114 0 0 0
131 44 1 0.5897 2.394915840718642 6.949387091272903 5.456641346472717 0 0 0
437 146 1 0.5897 4.403547041971696 7.723358634913859 9.36759566425843 0 0 0
339 113 1 0.5897 4.454752100326069 5.761380595637952 7.669437499752758 0 0 0
435 145 1 0.5897 2.463209412180232 8.82873750593507 6.220774637971804 0 0 0
433 145 2 -1.1794 2.79148913426964 9.28563712240763 6.995128942861286 0 0 0
463 155 2 -1.1794 1.0461332608936584 8.680559857007246 8.964651719217537 0 0 0
345 115 1 0.5897 1.060531209435205 6.771095006079527 9.002209193556972 0 0 0
25 9 2 -1.1794 2.715503294822393 5.528006228375279 6.643510104085397 0 0 0
343 115 2 -1.1794 1.013593531134449 5.865808662687446 8.694808343253284 0 0 0
468 156 1 0.5897 4.524179854282532 9.326907207822162 7.213167123253825 0 0 0
344 115 1 0.5897 1.2679057653939372 5.341085208690853 9.453858726126578 0 0 0
438 146 1 0.5897 4.307745920928733 9.098980488994838 9.992391022968217 0 0 0
436 146 2 -1.1794 4.30508826260104 8.166856181069113 10.210067047532212 0 0 0
443 148 1 0.5897 1.2097465295414764 9.894436568614834 10.208625801618503 0 0 0
337 113 2 -1.1794 4.759398091995514 5.940553537795862 8.558943766203766 0 0 0
465 155 1 0.5897 0.2046147913336634 8.680324093659637 8.50859931910013 0 0 0
757 253 2 -1.1794 2.355471908384099 9.195030127378601 13.913778812099881 0 0 0
351 117 1 0.5897 3.462082186564154 5.403395797945703 13.98993787926737 0 0 0
668 223 1 0.5897 1.3188193821600052 5.930123046693125 14.74572068345704 0 0 0
759 253 1 0.5897 2.319090524955761 8.592271421492011 13.171124248010278 0 0 0
792 264 1 0.5897 4.268863219127972 9.290097231052526 14.448595353543869 0 0 0
454 152 2 -1.1794 2.1231598275587222 7.409421286519024 11.748786168571181 0 0 0
455 152 1 0.5897 2.798533866772286 7.589723891475741 11.094947013607982 0 0 0
456 152 1 0.5897 2.3774366743890782 6.56955636947361 12.13114271073655 0 0 0
349 117 2 -1.1794 2.6724661515164225 5.381996064770819 13.449379450971234 0 0 0
533 178 1 0.5897 0.37974351183062116 7.6051545086586545 11.795147984122048 1 0 0
789 263 1 0.5897 1.0623039460020092 8.856485728372128 15.03138180938202 0 0 0
661 221 2 -1.1794 4.727672034992932 5.8072543383590185 15.225862782713994 0 0 0
663 221 1 0.5897 4.419617935265885 6.621010772876444 15.624764833813998 0 0 0
788 263 1 0.5897 0.784300423298527 9.281121061457869 16.45758269114927 0 0 0
762 254 1 0.5897 4.841474260877925 7.778689406172907 17.449616894473266 0 0 0
779 260 1 0.5897 2.1648586363794746 8.176632427202307 19.191056519953744 0 0 0
780 260 1 0.5897 2.780396233174112 7.62778709867903 17.92158965548147 0 0 0
675 225 1 0.5897 2.2807697894889003 5.981720525628858 19.73609904151203 0 0 0
760 254 2 -1.1794 4.156267010613848 7.988392080081277 16.815058437571942 0 0 0
761 254 1 0.5897 4.128472811454679 8.945059561277027 16.799216072649024 0 0 0
778 260 2 -1.1794 2.1193630438177604 7.435805583262485 18.58666114613269 0 0 0
787 263 2 -1.1794 0.48206363987444595 8.684422752238424 15.772907069115922 0 0 0
669 223 1 0.5897 0.8159857140419254 6.932400564217173 15.762737190529498 0 0 0
662 221 1 0.5897 4.583371456523104 5.140937544809456 15.897715553831155 0 0 0
673 225 2 -1.1794 2.4923652911505028 5.29120382814279 20.364267268753654 0 0 0
858 286 1 0.5897 0.2904761017509132 7.132811315324893 18.49146152523276 1 0 0
667 223 2 -1.1794 0.9033884745924903 5.992209890368754 15.605763262978236 0 0 0
222 74 1 0.5897 4.460066979916395 14.44058947620124 2.6874297695227667 0 0 0
118 40 2 -1.1794 1.6496799693604949 11.03074232624343 4.062302503890814 0 0 0
119 40 1 0.5897 2.6041575643300496 11.10199843964476 4.070166516191302 0 0 0
120 40 1 0.5897 1.37665277011694 11.547956898860255 3.3046140258379992 0 0 0
220 74 2 -1.1794 4.096707521220476 14.601052452866453 3.558259171907838 0 0 0
783 261 1 0.5897 2.2022039623443117 12.340434705215351 0.6098920049611608 0 0 1
124 42 2 -1.1794 4.412548705064892 10.916108098452238 3.7178739606492597 0 0 0
240 80 1 0.5897 2.495450086267139 14.292462236154417 4.291358512099032 0 0 0
127 43 2 -1.1794 0.9004324382595467 12.57830500956252 1.8653846599589707 0 0 0
129 43 1 0.5897 0.8892968812623083 13.494369450667328 2.142770575993301 0 0 0
123 41 1 0.5897 4.206063909720099 12.447575481236363 1.0015362952013271 0 0 0
122 41 1 0.5897 4.6946734351999 11.994248839321807 2.360731753937587 0 0 0
238 80 2 -1.1794 1.7651457967082653 14.048939275411009 4.860127031331902 0 0 0
121 41 2 -1.1794 4.841382593954417 12.657177018182198 1.6860689899152985 0 0 0
133 45 2 -1.1794 2.855063859221015 12.14355831250027 6.724105105825197 0 0 0
134 45 1 0.5897 2.2030099084967967 12.404844502788395 7.374231553732618 0 0 0
135 45 1 0.5897 3.695912173255999 12.358758230533537 7.127625708338581 0 0 0
446 149 1 0.5897 4.798534907447736 13.562670987940235 8.81648488681694 0 0 0
573 191 1 0.5897 0.814911914852397 14.569002375727303 8.642335912652536 0 0 0
544 182 2 -1.1794 4.393108291647463 14.697048675584178 10.151775017816089 0 0 0
450 150 1 0.5897 4.288532054242191 11.55180642327991 9.427676799341093 0 0 0
451 151 2 -1.1794 0.7583617338625357 12.704457166145971 8.777045504545875 0 0 0
453 151 1 0.5897 0.9026892617708917 11.985639692895328 9.39239902896914 0 0 0
445 149 2 -1.1794 4.948444748107711 12.745031431871636 8.341940693587965 0 0 0
239 80 1 0.5897 2.1135174972231248 13.348143721716536 5.41122896144919 0 0 0
188 63 1 0.5897 0.3640820514047028 10.937006609297317 5.373731537337768 1 0 0
434 145 1 0.5897 2.6829193547846804 10.214266409836632 6.78993089943987 0 0 0
448 150 2 -1.1794 3.893716845316166 10.967182186870394 10.074600860248957 0 0 0
442 148 2 -1.1794 1.2502163274630764 10.718236244122743 10.694339851114725 0 0 0
564 188 1 0.5897 2.2966931653103977 14.770701417030697 12.20599463707811 0 0 0
457 153 2 -1.1794 2.4235419710696298 11.934000720565095 13.085318242016964 0 0 0
458 153 1 0.5897 1.7085082287511841 11.979699619256508 13.719974831621151 0 0 0
459 153 1 0.5897 3.212927083412303 12.099159612406414 13.60083113989663 0 0 0
769 257 2 -1.1794 4.39967415481806 12.442598903798482 14.945930030472127 0 0 0
545 182 1 0.5897 3.5671621050611737 14.448207715967046 10.566569656088362 0 0 0
562 188 2 -1.1794 2.145625818806239 14.100271821598108 11.539751616671708 0 0 0
563 188 1 0.5897 2.196869201508418 13.272002501187913 12.01674345822343 0 0 0
758 253 1 0.5897 2.2834692257957148 10.06483450152856 13.520731444882331 0 0 0
449 150 1 0.5897 4.358352106415039 11.161272219927419 10.88857377878918 0 0 0
444 148 1 0.5897 2.181098790289205 10.940165524123103 10.713352033135264 0 0 0
642 214 1 0.5897 0.2325971964778586 14.300472647392425 11.747863262246357 1 0 0
512 171 1 0.5897 0.11063357910971144 11.13189848480972 11.997789774527085 1 0 0
775 259 2 -1.1794 0.9266621795363232 12.419361768967653 15.35488027771798 0 0 0
766 256 2 -1.1794 1.5676777667059276 10.734313302898588 17.495353849338265 0 0 0
870 290 1 0.5897 4.984678521464612 14.373898169818215 17.463359996055676 0 0 0
768 256 1 0.5897 1.310810142253873 11.310551997638553 16.77553774402732 0 0 0
772 258 2 -1.1794 4.146592038989 10.735834574198568 17.249138417729927 0 0 0
773 258 1 0.5897 3.2044229310550976 10.752619082757592 17.417034516104074 0 0 0
774 258 1 0.5897 4.258881868261002 11.263469775135759 16.45847029798638 0 0 0
868 290 2 -1.1794 4.3908620867346455 14.543599467853323 16.73211464590477 0 0 0
767 256 1 0.5897 0.8796669638196327 10.848026273672987 18.150984606495566 0 0 0
869 290 1 0.5897 3.521075968088446 14.34331333130975 17.07782291626804 0 0 0
886 296 2 -1.1794 2.2067673935634327 13.980011968930798 18.319012256367753 0 0 0
888 296 1 0.5897 2.4632673303357326 13.257005811637722 18.891438512837862 0 0 0
771 257 1 0.5897 4.439943670557256 13.276834370409107 15.413532938399923 0 0 0
965 322 1 0.5897 0.4648278915095772 13.877320358630746 18.731161231208706 1 0 0
782 261 1 0.5897 2.7663550473231044 11.1522125474787 20.110919204590942 0 0 0
777 259 1 0.5897 1.0779695193716408 13.31716850719126 15.650305518418783 0 0 0
887 296 1 0.5897 2.361092383651856 14.766664726659753 18.84204596955068 0 0 0
781 261 2 -1.1794 2.8327908742239254 12.10460067536843 20.18001915366215 0 0 0
249 83 1 0.5897 1.5123256632677942 15.52632727161384 1.380367580670771 0 0 0
248 83 1 0.5897 1.208215967511248 16.160947352002665 2.720680925593369 0 0 0
247 83 2 -1.1794 0.9826657008460634 15.411727870021167 2.169322368473651 0 0 0
235 79 2 -1.1794 0.7376717100852049 19.199903655788567 1.8427998756277069 0 0 0
226 76 2 -1.1794 1.632625098759149 17.482591814295663 3.7993979885802887 0 0 0
227 76 1 0.5897 1.3528725954793384 18.13304817508385 3.1553313460535066 0 0 0
228 76 1 0.5897 0.9211676155175457 17.456971122979546 4.439171748774979 0 0 0
890 297 1 0.5897 1.9934705474723735 18.92166622464903 0.5398155755708383 0 0 1
230 77 1 0.5897 4.200496727509755 18.924396448025576 1.0915368489016637 0 0 0
232 78 2 -1.1794 4.370755804390108 17.259839358370908 3.8901930885493856 0 0 0
233 78 1 0.5897 4.649051024204698 17.86930232168713 3.20662418612492 0 0 0
234 78 1 0.5897 3.419150301997046 17.356739935526186 3.9251946507128275 0 0 0
221 74 1 0.5897 4.190640429569812 15.544855220244246 3.6873262968847316 0 0 0
229 77 2 -1.1794 4.649791720026485 19.21387666513371 1.8855631334453882 0 0 0
555 185 1 0.5897 4.300845945023914 18.625221752395014 7.909485446094166 0 0 0
572 191 1 0.5897 0.8827443645280726 15.843034593267552 9.4572597462004 0 0 0
559 187 2 -1.1794 0.74885537832418 19.248651146241677 8.697992699143715 0 0 0
241 81 2 -1.1794 2.6420011503179235 18.654477772939856 6.852317993827662 0 0 0
242 81 1 0.5897 2.6156979882855604 17.759356182012205 6.51427845432077 0 0 0
243 81 1 0.5897 1.9355854317940622 18.688280274554245 7.497284855077587 0 0 0
541 181 2 -1.1794 2.6441066029041393 15.993819600263345 6.74290948574186 0 0 0
542 181 1 0.5897 1.9286726521648512 15.876904807899965 7.367918519263481 0 0 0
543 181 1 0.5897 2.4345034298031427 15.397666211204129 6.02399430403363 0 0 0
553 185 2 -1.1794 4.733754948349844 18.98630038178001 8.683005650475211 0 0 0
558 186 1 0.5897 4.147715781688614 17.997548064278565 10.074872601365316 0 0 0
576 192 1 0.5897 4.42329350232927 15.616137756935197 7.484074014512949 0 0 0
571 191 2 -1.1794 0.8238671800640263 15.522388542564729 8.557343563003553 0 0 0
551 184 1 0.5897 1.0542754110804273 17.841244128742662 10.001378069739472 0 0 0
885 295 1 0.5897 1.3989639954029915 18.9920302483531 14.732308623769239 0 0 0
866 289 1 0.5897 3.6584424103274946 15.939109151989854 13.790323539766666 0 0 0
879 293 1 0.5897 4.133009989480075 18.976640212692818 14.828370043906244 0 0 0
867 289 1 0.5897 2.29156075457477 15.590808985185094 14.339864179013258 0 0 0
550 184 2 -1.1794 1.1934716674503805 17.165987207068042 10.66528464888251 0 0 0
552 184 1 0.5897 2.1384113488572605 17.170493236622683 10.817724000309775 0 0 0
565 189 2 -1.1794 2.7983174569860005 18.592565874881725 13.754721863275902 0 0 0
566 189 1 0.5897 2.6917876484557515 17.689620895204115 13.45542076820316 0 0 0
567 189 1 0.5897 2.508916230657136 19.126412813404947 13.014843974333262 0 0 0
865 289 2 -1.1794 2.749788880697603 15.796914213148746 13.525218783487924 0 0 0
556 186 2 -1.1794 3.8812449517239864 17.34959150567375 10.727036266471796 0 0 0
557 186 1 0.5897 4.176608924545524 16.512676786527646 10.368505401680306 0 0 0
883 295 2 -1.1794 0.719192864346779 19.223425333731196 15.365169373793961 0 0 0
896 299 1 0.5897 0.12177278098615613 15.356395767706097 15.132607995774308 0 0 0
881 294 1 0.5897 3.0479604355081036 17.15505457948867 17.42701961609792 0 0 0
897 299 1 0.5897 0.9534668808084417 15.754080634924991 16.333363476950833 0 0 0
895 299 2 -1.1794 0.9224923705118324 15.131983387329369 15.606581623026845 0 0 0
882 294 1 0.5897 4.233102436641169 16.303394655291317 17.024638176848654 0 0 0
880 294 2 -1.1794 4.0023003634080645 17.17148649589079 17.355366205894786 0 0 0
874 292 2 -1.1794 1.24725780506801 17.38812658236359 17.4274979955533 0 0 0
875 292 1 0.5897 0.6633136220975857 17.506189251756716 18.176626030412603 0 0 0
876 292 1 0.5897 1.0058171965033376 18.08921757044918 16.822215834169775 0 0 0
878 293 1 0.5897 4.608493323287983 18.3009984511464 16.09687883029911 0 0 0
891 297 1 0.5897 2.5485588135213124 19.414507947072817 19.47097084064113 0 0 0
218 73 1 0.5897 2.6529462563391126 16.946446740801516 20.012026444611273 0 0 -1
889 297 2 -1.1794 2.659720725017689 18.729739627765014 20.130438209143385 0 0 0
873 291 1 0.5897 4.9769098999309715 17.548128975859886 18.718259481046644 0 0 0
217 73 2 -1.1794 2.6381549011355983 15.999117893185439 20.14840434873117 0 0 -1
877 293 2 -1.1794 4.753092631775775 19.073843523834935 15.550998694701294 0 0 0
219 73 1 0.5897 3.555423773203856 15.761840045128102 20.284204420419965 0 0 -1
69 23 1 0.5897 6.875857030547083 2.324133698042007 1.8010961927980578 0 0 0
34 12 2 -1.1794 5.552052139576576 2.5381483577575246 0.5830078289714851 0 0 0
68 23 1 0.5897 8.385175651841587 2.2924292904660977 1.688621830291562 0 0 0
67 23 2 -1.1794 7.663441466012803 2.037171898019348 2.263165681918283 0 0 0
46 16 2 -1.1794 8.089366633110707 4.294684425214383 3.9201096351063236 0 0 0
47 16 1 0.5897 7.960716966977584 3.467087296158888 3.4566944771041683 0 0 0
48 16 1 0.5897 7.430690914521126 4.285769664272167 4.6145214783532245 0 0 0
273 91 1 0.5897 7.446823592626802 0.1806049510695255 2.3049935214651884 0 1 0
41 14 1 0.5897 9.781817096638614 1.18355764272821 4.089063083092919 0 0 0
9 3 1 0.5897 5.50978511500721 4.283195515970482 5.104799871913405 0 0 0
53 18 1 0.5897 9.907418400638148 4.1811297524712705 3.9223093800929107 0 0 0
37 13 2 -1.1794 9.259983914274995 2.766300557380792 0.23427052597219244 0 0 0
8 3 1 0.5897 5.859645905630787 3.877595291469531 6.520686132008719 0 0 0
391 131 2 -1.1794 7.5484359630736355 2.190159381749496 9.331909149937653 0 0 0
393 131 1 0.5897 7.530406309532343 1.2331209229424556 9.332641212748829 0 0 0
358 120 2 -1.1794 5.508659906429195 2.5569930723834764 7.554854485302166 0 0 0
361 121 2 -1.1794 9.15471647024369 2.780473152295232 7.264991375863391 0 0 0
392 131 1 0.5897 8.170545419615475 2.4179504570334336 8.641086999546625 0 0 0
362 121 1 0.5897 9.069307300406367 3.7141380523914997 7.072091654718543 0 0 0
7 3 2 -1.1794 6.0994549576909876 4.4938974220041645 5.828707904548446 0 0 0
359 120 1 0.5897 6.168433961554709 2.4848897635401808 8.24452152376192 0 0 0
360 120 1 0.5897 5.735520241715688 1.865992810595767 6.9325610635835435 0 0 0
60 20 1 0.5897 8.671605960038756 0.10157023837037679 5.736826296133077 0 0 0
59 20 1 0.5897 8.76849159660781 1.5762377387483786 6.065316479658119 0 0 0
58 20 2 -1.1794 8.512205954860145 0.970990406695665 5.369499534584444 0 0 0
29 10 1 0.5897 6.775898661030968 0.9365646551201097 5.37818387223872 0 0 0
28 10 2 -1.1794 5.882941943323894 0.727557950889411 5.652229700602393 0 0 0
352 118 2 -1.1794 5.666107591947288 0.8314864179111296 12.328822887632532 0 0 0
353 118 1 0.5897 6.5975860232700825 0.9629446959919417 12.152162362317089 0 0 0
386 129 1 0.5897 8.963935113655365 4.7747162506551 13.660588379761204 0 0 0
684 228 1 0.5897 5.415934563899739 3.5201847931993075 13.878993656642631 0 0 0
372 124 1 0.5897 7.324085407453415 4.40492882077821 11.560335378641533 0 0 0
685 229 2 -1.1794 8.861855072514008 2.7996962066871967 13.72427691735639 0 0 0
382 128 2 -1.1794 8.330493379184038 0.8491963750695527 11.926090706430209 0 0 0
383 128 1 0.5897 8.583496182865384 1.5515486775945537 12.525153725010231 0 0 0
384 128 1 0.5897 8.928981012408766 0.9390906091025466 11.184556893425393 0 0 0
331 111 2 -1.1794 5.993081273079917 4.723749936827148 12.637263632202814 0 0 0
686 229 1 0.5897 8.341462322521334 2.5732608787512965 14.495031765474357 0 0 0
354 118 1 0.5897 5.45755635450323 1.4736474159666062 13.007278586250248 0 0 0
682 228 2 -1.1794 5.198743834978107 2.711499471293808 14.342756036085415 0 0 0
370 124 2 -1.1794 8.065322329970751 4.246880696903101 10.975759257873172 0 0 0
332 111 1 0.5897 5.368225298432556 4.53295066081062 11.937764209328385 0 0 0
687 229 1 0.5897 9.769836489439609 2.695685553625732 14.008735773700504 0 0 0
377 126 1 0.5897 9.791568237418689 4.087038296145087 10.497081960711814 0 0 0
371 124 1 0.5897 7.8634151538646115 3.4124816808655725 10.552409761792893 0 0 0
657 219 1 0.5897 6.774321973194225 4.453633172944808 18.839620685967986 0 0 0
655 219 2 -1.1794 6.020619396840935 4.742296493736488 19.35417921538204 0 0 0
38 13 1 0.5897 8.895404337792431 2.1591599428157653 19.84088835389642 0 0 -1
715 239 2 -1.1794 7.436979477762689 2.1790105632503103 15.979215196413353 0 0 0
676 226 2 -1.1794 5.809053030613691 0.7982196575081658 18.798571883667606 0 0 0
656 219 1 0.5897 5.294232364814418 4.752419742498291 18.730953491664074 0 0 0
694 232 2 -1.1794 8.116966349007816 4.114555534174807 17.677037488187892 0 0 0
695 232 1 0.5897 7.80793250284159 3.3554016257770134 17.182681909028656 0 0 0
716 239 1 0.5897 7.507723737245094 1.2253918128113834 16.022359806758367 0 0 0
706 236 2 -1.1794 8.57273124777348 0.809346650347454 18.554204746253507 0 0 0
708 236 1 0.5897 7.616568373903911 0.770269837952397 18.573759752925614 0 0 0
702 234 1 0.5897 9.983835697717753 4.137534910718816 17.530009308939675 0 0 0
677 226 1 0.5897 5.252221635571308 1.1074730249798828 18.084115629862527 0 0 0
696 232 1 0.5897 7.910599627390298 4.864494017469332 17.119175657925616 0 0 0
710 237 1 0.5897 9.06452261544835 4.637459568517708 20.159476589873545 0 0 0
689 230 1 0.5897 9.858755447184384 1.152471718880349 17.23968384615296 0 0 0
36 12 1 0.5897 5.7293739492496485 3.36977805736997 20.393998708687864 0 0 -1
35 12 1 0.5897 5.6955603042404395 1.8746451180371215 20.158694933594578 0 0 -1
707 236 1 0.5897 8.852239854994211 0.18124883335054065 19.220192184509827 0 0 0
717 239 1 0.5897 6.5843887047705865 2.338332036156183 15.574406667143004 0 0 0
143 48 1 0.5897 6.030992103252054 9.169845410361901 1.4734154862166393 0 0 0
176 59 1 0.5897 7.691569128405744 8.00981851978624 2.133307388451211 0 0 0
711 237 1 0.5897 8.433740543008742 5.803010757454447 0.6407298005699805 0 0 1
57 19 1 0.5897 7.523181566675785 5.601133098131308 2.691637168576743 0 0 0
175 59 2 -1.1794 7.626740845101223 8.964773269935218 2.1228184678896733 0 0 0
55 19 2 -1.1794 7.398051447251025 6.242223110454669 1.9919856949584773 0 0 0
56 19 1 0.5897 6.492996010341737 6.11402468378227 1.7081087555375978 0 0 0
177 59 1 0.5897 8.338906825977364 9.24737605654767 1.5491397917567666 0 0 0
142 48 2 -1.1794 5.329631099353132 9.346301899052301 0.8464356360179488 0 0 0
166 56 2 -1.1794 8.67881285986497 7.449782387590002 4.897623930436818 0 0 0
138 46 1 0.5897 6.911855295116393 7.438541518230741 5.217718311757824 0 0 0
145 49 2 -1.1794 9.507261504355327 9.827502271434321 0.4873279562651898 0 0 0
149 50 1 0.5897 9.950475029914426 7.723781785888466 3.7350366731163946 0 0 0
467 156 1 0.5897 5.661783466675134 8.53785638533701 6.600787075318577 0 0 0
501 167 1 0.5897 6.525897875412908 8.82149196311159 8.64946235125817 0 0 0
380 127 1 0.5897 7.6469599691219585 6.908189987536878 9.000312894640885 0 0 0
62 21 1 0.5897 8.79098356829895 5.665494579560742 7.508286524498945 0 0 0
499 167 2 -1.1794 7.334176381516384 8.616678231879884 9.119460786535914 0 0 0
466 156 2 -1.1794 5.474462850177598 9.217751201853764 7.247958056926776 0 0 0
338 113 1 0.5897 5.712992336712601 5.88001656735174 8.502780749740658 0 0 0
168 56 1 0.5897 8.92143169482696 8.104127721911322 5.552725124284144 0 0 0
500 167 1 0.5897 7.483188094298079 9.376064223698235 9.682787220467082 0 0 0
470 157 1 0.5897 8.659891351179432 8.84873062526867 7.754884773292593 0 0 0
379 127 2 -1.1794 7.603225899239023 5.981124531528124 8.766083560185328 0 0 0
137 46 1 0.5897 6.005742044038114 6.309097806287336 5.6594773913845176 0 0 0
469 157 2 -1.1794 9.179716498177713 9.198380762033862 7.031227631725452 0 0 0
61 21 2 -1.1794 9.388335190842357 5.478440872796509 6.784186300599734 0 0 0
381 127 1 0.5897 7.877992042818586 5.520091529601154 9.558598770758822 0 0 0
167 56 1 0.5897 8.855924153564144 6.609557045264457 5.320553708052595 0 0 0
136 46 2 -1.1794 5.99896731392958 7.2365141429553255 5.422628967006498 0 0 0
385 129 2 -1.1794 9.199508438727607 5.66101437856834 13.934844407582451 0 0 0
794 265 1 0.5897 8.99981851542002 8.697135098206537 13.310088523270583 0 0 0
491 164 1 0.5897 9.056928373287057 7.6643834290931325 11.062890374918451 0 0 0
791 264 1 0.5897 5.705460323718102 9.164652392203642 14.909222890445669 0 0 0
333 111 1 0.5897 5.970930350036347 5.676621777232766 12.725538080687272 0 0 0
793 265 2 -1.1794 9.250058300077216 9.148932019726141 14.115947592086027 0 0 0
790 264 2 -1.1794 5.1661240360191645 9.228418693300423 14.121066827393268 0 0 0
387 129 1 0.5897 9.060907403019556 6.198404172453132 13.1549945960291 0 0 0
460 154 2 -1.1794 5.978921578628024 7.400332443310205 12.266856152735594 0 0 0
461 154 1 0.5897 5.64443632077095 8.020543059855463 12.914650450013996 0 0 0
492 164 1 0.5897 7.711904412699557 7.7523106856876005 11.751988300121214 0 0 0
490 164 2 -1.1794 8.64636368973775 7.641622490859816 11.927199405911258 0 0 0
462 154 1 0.5897 5.519653549942468 7.626933953265932 11.458237551257575 0 0 0
705 235 1 0.5897 7.8665157252883295 5.955552053558765 15.143257247747409 0 0 0
824 275 1 0.5897 7.8328601706976375 9.089101438667086 15.398437916380265 0 0 0
814 272 2 -1.1794 8.604300156791028 7.924795165663954 18.723398980378025 0 0 0
786 262 1 0.5897 6.855777634670862 7.778789802465309 18.836736989855755 0 0 0
815 272 1 0.5897 8.72071363023661 7.079552684261872 19.157257632981477 0 0 0
825 275 1 0.5897 7.351153568821195 7.976067708238727 16.304486709074297 0 0 0
785 262 1 0.5897 5.950687989612498 6.650441856236728 19.283378348976235 0 0 0
823 275 2 -1.1794 7.257659636811698 8.914980345861595 16.143401717508006 0 0 0
816 272 1 0.5897 8.861816501300883 8.570057136896153 19.381812358032565 0 0 0
784 262 2 -1.1794 5.9381292195907545 7.567020490292869 19.007751428394325 0 0 0
703 235 2 -1.1794 7.340834514866262 6.117711752238092 15.92650225739186 0 0 0
144 48 1 0.5897 5.539850886830345 8.797915951807706 20.341122457684623 0 0 -1
709 237 2 -1.1794 9.069972121734917 5.59344985280859 20.207519955892703 0 0 0
704 235 1 0.5897 6.435514440487777 6.013862237290989 15.633650817117143 0 0 0
154 52 2 -1.1794 8.601750417571042 10.766921455395106 4.111029836252948 0 0 0
285 95 1 0.5897 7.598061289210193 14.587793479202746 2.4580421900683316 0 0 0
156 52 1 0.5897 9.486804558822953 10.834351684099271 3.7528474093658044 0 0 0
163 55 2 -1.1794 7.451514025931744 12.751665555202297 2.3072227364484728 0 0 0
164 55 1 0.5897 6.538809211552331 12.579604776164771 2.0758797892686474 0 0 0
165 55 1 0.5897 7.657098268998645 12.097744193402676 2.9752829098256495 0 0 0
819 273 1 0.5897 8.5113457324738 12.768960817271378 0.560715896674365 0 0 1
276 92 1 0.5897 9.235729142177219 14.232383870651798 4.7073211737024305 0 0 0
275 92 1 0.5897 7.810122811885755 14.106458909055146 5.200773965328712 0 0 0
246 82 1 0.5897 5.376513158885438 14.167016397178386 4.5213440099848965 0 0 0
244 82 2 -1.1794 6.034650071320017 13.899046935406098 5.162590941234642 0 0 0
155 52 1 0.5897 8.170755022047057 10.110434581452717 3.5637989922332816 0 0 0
125 42 1 0.5897 5.102271193014947 10.944666796589695 4.380905724548791 0 0 0