LAMMPS data file via write_data, version 30 Jul 2021, timestep = 38250000

1008 atoms
2 atom types
672 bonds
1 bond types
336 angles
1 angle types

-3.1227953250895037 14.732794324640052 xlo xhi
-0.03577245827690234 22.615771458271574 ylo yhi
0.08576932145199478 19.14422867854362 zlo zhi
-0.16877263466834616 -6.645681826715608 0.1434632853806578 xy xz yz

Masses

1 1.008
2 15.999

Pair Coeffs # lj/cut/tip4p/long/omp

1 0 0
2 0.21084 3.1668

Bond Coeffs # harmonic/omp

1 450 0.9572

Angle Coeffs # harmonic/omp

1 55 104.52

Atoms # full

55 19 2 -1.1794 -0.4900806413858092 4.259306390706319 3.4934284173089027 0 0 0
56 19 1 0.5897 -1.0192216121082565 3.647525533203583 2.981617361139101 0 0 0
57 19 1 0.5897 0.3291122823083499 4.335442924319251 3.004196766692498 0 0 0
121 41 2 -1.1794 -2.294000651743471 2.444134682890919 2.4322941540690763 1 0 0
122 41 1 0.5897 -2.324209637299938 2.0696123933570623 1.5518946898482795 1 0 0
21 7 1 0.5897 1.0810195343772317 2.2586951762804093 0.9986557849128358 0 0 0
31 11 2 -1.1794 1.227448824555557 1.201556013991814 2.3970567519868635 0 0 0
86 29 1 0.5897 -2.2147199342215695 1.5336828233207387 4.062445456850386 1 0 0
32 11 1 0.5897 1.0485276190226624 1.529504168479769 3.2783810798829425 0 0 0
46 16 2 -1.1794 1.9889535226877335 4.742690038745886 2.3456751149654127 0 0 0
16 6 2 -1.1794 5.340013939958524 4.914878781969484 0.36540331831278894 0 0 0
70 24 2 -1.1794 3.806714059520023 0.2718775513255496 1.6172714000001025 0 0 0
669 223 1 0.5897 -5.373998981448284 1.8269676758191777 8.989485329982799 1 0 0
71 24 1 0.5897 3.1063763140449945 0.5098166115009113 2.224864849337474 0 0 0
402 134 1 0.5897 1.2901790328469538 0.11215834296827784 7.827886477073876 0 1 0
123 41 1 0.5897 -3.183406552686807 2.761401447605713 2.5888230441673614 1 0 0
47 16 1 0.5897 2.131498874410825 5.262031798728764 1.5543708179052518 0 0 0
54 18 1 0.5897 3.1304924331786665 3.4077497945669086 3.0833982085889 0 0 0
527 176 1 0.5897 3.981896903703271 1.8575360084683477 0.6082527457265509 0 0 1
53 18 1 0.5897 4.505393034943456 2.7749749069201948 3.115534915587322 0 0 0
48 16 1 0.5897 2.0978405103291298 5.365480103287025 3.064386922189615 0 0 0
52 18 2 -1.1794 3.743609347904222 2.9586538303654484 3.665260668866795 0 0 0
90 30 1 0.5897 -5.115532434721402 1.5201284485853082 5.992963558637268 1 0 0
33 11 1 0.5897 0.5523394663879166 0.5401787388922825 2.2454352023969855 0 0 0
44 15 1 0.5897 -0.33059150353104405 5.367009729070235 8.088438488680882 0 0 0
124 42 2 -1.1794 -4.947970292588254 2.549636466934513 7.456807041956811 1 0 0
6 2 1 0.5897 3.68443920922651 1.3828562806171736 4.450495850712702 0 0 0
159 53 1 0.5897 -3.2135764627152152 4.577294995322805 5.477761739308191 1 0 0
87 29 1 0.5897 -3.297279239235085 1.1416749596511804 5.04543260619954 1 0 0
85 29 2 -1.1794 -2.3558200981109763 1.3016460377265089 4.980313921475536 1 0 0
45 15 1 0.5897 0.662025644999956 4.8824883580264835 7.053099810631268 0 0 0
78 26 1 0.5897 0.2112797310235095 3.028475311293894 4.507141392893526 0 0 0
76 26 2 -1.1794 0.7743065793626513 2.3456258047413265 4.871669522419144 0 0 0
59 20 1 0.5897 1.7113368155800135 3.550275481911677 5.798210067312522 0 0 0
43 15 2 -1.1794 -0.2619431253877509 5.102901123178955 7.170937694764727 0 0 0
60 20 1 0.5897 2.9798306191882045 3.7450984134865286 6.601152972756191 0 0 0
34 12 2 -1.1794 0.0382327786653649 1.4647963982422612 7.28631476776232 0 0 0
35 12 1 0.5897 0.19999509877653132 2.0680303328816305 8.011709212419813 0 0 0
36 12 1 0.5897 -0.8524961863294873 1.1465586586132512 7.4329678058735835 0 0 0
125 42 1 0.5897 -5.537355632618984 3.2258678277053248 7.122903448595348 1 0 0
67 23 2 -1.1794 -2.383908532186835 0.5767527836233461 8.19569014179079 0 0 0
157 53 2 -1.1794 -3.752158875758562 5.141522995243149 4.923018452023348 1 0 0
58 20 2 -1.1794 2.23175906513484 4.220947219606126 6.240433960613688 0 0 0
602 201 1 0.5897 -0.5242435476550646 5.425454606388537 0.43714915251088154 1 0 1
101 34 1 0.5897 -2.639757242625442 4.5467704812129695 0.12459734965238381 1 0 0
135 45 1 0.5897 -1.6330031707041721 3.920735067412156 6.954894433698242 1 0 0
126 42 1 0.5897 -4.073202137805676 2.927265615869541 7.365443351515787 1 0 0
77 26 1 0.5897 0.3284369282528665 2.069003759353036 5.672238735179459 0 0 0
134 45 1 0.5897 -2.1432736546737896 2.767883579191918 6.116767027332098 1 0 0
133 45 2 -1.1794 -2.4397194093546486 3.50363092985712 6.652550213605448 1 0 0
69 23 1 0.5897 -2.7190404579694625 1.2787153621901552 8.75355022796527 0 0 0
68 23 1 0.5897 -3.166224988653508 0.11216929553815194 7.898496487709828 0 0 0
98 33 1 0.5897 -4.229361393599986 5.165068250776309 8.684313722929188 1 0 0
522 174 1 0.5897 2.0405233109973704 5.617981455750442 9.236118252334984 0 0 0
158 53 1 0.5897 -4.198523909071131 4.538313583054423 4.328774430340048 1 0 0
401 134 1 0.5897 2.413885233464388 0.4221815837599349 8.793784808126498 0 1 0
4 2 2 -1.1794 4.000208876685244 0.616027760148123 4.928431622291298 0 0 0
22 8 2 -1.1794 0.35663814504159763 2.92860188525462 9.598157643156052 0 0 0
97 33 2 -1.1794 -4.161517616836633 4.755064989319005 9.546576987486045 1 0 0
11 4 1 0.5897 2.2820824436158356 5.6276392307086684 5.121619706125662 0 0 0
18 6 1 0.5897 4.900920205897833 4.065029766820864 0.331710860125779 0 0 0
19 7 2 -1.1794 1.0929740430132302 2.68012135129032 0.13931879801340608 0 0 0
528 176 1 0.5897 2.83744810324591 2.723158714056491 0.12589022096300512 0 0 1
629 210 1 0.5897 -8.661481163595091 3.2482384286013324 16.673966266365763 1 0 0
626 209 1 0.5897 -5.649676187463332 1.9261413448045834 12.591232426843579 1 0 0
23 8 1 0.5897 0.5617970728880057 2.19756319469218 10.18095106576017 0 0 0
603 201 1 0.5897 -6.810825709350663 4.172178270622024 19.03509530406051 1 0 0
536 179 1 0.5897 -2.1392608379528664 1.4719595423947305 13.147727135770271 0 0 0
667 223 2 -1.1794 -5.49882586781835 1.2516382485023723 9.744200419894938 1 0 0
576 192 1 0.5897 -0.39588760105970966 0.7240021281946785 11.692261488766784 0 0 0
628 210 2 -1.1794 -8.032175882445145 2.5347536371892545 16.77931799150241 1 0 0
535 179 2 -1.1794 -2.0841530698570807 1.0414739037271223 12.29453480771455 0 0 0
165 55 1 0.5897 -9.470813752467386 0.8188221849821768 18.692995751388374 1 0 -1
537 179 1 0.5897 -2.2652974215696817 1.7371574637727654 11.66257167826333 0 0 0
561 187 1 0.5897 -3.6375904016967535 3.7510225741021492 13.769442023838598 0 0 0
606 202 1 0.5897 -5.971514518681953 4.709910933830692 9.66170708260863 1 0 0
164 55 1 0.5897 -8.44025945787087 1.8719882276428161 18.345813033725097 1 0 -1
627 209 1 0.5897 -6.688879973105004 2.9708563855398187 12.24431339064474 1 0 0
557 186 1 0.5897 0.39391344792361593 2.732740678512222 13.601913794750336 0 0 0
558 186 1 0.5897 -0.32055228890836673 3.8038761765502027 12.80572101226551 0 0 0
559 187 2 -1.1794 -4.102259099848782 4.317798953624656 13.153802973317871 0 0 0
560 187 1 0.5897 -4.737984823095142 3.7413557210016304 12.729822617186926 0 0 0
625 209 2 -1.1794 -5.849858956211594 2.612462544686314 11.954802501651189 1 0 0
668 223 1 0.5897 -5.723635067323373 1.8432005697021632 10.462397398223633 1 0 0
556 186 2 -1.1794 0.5530385967168394 3.498638138010332 13.050327259035656 0 0 0
580 194 2 -1.1794 -2.4576411508390104 2.5808178560987973 14.60560946520515 0 0 0
552 184 1 0.5897 -2.5399740370378474 4.641594761762395 12.304965152749467 0 0 0
589 197 2 -1.1794 -5.659209217301938 0.8880608879774168 14.225972635299089 1 0 0
550 184 2 -1.1794 -1.66235069691405 4.912364853452492 12.035491414090412 0 0 0
524 175 1 0.5897 -3.0264988012195846 3.431687964566172 9.867348608750431 0 0 0
601 201 2 -1.1794 -7.468438702174295 4.859213157220653 18.926880683299416 1 0 0
630 210 1 0.5897 -8.228229717999348 1.9336999067265974 16.060595526640746 1 0 0
582 194 1 0.5897 -1.8704206811308284 3.133501702239608 15.121285752645422 0 0 0
523 175 2 -1.1794 -2.461776539113223 2.682343360101142 10.056421069994537 0 0 0
547 183 2 -1.1794 -3.5935410109264954 5.055202122727639 16.799934175006268 0 0 0
639 213 1 0.5897 -5.800180203169781 4.029344778685209 15.261996165507513 1 0 0
538 180 2 -1.1794 -3.292384784846762 1.2183507682121897 16.81894697834482 0 0 0
540 180 1 0.5897 -4.156208864348481 0.8298194424787495 16.956884078392434 0 0 0
986 329 1 0.5897 -4.483345941488153 0.15487171668950678 10.659225008794778 1 1 0
539 180 1 0.5897 -3.164522429750437 1.793154398059846 17.573617680583723 0 0 0
638 213 1 0.5897 -6.397355859020843 3.035011317040023 16.234854420705055 1 0 0
549 183 1 0.5897 -4.217272551615696 4.384513346105636 16.52185709832727 0 0 0
562 188 2 -1.1794 -1.02308424551049 4.442396568930518 16.176866880717323 0 0 0
575 192 1 0.5897 1.0317717077262802 0.22130142108523826 11.663202941043677 0 0 0
564 188 1 0.5897 -1.8694264161032237 4.657853880245843 16.56867425846429 0 0 0
593 198 1 0.5897 -7.514526110659035 0.7316199611429233 14.507700819245729 1 0 0
526 176 2 -1.1794 -2.857513255556343 2.769687248630497 19.13028814498495 0 0 0
637 213 2 -1.1794 -5.59200831101036 3.2383731490385017 15.759177582540856 1 0 0
663 221 1 0.5897 -7.545472294431022 4.562919214297341 14.034534580955693 1 0 0
581 194 1 0.5897 -2.948124244731182 2.078998287519699 15.256604807875165 0 0 0
590 197 1 0.5897 -5.550642087262048 1.6567939306939725 14.785902543339596 1 0 0
563 188 1 0.5897 -0.8884066300402882 5.116444863490148 15.510774515693182 0 0 0
548 183 1 0.5897 -3.596647759138455 5.695524509999193 16.088488011681186 0 0 0
20 7 1 0.5897 -5.831148087265966 2.1381663527169064 18.590395476353777 0 0 -1
661 221 2 -1.1794 -7.000551240530044 5.251367675921395 14.41572150328695 1 0 0
574 192 2 -1.1794 0.3835527628639994 0.6901377303214619 11.137688738417285 0 0 0
571 191 2 -1.1794 -5.759694820686832 0.36331699095367864 17.74092753670103 0 0 0
525 175 1 0.5897 -1.5739574470002884 3.0069611937144884 9.90616472097994 0 0 0
163 55 2 -1.1794 -8.810107500401111 1.3896217063799843 19.085229920544187 1 0 -1
591 197 1 0.5897 -5.010772978186715 0.2624346464658889 14.548912659101015 1 0 0
551 184 1 0.5897 -1.407269765758401 5.573847575615062 12.678606010334361 0 0 0
520 174 2 -1.1794 2.2770045759484017 4.878158619140254 9.795490351531319 0 0 0
99 33 1 0.5897 -3.977702557717506 5.480438319047 10.143488177734476 1 0 0
987 329 1 0.5897 -3.3443847642489875 0.08910085122373182 11.654314790223811 1 1 0
24 8 1 0.5897 0.9647477030684222 3.6205827327938516 9.857994662080767 0 0 0
508 170 2 -1.1794 0.46336222750507794 1.202032497117503 14.647583403077817 0 0 0
289 97 2 -1.1794 -2.7299244112847676 10.243194393634495 2.479297038082989 1 0 0
332 111 1 0.5897 -2.194531190962186 9.272799314692815 1.1248963023547882 1 0 0
255 85 1 0.5897 -2.430521890842069 9.095227886501737 3.9074032339854203 1 0 0
147 49 1 0.5897 -0.8435054288480752 7.412112331904247 1.1433752033204008 1 0 0
146 49 1 0.5897 -1.1962535428825902 6.326881236201376 2.1381617891726394 1 0 0
145 49 2 -1.1794 -0.46086809026760367 6.694292496163739 1.6478402979186644 1 0 0
174 58 1 0.5897 3.523662734284758 9.143028692303066 4.420928942694473 0 0 0
112 38 2 -1.1794 -3.10168792339886 6.3739041532680325 2.5534288344091145 1 0 0
65 22 1 0.5897 2.416732780488128 7.803970815746387 8.769242600953344 0 0 0
837 279 1 0.5897 -6.191694005060221 8.38243649514753 9.314812749657447 1 0 0
189 63 1 0.5897 2.0383567097076103 10.279112411290123 0.23782786993410512 0 0 0
187 63 2 -1.1794 1.095456112510031 10.356076912967575 0.38344658816843674 0 0 0
201 67 1 0.5897 2.0299751303068323 8.378763790804154 2.4306862406384573 0 0 0
188 63 1 0.5897 0.9375049327334866 9.872175170558412 1.1940558839899396 0 0 0
200 67 1 0.5897 0.6128091915232226 7.853881700996717 2.34187915175198 0 0 0
172 58 2 -1.1794 3.7713169496764882 8.523690558753415 5.107406222534229 0 0 0
199 67 2 -1.1794 1.121304649621937 8.61820668771732 2.6128696056648515 0 0 0
239 80 1 0.5897 3.8264421011262684 8.74703794543937 1.267178180616544 0 0 0
238 80 2 -1.1794 3.7066804858071976 7.947920680771701 1.780222414301719 0 0 0
173 58 1 0.5897 3.267878864397696 7.733689525715266 4.910867776994263 0 0 0
10 4 2 -1.1794 2.1480589512262043 6.362385725073683 4.522998499040844 0 0 0
240 80 1 0.5897 3.3423283468594276 7.316720271577557 1.1596849878469861 0 0 0
245 82 1 0.5897 0.8087219234112313 9.465583462948569 4.1821808889604855 0 0 0
221 74 1 0.5897 4.351484080682343 10.604169347155755 2.839630639876842 0 0 0
291 97 1 0.5897 -3.6335208935538255 10.530556883742248 2.610212356939409 1 0 0
588 196 1 0.5897 -1.3959780787534175 6.682757688129888 9.330735066895755 0 0 0
12 4 1 0.5897 1.2170934586400497 6.570103989101166 4.6026837760577015 0 0 0
110 37 1 0.5897 -4.134292980073365 6.207965917319798 6.361863334549667 1 0 0
114 38 1 0.5897 -3.3040055639261654 5.704854513063509 1.8994394482650885 1 0 0
301 101 2 -1.1794 -2.5797526651991545 10.798399800578748 6.639052234691269 1 0 0
66 22 1 0.5897 2.8470502339574333 6.8090803350549685 7.712337345432 0 0 0
8 3 1 0.5897 -0.5554704378507789 6.346196775783609 5.831219954767042 0 0 0
254 85 1 0.5897 -1.853595737623143 8.028620014222227 4.8136153284047305 1 0 0
253 85 2 -1.1794 -2.4751360192273024 8.756447706212361 4.801527144780726 1 0 0
302 101 1 0.5897 -2.292464178411519 10.097063254846429 6.0543724941454675 1 0 0
244 82 2 -1.1794 0.5558900779376352 10.095857916090349 4.856806214956711 0 0 0
220 74 2 -1.1794 3.6082447465640914 10.756793965463126 3.4231989390260993 0 0 0
294 98 1 0.5897 -5.189298903488958 9.80074299440062 8.356673156393256 1 0 0
109 37 2 -1.1794 -4.222353714905569 6.447996235809481 7.2843152929920905 1 0 0
7 3 2 -1.1794 -0.609969620445916 6.710245399526514 4.947642240176621 0 0 0
64 22 2 -1.1794 2.083771037424299 7.101919019318724 8.21022916220926 0 0 0
237 79 1 0.5897 -2.432906589125495 8.631951804355905 8.721392186040736 0 0 0
257 86 1 0.5897 -4.255648195002827 8.631243203108419 4.9106183506163985 1 0 0
290 97 1 0.5897 -2.198119587762279 10.985860438069443 2.765346222483917 1 0 0
292 98 2 -1.1794 -5.081236833255909 10.106159834632818 7.455968501488889 1 0 0
191 64 1 0.5897 0.47903016411150423 9.896078871993092 8.650980576100553 0 0 0
293 98 1 0.5897 -4.150080146758852 10.315671773546562 7.383684439315647 1 0 0
202 68 2 -1.1794 0.2563396726437319 8.910026949870188 7.19546810768895 0 0 0
203 68 1 0.5897 -0.6155331248985814 8.610367144304712 7.452814251051254 0 0 0
204 68 1 0.5897 0.8348615322158657 8.178620625902122 7.411172771160935 0 0 0
246 82 1 0.5897 0.29684492180115685 9.556671017181328 5.604041772200534 0 0 0
235 79 2 -1.1794 -2.1449716283084155 7.86574946699816 8.2251175001426 0 0 0
236 79 1 0.5897 -2.9362885654040283 7.552043684781447 7.787416967641232 0 0 0
111 37 1 0.5897 -5.120977027804129 6.767778839785616 7.364391708780038 1 0 0
9 3 1 0.5897 -0.7097282769076299 5.946634437023157 4.379132108394307 0 0 0
228 76 1 0.5897 1.661271193367286 11.257888738650026 5.8181226603503875 0 0 0
331 111 2 -1.1794 -1.8560815138876234 8.690858996542827 0.4443918454006987 1 0 0
696 232 1 0.5897 4.517135293565406 10.840873751511031 0.20115964801857328 0 0 1
113 38 1 0.5897 -3.2153669634243753 5.930162685341139 3.3938825701985023 1 0 0
258 86 1 0.5897 -5.180283011626814 9.091081476865025 6.017671518870639 1 0 0
303 101 1 0.5897 -1.7690143578794872 11.217274294152453 6.927889004622851 1 0 0
694 232 2 -1.1794 3.8975339577317376 10.111614771383907 0.1801420006711133 0 0 1
692 231 1 0.5897 -1.5832394803254086 10.489136338374664 9.496616017251199 0 0 0
192 64 1 0.5897 1.000923922579613 10.968577290794686 9.583338314925676 0 0 0
190 64 2 -1.1794 0.39997130982340545 10.224484642800194 9.546630348507549 0 0 0
570 190 1 0.5897 -0.48422680337572555 7.148155253449169 17.41845439951846 0 0 0
798 266 1 0.5897 -8.189631545759662 9.638469523389272 16.51476084627635 1 0 0
759 253 1 0.5897 -5.810597215817934 8.885696539182636 13.657907005341206 1 0 0
651 217 1 0.5897 -4.785843004196508 7.016499310644018 11.628038768163863 1 0 0
835 279 2 -1.1794 -5.6120230053196405 8.917531313659934 9.856907972324699 1 0 0
797 266 1 0.5897 -7.159343425127682 10.665623680518694 16.933362756936106 1 0 0
795 265 1 0.5897 -5.997350098734869 9.677403249218592 11.341232322830074 1 0 0
693 231 1 0.5897 -2.377368079000536 9.77915992428359 10.572296567767234 0 0 0
649 217 2 -1.1794 -4.017465074576556 7.012625191564276 11.057237728088987 1 0 0
650 217 1 0.5897 -3.3324193054524263 7.436517940062038 11.57417471106942 1 0 0
742 248 2 -1.1794 0.3187614239216616 8.044699340824309 11.20873951973311 0 0 0
793 265 2 -1.1794 -6.0793042050798665 10.042419127061427 12.222332090757964 1 0 0
743 248 1 0.5897 0.3745057928253508 8.840430856259898 10.679712832203263 0 0 0
744 248 1 0.5897 0.07348122683172731 7.359708602547573 10.586742211641463 0 0 0
741 247 1 0.5897 -5.970304387180661 8.967005741792422 18.182341098784683 0 0 0
691 231 2 -1.1794 -2.4742220802436923 10.233669026057067 9.73550612558535 0 0 0
703 235 2 -1.1794 -2.1802809257200844 8.850572479888962 12.050252434250398 0 0 0
704 235 1 0.5897 -1.2689722572147595 8.596886888931271 11.904112181455705 0 0 0
705 235 1 0.5897 -2.1691033056837936 9.313917507810613 12.887788304925571 0 0 0
84 28 1 0.5897 -3.897570900585576 5.841374499085233 18.357358555962882 0 0 -1
706 236 2 -1.1794 -3.2386614263946054 9.067267120774742 16.877619957481745 0 0 0
707 236 1 0.5897 -4.1145153439785815 8.722539059125387 17.051418230732995 0 0 0
750 250 1 0.5897 -3.1519138774560993 10.715578108316654 14.053035402515127 0 0 0
333 111 1 0.5897 -8.304792092376324 9.414236733395365 18.767264404407364 1 0 -1
615 205 1 0.5897 -7.328364807391777 6.133881441888783 15.91647751607491 1 0 0
796 266 2 -1.1794 -7.959600754340836 10.232032399435395 17.22961907811943 1 0 0
748 250 2 -1.1794 -2.513528235405606 10.11933573423514 14.444341586281089 0 0 0
514 172 2 -1.1794 -1.2023917991722444 6.577684077767886 14.129259068027714 0 0 0
708 236 1 0.5897 -2.6484556515515534 8.349028523666405 17.105570911375334 0 0 0
749 250 1 0.5897 -2.940890172331934 9.79744445962792 15.238050110421193 0 0 0
676 226 2 -1.1794 0.4199655474411381 8.623116788582601 14.667760409483433 0 0 0
512 171 1 0.5897 -4.557164518326076 7.3855263134618205 14.675896375949517 0 0 0
511 171 2 -1.1794 -3.9013118538811913 6.688552537541323 14.659337468676407 0 0 0
515 172 1 0.5897 -2.108837829520821 6.784971232287735 14.356397640464632 0 0 0
516 172 1 0.5897 -0.7261235207782457 7.3955275117404495 14.272389707401727 0 0 0
724 242 2 -1.1794 0.46207399951859696 10.811785347470746 12.964087718228942 0 0 0
757 253 2 -1.1794 -5.841435358313554 8.602839248865788 14.571836414175198 1 0 0
695 232 1 0.5897 -2.6715151782745616 9.900481871548068 18.352780864114983 0 0 0
758 253 1 0.5897 -5.686933575756775 9.401865770013016 15.075755487861857 1 0 0
616 206 2 -1.1794 -6.508131319074087 6.628168616962872 12.157654757305709 1 0 0
762 254 1 0.5897 -7.585737331076405 8.625042864967938 14.752955245374272 1 0 0
568 190 2 -1.1794 -1.263209021737385 7.421793248495838 17.902757983898145 0 0 0
83 28 1 0.5897 -4.869119045967823 6.935451001808829 18.745915550973667 0 0 -1
836 279 1 0.5897 -4.914573092553746 8.319410027768656 10.12520602937007 1 0 0
678 226 1 0.5897 0.38445126542938723 9.289201057647094 13.981287907919226 0 0 0
739 247 2 -1.1794 -5.655068689427084 8.174241203149862 17.74828194947014 0 0 0
613 205 2 -1.1794 -7.6435660439527355 6.515401918607891 16.73585887335825 1 0 0
740 247 1 0.5897 -6.442769493072701 7.770972928462177 17.38347142655167 0 0 0
794 265 1 0.5897 -5.367976088357732 10.679786703428244 12.285168122341197 1 0 0
569 190 1 0.5897 -1.5040825723033828 6.655180246671011 18.42280469133522 0 0 0
805 269 2 -1.1794 -5.667187377546419 11.085994155571898 15.921428104341075 1 0 0
618 206 1 0.5897 -6.591959946348274 5.929627317853934 11.508600248905267 1 0 0
513 171 1 0.5897 -4.257056030620582 6.038565649826118 14.05336579402094 0 0 0
587 196 1 0.5897 -1.1983333981363504 5.735376943081029 10.494849138590814 0 0 0
586 196 2 -1.1794 -0.7664650033207323 6.068448433889168 9.708225316560968 0 0 0
617 206 1 0.5897 -7.146672746335666 7.287014471346905 11.884977082299903 1 0 0
662 221 1 0.5897 -6.812414820593877 5.8405453750537175 13.685198913050879 1 0 0
731 244 1 0.5897 -1.5830133182799973 11.365164779374163 15.307277638487275 0 0 0
654 218 1 0.5897 -9.619453414101535 7.879973648741627 18.57452746545041 1 0 0
726 242 1 0.5897 -0.23870091141637761 11.228690263733029 12.46282037323215 0 0 0
614 205 1 0.5897 -7.542970357668302 5.815391588038229 17.380863822243914 1 0 0
82 28 2 -1.1794 -4.2177961479698265 6.336734375891504 19.111261192195048 0 0 -1
280 94 2 -1.1794 -3.3254200241038783 13.78982011579898 2.6349719787744137 1 0 0
340 114 2 -1.1794 3.486861528273937 16.2741204035292 5.221153889485186 0 0 0
372 124 1 0.5897 0.31651585823678374 16.753934450934594 6.488307048112057 0 0 0
266 89 1 0.5897 -3.2996200960687436 11.747503549453786 9.612335956920022 1 0 0
223 75 2 -1.1794 -0.7409762203389061 12.102809712809751 3.288101189427871 0 0 0
232 78 2 -1.1794 2.0057885241412023 14.584760480090257 8.214956886606211 0 0 0
184 62 2 -1.1794 5.419262558597929 12.444856933490138 0.42697387018269534 0 0 0
277 93 2 -1.1794 -4.5805056905854595 14.024298120886558 7.272230504090329 1 0 0
326 109 1 0.5897 -3.367157834188932 11.88102500316806 5.516402555117672 1 0 0
226 76 2 -1.1794 2.051526512174698 11.84696256656799 6.463825703828405 0 0 0
408 136 1 0.5897 3.8940118755970863 16.197326232270335 1.4233459064310359 0 0 0
281 94 1 0.5897 -3.37736384597667 13.334652024506116 3.4754050308657103 1 0 0
369 123 1 0.5897 0.9320760900450438 16.85754983250344 3.5734435587301006 0 0 0
423 141 1 0.5897 -2.6539003926925986 16.73212494044042 4.081801693530929 1 0 0
341 114 1 0.5897 2.938968805712447 15.492519921239348 5.149792560482071 0 0 0
227 76 1 0.5897 1.3279309300240936 12.077857143854192 7.046363616719214 0 0 0
407 136 1 0.5897 4.392084517154838 15.043451236606286 2.267270049573199 0 0 0
234 78 1 0.5897 1.3804700909809462 15.17118274575451 7.7892306346226725 0 0 0
404 135 1 0.5897 -1.7321191710650234 15.788620047327365 7.809199550374277 0 0 0
403 135 2 -1.1794 -2.5107222648677596 15.606396646290314 8.335307838169532 0 0 0
282 94 1 0.5897 -2.429001685325172 14.123311775308483 2.597668772805997 1 0 0
178 60 2 -1.1794 1.9069289886643874 14.01037388635187 4.898417251580757 0 0 0
180 60 1 0.5897 1.9509089498093566 13.595623492608249 4.036826335576098 0 0 0
368 123 1 0.5897 1.9333659401833883 16.11212770128477 2.7168520088020713 0 0 0
314 105 1 0.5897 -0.1640945322546088 15.417738755188779 2.1374068822860375 1 0 0
175 59 2 -1.1794 -0.9187030624539538 14.088813181976569 5.2528977408767235 0 0 0
313 105 2 -1.1794 -0.899826379406135 14.900974257514445 1.8090178133791441 1 0 0
315 105 1 0.5897 -0.49531901282415935 14.118279010445548 1.4348374233886318 1 0 0
225 75 1 0.5897 -0.8717760073915501 12.80771333073422 3.922353875984483 0 0 0
278 93 1 0.5897 -3.9910750800567545 14.688278521952668 7.6298580513197285 1 0 0
279 93 1 0.5897 -5.457128406283557 14.334017117967253 7.499844447331657 1 0 0
252 84 1 0.5897 2.913953088375619 14.537908276181417 0.7283465177691312 0 0 0
214 72 2 -1.1794 1.9117715557602208 12.744974663915064 2.4888152663341656 0 0 0
215 72 1 0.5897 1.969009906602503 13.082251388038667 1.594841872597295 0 0 0
216 72 1 0.5897 0.9833133166339207 12.547451756973915 2.61181567910671 0 0 0
176 59 1 0.5897 -1.4344895733994516 14.89197255683036 5.324331767050385 0 0 0
406 136 2 -1.1794 3.593823093946063 15.50758365717212 2.0152216951271917 0 0 0
500 167 1 0.5897 -1.8531119624171857 15.879099308894691 0.6685825422880688 1 0 0
177 59 1 0.5897 -0.009152012447234181 14.386960173010705 5.252423602663945 0 0 0
367 123 2 -1.1794 1.0641810954496158 16.512145236591213 2.690530696338001 0 0 0
421 141 2 -1.1794 -2.584310421130426 16.312395881936855 4.939231550782817 1 0 0
179 60 1 0.5897 2.070856308164312 13.297998794518097 5.516328991597915 0 0 0
233 78 1 0.5897 2.775671666860047 14.601254064670828 7.6464134537754305 0 0 0
425 142 1 0.5897 -4.395897121662304 15.905144135655835 5.020513438742527 1 0 0
327 109 1 0.5897 -4.16486269414921 13.163613470178646 5.61871488304163 1 0 0
211 71 2 -1.1794 -0.4667729682475428 12.419539431711765 7.338986332496464 0 0 0
212 71 1 0.5897 -0.5733538670312472 12.924187289433812 8.145376618996673 0 0 0
213 71 1 0.5897 -0.6758890736576917 13.038259842039501 6.639252160110814 0 0 0
370 124 2 -1.1794 0.09643047659198567 16.268449150921438 7.283335618404996 0 0 0
267 89 1 0.5897 -3.6746784324846833 12.893602806945285 8.697186003845676 1 0 0
325 109 2 -1.1794 -3.847545456785173 12.517841386863397 4.987388445282056 1 0 0
405 135 1 0.5897 -2.5857706934183824 16.359227394262323 8.921725788731475 0 0 0
756 252 1 0.5897 -1.447976134578239 14.444277527076787 9.28011558404617 0 0 0
690 230 1 0.5897 1.9424467525775562 13.105948117851403 9.201610711292668 0 0 0
250 84 2 -1.1794 2.570135088911873 13.90996493029667 0.09297252989243486 0 0 0
499 167 2 -1.1794 -2.5248490126683714 16.397925382052836 0.22614531352366635 1 0 0
371 124 1 0.5897 0.16357504802915646 16.91516452328444 7.985841080670469 0 0 0
1004 335 1 0.5897 -5.335887826518296 16.823693758187392 9.007055315908884 1 0 0
269 90 1 0.5897 -3.32669922863831 12.73265200125222 1.178847209925701 1 0 0
268 90 2 -1.1794 -3.197441756342288 12.326249203033305 0.3218617099672547 1 0 0
771 257 1 0.5897 0.19815282745602802 11.87119560061655 0.1056154300545839 1 0 1
265 89 2 -1.1794 -3.737808731623298 12.59846774943299 9.605552548781946 1 0 0
462 154 1 0.5897 -5.167503155460201 16.919241908450424 6.651432654268705 1 0 0
224 75 1 0.5897 -0.28738857189509526 11.41843910461923 3.780094170275473 0 0 0
222 74 1 0.5897 3.0230264308219237 11.325348480175657 2.922771208191427 0 0 0
774 258 1 0.5897 -5.653663688198435 12.227665359074747 9.559618292619088 1 0 0
769 257 2 -1.1794 -0.36279836724161196 12.646723282989257 0.11502382526557962 1 0 1
770 257 1 0.5897 -1.2523029463705198 12.298777448759527 0.17737952952516076 1 0 1
910 304 2 -1.1794 0.5886018569912084 15.82833712099617 11.090837142030372 0 0 0
732 244 1 0.5897 -0.3674855082577002 11.450474849558926 16.20560298991895 0 0 0
727 243 2 -1.1794 -4.028315460464471 11.887855597188755 12.907392147454084 0 0 0
718 240 2 -1.1794 -1.4650156466105608 12.515692730942776 11.880183106190534 0 0 0
806 269 1 0.5897 -5.9626218935075705 11.683255221378094 15.23428282907099 1 0 0
720 240 1 0.5897 -1.3090512538753227 13.08264233161426 12.635505150636943 0 0 0
911 304 1 0.5897 -0.1780257872291653 16.014432096395037 11.632961156400512 0 0 0
873 291 1 0.5897 -2.5276336818268037 15.842429821535566 12.090438240198452 0 0 0
830 277 1 0.5897 -7.27562500091353 13.151089519232286 14.931930242820739 1 0 0
875 292 1 0.5897 -3.0467054794327844 16.672818304277666 15.900800721456765 0 0 0
729 243 1 0.5897 -4.1636510327161425 12.686527215507677 13.417364029360005 0 0 0
755 252 1 0.5897 -0.182950444055614 14.55178027681403 10.104675894128293 0 0 0
831 277 1 0.5897 -7.5958543265462035 12.094556110641545 13.895997507875103 1 0 0
784 262 2 -1.1794 -6.387451088333046 13.97649115517742 11.905316378635453 1 0 0
829 277 2 -1.1794 -6.900368910126627 12.68556990141533 14.184423579335721 1 0 0
719 240 1 0.5897 -1.1568759451442232 13.02462704080674 11.13036303400646 0 0 0
786 262 1 0.5897 -6.497823626679024 13.51611324941361 12.737225875811731 1 0 0
817 273 2 -1.1794 -3.806556036631314 14.766302159252477 11.326777821947186 1 0 0
818 273 1 0.5897 -4.697963248669943 14.649338843608502 11.655281410431625 1 0 0
819 273 1 0.5897 -3.650615987224958 13.99832520649575 10.777085852562424 1 0 0
930 310 1 0.5897 -7.565361556481067 16.009993213762183 14.455036971137298 1 0 0
730 244 2 -1.1794 -1.0960099541929589 11.970465100661396 15.866442204074847 0 0 0
679 227 2 -1.1794 -4.00104313796918 14.195901112858913 14.535129979586435 0 0 0
783 261 1 0.5897 -8.498237756170589 14.145603378764287 16.79609676622382 1 0 0
684 228 1 0.5897 -0.6872808392865597 14.891693729167512 14.263224107281367 0 0 0
682 228 2 -1.1794 -1.2190169456263389 14.112037002707083 14.103315047233426 0 0 0
737 246 1 0.5897 -0.932795331668907 15.322145287519565 18.223951271042928 0 0 0
683 228 1 0.5897 -0.914975465582236 13.47708091854203 14.751809363100067 0 0 0
926 309 1 0.5897 -5.156943470975486 15.39984932121047 14.30875903822573 1 0 0
807 269 1 0.5897 -4.890396480972765 11.50794078571509 16.288499042494823 1 0 0
876 292 1 0.5897 -2.452943813382631 15.704404456627659 16.9014769470535 0 0 0
681 227 1 0.5897 -4.046192803796783 13.893423775194472 15.442153491773167 0 0 0
907 303 2 -1.1794 -5.741295971777641 15.613324715142735 17.70530287422093 0 0 0
925 309 2 -1.1794 -5.818850100869449 16.06423446840314 14.11732451715731 1 0 0
680 227 1 0.5897 -3.066413189151418 14.31931931665023 14.369531847508265 0 0 0
908 303 1 0.5897 -6.370976549320961 15.157178943740227 17.14705343969342 0 0 0
728 243 1 0.5897 -3.3240635477222806 12.108678769696024 12.297896036678921 0 0 0
1005 335 1 0.5897 -4.839947702261187 15.866631469767157 10.06998066717262 1 0 0
715 239 2 -1.1794 -3.5796060622919885 12.628229391197248 16.816163582247682 0 0 0
716 239 1 0.5897 -3.6772401260991456 13.007191147777679 17.689746830134744 0 0 0
871 291 2 -1.1794 -1.894535417890654 16.552580689141386 12.195563655820619 0 0 0
874 292 2 -1.1794 -3.1778015858724116 16.317580507642738 16.779914312163058 0 0 0
736 246 2 -1.1794 -1.2133311390688526 14.650977093810814 17.601798673862803 0 0 0
912 304 1 0.5897 1.1334255146339238 15.258204450074116 11.633305200163756 0 0 0
688 230 2 -1.1794 2.0288688764520204 12.379547394655456 9.818887073088215 0 0 0
909 303 1 0.5897 -5.029842210028767 15.85860504051012 17.113789356176557 0 0 0
781 261 2 -1.1794 -7.600259233570045 13.859626910502065 16.628590732488536 1 0 0
782 261 1 0.5897 -7.326805241726014 13.438018942643408 17.443242912761775 1 0 0
725 242 1 0.5897 0.7683606225324224 11.494023957264115 13.561571076632491 0 0 0
717 239 1 0.5897 -2.6346326513283893 12.52619589003463 16.703034447247735 0 0 0
251 84 1 0.5897 -4.66883690719203 14.567030145634265 18.60336347725283 0 0 -1
738 246 1 0.5897 -0.39904429436590316 14.31773352762294 17.224813094345663 0 0 0