LAMMPS data file via write_data, version 30 Jul 2021, timestep = 6750000

972 atoms
2 atom types
648 bonds
1 bond types
324 angles
1 angle types

-0.06975100308993909 20.069752003086553 xlo xhi
-0.06044876339596783 20.060449763401913 ylo yhi
0.014106775710981623 20.68589122428449 zlo zhi

Masses

1 1.008
2 15.999

Pair Coeffs # lj/cut/tip4p/long/omp

1 0 0
2 0.21084 3.1668

Bond Coeffs # harmonic/omp

1 450 0.9572

Angle Coeffs # harmonic/omp

1 55 104.52

Atoms # full

33 11 1 0.5897 1.54467290080495 2.3613076262412314 1.462020696197827 0 0 0
11 4 1 0.5897 0.9609302251484355 3.5347783440969756 3.1550713247911677 0 0 0
18 6 1 0.5897 4.035717177527067 2.690266540089843 3.653896720087524 0 0 0
16 6 2 -1.1794 4.087812826750614 3.6427129564679954 3.7336745045351494 0 0 0
10 4 2 -1.1794 1.2889714495637952 3.9792144298023935 3.936707751221153 0 0 0
31 11 2 -1.1794 0.8549965932606677 2.114250994216255 2.078007291318493 0 0 0
12 4 1 0.5897 2.2339952275685464 3.827738353984574 3.920139564607111 0 0 0
139 47 2 -1.1794 0.8725674128852333 9.060460605738722 1.7877236059370212 0 0 0
15 5 1 0.5897 4.68308932661231 6.2075539372612605 2.1320827390560932 0 0 0
113 38 1 0.5897 4.621254054903894 7.534655891541844 3.740339843146725 0 0 0
32 11 1 0.5897 0.04135583671981807 2.3650426372995335 1.6406444917105518 0 0 0
132 44 1 0.5897 0.9908008048693597 7.159128463504719 5.070117968241617 0 0 0
13 5 2 -1.1794 4.907060896915394 5.487569178477921 1.542507792122043 0 0 0
141 47 1 0.5897 0.8515550113671009 8.128309787067213 2.004247469374489 0 0 0
17 6 1 0.5897 4.4264761530464 3.9362255307478153 2.887965789081559 0 0 0
4 2 2 -1.1794 4.0566208836441735 0.8605691840201628 3.5741558915825262 0 0 0
112 38 2 -1.1794 3.9161951946117863 7.494115973017889 3.094268894753957 0 0 0
111 37 1 0.5897 1.9962650215542723 9.557907047038412 0.6832367045599036 0 0 0
114 38 1 0.5897 3.112944105122561 7.499205335324901 3.6147935149526234 0 0 0
20 7 1 0.5897 1.0877422499112115 5.613505698270216 2.7490448997326826 0 0 0
140 47 1 0.5897 1.0517557024278885 9.49641384779452 2.6207305196644417 0 0 0
14 5 1 0.5897 4.332946028095122 5.609237817031303 0.7863945929440153 0 0 0
24 8 1 0.5897 2.484359095578704 0.684429269638718 4.673157458972953 0 0 0
21 7 1 0.5897 0.04895383187312105 5.9236936982909665 1.692450793058272 0 0 0
126 42 1 0.5897 3.8712029876493084 9.70693634143815 3.1892410979165597 0 0 0
236 79 1 0.5897 1.0178468564137686 0.36347387191389624 1.9115079697580237 0 1 0
5 2 1 0.5897 4.143719622299024 0.3203632328283751 2.78886698933541 0 0 0
19 7 2 -1.1794 0.9625130911392805 6.08718179143626 1.9268406388237398 0 0 0
6 2 1 0.5897 4.796031936363328 0.6038906115466813 4.12513052268741 0 0 0
674 225 1 0.5897 2.3428196359437714 5.793079661356112 0.3765563752049346 0 0 1
130 44 2 -1.1794 1.9422891482896212 7.202834403435183 4.97512025700863 0 0 0
110 37 1 0.5897 3.4166056354213796 9.2695022865233 0.24568534593611246 0 0 0
109 37 2 -1.1794 2.696636814987782 9.887716444756284 0.1203032452247399 0 0 0
325 109 2 -1.1794 2.9815823270185424 2.7317047090683975 7.013578949269398 0 0 0
326 109 1 0.5897 2.540742121359199 2.091439571517971 6.4551130375645345 0 0 0
327 109 1 0.5897 3.8953899781388026 2.4471640974150173 7.029843488722821 0 0 0
356 119 1 0.5897 2.100821675289503 2.11478614301783 8.546531164638912 0 0 0
357 119 1 0.5897 0.6107482543169416 2.251660508909472 8.776694273704072 0 0 0
355 119 2 -1.1794 1.4030030823818358 1.8691946477957777 9.153907547076393 0 0 0
25 9 2 -1.1794 2.625663110125902 5.387137958357555 6.776460306091921 0 0 0
27 9 1 0.5897 2.91156367240182 4.4738611834416275 6.755618873608125 0 0 0
560 187 1 0.5897 0.9080568834025488 0.06389692336514044 8.765576576097304 0 1 0
437 146 1 0.5897 4.172571000941281 7.423003727017382 9.460291559402162 0 0 0
343 115 2 -1.1794 0.7454690723030678 5.834570063212032 8.789190006620906 0 0 0
26 9 1 0.5897 2.01922974859885 5.431967776625042 7.515619018454159 0 0 0
344 115 1 0.5897 0.8737394400812839 5.3615494678337035 9.611232519390027 0 0 0
433 145 2 -1.1794 2.2977435020678016 9.259381434603537 6.979321390584385 0 0 0
337 113 2 -1.1794 4.794717394230599 6.020687912549498 8.384402509324058 0 0 0
438 146 1 0.5897 3.8866182375508873 8.805998858127069 10.00561301716698 0 0 0
131 44 1 0.5897 2.2735994085777187 6.523740548057464 5.562664186319258 0 0 0
345 115 1 0.5897 0.9695238646263793 6.741749793750073 8.996700473691003 0 0 0
463 155 2 -1.1794 0.6232402993882487 8.66208462850402 9.025618920344359 0 0 0
435 145 1 0.5897 2.21361889330775 8.830892832388553 6.127631195248847 0 0 0
464 155 1 0.5897 1.3496193877552636 8.943479626513133 8.469394348606736 0 0 0
339 113 1 0.5897 4.441211181355731 5.607019147705215 7.597036374553666 0 0 0
468 156 1 0.5897 3.9922778376164665 9.280216006746885 6.8091378586998 0 0 0
335 112 1 0.5897 1.3256065056696653 3.1993447564858544 10.344795135983432 0 0 0
342 114 1 0.5897 4.206368856983279 4.745169794891092 9.878293352127114 0 0 0
328 110 2 -1.1794 4.477586435299063 1.2110854289662212 9.75882421729715 0 0 0
22 8 2 -1.1794 1.9224732524617223 0.6580882290639002 5.447522998977921 0 0 0
466 156 2 -1.1794 4.935103252710345 9.336732155749454 6.964605059579406 0 0 0
329 110 1 0.5897 3.716263578503206 1.1515384136655429 10.335903167285139 0 0 0
436 146 2 -1.1794 3.871889326235603 7.879573916369314 10.24591327921837 0 0 0
341 114 1 0.5897 4.494462245350292 3.2632046450401533 9.991043831984715 0 0 0
649 217 2 -1.1794 2.912595973054125 2.2877595024709025 13.522927046816347 0 0 0
650 217 1 0.5897 2.571630982626584 1.6567370458867783 12.889134354790198 0 0 0
651 217 1 0.5897 2.4624746496829517 2.0740308225281634 14.34010021095671 0 0 0
680 227 1 0.5897 0.0024122643710896563 1.9703601523871805 14.791416845730092 0 0 0
334 112 2 -1.1794 1.3452318487170258 4.049647077961172 10.783861144943307 0 0 0
347 116 1 0.5897 1.2981541711448914 0.6860594883043533 11.268191618079753 0 0 0
346 116 2 -1.1794 2.210749837627653 0.5458010439671866 11.520720577117723 0 0 0
454 152 2 -1.1794 1.9266599632036223 7.328850724207571 12.10417619079416 0 0 0
792 264 1 0.5897 4.464241581351141 9.529155257447098 14.5121930983085 0 0 0
668 223 1 0.5897 0.40999934778961566 5.513790490698409 14.446892625630632 0 0 0
683 228 1 0.5897 4.71271653286711 2.410989312966097 13.879285320824762 0 0 0
351 117 1 0.5897 2.5842174320880646 4.163397466022006 13.11049986855525 0 0 0
350 117 1 0.5897 3.055938213956596 5.10933411387271 14.194143035178525 0 0 0
455 152 1 0.5897 2.426533265078784 7.388716822004023 11.290157532261032 0 0 0
349 117 2 -1.1794 2.472252662884865 5.0560192419651235 13.437454251741528 0 0 0
757 253 2 -1.1794 2.7622069906724236 9.300515021653101 13.831972713358788 0 0 0
456 152 1 0.5897 2.340901942209759 6.6144154719751445 12.588074618381363 0 0 0
759 253 1 0.5897 2.540443505769189 8.772665348413575 13.06498982491623 0 0 0
667 223 2 -1.1794 0.07906720038288592 5.783492381548866 15.303496687505017 0 0 0
405 135 1 0.5897 0.437749763396885 4.791990763071875 12.17822288240591 1 0 0
661 221 2 -1.1794 4.305365940401646 5.706405095393614 15.377574786771085 0 0 0
336 112 1 0.5897 2.275306909969064 4.223410764557722 10.928937059042623 0 0 0
533 178 1 0.5897 0.13284503060953975 7.765123211370233 11.92725329818679 1 0 0
789 263 1 0.5897 1.6682256929425594 8.580663283432612 15.33357384399275 0 0 0
340 114 2 -1.1794 4.252037843335319 4.028971361328142 10.511630834564732 0 0 0
679 227 2 -1.1794 0.8117257284464202 1.776590052038689 15.264371013113697 0 0 0
669 223 1 0.5897 0.5566968146080092 6.588762049354557 15.50259842522694 0 0 0
443 148 1 0.5897 0.9476449777763456 9.674934800444806 10.402387799922744 0 0 0
653 218 1 0.5897 3.059310863726544 0.8328464936892578 17.205982509186992 0 0 0
664 222 2 -1.1794 3.9478562486358433 4.024102668176576 17.439882582239306 0 0 0
671 224 1 0.5897 1.618730090099048 1.918196914743454 18.833693793078076 0 0 0
665 222 1 0.5897 3.0060371768926863 4.152658776440913 17.55276424048866 0 0 0
787 263 2 -1.1794 0.9175326836300305 8.433222366372146 15.908784319743617 0 0 0
670 224 2 -1.1794 1.37323698751807 1.1984885654277562 18.25240774583963 0 0 0
788 263 1 0.5897 1.072446314978068 9.008781268746619 16.65767112887256 0 0 0
658 220 2 -1.1794 1.2463293681523486 4.253216219508279 17.12295898149647 0 0 0
659 220 1 0.5897 0.6535542840124463 4.315718867124951 17.871846784789575 0 0 0
652 218 2 -1.1794 3.9025803023440195 1.0366025580279552 16.80149011150902 0 0 0
666 222 1 0.5897 4.033609721209476 3.113608510434346 17.157261227307448 0 0 0
672 224 1 0.5897 0.4416809648337303 1.0592376485435955 18.422980110767206 0 0 0
760 254 2 -1.1794 4.5088305418188845 7.9645739332612955 17.350944785949427 0 0 0
663 221 1 0.5897 4.177215975865953 6.552486807439659 15.806427773496692 0 0 0
660 220 1 0.5897 0.9683011800144841 4.95755645111352 16.537531186148158 0 0 0
662 221 1 0.5897 4.3051506287230925 5.07164529356223 16.093943599150304 0 0 0
780 260 1 0.5897 2.731309154785825 8.024101270457225 18.059818549059546 0 0 0
675 225 1 0.5897 2.7383618229556155 6.430956001955048 19.733759163440435 0 0 0
681 227 1 0.5897 0.8189631303217384 2.3981640556445747 15.992173125352034 0 0 0
761 254 1 0.5897 4.37053552597328 8.907411592128355 17.441293793774722 0 0 0
778 260 2 -1.1794 2.0663539043835235 7.991738297698703 18.747518614359493 0 0 0
779 260 1 0.5897 2.1385997376399173 8.83685541403104 19.19108243770009 0 0 0
858 286 1 0.5897 0.32070860169004084 7.566942347173203 18.860056536235604 1 0 0
654 218 1 0.5897 3.9977383518827274 0.38707992936683483 16.104932751311665 0 0 0
2 1 1 0.5897 2.7538629001389743 3.887131471103394 20.23829698733313 0 0 -1
1 1 2 -1.1794 2.5568077532836444 2.965752304508157 20.40699116872374 0 0 -1
891 297 1 0.5897 2.2591691353343393 -0.050532582952133254 19.58675504881813 0 1 0
673 225 2 -1.1794 2.960859800430851 5.709630811019057 20.322267248578342 0 0 0
884 295 1 0.5897 0.8676678891036029 -0.059169774197173876 15.54708987801776 0 1 0
3 1 1 0.5897 3.395583027607736 2.5846124175554785 20.666716094366347 0 0 -1
120 40 1 0.5897 0.768376236424492 11.31442943938937 3.488522039760212 0 0 0
229 77 2 -1.1794 4.217730204657474 19.186737744199622 1.368261559303194 0 0 0
234 78 1 0.5897 4.152449053065194 17.92873949461853 2.5843643222956327 0 0 0
127 43 2 -1.1794 0.6385712535254991 12.891022266268786 2.1419766791224433 0 0 0
221 74 1 0.5897 3.9590994952283607 15.639507913913217 3.2277032123065172 0 0 0
222 74 1 0.5897 4.056932507192975 14.324156815454566 2.4847135427482168 0 0 0
119 40 1 0.5897 2.1097668871762534 10.749192062106525 3.9046500935430126 0 0 0
235 79 2 -1.1794 0.7562666962917514 19.58316638459761 1.7227133080890917 0 0 0
118 40 2 -1.1794 1.1675827579402627 10.626200794478997 4.020644578228441 0 0 0
249 83 1 0.5897 1.7677871902353457 15.950884254330173 1.3952909349014682 0 0 0
122 41 1 0.5897 3.9182545124730117 11.967598215892286 2.072011049419542 0 0 0
240 80 1 0.5897 2.432604726875058 14.237609380719226 4.450390332155568 0 0 0
248 83 1 0.5897 0.9640251770896822 16.502694048833582 2.5533512264899363 0 0 0
124 42 2 -1.1794 3.9511977886773515 10.654159560420178 3.3013588882812233 0 0 0
228 76 1 0.5897 0.48681057063621225 18.05772278721436 4.376126692256954 0 0 0
247 83 2 -1.1794 1.0552104082898377 15.730502773716953 1.9951609306023297 0 0 0
121 41 2 -1.1794 4.189034168261778 12.611671013696174 1.417804206270462 0 0 0
233 78 1 0.5897 3.149950793030584 17.59608757115422 3.6688117465859436 0 0 0
230 77 1 0.5897 3.6564811639836026 19.28314914348103 0.5989637639952138 0 0 0
125 42 1 0.5897 4.611806666133971 10.75984520260227 3.9858764986548874 0 0 0
226 76 2 -1.1794 1.1151174213956354 17.81040605247955 3.697733589780041 0 0 0
220 74 2 -1.1794 3.931653659720837 14.691817728454785 3.359455953666859 0 0 0
783 261 1 0.5897 1.5569070617571128 12.77019100163843 0.3621667570840126 0 0 1
232 78 2 -1.1794 4.030906874011124 17.38281839359618 3.361083211185554 0 0 0
227 76 1 0.5897 1.054830648790955 18.51074856703227 3.048135553171068 0 0 0
129 43 1 0.5897 0.9504756501658786 13.793558124908103 2.2082866671605768 0 0 0
123 41 1 0.5897 3.4325600583301528 12.696829577504062 0.83755549797114 0 0 0
219 73 1 0.5897 3.7453651425964676 16.365926403198614 0.2134457962543679 0 0 0
890 297 1 0.5897 1.681543886914548 19.36923626769454 0.1258700865892718 0 0 1
133 45 2 -1.1794 2.073394791537612 11.927377658667536 6.732942886336324 0 0 0
134 45 1 0.5897 1.4470179745329255 12.136867149464786 7.425695498127943 0 0 0
135 45 1 0.5897 2.9309325784841933 12.028123093078502 7.146101521427758 0 0 0
445 149 2 -1.1794 4.366229182663532 12.674615809765331 8.120790635915775 0 0 0
446 149 1 0.5897 4.207977199437657 13.352499954874155 8.777723341134843 0 0 0
453 151 1 0.5897 0.79585350796983 11.808513826173051 9.548244494674254 0 0 0
571 191 2 -1.1794 0.5277012047339747 15.220507474561304 9.254051964981374 0 0 0
576 192 1 0.5897 4.336463474436318 15.69664962210746 7.211553273568094 0 0 0
572 191 1 0.5897 1.3155244456334634 15.334966661160784 8.722622292120313 0 0 0
561 187 1 0.5897 0.6442146716733991 18.78057871207262 9.266016159834109 0 0 0
559 187 2 -1.1794 0.42184594413188514 19.38649913138631 8.55924225626858 0 0 0
558 186 1 0.5897 4.035412663934156 18.103792474402155 9.617348161150009 0 0 0
238 80 2 -1.1794 1.8559885135776184 14.28048284995488 5.213141099981323 0 0 0
242 81 1 0.5897 1.7114543240483253 18.601501287429986 7.31966211792859 0 0 0
543 181 1 0.5897 2.5094003722161005 15.13207483021592 6.604297668017138 0 0 0
573 191 1 0.5897 0.4525915980807391 14.273453459008326 9.370957116218834 0 0 0
450 150 1 0.5897 4.008036318737228 11.356437931508097 9.855968852641782 0 0 0
541 181 2 -1.1794 2.6046750343264504 15.727356487407622 7.347693139847497 0 0 0
434 145 1 0.5897 2.193647062824468 10.191924867033206 6.7902037845770575 0 0 0
542 181 1 0.5897 2.3490304575705774 16.583387090095563 7.0040916220836635 0 0 0
243 81 1 0.5897 3.2072001049879257 18.601819810874016 7.08562242498549 0 0 0
241 81 2 -1.1794 2.3783789159779722 18.339409050019007 6.685086615129461 0 0 0
451 151 2 -1.1794 0.5600952450061779 12.53609729332026 8.97273755098167 0 0 0
553 185 2 -1.1794 4.417756040117269 19.09247566932207 8.167853637060869 0 0 0
239 80 1 0.5897 2.014649187034126 13.460217360977747 5.68024243471477 0 0 0
544 182 2 -1.1794 4.043622442995021 14.421395077153125 10.336337922624766 0 0 0
317 106 1 0.5897 0.004825996169946056 14.557779797379247 5.541440509408076 1 0 0
554 185 1 0.5897 4.2250433737179875 19.92332398623894 8.60228967617059 0 0 0
556 186 2 -1.1794 3.648821305300967 17.59384337069535 10.329063943844584 0 0 0
557 186 1 0.5897 3.8744503284513407 16.6864285036051 10.124309231173159 0 0 0
23 8 1 0.5897 1.981933788702459 19.874981990132735 5.756484274693071 0 -1 0
457 153 2 -1.1794 2.3616087905543823 12.05647655724289 13.814673317537391 0 0 0
458 153 1 0.5897 1.6810865665246433 12.303697260185167 14.440697776082938 0 0 0
459 153 1 0.5897 3.180357811642622 12.324932988752822 14.231590834402393 0 0 0
562 188 2 -1.1794 2.262051916999462 14.224512502349205 12.340613389755488 0 0 0
563 188 1 0.5897 2.3624701347734747 13.403759240401975 12.822766139663761 0 0 0
879 293 1 0.5897 4.618583047181259 19.138180923559077 14.05861276898424 0 0 0
442 148 2 -1.1794 1.2093719047729328 10.382733570752356 10.991187996813322 0 0 0
867 289 1 0.5897 2.7966403344475665 15.932892050117038 14.66320141537573 0 0 0
567 189 1 0.5897 1.0329057764299392 17.90051736176405 12.507620458428669 0 0 0
885 295 1 0.5897 0.7182957581271865 18.80453285972304 14.717208103308987 0 0 0
548 183 1 0.5897 4.637864934499017 17.900709439804842 11.708121143511871 0 0 0
896 299 1 0.5897 0.4321111809328916 15.386544245465261 14.9540683302948 0 0 0
564 188 1 0.5897 2.5751794358938644 14.89768106854152 12.944717516281496 0 0 0
866 289 1 0.5897 4.215965294107504 16.081240538450064 14.15777567112035 0 0 0
642 214 1 0.5897 0.5460637009592507 14.272154177149732 11.7622706637592 1 0 0
865 289 2 -1.1794 3.3041424018705334 16.233126135275462 13.90926600267451 0 0 0
444 148 1 0.5897 2.139455286858963 10.51573261780268 10.80809477154738 0 0 0
565 189 2 -1.1794 1.6206643590899013 18.26906834994137 13.16704536551663 0 0 0
566 189 1 0.5897 2.377644935458898 17.683189233919975 13.168197136330411 0 0 0
545 182 1 0.5897 3.331895327628884 14.298642384512904 10.964468099323613 0 0 0
877 293 2 -1.1794 4.594506233960944 19.331059321335896 14.995756227946138 0 0 0
448 150 2 -1.1794 3.807651502044581 10.665874337219833 10.48770242026073 0 0 0
550 184 2 -1.1794 0.9285579285793328 17.48788791609877 10.6353776813077 0 0 0
449 150 1 0.5897 4.263370021142815 10.931729558121736 11.286287179862885 0 0 0
551 184 1 0.5897 1.8785015917014989 17.561903693755884 10.727125299529593 0 0 0
348 116 1 0.5897 2.175507201172756 19.959585590855692 12.16483593933187 0 -1 0
758 253 1 0.5897 2.55634565856125 10.198706319985508 13.572935941953551 0 0 0
546 182 1 0.5897 4.839308874404986 14.400702589509924 10.867977967764869 0 0 0
895 299 2 -1.1794 1.2533888471175183 15.278407166583104 15.433688220662393 0 0 0
878 293 1 0.5897 4.336462881341877 18.504751000788524 15.404211816897492 0 0 0
552 184 1 0.5897 0.7773749950655169 16.562378393331606 10.443499671822309 0 0 0
768 256 1 0.5897 1.09062238265009 11.397723655155792 16.770794752837123 0 0 0
888 296 1 0.5897 1.786787206155032 13.845910727840778 19.204387391362694 0 0 0
217 73 2 -1.1794 2.82891580604234 16.356398927281003 20.609008224271175 0 0 -1
769 257 2 -1.1794 4.304715873223767 12.768125578824801 15.75403833573811 0 0 0
875 292 1 0.5897 0.5738504125723589 17.60561743646085 18.243437767144993 0 0 0
774 258 1 0.5897 4.245832931727041 11.349558817825011 17.07317514837417 0 0 0
886 296 2 -1.1794 1.6375866872895188 14.727394265971713 18.862425477547504 0 0 0
869 290 1 0.5897 3.024441871979215 14.72189330543382 17.764491965182124 0 0 0
766 256 2 -1.1794 1.4015231649375464 10.848509174668365 17.490390954684194 0 0 0
771 257 1 0.5897 4.131924837220078 13.557628854260736 16.266846795849474 0 0 0
887 296 1 0.5897 2.1372836207178296 15.298807401316928 19.44547067492785 0 0 0
897 299 1 0.5897 1.1595795151559676 15.843483744062418 16.20048631836367 0 0 0
870 290 1 0.5897 4.465968739715742 14.331161361997571 18.01217280783341 0 0 0
767 256 1 0.5897 0.9436645819089722 11.182066172122697 18.26183496439869 0 0 0
868 290 2 -1.1794 3.915022953047726 14.87394832936352 17.448252719966778 0 0 0
881 294 1 0.5897 2.8408994442136586 17.64237997529541 17.3485356334348 0 0 0
775 259 2 -1.1794 0.6248672681125995 12.622753611918442 15.785389956500275 0 0 0
880 294 2 -1.1794 3.7911767176668314 17.579643542986773 17.252066662974894 0 0 0
882 294 1 0.5897 3.986330964881059 16.653572527839405 17.395394631836528 0 0 0
876 292 1 0.5897 0.8269691787304541 18.07359120522422 16.826273375668105 0 0 0
772 258 2 -1.1794 3.9372814624990733 10.59772430088363 17.578874705959752 0 0 0
874 292 2 -1.1794 1.1236553432641274 17.43848237556924 17.47800188048198 0 0 0
773 258 1 0.5897 2.992531833488628 10.731407086804621 17.655460449564792 0 0 0
883 295 2 -1.1794 0.46731643222304875 19.192364704528206 15.555451048740853 0 0 0
781 261 2 -1.1794 2.1152398901590628 12.53058831236853 20.294371546556015 0 0 0
218 73 1 0.5897 2.6134616085623064 17.277132141557722 20.460432504404316 0 0 -1
777 259 1 0.5897 0.8306190184979567 13.536056049462715 15.586003407581082 0 0 0
782 261 1 0.5897 2.375100787747339 11.626753901501946 20.472699980132287 0 0 0
889 297 2 -1.1794 2.3618052868470976 19.28844756945521 20.129176128089885 0 0 0
56 19 1 0.5897 6.72659582671202 5.797031195866835 1.4764739223996972 0 0 0
711 237 1 0.5897 8.881187584881626 5.270431499518521 0.6102185861048381 0 0 1
177 59 1 0.5897 7.9214461873980175 8.838125460549362 1.2066080159497428 0 0 0
143 48 1 0.5897 5.5123944079678555 8.307586480589764 1.0428108370397076 0 0 0
69 23 1 0.5897 6.537370810857903 2.1745162148411663 1.649099063169908 0 0 0
67 23 2 -1.1794 7.2806322250756965 1.868039545304359 2.1685166408102554 0 0 0
46 16 2 -1.1794 7.875394539580698 4.202869069699696 3.9349903244428557 0 0 0
29 10 1 0.5897 7.1406737535929565 0.4335568922888659 5.006172815333341 0 0 0
68 23 1 0.5897 8.02075186245118 1.8848274792793644 1.5617972023463575 0 0 0
47 16 1 0.5897 7.834856659101159 3.3637073875709405 3.4763577166893422 0 0 0
48 16 1 0.5897 7.1719653681108255 4.156638038696305 4.582446118177781 0 0 0
175 59 2 -1.1794 7.433027628807971 8.5634289490557 1.9825532416875344 0 0 0
36 12 1 0.5897 5.400454519390192 3.4734958637546938 0.3924099186454016 0 0 0
57 19 1 0.5897 7.66412734816436 5.374790289144724 2.587511865415676 0 0 0
9 3 1 0.5897 5.188147636828486 4.307791002922643 5.007839597083528 0 0 0
176 59 1 0.5897 7.617960737806288 7.627776190132532 2.063759643298375 0 0 0
55 19 2 -1.1794 7.639178308879797 5.854316979709569 1.7595654292402938 0 0 0
166 56 2 -1.1794 8.79893459704123 7.266957526584964 4.970185035317229 0 0 0
138 46 1 0.5897 6.745625068694697 7.671930527004736 4.635197511027232 0 0 0
147 49 1 0.5897 9.941405892779565 9.396298885059467 0.3667783705052424 0 0 0
142 48 2 -1.1794 5.026722517864985 8.427435798360797 0.2268261322920118 0 0 0
37 13 2 -1.1794 9.483543929207062 2.1905188852627577 0.11476019108793686 0 0 0
34 12 2 -1.1794 5.234096092545837 2.5383548059283396 0.5109373894716508 0 0 0
136 46 2 -1.1794 5.859284115079999 7.483507910314499 4.943668487174309 0 0 0
709 237 2 -1.1794 9.574982620855302 4.968530488814891 0.023979699615850336 0 0 1
710 237 1 0.5897 9.515016795347206 4.013650263040444 0.05291094833012977 0 0 1
391 131 2 -1.1794 7.843732946035411 1.8562996629362376 9.134519932512687 0 0 0
392 131 1 0.5897 8.585152876577544 2.0415682590323723 8.558227965068426 0 0 0
8 3 1 0.5897 5.975237968427666 4.009163864731475 6.2659544970391075 0 0 0
359 120 1 0.5897 6.6360514762614375 2.210053481110626 7.921126050662049 0 0 0
59 20 1 0.5897 9.154910685269074 1.484110979445284 5.778880760163026 0 0 0
361 121 2 -1.1794 9.523096461958632 2.5306583828293308 7.023899274420234 0 0 0
7 3 2 -1.1794 5.706881073443489 4.727988854862208 5.693759255848209 0 0 0
362 121 1 0.5897 9.193405870214768 3.4136545199123898 6.856953711658818 0 0 0
393 131 1 0.5897 7.791450495280734 0.9008312899726294 9.158663611624844 0 0 0
471 157 1 0.5897 9.73326677983488 8.898726735478956 7.152936335783478 0 0 0
380 127 1 0.5897 7.389686003666682 7.137275355036955 8.63066943038313 0 0 0
61 21 2 -1.1794 9.12702864920345 5.093412871293685 6.56711843742762 0 0 0
470 157 1 0.5897 8.311069738012408 8.788439125168843 7.660013355808794 0 0 0
469 157 2 -1.1794 8.823920719819231 9.050948181195034 6.895697044479935 0 0 0
381 127 1 0.5897 7.714104319764729 5.71311583077901 9.028695262079635 0 0 0
62 21 1 0.5897 8.459486174738323 5.521095208402414 7.103466837328426 0 0 0
137 46 1 0.5897 5.889808225434825 6.5663021826984505 5.215743401432335 0 0 0
500 167 1 0.5897 7.1462911013679085 9.57869537343934 9.666523026379293 0 0 0
499 167 2 -1.1794 6.914266083379528 8.907886568092177 9.024396780480467 0 0 0
358 120 2 -1.1794 6.101748189780679 2.3993778806267194 7.149906393030106 0 0 0
360 120 1 0.5897 6.169201442022598 1.6106482703827067 6.611824250971605 0 0 0
379 127 2 -1.1794 7.486679061186785 6.254722468404672 8.273048479322874 0 0 0
501 167 1 0.5897 6.183366838477339 9.286204406727713 8.535645031170294 0 0 0
338 113 1 0.5897 5.720405620975582 6.162380702051143 8.186181290291621 0 0 0
467 156 1 0.5897 5.307081407870545 8.623458029783016 6.445898132090806 0 0 0
167 56 1 0.5897 8.819936692884138 6.393246806609462 5.360532775134242 0 0 0
330 110 1 0.5897 5.214179515356263 0.9341703484362324 10.303735817310004 0 0 0
60 20 1 0.5897 9.034314902323349 -0.024813021454900053 5.756924788957783 0 0 0
168 56 1 0.5897 8.976890761737673 7.860253805998785 5.699870961924888 0 0 0
63 21 1 0.5897 9.957504206284424 5.347951293156312 6.9693104851525485 0 0 0
28 10 2 -1.1794 6.210230518864027 0.3409758796559755 5.211082924488214 0 0 0
58 20 2 -1.1794 8.831764263453675 0.7582679376921909 5.2451405320200415 0 0 0
352 118 2 -1.1794 6.503167192392257 0.46118224291266474 11.660830581284117 0 0 0
331 111 2 -1.1794 6.209590995298254 4.811280247807145 12.552057174360018 0 0 0
386 129 1 0.5897 9.111469521389482 4.856118871130896 13.516436897866242 0 0 0
793 265 2 -1.1794 9.353135085572863 9.230059345857669 14.19971985618366 0 0 0
462 154 1 0.5897 5.173577983801212 7.797016526721649 11.705755639018712 0 0 0
385 129 2 -1.1794 8.938562114968176 5.759828072231586 13.78015761537948 0 0 0
684 228 1 0.5897 5.887195915611647 3.3104173074192227 13.557446122889926 0 0 0
461 154 1 0.5897 5.781704423996872 8.165484729290975 13.042131829925118 0 0 0
705 235 1 0.5897 7.42004286438657 5.715447091496517 15.086004741519432 0 0 0
382 128 2 -1.1794 9.200647301404906 0.6088133028777876 12.009319246582155 0 0 0
353 118 1 0.5897 7.457359465834348 0.5337473544437692 11.637589427187779 0 0 0
354 118 1 0.5897 6.24280003947183 0.9658471005721179 12.431298836774745 0 0 0
383 128 1 0.5897 9.395664718364964 1.3271187601987902 12.611119607583776 0 0 0
372 124 1 0.5897 7.459825942384656 4.775679459166393 11.12239974226623 0 0 0
686 229 1 0.5897 9.260451634690048 2.697328526084287 14.26832401276502 0 0 0
492 164 1 0.5897 7.900406354848597 7.89398184207054 11.759493785601888 0 0 0
333 111 1 0.5897 6.156701737127861 5.767005658242645 12.557516112146216 0 0 0
790 264 2 -1.1794 5.389040607534973 9.28588762088722 14.469375572103264 0 0 0
332 111 1 0.5897 5.469428793797078 4.533026146340072 12.012749754713445 0 0 0
387 129 1 0.5897 8.84350249320073 6.236586961564447 12.955750366367354 0 0 0
384 128 1 0.5897 9.644366091314398 0.8499082442330786 11.196256610676006 0 0 0
717 239 1 0.5897 7.275235889486236 2.593136588117384 15.295470537517351 0 0 0
794 265 1 0.5897 9.177902489971476 8.602440310914496 13.49864701691648 0 0 0
685 229 2 -1.1794 9.581417385545267 2.8657690894203296 13.382519349157619 0 0 0
490 164 2 -1.1794 8.830420900209143 7.7085669144237245 11.889741762400282 0 0 0
460 154 2 -1.1794 5.959251026845153 7.6761340255682695 12.238962155006035 0 0 0
370 124 2 -1.1794 8.17127831461731 4.480427234861377 10.554231338304623 0 0 0
682 228 2 -1.1794 5.667467982843228 2.456751820355673 13.930485381367024 0 0 0
491 164 1 0.5897 9.240171200052705 7.939092112102538 11.05606366831412 0 0 0
716 239 1 0.5897 7.976316780029258 1.2642483399483415 15.481181609736145 0 0 0
791 264 1 0.5897 5.577988987986361 8.908592923606848 15.32844972703939 0 0 0
371 124 1 0.5897 7.993385128042192 3.551054340147397 10.410062034220223 0 0 0
377 126 1 0.5897 9.88681147673242 4.123535258047659 10.39424020609127 0 0 0
38 13 1 0.5897 9.384120658595826 2.1236911885720615 19.836987286761026 0 0 -1
715 239 2 -1.1794 8.066671624302046 2.1996731025970035 15.662980884708224 0 0 0
825 275 1 0.5897 7.381244438461091 7.450604764723769 16.13758522491988 0 0 0
656 219 1 0.5897 5.410434994511361 4.542726901393536 18.8080357208483 0 0 0
655 219 2 -1.1794 6.075610569012193 4.447821781812694 19.48971002642587 0 0 0
814 272 2 -1.1794 9.356146860403669 7.221267741544191 18.85360987374738 0 0 0
657 219 1 0.5897 6.851127036088785 4.131861808251532 19.026120094585657 0 0 0
785 262 1 0.5897 6.512367542442257 6.094363295321589 19.199462204558987 0 0 0
144 48 1 0.5897 5.5381863801341 7.953132952542834 20.243178803992883 0 0 -1
706 236 2 -1.1794 8.881379000567275 0.8270023134981813 18.587942062060172 0 0 0
677 226 1 0.5897 5.3325725197099985 1.0865332660822546 18.196531773024148 0 0 0
703 235 2 -1.1794 6.952310412268717 5.754335138114291 15.920128555296335 0 0 0
695 232 1 0.5897 7.972648572617185 2.9316020088464567 17.300511431620762 0 0 0
694 232 2 -1.1794 8.02918475473669 3.7994449677545705 17.700276486898755 0 0 0
815 272 1 0.5897 9.47545784171026 6.475828750373996 19.442012121007554 0 0 0
696 232 1 0.5897 7.826880421634344 4.4055804636080955 16.987755914396274 0 0 0
816 272 1 0.5897 9.21474240649947 7.96710784534174 19.436601288851488 0 0 0
784 262 2 -1.1794 6.611874380465862 7.03336344519405 19.04255556022705 0 0 0
676 226 2 -1.1794 6.046115921544423 0.9013226250163686 18.8070292588593 0 0 0
786 262 1 0.5897 7.514655141112924 7.131762071336375 18.739948844738002 0 0 0
145 49 2 -1.1794 9.054873952033562 9.374342608662428 20.678317962541183 0 0 -1
823 275 2 -1.1794 7.57238902107512 8.367575671715482 16.334674936601985 0 0 0
708 236 1 0.5897 7.983201401947904 0.5835655458385416 18.363690167484215 0 0 0
707 236 1 0.5897 9.051089199444693 0.3803356375561989 19.41722824409795 0 0 0
35 12 1 0.5897 5.747223281141352 2.114233085566592 20.49500364453969 0 0 -1
678 226 1 0.5897 5.873822163156833 0.01144165211354195 19.11459741032959 0 0 0
762 254 1 0.5897 5.224296983065047 7.767902993922951 17.95560199937323 0 0 0
824 275 1 0.5897 8.325664279581957 8.579577538681868 15.783486947311127 0 0 0
704 235 1 0.5897 6.051815806325809 5.514137888459102 15.701895079737675 0 0 0
285 95 1 0.5897 7.844842654189174 14.505835896185758 2.079024017004007 0 0 0
927 309 1 0.5897 8.418139192051472 18.983764303937903 0.9257049656698934 0 0 1
251 84 1 0.5897 6.472529829339949 15.973525093340879 0.7556178136719893 0 0 0
264 88 1 0.5897 8.836503520727737 17.67673298727899 3.972375107279701 0 0 0
231 77 1 0.5897 5.109094053414212 19.236277917131325 1.0229009256834167 0 0 0
154 52 2 -1.1794 7.832824328707081 10.808947181547577 3.7233578321114127 0 0 0
163 55 2 -1.1794 7.057743741697249 12.643948398281209 1.7827816379133767 0 0 0
164 55 1 0.5897 6.150058233781886 12.814004571200991 1.5308628421160888 0 0 0
165 55 1 0.5897 6.9940265077932 12.005735627564476 2.4932340564378492 0 0 0
273 91 1 0.5897 7.3367404981955575 19.89804326476884 2.246397975499865 0 0 0
263 88 1 0.5897 7.41731850961091 17.347496081802237 4.384101585160012 0 0 0
271 91 2 -1.1794 7.039119239071165 19.014271788085658 2.030615164556849 0 0 0
262 88 2 -1.1794 8.044355257077237 17.23241287689268 3.6701633785370493 0 0 0
276 92 1 0.5897 9.486291371849873 13.973242144624752 4.3661012452265595 0 0 0
156 52 1 0.5897 8.779893236403506 10.901601916876757 3.82705368472633 0 0 0
284 95 1 0.5897 7.895142609351807 15.971901830906376 2.4531918884860118 0 0 0