LAMMPS data file via write_data, version 30 Jul 2021, timestep = 43250000

1296 atoms
2 atom types
864 bonds
1 bond types
432 angles
1 angle types

-10.576193845104953 12.556193845104954 xlo xhi
-9.134623621023547 12.124621621023547 ylo yhi
0.11647341159277325 21.743525588405944 zlo zhi
-9.095668719883522 1.9293798295095763 2.852493909329062 xy xz yz

Masses

1 1.008
2 15.999

Pair Coeffs # lj/cut/tip4p/long/omp

1 0 0
2 0.21084 3.1668

Bond Coeffs # harmonic/omp

1 450 0.9572

Angle Coeffs # harmonic/omp

1 55 104.52

Atoms # full

280 94 2 -1.1794 -9.62902243625749 -4.4687941116500784 1.3927861031933828 1 1 0
270 90 1 0.5897 -8.377051112911062 -7.29124206311362 2.1545297918312523 1 1 0
269 90 1 0.5897 -9.190208953253084 -6.017983921643326 2.25147970025219 1 1 0
268 90 2 -1.1794 -9.047300476082896 -6.859707656675408 2.6843800562101645 1 1 0
314 105 1 0.5897 -8.80134014297406 -6.576413195741534 4.505295861831098 1 1 0
299 100 1 0.5897 -6.530139318858565 -7.868434228736136 4.063049402468016 1 1 0
163 55 2 -1.1794 -7.161572875816917 -7.884505984783481 0.8874523250023774 1 1 0
164 55 1 0.5897 -6.320526249042666 -8.213436097750687 1.2047899841048786 1 1 0
298 100 2 -1.1794 -5.913135592749344 -7.137279318495727 4.032998667581161 1 1 0
73 25 2 -1.1794 -8.258192268352229 -3.672409109553266 4.791662658437687 1 0 0
324 108 1 0.5897 -7.029800079258223 -4.261800227586763 3.5682149261162954 1 1 0
317 106 1 0.5897 -1.2253643548197406 -3.853552574845332 1.5126274754120723 1 1 0
282 94 1 0.5897 -10.47791693546394 -4.0340502781422565 1.473956947217208 1 1 0
84 28 1 0.5897 -8.018466729984024 -0.4228813007336001 4.032756653606651 1 0 0
75 25 1 0.5897 -9.062638449401938 -3.3047981493939877 4.425604637878275 1 0 0
281 94 1 0.5897 -8.988291332231128 -3.7648426562326884 1.4931480835442588 1 1 0
301 101 2 -1.1794 -7.902443555429739 -2.3228123716690288 1.6991215767508505 1 1 0
53 18 1 0.5897 -12.283321247394138 0.9932740053598277 2.301118794890472 1 0 0
275 92 1 0.5897 -10.4345354643236 -7.908459942277524 3.2834623689774203 1 1 0
97 33 2 -1.1794 -11.730320182138707 0.7523527238369461 5.38633836171942 1 0 0
322 108 2 -1.1794 -6.351571867901857 -4.655972145930516 3.019727338379565 1 1 0
300 100 1 0.5897 -5.0500418634605815 -7.550481925954554 4.05661833737142 1 1 0
313 105 2 -1.1794 -8.770067079846212 -6.325814050314586 5.428587332219846 1 1 0
256 86 2 -1.1794 -12.020404908710468 -3.206743036550825 1.7636635637424993 1 1 0
258 86 1 0.5897 -12.478760531047804 -2.6766120096597996 1.1115668888856947 1 1 0
241 81 2 -1.1794 -1.0707671763999826 -6.449077698086616 5.353909896252246 0 1 0
90 30 1 0.5897 -3.6879344934951765 -0.22225444545595252 2.0856014824979527 1 0 0
69 23 1 0.5897 -10.993321414300027 -2.481774959731302 3.1097374476299673 1 0 0
272 91 1 0.5897 -9.30543114801333 -1.1005605763522652 1.2662482575921177 1 1 0
83 28 1 0.5897 -9.484659170321645 -0.799298013460815 4.012607176093889 1 0 0
82 28 2 -1.1794 -8.897024334215065 -0.04861854383130648 4.09818902593351 1 0 0
271 91 2 -1.1794 -10.091767492568437 -0.7374034256181154 0.858738802459553 1 1 0
98 33 1 0.5897 -11.703023290810549 0.44012639598860126 4.481906579470198 1 0 0
54 18 1 0.5897 -11.447420772341127 -0.2541866835652584 2.109053673056022 1 0 0
67 23 2 -1.1794 -10.559526414319533 -2.3175248512814637 3.947046603996333 1 0 0
68 23 1 0.5897 -11.23560081474675 -2.4829725646700114 4.604203718229221 1 0 0
52 18 2 -1.1794 -12.107355730858233 0.13365719830168388 2.6837427455435847 1 0 0
261 87 1 0.5897 -6.6730150349221855 -4.9975616915419945 1.2392213580119198 1 1 0
323 108 1 0.5897 -6.248939800547992 -5.542751993956829 3.3652503003293064 1 1 0
310 104 2 -1.1794 -3.4255493348216204 -8.34154027349547 3.84973894220806 1 1 0
3 1 1 0.5897 -1.3354416528614212 -3.5044261980407887 4.502565788850499 0 0 0
103 35 2 -1.1794 -2.7952303865607266 -2.465593463944778 4.018910746964767 1 0 0
89 30 1 0.5897 -4.55634965744409 0.993889439700208 2.3277302617488003 1 0 0
259 87 2 -1.1794 -6.727787144457251 -5.245689438585217 0.3163585879722638 1 1 0
59 20 1 0.5897 -13.530900255026433 -0.8090516919347497 3.2898315212780918 1 0 0
88 30 2 -1.1794 -4.363691029743569 0.12101493563464949 2.670180548142691 1 0 0
302 101 1 0.5897 -7.426938839448098 -2.101250502509467 2.4997629395237464 1 1 0
107 36 1 0.5897 -9.162924475289683 1.5945039211904994 3.331246496024431 1 0 0
306 102 1 0.5897 -0.6856294858255119 -7.31016106203584 2.0229610347090268 1 1 0
304 102 2 -1.1794 -1.3579888487492315 -6.981718384153416 2.619847477096226 1 1 0
318 106 1 0.5897 -2.705931113984186 -4.168416927819381 1.5373003351076373 1 1 0
242 81 1 0.5897 -1.107005196486691 -6.744720691998346 4.4442331817620015 0 1 0
305 102 1 0.5897 -1.5826542892156112 -6.117180080964559 2.275763730805736 1 1 0
316 106 2 -1.1794 -1.8454838599591934 -4.580895506209034 1.461746938532306 1 1 0
311 104 1 0.5897 -2.7092850017301746 -7.892435903481659 3.400791955323594 1 1 0
293 98 1 0.5897 -4.991164717146964 -3.797190879604365 2.2733047919287865 1 1 0
303 101 1 0.5897 -7.265895377645254 -2.1885416812600136 0.9969217192385976 1 1 0
294 98 1 0.5897 -4.798026442709483 -2.774656699813736 1.1735689811070151 1 1 0
243 81 1 0.5897 -0.8443420410177218 -5.52089824939671 5.295597842229644 0 1 0
96 32 1 0.5897 -5.990537032712126 -1.8172692104783525 4.452378265283393 1 0 0
95 32 1 0.5897 -5.7568281800045655 -0.8056478832686214 3.3504324710907634 1 0 0
105 35 1 0.5897 -3.2233588074972914 -2.699290924101601 3.195312830715349 1 0 0
94 32 2 -1.1794 -6.449449315760515 -1.2951029318220328 3.794276619441246 1 0 0
104 35 1 0.5897 -3.497845081939664 -2.4852442139301463 4.668701115195848 1 0 0
26 9 1 0.5897 -4.106774429013624 0.3059245842789817 4.463838728330912 0 0 0
292 98 2 -1.1794 -4.316679144213402 -3.2917920631377964 1.819503771696122 1 1 0
27 9 1 0.5897 -3.967547052500554 1.506408353136166 5.375445356158207 0 0 0
99 33 1 0.5897 -11.592032688242641 1.6970396290374232 5.318216380763455 1 0 0
25 9 2 -1.1794 -4.0977110051734424 0.5581970763635198 5.387159742515194 0 0 0
44 15 1 0.5897 -9.858722358253669 1.0421385896260809 0.4168993528153381 1 0 0
260 87 1 0.5897 -6.926888761296299 -6.1818121857342 0.3311085746283713 1 1 0
315 105 1 0.5897 -8.578257442322426 -5.38813729032964 5.4162311693151945 1 1 0
201 67 1 0.5897 0.3569070075983909 -8.47172464840291 0.19571264728649063 1 1 0
273 91 1 0.5897 -10.291002297163466 -1.340073717485378 0.1423446737248789 1 1 0
309 103 1 0.5897 -2.6544195753006656 -1.4070073318874918 0.2818779968905434 1 1 0
165 55 1 0.5897 -7.407045510031386 -8.489210812013669 0.1873093397274367 1 1 0
74 25 1 0.5897 -8.013552129898471 -3.06599629430169 5.490618091338847 1 0 0
420 140 1 0.5897 -9.059868212147098 -6.453304941695771 9.898047792226437 1 0 0
618 206 1 0.5897 -7.797573961106835 -7.3243043163835635 6.633140476719673 1 1 0
413 138 1 0.5897 -7.6081424963051685 -3.730642854078698 7.6656588838392645 1 0 0
419 140 1 0.5897 -8.78115750782366 -5.487252093227703 8.766077372145379 1 0 0
418 140 2 -1.1794 -9.496336907938115 -5.905336645039685 9.245675728919908 1 0 0
414 138 1 0.5897 -6.683864689191932 -4.92231026768423 7.533556704628485 1 0 0
350 117 1 0.5897 -7.179343536794356 -4.255995889736257 9.818901355056285 0 0 0
412 138 2 -1.1794 -7.412180293439745 -4.583341404887088 8.054007282773373 1 0 0
429 143 1 0.5897 -6.432315453533595 -7.170060484542574 8.665687192900762 1 0 0
427 143 2 -1.1794 -5.920335912279653 -7.013426853910039 9.459147075129426 1 0 0
428 143 1 0.5897 -6.549740763722877 -7.10982276193479 10.17389240522713 1 0 0
544 182 2 -1.1794 0.3907523661234258 -7.9184301377694215 7.296963325072456 0 1 0
403 135 2 -1.1794 -5.02894998053798 -2.7803219299070854 5.657775275179531 1 0 0
330 110 1 0.5897 -3.0736998469497143 -0.29125335696116395 6.5828817603966705 0 0 0
435 145 1 0.5897 -7.44340133870142 -0.9508762144765122 9.902495927844011 0 0 0
425 142 1 0.5897 -7.362378777869371 -1.3674078327149717 7.086901508522829 1 0 0
400 134 2 -1.1794 -10.283686055526704 -0.7368829770417094 7.307764972560632 1 0 0
536 179 1 0.5897 -9.573207582772298 -0.06526193663553848 10.166793820979436 1 0 0
402 134 1 0.5897 -10.685463919980009 -0.19367488911253616 6.629628064237037 1 0 0
526 176 2 -1.1794 -12.49829459758197 1.2140191139681988 9.210604757252245 1 0 0
405 135 1 0.5897 -4.979609910066136 -2.493369934818049 6.569617430437001 1 0 0
537 179 1 0.5897 -9.259013767525994 -0.10329149164575924 8.68627230266259 1 0 0
426 142 1 0.5897 -8.831102653200714 -1.7319813722544772 7.045067650875719 1 0 0
401 134 1 0.5897 -11.013235606177863 -1.2284044963095058 7.685171406550249 1 0 0
527 176 1 0.5897 -11.773036624434273 1.6535582389037788 8.766658037953132 1 0 0
535 179 2 -1.1794 -8.867998081728336 0.08981193366310691 9.538359955251485 1 0 0
424 142 2 -1.1794 -7.954766945921705 -2.1160857289741886 7.018215988313984 1 0 0
528 176 1 0.5897 -12.076247230468741 0.645061518556334 9.854443412533021 1 0 0
349 117 2 -1.1794 -7.11198293877116 -3.933022700464214 10.717438880967329 0 0 0
337 113 2 -1.1794 -6.248343918887781 0.1481448595918966 7.088153655988785 0 0 0
633 211 1 0.5897 -5.748911434391526 -6.014882007930108 5.533075038239293 1 1 0
631 211 2 -1.1794 -5.4616444799018815 -5.465656737421608 6.2624353215034105 1 1 0
415 139 2 -1.1794 -8.41092074416554 1.5585281058083886 6.270536843370705 1 0 0
329 110 1 0.5897 -3.2648632507716355 -1.2989462473322524 7.696572206451758 0 0 0
454 152 2 -1.1794 -4.797806299285492 1.19095766371594 9.176347039537069 0 0 0
335 112 1 0.5897 -4.887131198866072 -5.42422053719818 9.499904604196418 0 0 0
433 145 2 -1.1794 -6.598086609269671 -1.3175722434243902 10.161778636727897 0 0 0
464 155 1 0.5897 -1.8392136933880288 0.006852250975338592 10.104726028723391 0 0 0
522 174 1 0.5897 -9.682276456978768 2.210164433042907 7.470514849981616 1 0 0
555 185 1 0.5897 -2.543348382104199 -6.787314791974967 6.309150985981798 0 1 0
416 139 1 0.5897 -7.651845622719627 1.120318255203916 6.655311783228785 1 0 0
347 116 1 0.5897 -1.1445809892006196 -5.456261604929486 8.745273996761352 0 0 0
348 116 1 0.5897 -1.4181658870289358 -6.416572627913062 9.88335849138993 0 0 0
336 112 1 0.5897 -3.3987833389146838 -5.147840794213031 9.483688871506665 0 0 0
359 120 1 0.5897 -4.567407737217464 -3.167299671988725 8.689368994788717 0 0 0
346 116 2 -1.1794 -1.8476723068106722 -5.952059267946511 9.164947278944801 0 0 0
632 211 1 0.5897 -4.683869116944394 -5.907187378015995 6.603587374598804 1 1 0
546 182 1 0.5897 -0.0306511748148921 -7.363911774590404 6.640235368439491 0 1 0
553 185 2 -1.1794 -3.219253490439872 -6.884522103092255 6.979970920430213 0 1 0
554 185 1 0.5897 -2.7742041406667184 -6.675464316176424 7.801221465278285 0 1 0
334 112 2 -1.1794 -4.248840035872927 -4.712607763917973 9.548444028148532 0 0 0
442 148 2 -1.1794 -7.247489449953044 2.3976343863633467 9.60658872055918 0 0 0
338 113 1 0.5897 -5.76250519838722 0.4165697785726028 7.867969169917847 0 0 0
627 209 1 0.5897 -10.29597386955527 -6.651049769090526 6.396143901977796 1 1 0
456 152 1 0.5897 -4.341802325035952 0.6639943587504398 9.832646501834352 0 0 0
360 120 1 0.5897 -5.307438688597466 -1.872234492958726 8.948037936956114 0 0 0
328 110 2 -1.1794 -2.591908098768209 -0.7947489781841526 7.239176903604623 0 0 0
339 113 1 0.5897 -5.622391093014826 0.24446355082709026 6.3703725529817525 0 0 0
455 152 1 0.5897 -4.10588765169548 1.7004550850694145 8.754508887480092 0 0 0
411 137 1 0.5897 -13.202012168023229 0.4187131293166839 6.3969473333827285 1 0 0
444 148 1 0.5897 -6.3999579637438915 1.9694819625074231 9.485813913064145 0 0 0
358 120 2 -1.1794 -4.672805087788486 -2.2761418331721153 8.356175105432069 0 0 0
443 148 1 0.5897 -7.881681904096206 1.6807460920916846 9.599705710690207 0 0 0
356 119 1 0.5897 1.141186872057812 -7.096997014735314 10.198715280783691 0 0 0
616 206 2 -1.1794 -7.352543184903543 -7.895217760537235 7.259531430020461 1 1 0
351 117 1 0.5897 -6.929429578010462 -2.9981424495162514 10.623207461091932 0 0 0
404 135 1 0.5897 -5.117209413500246 -3.7319765273326935 5.710268938106597 1 0 0
410 137 1 0.5897 -13.500089898225713 0.5454761258015566 7.8758500005878895 1 0 0
434 145 1 0.5897 -6.284163101992663 -0.7327860195118827 10.851418493085141 0 0 0
417 139 1 0.5897 -8.669306765177787 0.9949527088649361 5.5413231345285405 1 0 0
357 119 1 0.5897 1.3425126314691855 -7.203644387644914 8.701993933824857 0 0 0
652 218 2 -1.1794 -5.676273583008989 -5.325749080551033 12.64303302414045 0 0 0
780 260 1 0.5897 -7.353967025352048 -3.9139149691669086 15.195781036121677 0 0 0
779 260 1 0.5897 -7.0834169781111145 -2.876251109686301 14.126981842693223 0 0 0
778 260 2 -1.1794 -7.792965818857318 -3.3588419068892152 14.55115983306252 0 0 0
768 256 1 0.5897 -9.43135578344303 -2.6412402426774895 14.904435058064664 0 0 0
654 218 1 0.5897 -6.168319522379501 -4.845480427997836 11.977009058792424 0 0 0
653 218 1 0.5897 -6.343609769011495 -5.799656588184062 13.13938845187734 0 0 0
662 221 1 0.5897 -8.779062098045237 -4.116261185350925 13.13995307301866 0 0 0
661 221 2 -1.1794 -9.247776566512655 -4.386481703945376 12.350336256590957 0 0 0
663 221 1 0.5897 -8.627018245250783 -4.232413895210878 11.638131954630204 0 0 0
684 228 1 0.5897 -8.332042868018227 -6.4844959348280575 14.440995174349968 0 0 0
682 228 2 -1.1794 -7.694107769001677 -6.835650289950152 13.819752325232631 0 0 0
757 253 2 -1.1794 -9.6022066828106 -5.826654158172831 15.606618210500068 0 0 0
819 273 1 0.5897 -5.220959389627001 -0.3991906557526139 16.135812876453322 0 0 0
729 243 1 0.5897 -8.124548773461747 -7.087835983428631 12.007463848522294 1 0 0
727 243 2 -1.1794 -8.116999845198308 -7.388808036973164 11.098844763811062 1 0 0
766 256 2 -1.1794 -10.286559051005934 -2.214867430403383 14.95966289078162 0 0 0
806 269 1 0.5897 -4.198612512707333 2.9181840711318614 13.190667920302122 0 0 0
767 256 1 0.5897 -10.916843017770582 -2.933050296431185 14.903810746983943 0 0 0
790 264 2 -1.1794 -10.795021663868102 0.18752413567599824 13.758623670414444 0 0 0
762 254 1 0.5897 -9.07876094945001 2.211981665726084 12.013520694088164 0 0 0
761 254 1 0.5897 -9.38506316736965 1.1156460933666033 13.011752695968568 0 0 0
924 308 1 0.5897 -2.70249782430138 3.1817711556106083 15.171873979547893 0 0 0
792 264 1 0.5897 -11.434370962473217 0.5958275029075342 14.342337599901013 0 0 0
836 279 1 0.5897 -11.246248553793064 -1.294342966890742 11.1490636374464 1 0 0
760 254 2 -1.1794 -8.664550598097076 1.6358516395338523 12.656063565646004 0 0 0
837 279 1 0.5897 -11.116843821408244 -0.05149522495383785 12.003552961829037 1 0 0
791 264 1 0.5897 -10.720287004451485 -0.7122868049639486 14.076497783597082 0 0 0
769 257 2 -1.1794 -12.27713770806949 2.786387503020162 12.40243045725604 0 0 0
788 263 1 0.5897 -4.932663108244275 -4.506628532234636 15.504079370301358 0 0 0
797 266 1 0.5897 -1.6391806712163124 1.2328182859707404 13.093434248328817 0 0 0
896 299 1 0.5897 -7.914087747332056 2.51992479260403 15.518072422220863 0 0 0
807 269 1 0.5897 -3.873073338253218 2.8440973642847407 11.71397186045049 0 0 0
817 273 2 -1.1794 -5.439840604485816 -1.3259810094068252 16.232501109784835 0 0 0
771 257 1 0.5897 -11.591453272466795 2.926130908494626 11.749276605406795 0 0 0
897 299 1 0.5897 -7.749942861899344 2.3520420730493754 14.022437243036139 0 0 0
678 226 1 0.5897 -4.079677952519881 -6.20276692719315 12.317749178855296 0 0 0
802 268 2 -1.1794 -2.6071374975144828 -2.1739579588389626 15.013426827196948 0 0 0
816 272 1 0.5897 0.34248155234505084 -3.919125375382581 15.296720057827576 0 0 0
888 296 1 0.5897 -10.471736501420164 3.1636858533729626 15.259089860040843 0 0 0
667 223 2 -1.1794 -3.8805719537333694 -2.9493167581410393 11.657827268042665 0 0 0
789 263 1 0.5897 -4.716155465387994 -4.652899588092664 14.01284057557379 0 0 0
676 226 2 -1.1794 -3.2270517137522434 -6.63482559057127 12.26702316959879 0 0 0
814 272 2 -1.1794 -0.12752352196835837 -3.421108012078566 14.627814948328227 0 0 0
785 262 1 0.5897 -5.6083140738905986 1.1488592335183263 12.355835325192906 0 0 0
657 219 1 0.5897 -0.3797921637634687 -7.039609147600233 12.06219206068731 0 0 0
803 268 1 0.5897 -3.286732757343187 -2.840167818496429 14.911085146004883 0 0 0
795 265 1 0.5897 -2.813961161647671 -5.456616852505322 15.267801964789964 0 0 0
720 240 1 0.5897 -0.7312928003442298 -6.444351203659906 14.39016240405647 0 0 0
804 268 1 0.5897 -1.784700839995951 -2.6621237608679493 14.974566229705436 0 0 0
698 233 1 0.5897 -1.1512784838276442 -4.127684075700844 13.22966101452588 0 0 0
699 233 1 0.5897 -0.9475222770419407 -4.187829853061025 11.73067163605649 0 0 0
697 233 2 -1.1794 -1.5992948142268375 -4.348437720631057 12.41309944289265 0 0 0
718 240 2 -1.1794 -0.07883573131524102 -6.8319305775310974 13.806821220272596 0 0 0
677 226 1 0.5897 -2.5941401368797923 -5.91679752525758 12.260921640503927 0 0 0
668 223 1 0.5897 -3.0899216209328353 -3.307443817979956 12.06142313205362 0 0 0
793 265 2 -1.1794 -2.010118285535219 -5.833915776734127 15.625225165398712 0 0 0
773 258 1 0.5897 -5.866197246731477 -1.0831998864959616 13.18316606125898 0 0 0
774 258 1 0.5897 -5.067370306486869 -2.3459368598536887 12.939983927782578 0 0 0
818 273 1 0.5897 -5.5151781141116825 -1.6495418896286438 15.334808985813467 0 0 0
787 263 2 -1.1794 -4.2606108639722 -4.435567686488856 14.826148905246102 0 0 0
901 301 2 -1.1794 -4.967117442380028 1.3039227898465366 15.503966841399425 0 0 0
772 258 2 -1.1794 -5.663802939584519 -1.9365419738101748 13.566774024908248 0 0 0
827 276 1 0.5897 -2.803019735514976 -0.6019953934011895 14.095452545197608 0 0 0
765 255 1 0.5897 -3.33848890202266 -0.04466558195619896 11.964577384889857 0 0 0
784 262 2 -1.1794 -6.202433474376364 0.3984537319535253 12.346652564558058 0 0 0
828 276 1 0.5897 -3.67680849083283 0.6167164448852098 14.302868456593758 0 0 0
826 276 2 -1.1794 -3.0032310095416745 0.25775384712286886 13.725244188570636 0 0 0
740 247 1 0.5897 -10.77639362659147 -3.4310430397643916 11.984257192469524 1 0 0
895 299 2 -1.1794 -7.286451824024227 2.6464379181454163 14.80646994179434 0 0 0
903 301 1 0.5897 -5.8019537893809625 1.6784257291880493 15.222803302627046 0 0 0
786 262 1 0.5897 -7.074688381648271 0.7817851735274584 12.438528034775329 0 0 0
805 269 2 -1.1794 -4.57706390992394 2.685345231061449 12.342854466728305 0 0 0
835 279 2 -1.1794 -11.186193877604959 -0.34064948506226145 11.093712412685672 1 0 0
770 257 1 0.5897 -11.859546593731901 2.9967875497616454 13.237641181079463 0 0 0
689 230 1 0.5897 1.273972460851958 -5.825002816379096 13.08921862625936 0 0 0
764 255 1 0.5897 -3.5313101454408677 -1.2669169214085763 11.092520230214573 0 0 0
866 289 1 0.5897 -12.391120494877303 1.8552839115128208 16.22960900980503 0 0 0
655 219 2 -1.1794 -0.3909716001050416 -7.319429303665556 11.146871540074574 0 0 0
763 255 2 -1.1794 -3.3691608181310873 -0.32454542403158904 11.049720981923455 0 0 0
902 301 1 0.5897 -4.668595808913189 1.8826123049072834 16.205486473843052 0 0 0
865 289 2 -1.1794 -12.656679464820577 1.261080123799971 15.527806681227128 0 0 0
669 223 1 0.5897 -4.148047881403978 -3.613807770729977 11.022989491157002 0 0 0
794 265 1 0.5897 -1.7438330662290795 -5.223897808865371 16.313042633722524 0 0 0
1150 384 2 -1.1794 -6.01932062722495 -4.207825278526965 19.26876951650891 0 0 0
1152 384 1 0.5897 -6.70800208095352 -3.859952754725942 19.835262011859378 0 0 0
1227 409 1 0.5897 -8.926801840513972 -2.9419654550985594 20.49734244666515 0 0 0
1109 370 1 0.5897 -8.629490331206618 -3.4097310735344433 17.754009333205637 0 0 0
1089 363 1 0.5897 -6.390858885329516 -4.47392671418318 17.416821814107493 0 0 0
1151 384 1 0.5897 -5.873890508242878 -5.098710561307183 19.58728943962133 0 0 0
1108 370 2 -1.1794 -9.27423582737464 -4.117099720914174 17.764492486811385 0 0 0
1225 409 2 -1.1794 -8.122222057068836 -3.3232933618996636 20.84877811319683 0 0 0
1196 399 1 0.5897 -9.619263877057527 1.2890748031718324 16.58719631767645 0 0 0
1233 411 1 0.5897 -1.7173735195175066 2.561738242146019 17.36261793378374 0 0 0
1087 363 2 -1.1794 -6.379257819760458 -4.8319610494320315 16.529191012360734 0 0 0
1143 381 1 0.5897 -8.318149843086736 -5.035987663383349 21.495508569409544 0 0 0
1130 377 1 0.5897 -7.225323860707476 -1.6428577570423037 18.673597669137216 0 0 0
1248 416 1 0.5897 -5.754965800720629 -1.4158831203801503 20.674488452208735 0 0 0
1178 393 1 0.5897 -0.7936981845959856 -6.349471543196886 20.68366931287848 0 0 0
1129 377 2 -1.1794 -7.6512288911257516 -1.8510463087141744 17.842037256397987 0 0 0
1218 406 1 0.5897 -13.174230887041915 3.382886719052518 17.71827276543663 0 0 0
1131 377 1 0.5897 -6.980332194415332 -1.6834665535874276 17.1801314162149 0 0 0
1125 375 1 0.5897 1.3856775038884717 -4.545508146702343 17.45122770190187 0 0 0
1246 416 2 -1.1794 -6.132208574455816 -0.8765500844626768 19.979380748821157 0 0 0
1124 375 1 0.5897 1.1937043913000043 -5.765672501489542 16.576065987010765 0 0 0
1232 411 1 0.5897 -1.8686162030936195 1.2807976886072225 16.570228099112114 0 0 0
1226 409 1 0.5897 -7.886670110303489 -2.753823836890909 21.581139382764242 0 0 0
1121 374 1 0.5897 -4.704646052693206 -3.22782059611833 18.55457328839173 0 0 0
1219 407 2 -1.1794 -10.368182397837787 -1.8391611724782582 20.209976335341644 0 0 0
1099 367 2 -1.1794 -9.966003752158722 -0.458439576326672 17.100931493204428 0 0 0
1236 412 1 0.5897 -7.747229407480816 -0.07156556574620154 20.333113644728144 0 0 0
1009 337 2 -1.1794 -11.00420287417538 3.84589702743045 21.02177698343904 0 -1 0
1100 367 1 0.5897 -9.149586361861902 -0.802318098099434 17.463517991638298 0 0 0
1234 412 2 -1.1794 -8.60586180642679 0.35095033358819094 20.354264694947652 0 0 0
1259 420 1 0.5897 -8.97134512955663 1.9269285845622903 19.59343442948908 0 0 0
1258 420 2 -1.1794 -9.088352221013457 2.8128141533657427 19.2502033580153 0 0 0
1260 420 1 0.5897 -9.736692391022977 3.2113249833568194 19.83076036130103 0 0 0
1216 406 2 -1.1794 -12.310218320720791 2.9805274101691737 17.629920889454283 0 0 0
1197 399 1 0.5897 -9.499980986829994 2.5490457045963115 17.417744588595042 0 0 0
1206 402 1 0.5897 -11.222760910379472 0.21963291579001876 18.31546833025461 0 0 0
1235 412 1 0.5897 -9.229603624957887 -0.37444087988801833 20.384721931080037 0 0 0
1123 375 2 -1.1794 1.3325840491643817 -4.819488162078142 16.53561171646082 0 0 0
1132 378 2 -1.1794 -1.0345602712278001 -6.532873574041934 18.848102416787967 0 0 0
1110 370 1 0.5897 -10.11639346160772 -3.67280363103292 17.862403101491402 0 0 0
1253 418 1 0.5897 -3.9124208853647726 3.731143697007006 17.731788057249 0 0 0
1011 337 1 0.5897 -11.82257821044621 4.189454576503023 20.663314928993678 0 -1 0
1187 396 1 0.5897 1.7143948213637312 -5.136270780970646 19.58827309025162 0 0 0
1287 429 1 0.5897 -3.767755272627845 2.0111299793455206 21.54430201310199 0 0 0
1045 349 2 -1.1794 -3.3455105949928923 3.7698246236320365 20.95975535516186 0 -1 0
1204 402 2 -1.1794 -11.931676170347204 0.5866569539222741 18.84361582759125 0 0 0
1165 389 2 -1.1794 0.02324575591392808 -1.8155232262648067 17.873865188048747 0 0 0
1205 402 1 0.5897 -12.11411071365567 1.4366267389174965 18.442884467830915 0 0 0
1250 417 1 0.5897 -11.584251370901445 0.8956659827783824 20.628817110864425 0 0 0
1252 418 2 -1.1794 -4.494970959686189 2.9731322266627025 17.684724606211894 0 0 0
1240 414 2 -1.1794 -4.065547218197221 0.5126982846266976 18.887164020848573 0 0 0
1047 349 1 0.5897 -4.147792387097523 4.156171894080895 20.60854523455022 0 -1 0
1295 432 1 0.5897 -1.238222837055572 1.951011933860201 19.61618426849919 0 0 0
1247 416 1 0.5897 -5.376821780042007 -0.4723439046510727 19.55243412900387 0 0 0
1285 429 2 -1.1794 -3.952387043554232 1.07379961874625 21.60364783884041 0 0 0
1145 382 1 0.5897 -0.9789160308122309 -3.371145220663026 17.665404291250162 0 0 0
1122 374 1 0.5897 -4.413621611427017 -2.257799760717427 17.429124843277243 0 0 0
1242 414 1 0.5897 -3.3814302767072206 0.14729819618939288 18.32620467567505 0 0 0
1270 424 2 -1.1794 -0.9471892934933113 0.3585821843441739 20.42998667189699 0 0 0
1271 424 1 0.5897 -1.5363261774780366 -0.39441640775253894 20.38445036362191 0 0 0
1144 382 2 -1.1794 -1.6047263135927032 -4.095390785476393 17.66275272410664 0 0 0
1263 421 1 0.5897 -1.1355421409159483 -3.0090470163072993 20.613829062497828 0 0 0
1133 378 1 0.5897 -1.2103646073038306 -5.659328808827627 18.498373513061438 0 0 0
1188 396 1 0.5897 0.9204894688450018 -3.8572699520767912 19.748425582105362 0 0 0
1257 419 1 0.5897 -3.046778434603647 -2.1855114463516188 19.504881811331224 0 0 0
1255 419 2 -1.1794 -2.609167252036551 -1.9092329783137654 20.31009796496234 0 0 0
1261 421 2 -1.1794 -0.31574488131020395 -3.3775659515655754 20.94305572206001 0 0 0
1256 419 1 0.5897 -3.267152418153672 -2.0305421637598453 20.994672811531153 0 0 0
1120 374 2 -1.1794 -3.984187887862877 -2.817599905217831 18.076094390937833 0 0 0
1146 382 1 0.5897 -2.4612985475874627 -3.672646859486065 17.72431811292219 0 0 0
1195 399 2 -1.1794 -9.462125105266132 2.2305739117597643 16.515875380928627 0 0 0
1088 363 1 0.5897 -6.475227725236052 -5.776593480105449 16.65033269704206 0 0 0
1296 432 1 0.5897 -2.0534659751459383 3.212472915949995 19.805581583252675 0 0 0
1254 418 1 0.5897 -5.371851885566305 3.336267966898607 17.80892487719357 0 0 0
1135 379 2 -1.1794 -2.1545405526534545 -0.3887158655075993 17.09470499997805 0 0 0
1286 429 1 0.5897 -3.9550731241903128 0.7718995402578592 20.695310705316423 0 0 0
1136 379 1 0.5897 -1.380980972553493 -0.824481637150905 17.45245720257062 0 0 0
1272 424 1 0.5897 -0.06990065497476294 -0.018828691441004963 20.365633349358284 0 0 0
1241 414 1 0.5897 -4.192936531002982 1.4035402224215936 18.56088425766096 0 0 0
1141 381 2 -1.1794 -8.41426343423248 -5.986855060513767 21.548518949867443 0 0 0
1262 421 1 0.5897 -0.06276205922623568 -2.797018523851575 21.66075662683005 0 0 0
1249 417 2 -1.1794 -11.520965055910622 1.1825582953970013 21.539815509537327 0 0 0
1101 367 1 0.5897 -10.176572237666052 -1.0510580816989936 16.379410043941768 0 0 0
1097 366 1 0.5897 -8.88002709881707 -5.745773970722885 18.498574315942307 0 0 0
1179 393 1 0.5897 -0.6414112430523229 -5.136421848580849 21.57635460644447 0 0 0
1294 432 2 -1.1794 -1.4324439553824764 2.7951085777711793 19.208640591535428 0 0 0
1217 406 1 0.5897 -11.696510272384051 3.711413718986952 17.70291881167558 0 0 0
1229 410 1 0.5897 -7.658309939590286 3.69688845305129 18.464758097606754 0 0 0
1251 417 1 0.5897 -11.346414264381977 2.1220214124274985 21.483830226064207 0 0 0
1177 393 2 -1.1794 -0.8271400630156052 -6.07510486943669 21.600099569561195 0 0 0
1231 411 2 -1.1794 -1.7545364255643747 2.225562073716148 16.467174006929447 0 0 0
1221 407 1 0.5897 -10.775244469661727 -2.0534886417574976 19.37057530581761 0 0 0
1186 396 2 -1.1794 1.579345157391666 -4.2747105717155325 19.193581962855887 0 0 0
1137 379 1 0.5897 -2.4701665780814857 -0.9816055789454143 16.41280572839274 0 0 0
1096 366 2 -1.1794 -8.723961305044288 -6.603701956545283 18.89342040127157 0 0 0
1142 381 1 0.5897 -8.439250563548132 -6.276601143122585 20.636567530857384 0 0 0
758 253 1 0.5897 -9.35119212137533 -5.269678749746891 16.34343734073535 0 0 0
40 14 2 -1.1794 -15.100450984712015 3.876806105268484 1.8322436246191238 1 0 0
177 59 1 0.5897 -14.02376988638962 4.56487357758038 3.171458119976911 1 0 0
56 19 1 0.5897 -12.346721785291123 5.892805454567462 1.2001417802196672 1 0 0
66 22 1 0.5897 -13.471831137745426 3.0730677971152502 1.5773195854506379 1 0 0
65 22 1 0.5897 -11.990506075044468 3.375538697323904 1.6548114170222652 1 0 0
64 22 2 -1.1794 -12.61336969780836 2.6505223445456494 1.6042265934273376 1 0 0
191 64 1 0.5897 -12.462164385011508 6.244261902859257 4.0637459424340205 1 0 0
183 61 1 0.5897 -12.104524043206293 3.759435339329583 4.390708005162684 1 0 0
175 59 2 -1.1794 -13.586510013473854 4.766738972445367 3.9986723458876687 1 0 0
176 59 1 0.5897 -14.256159847461578 4.618870248002514 4.66651098560496 1 0 0
181 61 2 -1.1794 -11.281729532301853 3.418673883452321 4.741642484951651 1 0 0
55 19 2 -1.1794 -13.167601216609626 6.288071081133777 0.9065732902281387 1 0 0
42 14 1 0.5897 -15.553360172888368 4.415623941695916 1.1834692791392425 1 0 0
108 36 1 0.5897 -10.02443125256503 2.829819351866286 3.484863624776548 1 0 0
215 72 1 0.5897 -12.251264115814276 8.529009716424628 3.3141249575453884 1 0 0
190 64 2 -1.1794 -11.839225971603653 6.969218414338556 4.114206430399534 1 0 0
135 45 1 0.5897 -6.830396649757466 8.676096168955073 5.403069575344829 0 0 0
153 51 1 0.5897 -12.787392211911005 9.220118963329384 1.1535659638092521 1 0 0
216 72 1 0.5897 -13.101511989224623 9.766535886776111 3.507500994546133 1 0 0
162 54 1 0.5897 -14.399065783007197 6.868446308096274 2.1287583131752665 1 0 0
290 97 1 0.5897 -14.103661112265756 11.074156504206826 5.46944955417785 1 0 0
148 50 2 -1.1794 -18.023547525430377 10.841123410919725 1.8279853289881238 1 0 0
174 58 1 0.5897 -16.43958037404574 10.000592530984537 1.5432545946122187 1 0 0
214 72 2 -1.1794 -12.41559043528409 9.398972951916104 2.950170397976109 1 0 0
57 19 1 0.5897 -13.462897214665572 5.724787618454275 0.19128029311232453 1 0 0
206 69 1 0.5897 -14.746251581599797 7.465123709716863 4.48330521505877 1 0 0
160 54 2 -1.1794 -15.049738675794327 7.276249274912896 2.700175579092804 1 0 0
173 58 1 0.5897 -14.978038091376973 10.39518886657449 1.540759013620519 1 0 0
85 29 2 -1.1794 -10.852510344988513 4.851248964035815 1.5421258906099198 1 0 0
219 73 1 0.5897 -7.420027774669273 10.739207532285068 4.449005016315974 0 0 0
291 97 1 0.5897 -15.161504190140063 10.871623768308066 4.405577014881967 1 0 0
161 54 1 0.5897 -15.184512935233581 8.147337651692538 2.326898101579347 1 0 0
172 58 2 -1.1794 -15.557282702469273 9.636286376607373 1.4721959785033762 1 0 0
289 97 2 -1.1794 -14.344509135069346 10.502230335058886 4.740734168025763 1 0 0
283 95 2 -1.1794 -16.63160705787554 11.849058049321034 4.007143952232362 1 0 0
285 95 1 0.5897 -17.07087209760499 11.607383455089622 3.1917557851615235 1 0 0
284 95 1 0.5897 -17.279422689494684 11.67408542419404 4.689806094536371 1 0 0
150 50 1 0.5897 -18.420366594791467 11.383860677515766 1.1465616407860169 1 0 0