LAMMPS data file via write_data, version 30 Jul 2021, timestep = 1250000

972 atoms
2 atom types
648 bonds
1 bond types
324 angles
1 angle types

0.06035250610924159 19.939648493891628 xlo xhi
-0.039675217986900435 20.039676217987953 ylo yhi
0.09413854671264588 20.605859453290762 zlo zhi

Masses

1 1.008
2 15.999

Pair Coeffs # lj/cut/tip4p/long/omp

1 0 0
2 0.21084 3.1668

Bond Coeffs # harmonic/omp

1 450 0.9572

Angle Coeffs # harmonic/omp

1 55 104.52

Atoms # full

236 79 1 0.5897 0.9667186088571965 0.4026571986645902 2.6821987610090936 0 1 0
58 20 2 -1.1794 8.926762227472524 0.7017019204142053 4.897431852324035 0 0 0
23 8 1 0.5897 2.5072014215155995 0.9915134757693465 4.492008380093403 0 0 0
10 4 2 -1.1794 1.686252230107741 4.151511257325292 4.0586420485079255 0 0 0
11 4 1 0.5897 1.2313190353467416 3.4763289780456135 3.555251508370272 0 0 0
12 4 1 0.5897 2.5751358724977784 4.157314421519195 3.703695222098233 0 0 0
34 12 2 -1.1794 5.5653059610467 2.3135322328867267 0.17854814067905742 0 0 0
31 11 2 -1.1794 0.9289625631023484 2.212247598156962 2.0696543345548486 0 0 0
33 11 1 0.5897 1.5148455169884962 1.955232077325635 1.3576554633846247 0 0 0
16 6 2 -1.1794 4.14572816923814 4.014623852780264 2.9023326860312904 0 0 0
37 13 2 -1.1794 8.811196159034594 2.5255656848907324 0.2743342203034152 0 0 0
48 16 1 0.5897 7.422515479367069 3.86379191408861 4.694529682629373 0 0 0
4 2 2 -1.1794 3.909927712853322 1.0134963052142045 3.3089307282186944 0 0 0
18 6 1 0.5897 4.220115395385446 3.2148286599227136 2.381722768467462 0 0 0
68 23 1 0.5897 7.910188977432872 2.146656702904483 1.6045996229164703 0 0 0
5 2 1 0.5897 4.039098194945508 0.30902317540280616 2.673855130700066 0 0 0
67 23 2 -1.1794 7.415145895417792 1.8279455854811737 2.3593410452274037 0 0 0
47 16 1 0.5897 7.81306182235057 3.0136298271032036 3.504239993874846 0 0 0
69 23 1 0.5897 6.519053528845058 1.7343350280143541 2.0362647960015923 0 0 0
46 16 2 -1.1794 8.140176578860215 3.703293386329355 4.081827973358031 0 0 0
6 2 1 0.5897 4.604130407399281 0.8843913303667037 3.9551846829450743 0 0 0
17 6 1 0.5897 4.283377833354379 4.723534348076322 2.274023931752776 0 0 0
9 3 1 0.5897 5.071719475349801 4.110781857107827 4.529157327959532 0 0 0
29 10 1 0.5897 6.907801842644713 0.7365989863028662 4.641874066085387 0 0 0
53 18 1 0.5897 9.947535883422027 4.019834975049564 4.104520364963886 0 0 0
272 91 1 0.5897 7.509514778671153 0.03600492050448878 1.852945746216996 0 1 0
1 1 2 -1.1794 2.974090129487461 2.4328470104351387 0.11306273100259565 0 0 0
2 1 1 0.5897 2.744475636505881 3.3620643947964046 0.10863263480811486 0 0 0
102 34 1 0.5897 0.11477539518532565 1.1944717996327705 5.132617984779786 1 0 0
39 13 1 0.5897 9.68627690160133 2.4736805261019295 0.6585989995423992 0 0 0
28 10 2 -1.1794 6.0174254190623016 0.5448160663779408 4.936110683924323 0 0 0
3 1 1 0.5897 3.930843025915194 2.4222121989593797 0.1369983954881171 0 0 0
342 114 1 0.5897 3.7903750766846787 4.417259210498411 10.028983773836597 0 0 0
325 109 2 -1.1794 2.603331011825824 2.5496490904680402 7.357805656207245 0 0 0
326 109 1 0.5897 2.2286644849709107 1.8504352494288723 6.8221489641238895 0 0 0
327 109 1 0.5897 3.5423388792284083 2.5142392360304076 7.175901611502911 0 0 0
8 3 1 0.5897 5.503264146542835 3.5918996284064337 5.884385603732739 0 0 0
355 119 2 -1.1794 0.85367415130262 1.9637365911184124 9.490504959641209 0 0 0
356 119 1 0.5897 1.5732475212602217 2.2454718220478074 8.925667298190536 0 0 0
361 121 2 -1.1794 9.195719864111823 2.6317693317379813 6.9314003602781495 0 0 0
360 120 1 0.5897 5.600614480730669 1.5291225525388892 6.366437532128013 0 0 0
561 187 1 0.5897 1.0649852095353427 0.25811439061052965 9.126031144606975 0 1 0
59 20 1 0.5897 8.99626564075572 1.3620850586401327 5.586884168237248 0 0 0
359 120 1 0.5897 5.9358857019540245 2.28516540262935 7.634541643220226 0 0 0
358 120 2 -1.1794 5.242977443704739 2.1660995848528977 6.984980898223018 0 0 0
362 121 1 0.5897 9.275346471466396 3.5231708028208457 6.591880358533837 0 0 0
393 131 1 0.5897 7.36920279182706 1.4829059312665198 8.81176559960057 0 0 0
392 131 1 0.5897 8.086766005099344 2.695118234412511 8.257249492802938 0 0 0
7 3 2 -1.1794 5.536867461641343 4.368083930946076 5.325203200175705 0 0 0
391 131 2 -1.1794 7.3266044371653125 2.4385986914574596 8.779304872494716 0 0 0
27 9 1 0.5897 2.629195371309295 4.45028073049448 6.15472506091619 0 0 0
81 27 1 0.5897 0.15951590031008672 4.372091800486061 5.332768985101026 1 0 0
328 110 2 -1.1794 4.062621401437203 1.3730307870714773 10.039079565919067 0 0 0
330 110 1 0.5897 4.0793795529248325 0.82729720282021 9.252805444172761 0 0 0
357 119 1 0.5897 0.06300627924213811 2.1640618459330385 8.98961863297194 0 0 0
377 126 1 0.5897 9.698236619702312 4.361146969327949 10.325278118599675 0 0 0
22 8 2 -1.1794 2.0221381964255896 0.7903147473686711 5.292344821468592 0 0 0
685 229 2 -1.1794 9.228043876490176 2.5154369799171405 13.996092290654556 0 0 0
352 118 2 -1.1794 5.91391586616649 0.7983900999380468 12.364129691904594 0 0 0
350 117 1 0.5897 2.6520931270310646 4.548181612525569 13.702593063486198 0 0 0
649 217 2 -1.1794 2.5217457923256004 2.7703736220870834 14.032084037972972 0 0 0
650 217 1 0.5897 2.4045804017464483 2.1271805251948543 13.332903063084496 0 0 0
340 114 2 -1.1794 3.5872566160352886 3.820717691275195 10.749517042522731 0 0 0
346 116 2 -1.1794 2.1251505146409437 0.8795835109081614 12.047737595534546 0 0 0
332 111 1 0.5897 4.888461986093237 4.374726563871318 12.000340313608541 0 0 0
334 112 2 -1.1794 1.0980807392338692 4.33699475418961 10.961911608789922 0 0 0
683 228 1 0.5897 4.249491786529679 2.3620148049136356 14.432433475341272 0 0 0
651 217 1 0.5897 2.0378430223626203 2.408687425675484 14.774586465601553 0 0 0
383 128 1 0.5897 8.665302120228644 2.008098676677474 12.341935396211845 0 0 0
336 112 1 0.5897 2.022203906145452 4.1528320443973366 11.129788319529217 0 0 0
331 111 2 -1.1794 5.600076341381652 4.558702478600898 12.613492474494691 0 0 0
354 118 1 0.5897 5.628175381687745 1.152001056366094 13.20652817073054 0 0 0
684 228 1 0.5897 5.346974897982034 3.3178897051169973 14.015839200599265 0 0 0
329 110 1 0.5897 4.812907298203071 1.0756999434904249 10.553696276887582 0 0 0
372 124 1 0.5897 7.179182822087331 4.440558090156251 11.622955570642791 0 0 0
370 124 2 -1.1794 7.719805889343761 4.408286381601679 10.833721335500348 0 0 0
686 229 1 0.5897 8.870117900167317 2.6392833714353965 14.875234331829704 0 0 0
347 116 1 0.5897 1.2242499950692147 0.8410469069593448 11.726769998499163 0 0 0
348 116 1 0.5897 2.653531877239053 1.0237715844398916 11.262682087732745 0 0 0
353 118 1 0.5897 6.736045639012614 1.2524361483762558 12.179684806351496 0 0 0
682 228 2 -1.1794 5.201177754323963 2.463137142596152 14.421279143268912 0 0 0
384 128 1 0.5897 9.244216833363375 1.5393136631419873 11.02396361913903 0 0 0
382 128 2 -1.1794 8.442217246403851 1.5250703125428853 11.546207721463588 0 0 0
386 129 1 0.5897 9.332127072412401 4.168334203070385 13.767464145056282 0 0 0
341 114 1 0.5897 3.7031706952162717 2.94656154552533 10.377197504739915 0 0 0
335 112 1 0.5897 0.7892235641078117 3.5802227968622202 10.463783973197469 0 0 0
405 135 1 0.5897 0.21251980022890393 4.7790572488104 12.478789511815767 1 0 0
371 124 1 0.5897 7.519590483791608 3.5590118530196215 10.440185620023357 0 0 0
676 226 2 -1.1794 6.3690199341302645 0.6003268207625775 18.71806590857469 0 0 0
716 239 1 0.5897 7.61809917884371 1.27621648031065 16.108441033885995 0 0 0
652 218 2 -1.1794 4.275678730330231 1.3649258294818738 17.087214408907418 0 0 0
653 218 1 0.5897 3.5022669245843985 1.145405165865804 17.606586029982086 0 0 0
657 219 1 0.5897 6.365781886363127 4.287372290454131 18.66814346780057 0 0 0
696 232 1 0.5897 8.016530934705138 4.804104488621413 17.48446040780149 0 0 0
664 222 2 -1.1794 3.8078867321238357 4.088283734451586 16.95596653775803 0 0 0
677 226 1 0.5897 5.672081758227547 0.9579551623719943 18.168007701855327 0 0 0
666 222 1 0.5897 3.9516778485454402 3.1449549784073825 17.031258781558563 0 0 0
670 224 2 -1.1794 2.0024896062810145 0.788674790560708 18.737406433094325 0 0 0
671 224 1 0.5897 2.2478160248578423 1.4697661183612765 19.363658620707653 0 0 0
665 222 1 0.5897 2.861299936170369 4.194929063092493 17.049212426137583 0 0 0
702 234 1 0.5897 9.694936982458263 3.912652644025735 17.45914105400745 0 0 0
681 227 1 0.5897 1.2464238636457337 2.042921037142094 16.754656041268916 0 0 0
715 239 2 -1.1794 7.352014284623437 2.193365670606719 16.04329403267826 0 0 0
708 236 1 0.5897 8.18064386704733 0.6293113782011805 18.7755847620331 0 0 0
679 227 2 -1.1794 1.020239297451801 1.5590413429788046 15.960304476446435 0 0 0
38 13 1 0.5897 8.853345936417346 1.9589843326438112 20.015671317823294 0 0 -1
654 218 1 0.5897 4.407392517183746 0.6052454644040881 16.51996705783744 0 0 0
706 236 2 -1.1794 9.133434707432373 0.716347803319313 18.80170951852007 0 0 0
656 219 1 0.5897 4.906829056820758 4.661510653136365 18.51645994757954 0 0 0
710 237 1 0.5897 9.426061978449292 4.412379503160662 19.95395612875123 0 0 0
694 232 2 -1.1794 8.109542242210267 4.0099730243237515 18.010731601079282 0 0 0
695 232 1 0.5897 7.8776971364998545 3.2982520963949913 17.414107476727292 0 0 0
658 220 2 -1.1794 1.193703059640484 4.308189036386171 17.47014992687584 0 0 0
672 224 1 0.5897 1.1022360555361022 0.5617594543990877 18.970126967553988 0 0 0
659 220 1 0.5897 0.5370097248899509 4.4198596198350275 18.157540077092214 0 0 0
717 239 1 0.5897 6.577942113558527 2.1792525132377722 15.48043744969831 0 0 0
655 219 2 -1.1794 5.639423379855668 4.704975508237397 19.130953439451435 0 0 0
660 220 1 0.5897 0.972287215960591 4.971548731940772 16.816564216891305 0 0 0
36 12 1 0.5897 5.753065039620008 3.1909912990632274 20.357054194885265 0 0 -1
35 12 1 0.5897 5.908865042670357 1.7235003946625675 20.01937802052228 0 0 -1
680 227 1 0.5897 0.23607400286395422 1.996011155537221 15.628212568964514 0 0 0
110 37 1 0.5897 2.1703431178005297 9.329180020210652 0.6731415885449739 0 0 0
56 19 1 0.5897 7.157429275518625 5.638140730199941 1.6547032513046822 0 0 0
143 48 1 0.5897 5.91801366124361 9.018139701653345 1.2524104524762467 0 0 0
140 47 1 0.5897 1.1791410202227601 8.932258611659286 2.78489536779289 0 0 0
139 47 2 -1.1794 0.8930683653135281 8.700280119445356 1.9013327608577055 0 0 0
711 237 1 0.5897 9.089829896123621 5.5689021544987 0.3593780084386527 0 0 1
13 5 2 -1.1794 5.327117000501322 6.160547589176758 1.2358295585742562 0 0 0
141 47 1 0.5897 0.9078350104933894 7.743311179561051 1.887826542276536 0 0 0
112 38 2 -1.1794 4.3544921754585255 7.755136162127705 3.2306417536257084 0 0 0
114 38 1 0.5897 3.542865220030034 7.646372071702162 3.726210405884154 0 0 0
113 38 1 0.5897 5.048574249747091 7.573683426915119 3.864301049672577 0 0 0
167 56 1 0.5897 8.81158432929997 6.319115193272642 4.894848841492534 0 0 0
15 5 1 0.5897 4.940995104693286 6.917101739486425 1.6771447733196772 0 0 0
142 48 2 -1.1794 5.365583843744877 9.096867305849498 0.47466941475393515 0 0 0
19 7 2 -1.1794 1.0008647440894949 5.892763585811595 1.9431912901196253 0 0 0
55 19 2 -1.1794 8.064250543180123 5.6588652372922015 1.9602414632058711 0 0 0
14 5 1 0.5897 4.745476644522207 5.992424488872152 0.4944187604012385 0 0 0
126 42 1 0.5897 4.391639562927245 9.559915076929935 3.404923086243946 0 0 0
177 59 1 0.5897 8.287084144321735 8.573010012716695 1.3737485821674356 0 0 0
111 37 1 0.5897 3.6394166149031664 9.45421589695828 0.3300218832448583 0 0 0
175 59 2 -1.1794 7.716047823513843 8.512878562143246 2.1396318398898333 0 0 0
176 59 1 0.5897 7.766656021907645 7.594670731011251 2.405263168524565 0 0 0
20 7 1 0.5897 1.137163027255205 5.573950496406909 2.83544659666782 0 0 0
166 56 2 -1.1794 8.498153966601992 7.213643725561356 4.761499302410709 0 0 0
155 52 1 0.5897 7.995633464433374 9.807549506332204 3.496298789648823 0 0 0
674 225 1 0.5897 2.211015730765338 5.8174106433327974 0.5866617654643079 0 0 1
21 7 1 0.5897 0.0610354547351304 5.791358658238619 1.793075705902877 0 0 0
130 44 2 -1.1794 2.1296039881770983 7.341925121845162 4.696216202137489 0 0 0
138 46 1 0.5897 6.775611544441833 7.405135594923985 5.179823909128421 0 0 0
132 44 1 0.5897 1.1874195770435316 7.275901465148148 4.541273242028617 0 0 0
57 19 1 0.5897 8.083906539592713 5.046139763018796 2.6954286491794646 0 0 0
149 50 1 0.5897 9.945131459771611 7.80102646087542 3.74797205997393 0 0 0
437 146 1 0.5897 4.184059241512119 7.137778469513057 9.221371241366038 0 0 0
62 21 1 0.5897 8.499417168703301 5.431115665834735 7.369248812862137 0 0 0
433 145 2 -1.1794 2.5303190309218224 9.158430872139576 6.693162979796228 0 0 0
26 9 1 0.5897 2.0336680540839502 5.276560884439494 7.274824099898965 0 0 0
467 156 1 0.5897 5.511824554691447 8.466642739178496 6.698701803442511 0 0 0
464 155 1 0.5897 1.576178119580026 8.50678254268293 8.13193328385292 0 0 0
137 46 1 0.5897 5.620471164504466 6.48124672457306 5.501830747229186 0 0 0
345 115 1 0.5897 1.051041932739251 6.689272687814167 8.584601643912483 0 0 0
469 157 2 -1.1794 9.428130411435827 9.174404238928775 6.631528015696718 0 0 0
344 115 1 0.5897 1.1458273558990233 5.438393420158582 9.432102850873193 0 0 0
339 113 1 0.5897 3.9821301824069453 5.347471047153766 7.646006565919248 0 0 0
379 127 2 -1.1794 7.173425488990378 5.820548729215647 8.626809667878998 0 0 0
380 127 1 0.5897 7.5359036889929145 6.689921214392852 8.797078065348556 0 0 0
463 155 2 -1.1794 0.8890751661978302 8.467128605802387 8.797178721571743 0 0 0
436 146 2 -1.1794 4.129200271595288 7.741580435558803 9.96213422761732 0 0 0
25 9 2 -1.1794 2.581411326169982 5.344531175456414 6.492754302752924 0 0 0
466 156 2 -1.1794 5.223826651681368 9.157171744577743 7.295742880707388 0 0 0
343 115 2 -1.1794 0.8912001945239723 5.745798805991214 8.562042833660868 0 0 0
337 113 2 -1.1794 4.355778388594528 5.448499500575426 8.52150857148104 0 0 0
470 157 1 0.5897 8.935452770412345 9.011966501373257 7.4359896480590475 0 0 0
168 56 1 0.5897 8.87875244314437 7.711639016911998 5.4849787238824765 0 0 0
468 156 1 0.5897 4.275865293751896 9.201863375377318 7.171425182290416 0 0 0
435 145 1 0.5897 2.3330871799268924 8.609650136968792 5.934047023064159 0 0 0
501 167 1 0.5897 6.636815501162459 8.862318090676606 8.332791707270275 0 0 0
338 113 1 0.5897 5.301589249354251 5.390325187641396 8.386842387507002 0 0 0
499 167 2 -1.1794 7.503961476285973 8.678504496612511 8.693890908332978 0 0 0
500 167 1 0.5897 7.563452403302508 9.23490879833442 9.470547558561973 0 0 0
61 21 2 -1.1794 9.190045340679895 5.3506089357528115 6.711398985475977 0 0 0
136 46 2 -1.1794 5.845019155808076 7.406504666990228 5.403638696671727 0 0 0
465 155 1 0.5897 0.10882097712821415 8.80346361885559 8.356454318564289 0 0 0
381 127 1 0.5897 7.370743793103202 5.319121626624864 9.417987985813985 0 0 0
438 146 1 0.5897 4.217898926392303 8.610464848833852 9.570489429467294 0 0 0
63 21 1 0.5897 9.990990088824274 5.59898643046548 7.172879697894719 0 0 0
131 44 1 0.5897 2.3280618550527055 6.611988043997058 5.282757557850734 0 0 0
351 117 1 0.5897 3.4372336241724644 5.813521068578723 13.97507853139046 0 0 0
333 111 1 0.5897 5.523655543256629 5.495250982249188 12.795835790928642 0 0 0
790 264 2 -1.1794 5.398069282955182 9.852843779115112 13.71128887439912 0 0 0
705 235 1 0.5897 8.18635318230785 5.547876621067335 15.192234605510471 0 0 0
668 223 1 0.5897 0.8794432271883368 5.938575857547789 14.710467794125416 0 0 0
759 253 1 0.5897 2.6478024828973394 8.818542957401187 13.16564402772047 0 0 0
454 152 2 -1.1794 2.191996900225661 7.6901427338148345 11.880461334588162 0 0 0
455 152 1 0.5897 2.7481071301965807 7.667673715245884 11.101671381744044 0 0 0
456 152 1 0.5897 2.3994306902816835 6.88048062312576 12.347010581930299 0 0 0
349 117 2 -1.1794 2.636634264027963 5.49437560098029 13.558728877822881 0 0 0
492 164 1 0.5897 7.604355086663223 7.641740597632614 11.799497582727021 0 0 0
462 154 1 0.5897 5.04208102319399 7.629305067176276 11.658406178637629 0 0 0
490 164 2 -1.1794 8.508590097952698 7.619898383330783 12.112536766303982 0 0 0
792 264 1 0.5897 4.486760058974316 9.698867049347054 13.9601321493556 0 0 0
794 265 1 0.5897 9.067263955200353 9.010103019707444 13.456447217145705 0 0 0
461 154 1 0.5897 5.669943266720358 8.396686455700825 12.80248806609351 0 0 0
791 264 1 0.5897 5.909038454164119 9.370804496997415 14.36152156629803 0 0 0
793 265 2 -1.1794 9.229041132288769 9.486493178130244 14.270821757853103 0 0 0
460 154 2 -1.1794 5.583502203904358 7.5152296440759505 12.439516844596765 0 0 0
385 129 2 -1.1794 9.387492505331071 5.1139376652466355 13.905150314707006 0 0 0
757 253 2 -1.1794 2.7112560453599057 9.417968061082718 13.909262767668181 0 0 0
387 129 1 0.5897 9.144929755073967 5.494027263456226 13.060758259276326 0 0 0
491 164 1 0.5897 9.031489322909168 7.8786811106937735 11.353662646078845 0 0 0
789 263 1 0.5897 1.4759618324288317 8.892881255685307 15.29907278441415 0 0 0
824 275 1 0.5897 7.744539747253878 8.850555553997 15.092077355504216 0 0 0
661 221 2 -1.1794 4.903619447583708 5.8600988339091 15.159425006018113 0 0 0
704 235 1 0.5897 6.681131406565143 5.659735915311152 15.307609809606634 0 0 0
533 178 1 0.5897 0.43404973006114816 7.581837260460671 11.564806366568703 1 0 0
443 148 1 0.5897 1.3262947329653074 9.849731235968079 10.394657692331126 0 0 0
760 254 2 -1.1794 4.059662835986968 8.043704557921625 16.474443538455624 0 0 0
145 49 2 -1.1794 8.939406604333318 9.237071426631118 20.303764206162803 0 0 -1
662 221 1 0.5897 4.549325647046571 5.21332358590491 15.769686269099235 0 0 0
858 286 1 0.5897 0.547005669859945 7.302630561908401 18.58471926540975 1 0 0
778 260 2 -1.1794 2.3271773689012702 7.544114595187861 18.608983801021505 0 0 0
779 260 1 0.5897 2.552004817097868 8.234629750160401 19.232616437675482 0 0 0
780 260 1 0.5897 2.788629603375136 7.786235577560672 17.806024398542547 0 0 0
787 263 2 -1.1794 0.8136389037770545 8.650411497321583 15.946175408318151 0 0 0
709 237 2 -1.1794 9.762163410276266 5.251676354999512 20.26816609217406 0 0 0
762 254 1 0.5897 4.830721339168588 7.976497488566999 17.037579156028247 0 0 0
786 262 1 0.5897 6.845839217413364 7.062727673534337 18.526989989393115 0 0 0
785 262 1 0.5897 5.43680208473996 6.513704779014233 18.4580168904212 0 0 0
675 225 1 0.5897 2.7066866208862783 6.088456150391162 19.693748341949263 0 0 0
815 272 1 0.5897 9.074695215655312 6.5051195327692755 19.080794424172836 0 0 0
784 262 2 -1.1794 5.928750471313991 7.334143233536186 18.490205507343774 0 0 0
788 263 1 0.5897 0.7701768009447397 9.401360851288922 16.538177628487144 0 0 0
814 272 2 -1.1794 8.571010949566416 7.163598005716573 18.60234579786855 0 0 0
825 275 1 0.5897 6.9897245184511165 7.701483307997836 15.725910076693966 0 0 0
816 272 1 0.5897 8.723406395963437 7.977668292501129 19.082251199981616 0 0 0
761 254 1 0.5897 3.988224114469041 8.977294379491072 16.275811700006287 0 0 0
703 235 2 -1.1794 7.485747648357838 5.7122879405759015 15.823363746120712 0 0 0
669 223 1 0.5897 0.870497894024851 6.970076414514491 15.818615612870385 0 0 0
144 48 1 0.5897 5.556371536394487 8.310145346707722 20.475695504681863 0 0 -1
673 225 2 -1.1794 2.9448822293260415 5.6457101887358 20.50833308031414 0 0 0
804 268 1 0.5897 7.38436627705849 9.729873040427487 16.905488082842954 0 0 0
797 266 1 0.5897 9.896891411612803 7.668155903445615 17.535889234616267 0 0 0
147 49 1 0.5897 9.856509577913076 9.084063211598185 20.530956951504344 0 0 -1
109 37 2 -1.1794 2.7658517126449245 9.681951429262035 20.523697037507297 0 0 -1
663 221 1 0.5897 4.606936019405979 6.7025249529609345 15.503663213678015 0 0 0
667 223 2 -1.1794 0.5312017190340159 6.105713501374268 15.586328261864491 0 0 0
823 275 2 -1.1794 6.944583966741382 8.64580591981536 15.57614642236537 0 0 0
118 40 2 -1.1794 1.6894761901410698 11.061933075600683 3.8568145780199914 0 0 0
120 40 1 0.5897 1.3922409485771137 11.681407133919498 3.190337524275298 0 0 0
274 92 2 -1.1794 8.53863927310837 13.694728785338347 5.1465837449154 0 0 0
124 42 2 -1.1794 4.376575100600866 10.504524554408178 3.558833286053134 0 0 0
125 42 1 0.5897 4.887849117641713 10.625508961095246 4.3589745593046665 0 0 0
119 40 1 0.5897 2.6390503864747434 11.024230879683543 3.7428704016727883 0 0 0
122 41 1 0.5897 4.653322145138261 11.673709142937778 2.2656943948675026 0 0 0
156 52 1 0.5897 9.20239339810449 10.620049292210929 3.9149186338551214 0 0 0
276 92 1 0.5897 9.021106084309517 14.078497459567036 4.414306044396545 0 0 0
222 74 1 0.5897 4.40018817965167 13.741605837912587 2.6755541385317776 0 0 0
123 41 1 0.5897 4.442647861731645 12.433103603595132 0.9730098625108936 0 0 0
240 80 1 0.5897 2.7117844482319384 14.228545245206758 4.6550860821351545 0 0 0
285 95 1 0.5897 7.528958688472423 14.584055419902207 2.0066274109529516 0 0 0
121 41 2 -1.1794 5.088441912803304 12.275475655567256 1.6617149140759426 0 0 0
129 43 1 0.5897 1.0404174112795794 13.709653026118309 2.259801754655592 0 0 0
819 273 1 0.5897 8.61214427935125 12.29510476327026 0.5711390791693572 0 0 1
246 82 1 0.5897 5.050634318945648 14.27722755216154 4.9202531947508925 0 0 0
154 52 2 -1.1794 8.252040369450631 10.569033065358838 4.016476710359095 0 0 0
163 55 2 -1.1794 7.89467876272991 12.48515289023605 2.10528736567342 0 0 0
164 55 1 0.5897 6.985505626746405 12.26400581803066 1.9038459798167096 0 0 0
165 55 1 0.5897 8.07437066823954 12.033789857737885 2.9300986346096147 0 0 0
127 43 2 -1.1794 1.03433251687831 12.835754697562745 1.8692852293086168 0 0 0
220 74 2 -1.1794 4.135339301515444 14.315609130357448 3.3943443153674275 0 0 0
238 80 2 -1.1794 1.8924907778092435 13.944369965168754 5.060249315474375 0 0 0
783 261 1 0.5897 2.2031076632200888 12.638486800055453 0.32757260490797535 0 0 1
275 92 1 0.5897 7.6468161343044265 14.027597366460798 5.047049103142372 0 0 0
128 43 1 0.5897 0.11304295706972031 12.667594312140848 1.6716686779028374 0 0 0
317 106 1 0.5897 0.23018479451171106 14.108111629308912 5.163757829032493 1 0 0
133 45 2 -1.1794 2.168192844484049 11.780925568385042 6.670452308114765 0 0 0
134 45 1 0.5897 1.4027760008750727 11.949082308248379 7.220014945039034 0 0 0
135 45 1 0.5897 2.911649409516707 12.069099972607802 7.199999676584798 0 0 0
170 57 1 0.5897 9.252214409486257 12.25510463220574 6.040740581122593 0 0 0
117 39 1 0.5897 5.713263871343844 10.63782074414114 6.526323859916204 0 0 0
169 57 2 -1.1794 9.353698248494085 11.81426510794705 6.8843525510733885 0 0 0
244 82 2 -1.1794 5.786780930498773 14.136553861576383 5.515643996118513 0 0 0
446 149 1 0.5897 4.149266366434362 13.092577265698317 9.042463396011659 0 0 0
447 149 1 0.5897 5.220957744573024 12.322080973617973 8.30129262873492 0 0 0
451 151 2 -1.1794 0.43724242203664815 12.541525427418472 8.698870015923307 0 0 0
450 150 1 0.5897 3.9093197206819585 11.43194570138739 9.762526606641313 0 0 0
453 151 1 0.5897 0.740714272914046 11.93151754387581 9.371238760676576 0 0 0
171 57 1 0.5897 9.366760743573552 10.881966788799353 6.667845582425326 0 0 0
489 163 1 0.5897 7.158590143090985 13.335489434284966 8.722711639549727 0 0 0
487 163 2 -1.1794 7.098822490297052 12.408983142309161 8.489873494118735 0 0 0
488 163 1 0.5897 7.731583326738236 12.298559568306276 7.780177308665014 0 0 0
239 80 1 0.5897 2.1050474369356618 13.105088594865926 5.468498961828237 0 0 0
445 149 2 -1.1794 4.292110955062129 12.550419923884176 8.266708625201437 0 0 0
434 145 1 0.5897 2.4529442464154734 10.055206086790182 6.367518263339805 0 0 0
573 191 1 0.5897 0.48752712899888057 14.32180748631082 9.197320992051955 0 0 0
544 182 2 -1.1794 3.950675503588382 14.559844169013827 10.028311530055932 0 0 0
116 39 1 0.5897 6.809407197075154 11.007378184999144 5.5497106794935185 0 0 0
480 160 1 0.5897 7.484859438166969 11.397875310713273 9.881287876438376 0 0 0
579 193 1 0.5897 9.114790462413913 14.85380712318162 6.600706253342071 0 0 0
115 39 2 -1.1794 5.972554218537252 11.31315983370662 5.899452418647558 0 0 0
245 82 1 0.5897 5.885860000285228 13.185297803615232 5.554222636278285 0 0 0
188 63 1 0.5897 0.1339485545742239 11.195635644434802 5.253517076040483 1 0 0
546 182 1 0.5897 4.83243904460094 14.397078075732415 10.363147786155519 0 0 0
442 148 2 -1.1794 1.2788833680859653 10.776828293816948 10.628042482486752 0 0 0
457 153 2 -1.1794 2.6990233777473858 12.0926232482469 13.230396906827263 0 0 0
458 153 1 0.5897 2.031513390481585 12.350998430654947 13.86592222300576 0 0 0
459 153 1 0.5897 3.5301891216585095 12.24865498881844 13.678681108306444 0 0 0
545 182 1 0.5897 3.4031170231756125 14.61521248075553 10.811505732154046 0 0 0
562 188 2 -1.1794 1.8154347406049167 14.3535011512262 12.065749051274743 0 0 0
563 188 1 0.5897 2.241590567985953 13.538447497313147 12.33085143464587 0 0 0
564 188 1 0.5897 2.1560776530638255 15.010798201406615 12.67253594299985 0 0 0
478 160 2 -1.1794 7.69421532900317 10.77576650279748 10.578030481009034 0 0 0
570 190 1 0.5897 6.682872365116912 14.73551498965801 11.301565554670027 0 0 0
795 265 1 0.5897 9.15523409618285 10.40934011604521 14.027657696341704 0 0 0
770 257 1 0.5897 5.616576166385828 12.597893435713384 15.138014982171548 0 0 0
440 147 1 0.5897 6.399532856350951 11.503866839666777 11.58465916531094 0 0 0
439 147 2 -1.1794 5.777651706826335 12.012429970696036 12.105072044352488 0 0 0
569 190 1 0.5897 5.835905481167637 13.732955228028782 12.056128016514055 0 0 0
444 148 1 0.5897 2.1798863332747715 11.01608503380721 10.844975883670703 0 0 0
494 165 1 0.5897 8.182954384896432 12.303006864541642 14.097749736513515 0 0 0
568 190 2 -1.1794 5.886967666196742 14.661169748987419 11.828038049234717 0 0 0
493 165 2 -1.1794 8.849892378657788 12.236406173759338 13.414388450534625 0 0 0
441 147 1 0.5897 5.747392956605091 11.562976731367586 12.949710681526557 0 0 0
598 200 2 -1.1794 8.924073465450533 14.517539589333355 11.770406734854445 0 0 0
599 200 1 0.5897 8.938778398366837 13.71390273276568 12.2902313282924 0 0 0
449 150 1 0.5897 4.570250732033789 11.068536212566901 11.075239468329347 0 0 0
769 257 2 -1.1794 4.674888137228833 12.664608158183604 14.9804308548613 0 0 0
479 160 1 0.5897 8.568908403558536 11.030025635542414 10.871932289419894 0 0 0
758 253 1 0.5897 2.5922102456245044 10.287529286054205 13.527289559233745 0 0 0
775 259 2 -1.1794 0.9391352969045001 12.788159741031505 15.26295396641497 0 0 0
495 165 1 0.5897 9.681570948051016 12.29824792705476 13.88411646475952 0 0 0
771 257 1 0.5897 4.406013733279256 13.44739849717833 15.461241567105802 0 0 0
448 150 2 -1.1794 3.9100206082316786 10.767079098567901 10.451180601239972 0 0 0
777 259 1 0.5897 1.138210108490323 13.700374288159443 15.473684104310378 0 0 0
886 296 2 -1.1794 2.150196081307874 14.540897003427748 18.46591928358445 0 0 0
813 271 1 0.5897 7.323240429831316 12.048050409431983 16.4308916825008 0 0 0
773 258 1 0.5897 2.885167113857317 10.831662312691842 16.71418840186695 0 0 0
768 256 1 0.5897 0.9620402007057065 11.613375964589673 16.602109001182193 0 0 0
818 273 1 0.5897 9.109168991858247 12.57648318083973 19.680733766952134 0 0 0
888 296 1 0.5897 2.411883438354757 13.80308007478532 19.016744871653128 0 0 0
774 258 1 0.5897 4.1235426102681405 11.384612852314678 16.041642925622376 0 0 0
965 322 1 0.5897 0.40301629443139597 14.216374298913312 18.478799623683248 1 0 0
810 270 1 0.5897 9.612325144439561 10.829988450732303 17.80494442178805 0 0 0
803 268 1 0.5897 6.918292026050419 10.540502305983669 18.09615294727714 0 0 0
869 290 1 0.5897 3.2416779704652496 14.789521345157128 17.095841613047575 0 0 0
923 308 1 0.5897 8.916553193089976 14.56875649699061 19.424678458290924 0 0 0
802 268 2 -1.1794 7.631391252942794 10.468698523069403 17.461692282980007 0 0 0
766 256 2 -1.1794 1.137293453611421 10.989769181630908 17.306868088835568 0 0 0
767 256 1 0.5897 0.34930125017709274 11.013336640149921 17.849718350835076 0 0 0
765 255 1 0.5897 5.129731128204999 10.465929291788962 19.812382817312077 0 0 0
893 298 1 0.5897 6.664950167821717 13.935496511908212 18.779076029276293 0 0 0
811 271 2 -1.1794 7.184479766927009 12.731564402573657 15.77531370207148 0 0 0
772 258 2 -1.1794 3.838843964421763 10.751611884283141 16.700809444712156 0 0 0
868 290 2 -1.1794 4.075548035279353 14.74644255977419 16.62790874883125 0 0 0
922 308 2 -1.1794 8.574249306088035 13.958641912327293 18.77132750753997 0 0 0
894 298 1 0.5897 5.697427729177788 12.771182288280707 18.77882096787268 0 0 0
870 290 1 0.5897 4.703320927123666 14.44338715745596 17.28387350144951 0 0 0
764 255 1 0.5897 4.516126902963458 10.902849784395979 18.499096252826824 0 0 0
763 255 2 -1.1794 5.2860568068524465 11.028313927587211 19.053721691616236 0 0 0
892 298 2 -1.1794 5.742716145580006 13.717781009039346 18.644211011573784 0 0 0
817 273 2 -1.1794 9.151059614833914 11.926967442260546 20.382636295982735 0 0 0
924 308 1 0.5897 9.165110375124753 14.050840212170264 18.023895594284014 0 0 0
812 271 1 0.5897 7.4976453373873495 13.53313946733457 16.194399830460664 0 0 0
146 49 1 0.5897 8.860854394340741 10.189585731575695 20.251258573311233 0 0 -1
252 84 1 0.5897 5.164554855108116 14.997958599927944 20.19591086935918 0 0 -1
781 261 2 -1.1794 3.010380917035379 12.483815981203126 20.34882571647952 0 0 0
782 261 1 0.5897 2.994496535145952 11.547745096035948 20.149491570227095 0 0 0
250 84 2 -1.1794 5.076507361353303 15.579346331304695 0.43951467729069515 0 0 0
254 85 1 0.5897 8.920046919275949 15.762839447997688 0.6981307604817214 0 0 0
263 88 1 0.5897 8.314327868991452 17.74722459691529 4.825341688492715 0 0 0
284 95 1 0.5897 7.748354107862107 15.917254683797546 2.6895378719016403 0 0 0
249 83 1 0.5897 1.5006867787002702 15.576535337423236 1.6361307209225582 0 0 0
228 76 1 0.5897 1.4986316910801423 17.810134882673534 4.925862080387499 0 0 0
235 79 2 -1.1794 0.9588789531212847 19.57305196454777 2.3822748837935754 0 0 0
230 77 1 0.5897 4.241724080471029 18.946269440252834 0.954026630810226 0 0 0
234 78 1 0.5897 3.6115023853463564 17.37338726468199 3.8600399624925026 0 0 0
226 76 2 -1.1794 1.644342901766168 17.368276795369226 4.089283614391139 0 0 0
227 76 1 0.5897 1.2791592568016865 17.96486751546836 3.4358558342039567 0 0 0