LAMMPS data file via write_data, version 30 Jul 2021, timestep = 7500000

864 atoms
2 atom types
576 bonds
1 bond types
288 angles
1 angle types

0.3531389623203598 17.85443343767747 xlo xhi
1.5074823218514233 22.12169547815364 ylo yhi
0.4308287091994032 21.782367090805067 zlo zhi

Masses

1 1.00794
2 15.9994

Pair Coeffs # lj/cut/tip4p/long/omp

1 0 0
2 0.21084 3.1668

Bond Coeffs # harmonic/omp

1 450 0.9572

Angle Coeffs # harmonic/omp

1 55 104.52

Atoms # full

381 1 1 0.5897 6.078985016963007 5.748501028833052 3.776167254411384 8 3 1
682 1 2 -1.1794 4.0703948440993365 3.491323606431607 3.038882809157568 4 2 -4
683 1 1 0.5897 4.369664222486002 3.023167757599123 3.8182593816303543 4 2 -4
388 1 2 -1.1794 6.0746470043367005 2.491975930518941 1.543311575148388 3 6 5
416 1 1 0.5897 2.4539078802875816 4.227990699745144 3.130851887405673 0 -1 -1
614 1 1 0.5897 5.955795145601235 1.7038766646425287 4.944517472135832 -5 3 2
389 1 1 0.5897 6.370665360094279 2.3760158620764726 0.6404883968025701 3 6 4
761 1 1 0.5897 7.564545548794657 5.296169398794037 1.810060697265875 -2 -3 -2
415 1 2 -1.1794 1.7191615106286235 4.830234394841877 3.014109827567767 0 -1 -1
762 1 1 0.5897 8.277989982257765 4.6609260889477895 2.984447466680702 -2 -3 -2
684 1 1 0.5897 4.723703680058228 3.2862093704029975 2.37009280035047 4 2 -4
380 1 1 0.5897 4.688748666461969 5.158324221153938 3.672960006026374 8 3 1
417 1 1 0.5897 1.431846966339178 5.033607724409256 3.904215474475941 0 -1 -1
760 1 2 -1.1794 7.577811398154789 5.276229986221134 2.766931571384146 -2 -3 -2
379 1 2 -1.1794 5.185450366159133 5.854726881102527 4.102470359950591 8 3 1
206 1 1 0.5897 1.2411492434522238 5.790536124788872 1.4513307148734071 -6 3 -4
273 1 1 0.5897 3.3805105998646385 1.8327459596134794 2.6778525246651173 -2 5 3
205 1 2 -1.1794 0.8863867960490205 6.216908349448437 0.67125657319579 -6 3 -4
390 1 1 0.5897 6.597265914119852 1.8696476960387831 2.0490226626212955 3 6 5
749 1 1 0.5897 0.5966561768282299 3.4644287049752007 2.7666320354526417 4 5 1
613 1 2 -1.1794 5.16733981717954 2.1913488698801524 5.182990043329291 -5 3 3
640 1 2 -1.1794 6.010210606826416 4.14869232590808 10.136824817096846 5 4 -4
837 1 1 0.5897 5.044854104496918 5.745842267312587 5.789450541966249 -1 3 -1
835 1 2 -1.1794 5.29179842044812 6.034643682473697 6.66796479512092 -1 3 -1
410 1 1 0.5897 8.345237727331455 6.005964235611996 6.43497181415681 4 5 -4
550 1 2 -1.1794 8.718199239214771 2.981312596916756 10.599846184451387 -7 6 -3
342 1 1 0.5897 4.291920308572843 6.571003134905302 8.198803271989842 3 5 2
642 1 1 0.5897 5.701057237246369 4.069230581130439 9.234451246124411 5 4 -4
310 1 2 -1.1794 4.8837729792183255 3.1686594690618457 7.6721668747772265 0 4 1
615 1 1 0.5897 5.3977711689162176 2.636304641424091 5.998514047797933 -5 3 3
186 1 1 0.5897 1.2669471907705483 3.502117098761213 10.174100504669962 -2 8 3
641 1 1 0.5897 6.867620793568802 3.7232305628625837 10.135099786521792 5 4 -4
300 1 1 0.5897 2.131089204242387 3.3681426801261596 8.217805312658836 -6 -1 0
185 1 1 0.5897 1.4541300511866022 2.0005629497559596 10.219331065483745 -2 8 3
409 1 2 -1.1794 8.03785108975575 5.477958322817778 7.171789947572103 4 5 -4
312 1 1 0.5897 3.9547752397451523 3.3067669643678794 7.487618078143501 0 4 1
643 1 2 -1.1794 1.082666921334844 5.453136430283569 5.834305037059312 3 -2 0
184 1 2 -1.1794 1.8913565780484447 2.810260237262169 9.955889691288021 -2 8 3
299 1 1 0.5897 2.3068357475798247 2.4310044347362307 7.041948674255188 -6 -1 0
411 1 1 0.5897 8.031837363709972 6.082256892757017 7.91406410691045 4 5 -4
340 1 2 -1.1794 3.7339624400707216 6.642800288539855 8.973205470601883 3 5 2
836 1 1 0.5897 6.106017383186474 5.567188196464455 6.854229051588319 -1 3 -1
311 1 1 0.5897 4.925684668433345 2.289211584967814 8.04765736829565 0 4 1
298 1 2 -1.1794 2.2580251220863388 3.3595413947120423 7.269116832780276 -6 -1 0
864 1 1 0.5897 8.890277473709398 3.865801066099027 6.665689441172968 0 -1 4
644 1 1 0.5897 1.177985878781913 6.2532213515830675 6.350978607659261 3 -2 0
863 1 1 0.5897 8.641748979697738 2.4479012378726934 6.197160870592923 0 -1 4
370 1 2 -1.1794 0.4621483479561687 4.941777830670771 10.864284458784462 2 7 -3
645 1 1 0.5897 1.5715894642837152 4.791687614596448 6.323797557031574 3 -2 0
371 1 1 0.5897 1.2377276842913694 5.452002270957491 11.09734067413255 2 7 -3
558 1 1 0.5897 1.3701655293881103 3.4315408729957415 13.227249812222455 5 0 0
217 1 2 -1.1794 3.328124663802939 1.736234598332758 15.612414866199993 6 -1 -2
130 1 2 -1.1794 7.115366410003765 1.9185588752329328 14.820463708264466 -6 2 -1
557 1 1 0.5897 2.073471068155736 4.7632458099424575 13.07338820249133 5 0 0
274 1 2 -1.1794 1.4668952078417001 5.499321101317436 15.75703503522828 -2 4 -4
500 1 1 0.5897 5.283617858590806 2.594237965383508 14.073060740968781 0 1 -3
556 1 2 -1.1794 2.11713707399546 3.9349082880449138 13.551012628711545 5 0 0
276 1 1 0.5897 1.7203372838925153 4.760017716749314 15.204438564274568 -2 4 -4
131 1 1 0.5897 7.424050027638386 2.8067172742693547 14.641422561693208 -6 2 -1
334 1 2 -1.1794 4.983551506697946 6.228906611188148 11.879310320864608 4 0 2
275 1 1 0.5897 0.534313062062602 5.364577072582902 15.925259311707467 -2 4 -4
501 1 1 0.5897 3.9818253762210203 3.272282224753884 13.70247797847225 0 1 -3
499 1 2 -1.1794 4.921465076024727 3.2870683293607694 13.520741645265213 0 1 -3
461 1 1 0.5897 7.671447814507718 4.804341230523386 14.703317567458534 0 4 -2
218 1 1 0.5897 2.413307776338975 1.8311524966755188 15.877503997174308 6 -1 -2
48 1 1 0.5897 5.487600245558206 5.708932218825216 14.198326602727294 3 -1 1
821 1 1 0.5897 3.1279548429976063 6.399340321989022 12.155332673347482 2 4 4
46 1 2 -1.1794 6.05818882136503 5.735819369236557 14.966368574570465 3 -1 1
820 1 2 -1.1794 2.1882355966149944 6.5309210623074305 12.029685943928945 2 4 4
335 1 1 0.5897 5.409426145403093 5.486887667158249 11.450122156126419 4 0 2
530 1 1 0.5897 5.008663230997623 4.411695818194618 15.945205617608941 0 -1 -8
460 1 2 -1.1794 8.403474322147845 4.333812032652626 14.304693770365011 0 4 -2
697 1 2 -1.1794 8.629288871622826 5.954944160204958 12.141057751627946 -1 4 -2
698 1 1 0.5897 8.472162419584983 5.405994819860798 12.90928061840481 -1 4 -2
116 1 1 0.5897 7.468872707868003 1.9385670136973678 11.598803392916583 -2 -1 3
132 1 1 0.5897 7.27098066752453 1.7945783939757485 15.756727526403058 -6 2 -1
47 1 1 0.5897 5.944462381935166 6.618352882148764 15.319040043746368 3 -1 1
513 1 1 0.5897 4.4461852684047924 2.2362680151218477 12.25239823740295 -2 3 -4
219 1 1 0.5897 3.7754112112335583 2.4750993732478594 16.0249465758893 6 -1 -2
511 1 2 -1.1794 4.110242624685938 1.676724037224407 11.552244178498364 -2 3 -4
512 1 1 0.5897 3.3033302246368548 2.1061052417250603 11.268191699532636 -2 3 -4
420 1 1 0.5897 1.927915252036975 2.128446121711455 21.01503654606979 -10 -3 4
756 1 1 0.5897 7.257426905781317 5.95718372773434 21.007492616145115 -4 0 -5
689 1 1 0.5897 7.143281542994656 4.33006423232186 18.866595684138627 3 -1 3
726 1 1 0.5897 1.5633980378588035 3.4853630772636377 19.14631199092206 -2 -2 2
418 1 2 -1.1794 1.3149964749524252 1.6818882265657313 21.59913979667385 -10 -3 4
289 1 2 -1.1794 7.067884740451164 2.5838467741736655 20.201549571903836 -9 -5 -7
290 1 1 0.5897 6.336846844295216 2.2731249394190636 19.66750708819728 -9 -5 -7
688 1 2 -1.1794 7.337016122601464 4.836595599187742 18.077887705527896 3 -1 3
755 1 1 0.5897 7.622129456298774 4.488177191414071 20.980372323078786 -4 0 -5
529 1 2 -1.1794 4.568480265229668 3.98824814043023 16.682164728126633 0 -1 -8
628 1 2 -1.1794 3.3545401868098894 5.526366037382693 20.79867292306717 -1 -5 4
724 1 2 -1.1794 2.391599622427236 3.1326810797251117 19.471712053319465 -2 -2 2
531 1 1 0.5897 4.126974077535696 4.703009736810127 17.1408142849271 0 -1 -8
97 1 2 -1.1794 0.7074753605187404 1.9433140051274924 16.688026145202766 1 -8 4
725 1 1 0.5897 2.7969120763708495 3.863612204471033 19.9382341311229 -2 -2 2
751 1 2 -1.1794 4.875584393982699 1.7376288573165861 18.972244662723945 3 1 -1
752 1 1 0.5897 4.224189910600761 2.4351343830528207 18.89905538383933 3 1 -1
575 1 1 0.5897 2.373136457800869 5.8000216848739266 17.342473864870932 1 1 -2
630 1 1 0.5897 3.3280885313055015 5.79849692444327 19.8813896708858 -1 -5 4
753 1 1 0.5897 5.246600461705142 1.6625431929318224 18.093097442004495 3 1 -1
690 1 1 0.5897 6.611025692914285 4.643944608350587 17.484602340559892 3 -1 3
600 1 1 0.5897 5.0934853531145325 6.150650942246103 20.77040872099647 2 -2 -4
96 1 1 0.5897 7.956076541505447 2.218416534888191 18.015899715576637 -2 3 0
574 1 2 -1.1794 3.0890656706585062 6.024641779963258 17.93674179748341 1 1 -2
291 1 1 0.5897 7.754656049161871 1.929811417797412 20.07207167837388 -9 -5 -7
629 1 1 0.5897 2.5130986683915317 5.808647302913923 21.1570941955634 -1 -5 4
754 1 2 -1.1794 7.95414050098013 5.3457261713120126 21.245972369888847 -4 0 -5
94 1 2 -1.1794 7.364774068523134 1.6403476427189707 17.5338649817054 -2 3 0
828 1 1 0.5897 5.167579150816141 7.180844299231345 2.95268863037905 1 3 0
140 1 1 0.5897 1.8361386066185659 8.962914882056348 1.590651541313758 -2 -1 0
532 1 2 -1.1794 3.406127842440914 9.700214704876052 1.6701492218567575 -7 -2 1
827 1 1 0.5897 5.470812958121617 7.274265879450318 1.4724689723114122 1 3 0
826 1 2 -1.1794 5.323239282518444 7.812216330663267 2.2503188194451744 1 3 0
533 1 1 0.5897 3.6621697277056136 10.560293004305224 2.0031492101884956 -7 -2 1
477 1 1 0.5897 6.667853327813312 9.034196574350496 2.445093958258686 4 -4 0
509 1 1 0.5897 3.082243269439014 9.254064951880713 5.553607195876529 4 0 2
510 1 1 0.5897 1.5845664867107134 9.382712819091388 5.374292330758498 4 0 2
534 1 1 0.5897 4.1012273247492725 9.112011678247008 1.9651327867587087 -7 -2 1
139 1 2 -1.1794 0.9129865719101475 8.716498765690847 1.533780729384634 -2 -1 0
471 1 1 0.5897 7.1599503263454505 10.133687129612866 4.361464210975418 1 -6 1
476 1 1 0.5897 7.219963822909886 10.236853923233134 1.7098938369940595 4 -4 0
141 1 1 0.5897 0.5886591559998711 8.79228052891415 2.4311272169482163 -2 -1 0
475 1 2 -1.1794 7.352364750094878 9.701568467760929 2.4922696785424345 4 -4 0
105 1 1 0.5897 8.760288557535429 6.718961070913114 2.6120708079177346 4 -1 6
469 1 2 -1.1794 7.308679877363185 10.074256148138765 5.305131660490452 1 -6 1
470 1 1 0.5897 8.176107661132693 9.677956770274848 5.386867815672666 1 -6 1
577 1 2 -1.1794 5.864460811372822 11.739931613502543 1.0875145038786487 2 2 -3
207 1 1 0.5897 0.9983299530535124 7.152875630436068 0.8374582129951043 -6 3 -4
104 1 1 0.5897 8.753377040116916 8.133625110321795 2.0731178283719283 4 -1 6
715 1 2 -1.1794 8.270971399957745 10.405413400185829 10.834672449490853 5 -9 -3
495 1 1 0.5897 8.85028521521494 7.524422976512423 9.485240756907412 -1 0 -2
146 1 1 0.5897 4.112318070018756 9.475227419243616 7.678529584379471 0 1 -3
20 1 1 0.5897 5.049779541073856 8.993058416484377 9.797305035316354 -4 -5 -1
361 1 2 -1.1794 7.164249664713634 10.713284598140723 8.125825325419559 4 -3 -2
508 1 2 -1.1794 2.286722166299871 9.53231957416297 6.007353074936895 4 0 2
374 1 1 0.5897 2.1047574672298586 9.126270744044007 9.934705311362046 4 5 -1
716 1 1 0.5897 8.151751757266979 10.362891000714768 9.885916000780629 5 -9 -3
21 1 1 0.5897 6.382965100400912 8.299913109825132 9.981376688722186 -4 -5 0
493 1 2 -1.1794 7.917148088163915 7.311265890391258 9.487135416163044 -1 0 -2
373 1 2 -1.1794 1.8192979313133355 8.962541653223472 10.833527451714723 4 5 -1
403 1 2 -1.1794 4.926227120565715 8.690288875998615 6.013994487348048 6 -1 0
391 1 2 -1.1794 1.3839660468177577 7.482215620205151 7.863608114178554 4 -2 -1
393 1 1 0.5897 2.1821481663894975 7.230759245737174 8.328227066751502 4 -2 -1
362 1 1 0.5897 6.224729822968208 10.88942642036237 8.076389584031784 4 -3 -2
147 1 1 0.5897 3.943170262415998 10.640420892015571 8.6300809739646 0 1 -3
392 1 1 0.5897 1.655713591155359 8.198950232806137 7.290344329362256 4 -2 -1
363 1 1 0.5897 7.418644356283317 10.513358791464913 7.225004531738936 4 -3 -2
145 1 2 -1.1794 3.8981088578487335 9.685264233580565 8.587482866403 0 1 -3
375 1 1 0.5897 0.8803263084213544 9.14809649135357 10.824679175312454 4 5 -1
405 1 1 0.5897 5.237397954356083 7.811673470054583 6.231635128959221 6 -1 0
387 1 1 0.5897 1.635343937051797 11.026911539482189 6.746716975684004 -4 2 0
494 1 1 0.5897 7.8152203276863474 6.686223409012745 10.20485107630121 -1 0 -2
19 1 2 -1.1794 5.597162265731273 8.568094004168072 10.457568000826653 -4 -5 0
385 1 2 -1.1794 1.1580485918675087 11.756582938748588 7.141596045580283 -4 2 0
341 1 1 0.5897 4.346836218090864 6.694070293352554 9.706639981440395 3 5 2
404 1 1 0.5897 5.724157186188115 9.196790506026996 5.862500840773851 6 -1 0
296 1 1 0.5897 5.271557617625948 10.017417842515105 13.330030495237615 -2 4 -1
350 1 1 0.5897 3.4179919137569215 8.625789886765588 14.095155970573536 -12 4 -2
351 1 1 0.5897 2.506031993409528 7.4225107234829775 14.205961914133983 -12 4 -2
349 1 2 -1.1794 2.716679924922223 8.254246344498101 14.630248495873529 -12 4 -2
567 1 1 0.5897 8.314651958322864 10.023922529036176 14.059431864629966 -1 7 -6
718 1 2 -1.1794 8.15789020002089 8.643726820543378 12.860354072947105 6 6 1
286 1 2 -1.1794 6.120874201359891 8.528356307722692 15.804484501445096 2 1 3
295 1 2 -1.1794 5.005749935544249 9.101982327117362 13.243501400219282 -2 4 -1
720 1 1 0.5897 7.9063143332338495 9.151937637086085 12.089228017709358 6 6 1
336 1 1 0.5897 5.483969314742227 6.992295484555032 11.591239808990805 4 0 2
297 1 1 0.5897 4.954518098966874 8.955212617431354 12.299043215254475 -2 4 -1
327 1 1 0.5897 3.377433254163592 8.459087974572611 16.253622248090394 1 -1 -1
151 1 2 -1.1794 5.613582897157154 11.673327869234898 14.423380607968248 1 0 0
113 1 1 0.5897 8.72569006413311 7.981932458101236 14.769570770330633 -4 -3 2
801 1 1 0.5897 2.7110025927171693 11.505555268900883 12.476447867612466 0 -3 3
799 1 2 -1.1794 2.951700730844491 11.277968362782744 11.578430639552774 0 -3 3
287 1 1 0.5897 5.75469463112024 8.823621990613706 14.970882399750698 2 1 3
822 1 1 0.5897 2.1258424730285777 7.326973764946645 11.501869069681865 2 4 4
719 1 1 0.5897 8.242875728015449 7.74615185076278 12.538956422548274 6 6 1
18 1 1 0.5897 1.1053735261941493 8.801603351885221 13.844585857186631 -3 3 1
800 1 1 0.5897 2.725701655168372 10.351450695109346 11.496884388322664 0 -3 3
89 1 1 0.5897 4.896558568273331 11.629229745410028 11.632575546585134 8 -2 2
566 1 1 0.5897 8.670300555857681 11.489126849605073 13.92366866040503 -1 7 -6
696 1 1 0.5897 3.413857911759699 11.54004302012133 15.73626865823835 3 0 0
152 1 1 0.5897 6.177658341291379 11.56211948149013 15.188636739360213 1 0 -1
565 1 2 -1.1794 8.477313733509302 10.814205115716852 14.574366884439431 -1 7 -6
114 1 1 0.5897 8.704229796431473 7.85162961582056 16.277673563989588 -4 -3 2
45 1 1 0.5897 7.759815296483996 11.12521801160564 16.30620192288483 0 6 -1
717 1 1 0.5897 7.572478570633478 10.984993062458779 11.138571956838861 5 -9 -3
288 1 1 0.5897 5.419156135180898 8.672439262229036 16.43931159691323 2 1 3
794 1 1 0.5897 5.296774708310501 9.296204540485252 18.998290950803987 -4 3 5
599 1 1 0.5897 5.268013743907235 7.654177108601803 20.744527822638425 2 -2 -4
293 1 1 0.5897 7.651850917373647 8.180424882329849 18.42389312400288 -3 -1 2
170 1 1 0.5897 3.0141500773603243 9.192338751082584 19.997659735535894 -4 3 -4
75 1 1 0.5897 8.719386350882592 10.263345705289115 20.01223179208639 3 0 2
576 1 1 0.5897 3.2032281585138977 6.968836660795958 17.82883286857878 1 1 -2
73 1 2 -1.1794 8.099149625101001 10.494500540358306 20.70364431968917 3 0 2
793 1 2 -1.1794 6.2353700691135305 9.347166011518784 18.817715854840138 -4 3 5
160 1 2 -1.1794 0.6934993386685162 11.685153356070785 18.34548312753905 3 6 1
598 1 2 -1.1794 5.714580923666997 6.844481065398074 20.991779313290937 2 -2 -4
326 1 1 0.5897 3.538706045686663 9.713926784982892 17.084940188276228 1 -1 -1
767 1 1 0.5897 1.1898149683502672 10.092765476955522 18.887970610291077 -1 -2 0
795 1 1 0.5897 6.612921655192133 9.721344195927204 19.613713183157863 -4 3 5
169 1 2 -1.1794 3.8407342812200036 9.156588704520736 20.47895821370158 -4 3 -4
44 1 1 0.5897 6.815078753023954 10.597991327186465 17.36508111439976 0 6 -1
39 1 1 0.5897 0.4109628130873379 7.880922582553179 18.771145464725418 0 0 -4
768 1 1 0.5897 0.8658765110470052 9.552550008348545 20.264544856465847 -1 -2 0
171 1 1 0.5897 3.619675910057387 9.462499650577378 21.35856893550004 -4 3 -4
766 1 2 -1.1794 1.3035854989147408 9.322701375587805 19.444946417087156 -1 -2 0
694 1 2 -1.1794 3.6026779922172723 11.621688668784095 16.671071080695473 3 0 0
292 1 2 -1.1794 8.395758547809457 7.65647777592614 18.12683202643239 -3 -1 2
325 1 2 -1.1794 3.5581570255474264 8.758817166902048 17.144502529473428 1 -1 -1
43 1 2 -1.1794 7.122157848205253 11.409511966280135 16.960981281134302 0 6 -1
74 1 1 0.5897 7.905246515698558 11.419600025971373 20.55266356642565 3 0 2
294 1 1 0.5897 8.020038797211964 6.799964960496749 17.923398674222543 -3 -1 2
722 1 1 0.5897 4.18883915356264 14.155765799941742 2.7496872714750853 1 -1 2
209 1 1 0.5897 1.4449738349282462 14.48973623549903 4.214740139830364 1 -2 1
542 1 1 0.5897 0.6425761081952917 12.370451965337326 4.0793307486048995 -1 -1 2
721 1 2 -1.1794 4.113247121432436 15.033750619893375 3.123400685692806 1 -1 2
428 1 1 0.5897 0.9279454414326371 16.793508721685203 5.576940783528774 1 0 -2
845 1 1 0.5897 8.52897251936042 13.709619800019647 4.962515875601726 -2 0 4
538 1 2 -1.1794 7.293331611888166 13.912312671735487 1.9363609865288365 0 -4 1
541 1 2 -1.1794 1.1854088709492938 12.758908926186303 3.393312259738153 -1 -1 2
203 1 1 0.5897 2.528947380071062 16.037369584847177 2.3796753378791378 -5 3 1
723 1 1 0.5897 4.43033776107827 15.6163771865873 2.4333545980280036 1 -1 2
202 1 2 -1.1794 1.7912394360991537 16.101696251567986 1.7731996620593096 -5 3 1
208 1 2 -1.1794 1.8688510019792455 15.21854075237722 4.667887983946025 1 -2 1
846 1 1 0.5897 7.880616098679052 13.507121942593647 3.6095992234598397 -2 0 4
540 1 1 0.5897 7.003485046190201 13.177248947070808 1.3961164855017079 0 -4 1
496 1 2 -1.1794 3.924161960260647 12.178961555820953 3.11906962282826 3 0 4
210 1 1 0.5897 2.7415729132886835 15.26857398988942 4.277970912647175 1 -2 1
844 1 2 -1.1794 8.027568431558022 13.074814257443295 4.450843955258488 -2 0 4
498 1 1 0.5897 4.316766254285687 12.295352788717448 3.9842140870647538 3 0 3
54 1 1 0.5897 5.800567775568412 15.50910971573135 5.287231523769712 -4 -2 4
579 1 1 0.5897 5.266858734387653 11.894127203683828 1.8191424778978253 2 2 -3
539 1 1 0.5897 8.132360670894675 14.173091452035994 1.5566036371778829 0 -4 1
199 1 2 -1.1794 8.661796906856472 16.579175054077837 2.1641414985571803 3 -6 1
200 1 1 0.5897 7.936025735318857 16.556205290106817 2.7877924981344067 3 -6 1
543 1 1 0.5897 0.5864168461004964 12.888949048558132 2.658143107233372 -1 -1 2
704 1 1 0.5897 5.959623009884115 14.55966473638074 0.7527189109154946 2 -3 -3
15 1 1 0.5897 5.380982176492519 13.22085369894833 5.664572329905123 2 -5 -2
14 1 1 0.5897 6.045724702548009 11.90138836165913 5.334656577978619 2 -5 -2
497 1 1 0.5897 2.9810923011153387 12.22959357409699 3.274722132145434 3 0 4
13 1 2 -1.1794 5.22407156171678 12.276732949940152 5.651150596599915 2 -5 -2
237 1 1 0.5897 0.5395904197461028 14.249355591430273 10.721213516128199 2 -1 -4
157 1 2 -1.1794 7.448602142173769 15.516535180581089 7.9971444471804265 -1 2 -1
268 1 2 -1.1794 6.063959949661148 14.288238143383744 10.074401448765391 2 7 8
180 1 1 0.5897 1.7201327999507225 12.096055065208377 10.302604251628352 -6 2 -3
179 1 1 0.5897 1.1117384853516725 12.20009470403685 8.920295260553132 -6 2 -3
69 1 1 0.5897 2.030428590780035 14.87610755225754 6.645741014238985 6 -3 -4
68 1 1 0.5897 2.298089992443404 13.837347295129309 7.713945786692965 6 -3 -4
284 1 1 0.5897 3.0989103668207267 15.322924977697305 9.288349929798109 6 0 -2
195 1 1 0.5897 8.705236402563843 14.768629699092163 7.0775320919093705 2 -2 2
269 1 1 0.5897 5.411128167198243 14.753524235185228 10.597365137028806 2 7 8
67 1 2 -1.1794 2.1516149473980484 14.775058081103918 7.589810405231557 6 -3 -4
281 1 1 0.5897 4.600053055998896 12.540336495060732 7.553020545783277 -3 1 2
285 1 1 0.5897 3.7903323270252804 16.57772866410057 9.777380419646226 6 0 -2
282 1 1 0.5897 4.733116427630907 13.093052495397389 8.956108307053949 -3 1 2
158 1 1 0.5897 7.014481447421136 15.188462331417583 8.78459041084452 -1 2 -1
270 1 1 0.5897 6.152013201824478 13.436765436599671 10.50265560674973 2 7 8
159 1 1 0.5897 6.752110755611735 15.567012439691068 7.342512093115007 -1 2 -1
283 1 2 -1.1794 3.411610159581175 15.753807628760395 10.083794179338382 6 0 -2
52 1 2 -1.1794 5.448255162094358 14.979303361462822 6.002313662089598 -4 -2 4
178 1 2 -1.1794 1.1246766396450938 12.629102256179637 9.775841168576646 -6 2 -3
53 1 1 0.5897 4.584866291566095 15.354269887918376 6.175965864561817 -4 -2 4
280 1 2 -1.1794 4.2729088315767 12.427013826388208 8.445402773620689 -3 1 2
33 1 1 0.5897 8.69356074316517 11.845858175373882 8.09852863651681 6 6 3
571 1 2 -1.1794 4.859899535193546 14.431692962723751 14.485432463560896 3 -4 -5
263 1 1 0.5897 7.640084680567375 16.55514563718748 12.516672189644764 4 -3 6
58 1 2 -1.1794 2.8237562350608494 14.493179907402569 12.568318933205097 7 -2 -1
595 1 2 -1.1794 2.447075476946441 12.143346634742517 14.078619165258988 2 -5 1
572 1 1 0.5897 4.372453252137191 14.363483553379682 15.306353952150447 3 -4 -5
482 1 1 0.5897 7.738762443389724 15.486655080365036 14.723274798432811 0 2 -1
483 1 1 0.5897 6.47858036976137 15.173916156809367 13.944894809329016 0 2 -1
481 1 2 -1.1794 7.405338710544604 15.384907930112297 13.831850260386028 0 2 -1
573 1 1 0.5897 4.18471037371188 14.498829513028364 13.810296151372262 3 -4 -5
59 1 1 0.5897 2.8951730364927633 14.971361580957044 11.742231990636315 7 -2 -1
60 1 1 0.5897 2.3296156205513134 15.078363959652316 13.14239521600584 7 -2 -1
137 1 1 0.5897 1.6059972483123943 14.588877552673344 16.171548374110884 7 -6 2
320 1 1 0.5897 0.7747319146727498 16.155556410069103 14.665181814862526 1 -1 0
596 1 1 0.5897 2.5616959485394846 12.990874491871574 13.648824168118638 3 -5 1
687 1 1 0.5897 8.518317460859953 14.093618498981206 13.065269562396336 8 -8 -3
1 1 2 -1.1794 7.945321284543531 15.420122074811545 16.33319251229897 1 -8 3
446 1 1 0.5897 0.6393257715618488 16.48107803872048 11.492386972387855 1 -1 0
153 1 1 0.5897 5.325992116704031 12.585188650359868 14.467716603805268 1 0 0
597 1 1 0.5897 1.5148692869840243 12.106991861649979 14.29274266076776 2 -5 1
319 1 2 -1.1794 1.0367540848338468 15.26010895316629 14.451419502371403 1 -1 0
90 1 1 0.5897 6.011564100180842 12.149031935062384 12.514786229280155 8 -2 2
88 1 2 -1.1794 5.812002764892161 11.90786426829309 11.610255339125738 8 -2 2
196 1 2 -1.1794 8.204005177125664 16.02032124097578 20.83318608856939 -2 -3 -1
703 1 2 -1.1794 5.149186768330142 14.945869753846901 21.772284820222005 2 -3 -4
700 1 2 -1.1794 1.9127153243584571 16.75607324887277 18.353704409792908 5 0 2
198 1 1 0.5897 8.870559061087475 16.56455503263691 20.41396863026564 -2 -3 -1
25 1 2 -1.1794 7.720481669406752 13.246807953752969 20.191378465585068 -5 6 4
27 1 1 0.5897 6.953953651731459 13.29586057662145 19.62023204531667 -5 6 4
622 1 2 -1.1794 5.812483992114887 13.60636265133054 18.46232005149077 6 -2 1
695 1 1 0.5897 2.9988842047080055 12.297206470211588 16.97974734957864 3 0 0
138 1 1 0.5897 2.1850161055811785 14.791316450367432 17.555565482350758 7 -6 2
26 1 1 0.5897 7.9767800716490855 14.158874785988102 20.327954984574852 -5 6 4
624 1 1 0.5897 5.715243421100459 12.990302842755982 17.73624292706303 6 -2 1
705 1 1 0.5897 4.635995714413168 14.198932626319854 21.464256861744204 2 -3 -4
376 1 2 -1.1794 1.5992147127969534 14.494031583784615 20.87354117790388 1 5 4
814 1 2 -1.1794 5.812465609395019 16.37240255524647 17.762054083319192 -4 5 -3
135 1 1 0.5897 8.461142841483436 12.67224802151077 17.58576771979888 3 -4 -4
738 1 1 0.5897 0.430877113904128 13.47164813143468 21.711881008858192 5 -1 1
623 1 1 0.5897 5.891544409745943 14.46251116985343 18.041664186284454 6 -2 1
544 1 2 -1.1794 3.857273627156185 12.690139558288019 20.547084035640196 -4 3 4
3 1 1 0.5897 7.348764125799635 15.693964647985567 17.029820557706703 1 -8 3
545 1 1 0.5897 4.261599140936163 12.613266033839668 19.68289857378537 -4 3 4
546 1 1 0.5897 2.953132223211222 12.947578125274655 20.366968489589432 -4 3 4
701 1 1 0.5897 2.3151857737158474 16.787501832432135 19.221573005776666 5 0 2
161 1 1 0.5897 1.170590691707279 12.284195913704377 17.771286661117298 3 6 1
2 1 1 0.5897 8.376575058298588 14.639067935908061 16.679798897611995 1 -8 3
197 1 1 0.5897 8.40619642176463 16.07024393855572 21.7674179907346 -2 -3 -1
378 1 1 0.5897 0.9347232086961756 14.9762914543291 20.38155681191934 1 5 4
377 1 1 0.5897 1.9219259618208202 15.12185796119349 21.519961697776683 1 5 4
136 1 2 -1.1794 1.9635803178195197 14.110924290487336 16.919803576505394 7 -6 2
782 1 1 0.5897 4.062315787292603 16.41163865470812 21.134843132496535 0 -1 0
816 1 1 0.5897 5.312488678564872 16.74177233649814 17.034215336888952 -4 5 -3
578 1 1 0.5897 5.365400715231438 11.996068852766875 21.66345653139388 2 2 -4
272 1 1 0.5897 3.6103361919635284 21.116239063521128 1.9936870991575935 -2 4 3
524 1 1 0.5897 7.238773295305257 17.659466577436525 4.255430335837916 3 -1 1
322 1 2 -1.1794 7.119877599707933 21.36606603495206 3.802720010508644 5 1 -3
851 1 1 0.5897 3.7556653006990555 18.390867932892693 3.3952245922271365 -7 0 -4
278 1 1 0.5897 2.197915250783212 18.639418002008906 5.333261352906716 -1 2 1
457 1 2 -1.1794 4.264427273669737 19.962267714421106 0.6496683724996388 2 -2 -1
491 1 1 0.5897 1.631405143139825 21.331000836687114 3.8460606257343604 1 1 4
449 1 1 0.5897 7.8091397634736515 19.41727323530806 1.0506671456057124 6 -3 -1
277 1 2 -1.1794 2.99989356441588 19.089641519377235 5.0681231203886 -1 2 1
201 1 1 0.5897 8.934792790684414 17.49643683830113 2.147299844278067 3 -6 1
306 1 1 0.5897 2.091577773670981 18.82660392717397 0.7401248362053486 6 -1 -7
850 1 2 -1.1794 4.370562118592571 18.14616464433044 2.703714382083871 -7 0 -4
304 1 2 -1.1794 1.2367910629016254 18.679174063758115 1.1448060202665171 6 -1 -7
852 1 1 0.5897 4.256668311561361 18.818754457615896 2.0322668876334298 -7 0 -4
651 1 1 0.5897 0.4766127660967448 18.71506966339416 2.7757233586054264 3 -1 0
478 1 2 -1.1794 7.865542744829908 19.018719587316166 5.257151534275871 -3 4 -3
271 1 2 -1.1794 2.9403144225260185 21.629512516364414 2.445109900994718 -2 4 3
324 1 1 0.5897 8.063175027568487 21.505868749709652 3.720076373684922 5 1 -3
323 1 1 0.5897 7.030728652682526 20.42978111142554 3.9805169410230428 5 1 -3
459 1 1 0.5897 5.211353276466899 20.044607878910725 0.5369165271770344 2 -2 -1
490 1 2 -1.1794 0.7697182932885684 21.438700354699378 4.24863166762581 1 1 4
279 1 1 0.5897 2.9114266484764593 19.971012624140815 5.4307970356607065 -1 2 1
448 1 2 -1.1794 7.141125969571569 19.818349554570204 0.4947338288234744 6 -3 -1
204 1 1 0.5897 1.7708736471135396 17.023715532641944 1.5170225610868098 -5 3 1
525 1 1 0.5897 5.928732517870355 17.46630160062729 3.5218107081051597 3 -1 1
479 1 1 0.5897 8.775982695899055 18.859248381302447 5.505897906888333 -3 4 -3
419 1 1 0.5897 1.846784488953023 22.035610353748076 0.9996339074792404 -10 -4 5
523 1 2 -1.1794 6.636970861423134 16.98231804021547 3.9464515242480624 3 -1 1
426 1 1 0.5897 7.207520986796396 20.65867446056853 9.989928476184064 9 -5 1
110 1 1 0.5897 4.386127931636303 21.45594567181561 9.75764319536545 -2 -4 -8
29 1 1 0.5897 1.4614872980820182 19.53146339383107 9.662092551558747 -8 -2 4
427 1 2 -1.1794 0.7745799722271315 17.704505456990862 5.827424377829027 1 0 -2
604 1 2 -1.1794 5.45133517756759 18.51282288300852 6.586173440754901 -4 1 -1
30 1 1 0.5897 0.9439746928212441 18.174405443491455 9.235097460341686 -8 -2 4
605 1 1 0.5897 5.188980246269377 18.083450977636325 7.400404758069648 -4 1 -1
28 1 2 -1.1794 1.7068436792026997 18.607318925121305 9.618230133730806 -8 -2 4
425 1 1 0.5897 7.601002708678716 19.47115576458178 9.137463904059272 9 -4 1
424 1 2 -1.1794 7.231723485744141 20.352556936360173 9.083359080114235 9 -4 1
331 1 2 -1.1794 3.069713565704988 21.43603797513065 6.493019342704698 -1 -4 -5
109 1 2 -1.1794 4.596572095795569 21.39343613522483 8.825991748300932 -2 -4 -8
594 1 1 0.5897 7.563145293878972 21.215892945972648 7.534311343904575 -3 0 -2
332 1 1 0.5897 3.445911742753825 21.187106984540623 7.337219512921522 -1 -4 -5
710 1 1 0.5897 7.950908644006913 17.05827604989369 8.732884736706819 -6 -7 -2
675 1 1 0.5897 4.780485159440101 18.521844392943496 9.941087823767088 -3 -1 -1
111 1 1 0.5897 5.453929960287463 20.96857860796487 8.80160775976769 -2 -4 -8
673 1 2 -1.1794 4.467236910995278 18.056847626894545 9.165309503809965 -3 -1 -1
674 1 1 0.5897 3.5875814305510354 18.403707528549436 9.016511933239304 -3 -1 -1
709 1 2 -1.1794 8.442132400185452 17.744606137780615 9.184341461444257 -6 -7 -2
487 1 2 -1.1794 0.3688395834528855 21.079675244273265 9.728207539802117 1 -5 5
592 1 2 -1.1794 7.546438511410573 21.50352071830295 6.621535195939037 -3 0 -2
606 1 1 0.5897 4.644742446406542 18.56925177344617 6.073936265555994 -4 1 -1
333 1 1 0.5897 3.78978238671057 21.858150316983103 6.024510787036739 -1 -4 -5
593 1 1 0.5897 7.652508344590993 20.698735985083015 6.114349789680491 -3 0 -2
480 1 1 0.5897 7.359621839157696 18.784293354791775 6.035148364188296 -3 4 -3
711 1 1 0.5897 8.288765281109413 17.57738997939791 10.114222919693963 -6 -7 -2
669 1 1 0.5897 0.6585911399127187 21.615346877111932 6.264944944162646 -6 -4 2
848 1 1 0.5897 4.542875616508542 18.458799204902522 12.152560258837815 7 -3 6
264 1 1 0.5897 6.753928883514577 17.42559885835979 11.651349579146657 4 -3 6
34 1 2 -1.1794 2.953734035180336 20.668565898491412 13.372799804557106 -5 2 -1
315 1 1 0.5897 5.487695704894512 18.615017381061485 15.173586430853572 0 -2 -2
36 1 1 0.5897 3.31399316255629 21.19345883085381 12.65803586514834 -5 2 -1
163 1 2 -1.1794 6.6033282323385105 19.7335303191832 14.21012313698722 -1 1 -1