#include		in.partitions
include		in.temp
variable        temperature equal 234.50
variable	tempDamp equal 100.0
include		in.pressure
variable        pressure equal 2421.2
variable        pressureDamp equal 1000.0 # This is 1 ps
include		in.seed
variable        seed equal 745823

units		real
atom_style	full
read_restart	restart.lmp.${pid}
read_restart	restart.lmp.1
Reading restart file ...
  restart file = 30 Jul 2021, LAMMPS = 30 Jul 2021
  restoring atom style full from restart
  orthogonal box = (0.27570589 1.4162764 0.33636055) to (17.931867 22.212901 21.876835)
  2 by 4 by 4 MPI processor grid
  restoring pair style lj/cut/tip4p/long/omp from restart
  restoring bond style harmonic/omp from restart
  restoring angle style harmonic/omp from restart
  864 atoms
  576 bonds
  288 angles
Finding 1-2 1-3 1-4 neighbors ...
  special bond factors lj:    0        0        0       
  special bond factors coul:  0        0        0       
     2 = max # of 1-2 neighbors
     1 = max # of 1-3 neighbors
     1 = max # of 1-4 neighbors
     2 = max # of special neighbors
  special bonds CPU = 0.002 seconds
  read_restart CPU = 0.006 seconds
include 	in.setup
variable	out_freq equal 1000
variable	out_freq2 equal 10000
variable	out_freq3 equal 1000

timestep	2.0

neigh_modify    delay 7 every 1

include		in.tip4p
# This is TIP4P/Ice

# create groups ###
group ox type 2
288 atoms in group ox
group hy type 1
576 atoms in group hy

# set charges - beside manually ###
set group ox charge -1.1794
Setting atom values ...
  288 settings made for charge
set group hy charge 0.5897
Setting atom values ...
  576 settings made for charge

# ### TIP3P Potential Parameters ###
pair_style lj/cut/tip4p/long/omp 2 1 1 1 0.1577 8.5
pair_coeff 1 1*2 0.000 0.000
pair_coeff 2 2 0.21084 3.1668
bond_style  harmonic
bond_coeff  1 450 0.9572
angle_style harmonic
angle_coeff 1 55 104.52
kspace_style pppm/tip4p/omp 1.0e-5
pair_modify tail yes

thermo          ${out_freq}
thermo          1000
thermo_style    custom step temp pe etotal epair emol press lx ly lz vol pxx pyy pzz pxy pxz pyz enthalpy

restart 	${out_freq3} restart.lmp.${pid} restart2.lmp.${pid}
restart 	1000 restart.lmp.${pid} restart2.lmp.${pid}
restart 	1000 restart.lmp.1 restart2.lmp.${pid}
restart 	1000 restart.lmp.1 restart2.lmp.1


include         in.dump
dump            myDump all atom ${out_freq2} dump.water.${pid}
dump            myDump all atom 10000 dump.water.${pid}
dump            myDump all atom 10000 dump.water.1
dump            myDump2 all dcd ${out_freq2} dump.dcd
dump            myDump2 all dcd 10000 dump.dcd
dump_modify     myDump append yes
dump_modify     myDump2 append yes


variable natoms 	equal  "count(all)"                        # NUMBER ATOMS
variable H      	equal  "enthalpy/v_natoms"                 # ENTHALPY-per-atom
variable Vol      	equal  "vol/v_natoms"                 # volume-per-atom
fix AVG all 		ave/time ${out_freq} 1 ${out_freq} v_Vol v_H file vol_enthalpy.dat
fix AVG all 		ave/time 1000 1 ${out_freq} v_Vol v_H file vol_enthalpy.dat
fix AVG all 		ave/time 1000 1 1000 v_Vol v_H file vol_enthalpy.dat


timer           timeout 23:50:00 every 1000
New timer settings: style=normal  mode=nosync  timeout=23:50:00

fix 		1 all shake 1e-6 200 0 b 1 a 1
       0 = # of size 2 clusters
       0 = # of size 3 clusters
       0 = # of size 4 clusters
     288 = # of frozen angles
  find clusters CPU = 0.000 seconds
fix             2 all nph iso ${pressure} ${pressure} ${pressureDamp}
fix             2 all nph iso 2421.2 ${pressure} ${pressureDamp}
fix             2 all nph iso 2421.2 2421.2 ${pressureDamp}
fix             2 all nph iso 2421.2 2421.2 1000
fix             3 all temp/csvr ${temperature} ${temperature} ${tempDamp} ${seed}
fix             3 all temp/csvr 234.5 ${temperature} ${tempDamp} ${seed}
fix             3 all temp/csvr 234.5 234.5 ${tempDamp} ${seed}
fix             3 all temp/csvr 234.5 234.5 100 ${seed}
fix             3 all temp/csvr 234.5 234.5 100 745823

run             250000
PPPM initialization ...
  extracting TIP4P info from pair style
  using 12-bit tables for long-range coulomb (../kspace.cpp:340)
  G vector (1/distance) = 0.37257608
  grid = 24 24 25
  stencil order = 5
  estimated absolute RMS force accuracy = 0.0032640629
  estimated relative force accuracy = 9.8296285e-06
  using double precision FFTW3
  3d grid and FFT values/proc = 3822 576
Last active /omp style is kspace_style pppm/tip4p/omp
Neighbor list info ...
  update every 1 steps, delay 7 steps, check yes
  max neighbors/atom: 2000, page size: 100000
  master list distance cutoff = 10.8154
  ghost atom cutoff = 10.8154
  binsize = 5.4077, bins = 4 4 4
  1 neighbor lists, perpetual/occasional/extra = 1 0 0
  (1) pair lj/cut/tip4p/long/omp, perpetual
      attributes: half, newton on, omp
      pair build: half/bin/newton/omp
      stencil: half/bin/3d
      bin: standard
Per MPI rank memory allocation (min/avg/max) = 10.20 | 10.20 | 10.21 Mbytes
Step Temp PotEng TotEng E_pair E_mol Press Lx Ly Lz Volume Pxx Pyy Pzz Pxy Pxz Pyz Enthalpy 
 7250000    245.61122   -3999.6946   -3578.7254   -3999.6946            0    3475.0461    17.656161    20.796625    21.540475    7909.4157    1556.7376    3971.7132    4896.6874   -167.97865   -163.20773    1094.8272   -3177.8763 
 7251000    236.95031   -4002.3961   -3596.2714   -4002.3961            0    1562.7329    17.686236    20.832049    21.577166    7949.9025    1276.7441    765.97465    2645.4799   -335.74052   -265.53396    396.26007   -3415.0863 
 7252000    229.56752   -3985.2056   -3591.7347   -3985.2056            0    3594.6934     17.56699    20.691593    21.431686    7790.1823    3362.7424    4641.5581    2779.7798    -1122.694    332.02047   -244.53471   -3183.3351 
 7253000    252.75285    -4023.472   -3590.2623    -4023.472            0    1582.7698    17.588694    20.717158    21.458165    7819.0923    2633.3955    519.29734    1595.6167    707.80649    132.07395     375.0503   -3409.7736 
 7254000      221.261   -3994.0266   -3614.7928   -3994.0266            0    2428.5156     17.59952     20.72991    21.471374    7833.5403    1158.9505     3319.709    2806.8874    -1220.141   -899.69979    1066.2741   -3337.3491 
 7255000      240.604   -3961.8062   -3549.4192   -3961.8062            0     2767.739     17.60773     20.73958    21.481389    7844.5078    2374.5774    2750.2296      3178.41    649.13305   -199.78398    400.07074   -3232.7785 
 7256000    247.56551   -3989.7761   -3565.4573   -3989.7761            0     2503.551    17.605613    20.737087    21.478807    7841.6792    2859.9776    3063.5963     1587.079    235.91301   -1034.0057   -2127.5691   -3279.1441 
 7257000    241.76134   -3980.1176   -3565.7469   -3980.1176            0    1304.9186    17.634532    20.771149    21.514088    7880.3842    1832.3744    565.77488    1516.6067    660.22642   -205.54076    272.56572   -3415.7761 
 7258000    235.88466   -3955.8517   -3551.5535   -3955.8517            0    1177.9027    17.543818      20.6643    21.403417    7759.3964    1053.6502    1105.7707    1374.2871   -58.732021    305.79045   -137.01565   -3418.2586 
 7259000    251.50964   -3961.0032   -3529.9242   -3961.0032            0    2889.2763    17.527311    20.644858    21.383279     7737.515     2365.314    2444.6323    3857.8825    23.447462    -316.4248    328.39311   -3203.8876 
 7260000    245.70593    -3971.738   -3550.6064    -3971.738            0    3394.4138    17.565915    20.690327    21.430375    7788.7526    3116.3255     4244.028    2822.8878     108.4054   -15.430458    1115.6421   -3165.0317 
 7261000    248.15879   -3998.3773   -3573.0416   -3998.3773            0     1509.911    17.594378    20.723854      21.4651    7826.6761    778.55007    1927.2501    1823.9328   -157.12965    205.23278    63.200775   -3400.6943 
 7262000    239.92463   -3950.1391   -3538.9165   -3950.1391            0    1575.4021    17.725488    20.878284    21.625054    8002.9522   -726.55394    3103.5189    2349.2414   -295.27547   -122.03721   -1017.6969   -3355.0437 
 7263000    250.68551   -3976.8191   -3547.1527   -3976.8191            0    1261.7342     17.62115    20.755387    21.497762    7862.4583    999.21079    1469.1622    1316.8298   -483.47948    -1410.816   -962.57362   -3402.4749 
 7264000    221.12584   -3974.5551    -3595.553   -3974.5551            0    2028.1462    17.582786      20.7102    21.450958    7811.2169    1370.6423    2403.6083    2310.1879    -195.2417   -320.35326    441.68882   -3364.5095 
 7265000    238.73699   -3958.4803   -3549.2933   -3958.4803            0    1332.2166    17.577159    20.703572    21.444093    7803.7196    2134.5524    1760.7081    101.38934    1030.4684   -741.87975    236.04918   -3397.6747 
 7266000    234.55687   -3959.0026   -3556.9802   -3959.0026            0    3121.0753    17.551035      20.6728    21.412221    7768.9755    2248.4727    3180.0998    3934.6534   -100.14507   -1768.5013   -1532.5189   -3203.3544 
 7267000    251.46266   -3985.8403   -3554.8419   -3985.8403            0    3585.2575    17.667487    20.809966    21.554293    7924.6476    2963.0097    4443.7746    3348.9884   -319.22599   -465.84792   -307.49186   -3140.4834 
 7268000    216.06426   -3965.3919   -3595.0652   -3965.3919            0    4551.2961    17.587302    20.715518    21.456467     7817.236    4486.7756    5732.8279    3434.2846    783.84602   -278.98757   -171.69218   -3076.1885 
 7269000    224.16204   -3952.9639   -3568.7578   -3952.9639            0    2724.3526    17.602186     20.73305    21.474626    7837.1002    2510.4372    3074.2009    2588.4196    30.963062    252.36388   -279.82473    -3257.375 
 7270000    223.80177   -3955.4131   -3571.8246   -3955.4131            0    1119.3569    17.687831    20.833928    21.579112     7952.054    20.918087     1008.065    2329.0875   -377.82883   -314.44798    68.459394   -3442.0099 
 7271000    232.83039   -3975.6399   -3576.5766   -3975.6399            0    2839.9774    17.623854    20.758573    21.501061    7866.0785    2818.2199    2992.1125       2709.6    116.21081   -1165.0924    2619.9952   -3250.7781 
 7272000    243.58959   -3973.6482   -3556.1439   -3973.6482            0    2054.6511    17.603092    20.734117    21.475731    7838.3101    3011.4425    2765.1016     387.4093   -297.04573   -524.98794    1130.9883   -3321.2691 
 7273000    229.13685   -3986.9199   -3594.1872   -3986.9199            0    2534.2242    17.628305    20.763815    21.506491    7872.0399    2857.0576    2210.5809    2535.0341    -1154.341   -1114.0502    -121.1104    -3303.244 
 7274000     243.5995   -3947.4156   -3529.8944   -3947.4156            0    4008.8686    17.610762    20.743151    21.485088    7848.5605    5647.1217    3978.2827    2401.2013   -585.10931   -702.52077   -287.05862   -3071.0265 
 7275000    231.21835   -3974.1936   -3577.8932   -3974.1936            0     2892.488    17.600933    20.731575    21.473098    7835.4274    3547.7207    2963.9214    2165.8218    218.51665    699.36589   -374.67223   -3247.3638 
 7276000    239.58137    -3970.439   -3559.8047    -3970.439            0    1821.6591    17.645006    20.783486    21.526866     7894.434    1652.2425    1957.7082    1855.0267    707.80229    425.07472     317.4901   -3350.0731 
 7277000    231.53076   -3965.7016   -3568.8658   -3965.7016            0    2837.4529     17.71047    20.860595    21.606732    7982.6277    2512.9666    1756.6596    4242.7325   -40.945063   -170.89233   -579.71675    -3238.534 
 7278000    229.39026   -4002.4126   -3609.2455   -4002.4126            0    1933.5127     17.68658    20.832455    21.577586     7950.367    2928.6326    1131.1852    1740.7202   -365.20689    359.63316    83.031051   -3385.0587 
 7279000    228.49021   -4013.5934    -3621.969   -4013.5934            0    3202.5262    17.647725    20.786689    21.530183    7898.0846      3275.04    3685.7809    2646.7576    990.49406   -74.761575   -287.19826   -3253.0845 
 7280000      236.557   -3964.1305   -3558.6799   -3964.1305            0    3468.7672    17.649132    20.788347      21.5319    7899.9741    6090.3201    1674.8128    2641.1686    373.61365   -1273.3878   -307.09168   -3159.0328 
 7281000    240.09638   -3950.4369   -3538.9199   -3950.4369            0    2063.7156    17.626703    20.761928    21.504537    7869.8937    1968.9155    241.42386    3980.8074    482.96751    947.50246    1025.5373   -3302.0583 
 7282000    247.89848   -3979.7114   -3554.8218   -3979.7114            0     3054.804    17.538731    20.658309    21.397211    7752.6488    3244.2563    2467.2444    3452.9114     484.4117     -718.089    1046.4352   -3209.4322 
 7283000     239.6945   -3953.7912    -3542.963   -3953.7912            0    1512.5202    17.558406    20.681482    21.421214    7778.7679    1930.8953    610.81951    1995.8458     740.0345    273.95083    328.54416   -3371.3746 
 7284000    235.51298   -3989.6383   -3585.9771   -3989.6383            0    2422.0103    17.557516    20.680435    21.420129    7777.5862    2985.5523    1099.6995    3180.7792    656.64593   -332.56445   -371.57961    -3311.253 
 7285000    231.54972   -4010.4584   -3613.5901   -4010.4584            0    859.04339    17.588247    20.716631     21.45762    7818.4962    977.44004    616.32944    983.36068    1127.9873   -859.98851   -786.33194   -3515.6379 
 7286000    241.30265   -4005.8349   -3592.2504   -4005.8349            0    2786.3795    17.521322    20.637803    21.375972     7729.585    2646.8323    2451.3391    3260.9669    1090.7156   -664.88322    1982.7541   -3278.1472 
 7287000    237.91616   -3963.3257   -3555.5455   -3963.3257            0    3374.7189    17.504422    20.617897    21.355354    7707.2408    3285.2805    2839.0266    3999.8496    1164.4809    78.278539   -909.71594   -3176.2197 
 7288000    218.96148   -3941.5361   -3566.2436   -3941.5361            0    3184.7709    17.519922    20.636154    21.374264    7727.7333    3913.6049    2786.8852    2853.8228    383.38628    821.63373   -538.38317   -3207.3165 
 7289000    239.02173   -3971.7317   -3562.0566   -3971.7317            0    2483.2593     17.63915    20.776589    21.519722    7886.5771    3371.6995   -257.84393    4335.9223    596.37478    490.03165    1108.9677    -3276.438 
 7290000    237.91997   -3967.6878   -3559.9011   -3967.6878            0    3543.3619    17.559378    20.682627      21.4224    7780.0599    3542.1832    3079.6777    4008.2246    245.61813   -726.42545    1801.8899   -3157.8564 
 7291000    234.37576   -3961.7533   -3560.0412   -3961.7533            0    1921.9313    17.595793    20.725519    21.466826    7828.5638    2448.2197    899.24434    2418.3298    71.716689   -342.70112    1579.1092   -3340.6113 
 7292000    235.73529   -3972.1107   -3568.0685   -3972.1107            0    3345.0426    17.567119    20.691746    21.431844    7790.3547    3942.9499    2840.3694    3251.8086    1235.5019    271.98699    294.12136   -3188.0237 
 7293000    227.36869   -3948.2071   -3558.5049   -3948.2071            0    3810.8369     17.52592    20.643219    21.381581    7735.6723    3872.2742    2314.0866    5246.1499     1109.963    519.92352   -945.15592   -3128.5783 
 7294000    238.86394   -3981.1806    -3571.776   -3981.1806            0    3005.1061    17.541986    20.662142    21.401182    7756.9654    3496.9742    3567.0855    1951.2586    869.40345   -481.08162    1425.5829   -3231.8162 
 7295000    231.58792   -4013.8258   -3616.8921   -4013.8258            0    3607.1746    17.536332    20.655482    21.394284    7749.4671    2821.2952    4732.3552    3267.8734    2073.9853    1980.3462    300.01843   -3209.2163 
 7296000    240.88902    -3960.378   -3547.5024    -3960.378            0    2505.0395    17.562294    20.686062    21.425957    7783.9369    3568.8539    1542.8494    2403.4153    356.75105   -56.177536    909.43459   -3263.1285 
 7297000    238.73291   -3962.0363   -3552.8562   -3962.0363            0    2466.4294    17.538615    20.658172     21.39707     7752.495    4157.2809    72.801459    3169.2058    872.66385   -841.76191    449.27795   -3273.9963 
 7298000    241.74351    -3963.415   -3549.0748    -3963.415            0    3466.5488    17.551337    20.673157     21.41259     7769.377    6133.0386    1235.3263    3031.2815    121.69758    91.129161    251.27226   -3156.2858 
 7299000    234.35945   -3947.6842   -3546.0001   -3947.6842            0    2713.1683    17.498215    20.610586    21.347781    7699.0444    3395.1236    1211.1147    3533.2666   -87.057586   -895.77832    966.98635   -3241.3583 
 7300000    231.47926   -3969.5853   -3572.8378   -3969.5853            0    2673.2103    17.612616    20.745336    21.487351    7851.0404    1998.5541    1418.8248    4602.2521    325.60812    498.35542   -842.09422   -3266.7569 
 7301000    241.72066   -3944.6999   -3530.3989   -3944.6999            0    1091.0965    17.635452    20.772233     21.51521    7881.6173    1954.4975    708.71185    610.08012    535.55586   -187.23266    582.30629   -3404.9825 
 7302000    225.54817   -3955.4543   -3568.8724   -3955.4543            0    2545.8364    17.607905    20.739787    21.481603    7844.7421    3920.7037    1307.5767    2409.2288    121.91173   -3.7171796    462.87064   -3277.6096 
 7303000    233.49857   -3976.1613   -3575.9528   -3976.1613            0    3716.1178    17.498752    20.611219    21.348437    7699.7537    3381.4359    4956.1863    2810.7313     688.2999    50.909631    486.13202   -3158.6587 
 7304000    234.66043   -3948.3709    -3546.171   -3948.3709            0    2506.4299    17.609312    20.741443    21.483319    7846.6222    2425.5039    2265.7148    2828.0709    1613.9581    688.26657    655.54885   -3259.3479 
 7305000     224.6754   -3948.1728   -3563.0868   -3948.1728            0    2795.0577    17.560221    20.683621    21.423429    7781.1815    3332.3932    3054.2258    1998.5543     -201.695    245.22042   -195.74823   -3245.9021 
 7306000    239.49016   -3924.0308   -3513.5529   -3924.0308            0      1887.59    17.543126    20.663486    21.402573    7758.4785    3696.0325    1777.8609    188.87657    349.12187     1572.395   -620.95633   -3299.9731 
 7307000    235.24774   -3951.4597   -3548.2531   -3951.4597            0    3530.4947    17.442432     20.54488    21.279726    7625.6465    3385.2342    2916.4567    4289.7932   -440.72049   -34.033734   -1100.9194   -3155.6189 
 7308000    227.01167   -3942.2188   -3553.1285   -3942.2188            0    2910.6128    17.589756     20.71841    21.459462    7820.5097     4045.412    2755.4983     1930.928    540.97764    1291.4895    178.25227   -3221.1612 
 7309000    229.00798   -3931.6076   -3539.0958   -3931.6076            0    2863.1064    17.556816     20.67961    21.419274    7776.6552    2887.2246    3874.1351    1827.9597    1104.6434    275.40936   -624.44347   -3214.3779 
 7310000    237.81597   -3981.9797   -3574.3713   -3981.9797            0    346.92414    17.582053    20.709336    21.450064    7810.2394    279.82728   -609.40964    1370.3548    880.07598    1645.1083    418.95285   -3534.8552 
 7311000    225.78373   -3942.7874   -3555.8019   -3942.7874            0    2312.4187     17.54049     20.66038    21.399357     7754.981    2013.4593    2276.0413    2647.7554   -183.09617   -501.25579    1685.1424   -3294.2709 
 7312000    228.44856    -3917.559    -3526.006    -3917.559            0    1549.2186    17.556018     20.67867      21.4183    7775.5947    1508.6828    2543.5821    595.39092    644.71841    1118.9675    263.26877   -3350.3261 
 7313000    254.55162   -3966.2009   -3529.9082   -3966.2009            0    2679.6302     17.49052    20.601522    21.338393    7688.8918    2072.0014     1779.206    4187.6832    748.75721    71.111657   -7.9488558   -3229.4289 
 7314000    234.66915   -3973.7177   -3571.5028   -3973.7177            0    1745.5205    17.585021    20.712831    21.453684    7814.1947    2499.1983     2745.293   -7.9296792   -288.29069    362.13799   -47.972752   -3372.5798 
 7315000       229.05   -3994.0453   -3601.4614   -3994.0453            0     2007.799    17.602798    20.733771    21.475372    7837.9177    2823.2905    1324.8145     1875.292    1622.6317    1682.4532    786.16302    -3371.954 
 7316000    243.46187   -3967.3669   -3550.0816   -3967.3669            0    2679.2209    17.551184    20.672977    21.412404    7769.1745    3700.3684    2270.6118    2066.6826    495.75274   -506.28444    979.46968   -3246.5113 
 7317000     231.1626   -4009.8679   -3613.6631   -4009.8679            0    1651.0258    17.632539    20.768802    21.511656    7877.7128       1521.6    1896.0013    1535.4761    426.38857    950.46643    640.35039   -3423.9795 
 7318000    242.16081   -4002.8192   -3587.7639   -4002.8192            0    1571.9194    17.526017    20.643333      21.3817     7735.801    2344.1168    950.92127    1420.7203   -403.77676    782.60021   -596.72328   -3410.4219 
 7319000    218.77135   -4006.4093   -3631.4427   -4006.4093            0    2632.4676     17.47829    20.587117    21.323473    7672.7738    3252.2005    2755.0446    1890.1578    386.53387     -863.527    64.200198   -3336.8708 
 7320000    244.27002   -4007.0672   -3588.3968   -4007.0672            0    1673.5058    17.524814    20.641916    21.380232     7734.208    2048.2498   -994.40947    3966.6772   -519.26685     1068.558    406.92382   -3399.6329 
 7321000    242.13291    -4001.478   -3586.4704    -4001.478            0    3270.5696    17.523565    20.640445    21.378709    7732.5548    4024.0116    3282.1288    2505.5684   -239.44833    578.93488    346.01897   -3217.6438 
 7322000    244.46767   -3954.8722    -3535.863   -3954.8722            0    2141.3924    17.557272    20.680147     21.41983    7777.2609     3533.815    923.97798    1966.3842    203.03411    400.33273    565.48437   -3292.9791 
 7323000    219.00435   -3980.8429   -3605.4769   -3980.8429            0    2067.0585    17.560564    20.684024    21.423847    7781.6364    3082.0487    1235.4421    1883.6847     189.8992    315.97126    225.83664   -3370.8923 
 7324000    234.60497   -3988.8274   -3586.7225   -3988.8274            0    2661.2191    17.514705    20.630009    21.367899    7720.8314    3657.9548     1934.106    2391.5965    1175.8966    1030.6602   -1008.7867   -3287.0682 
 7325000    225.82343   -3968.5429   -3581.4893   -3968.5429            0     845.0871    17.624031     20.75878    21.501276    7866.3146    1432.1687   -454.98327    1558.0758   -929.08984   -821.16352   -327.25138   -3484.5391 
 7326000    222.93897   -3969.9551   -3587.8454   -3969.9551            0    764.31666    17.579538    20.706374    21.446995    7806.8883    299.57863    1975.5391    17.832285   -434.87649    255.53346    394.10771   -3500.8237 
 7327000    234.68838   -3995.3154   -3593.0676   -3995.3154            0    2267.1817      17.6157    20.748968    21.491113    7855.1647    2038.9728    2637.8056    2124.7669    1673.8578    228.93734    1116.5416   -3333.3403 
 7328000      235.087   -3913.9228   -3510.9917   -3913.9228            0    1864.0374    17.625454    20.760457    21.503013    7868.2205     2584.263    1742.5968    1265.2525   -18.875446    -717.4366   -493.00496   -3297.0936 
 7329000    228.41547   -3960.7124   -3569.2161   -3960.7124            0    3462.6367    17.498173    20.610536     21.34773     7698.989     4805.312    4114.2341    1468.3639   -1302.1547   -880.81112   -111.01386   -3180.4249 
 7330000    236.03038   -3920.7324   -3516.1844   -3920.7324            0    1985.4171    17.685046    20.830648    21.575714    7948.2982    3443.2222    1386.9939    1126.0351   -544.04374    346.56473      538.215   -3286.0393 
 7331000    235.92122   -3970.0566   -3565.6957   -3970.0566            0    2199.6738    17.626031    20.761137    21.503717    7868.9938    1014.8491    1873.9019    3710.2703   -847.36286   -274.92691    514.92848   -3313.2585 
 7332000    237.33861   -3987.0768   -3580.2865   -3987.0768            0    1212.1886    17.584853    20.712634    21.453479    7813.9711    2817.0077    662.08428     157.4738   -634.76049    908.35987    1264.5542    -3442.147 
 7333000    228.78028   -3966.8408   -3574.7192   -3966.8408            0      1845.11    17.566525    20.691046     21.43112    7789.5644    3235.4167    1105.8374    1194.0759   -478.95141    471.98726   -333.36338   -3365.1096 
 7334000    242.86749   -3939.6913   -3523.4247   -3939.6913            0    3618.9274    17.567709    20.692441    21.432564    7791.1392    4284.6215    2433.3123    4138.8483    546.96291   -174.58986    524.56823   -3112.2213 
 7335000    229.65121   -3966.9488   -3573.3345   -3966.9488            0    3638.7813    17.582544    20.709914    21.450662    7810.8934    3483.0607     3642.979    3790.3042   -923.76683   -1519.9111    1068.4946   -3158.8268 
 7336000    242.98616   -3983.0065   -3566.5366   -3983.0065            0    1979.8783    17.648399    20.787483    21.531006    7898.9896    2102.3545    2995.8584    841.42194    208.88823    16.226359    176.56765   -3338.4572 
 7337000    240.33348   -4000.5707   -3588.6474   -4000.5707            0     2526.453    17.620481      20.7546    21.496946    7861.5631    3028.8353    3137.5857    1412.9381   -774.01593    107.06983    739.01736   -3298.9824 
 7338000    247.77976   -3966.2156   -3541.5296   -3966.2156            0    2870.8758    17.531884    20.650243    21.388857    7743.5719    3039.5355    3046.0484    2527.0436   -79.421021    448.27486    740.54507   -3217.3157 
 7339000    227.24194   -3996.8137   -3607.3287   -3996.8137            0    1839.4264    17.607675    20.739516    21.481323    7844.4345    1164.2147    3974.8217    379.24278    2982.4397   -724.60994    208.96525   -3396.8928 
 7340000    235.48598   -3969.0365   -3565.4216   -3969.0365            0     2516.128    17.525228    20.642404    21.380737    7734.7559    3352.6556    3206.5361    989.19222   -553.75153    458.91007    828.85542   -3281.5936 
 7341000    223.30873   -3997.1888   -3614.4453   -3997.1888            0    1322.7252    17.600304    20.730833     21.47233    7834.5868    994.14573    1553.7347    1420.2951   -137.72134    428.86012   -135.03055   -3463.3115 
 7342000    234.35205   -3970.5042   -3568.8328   -3970.5042            0    2407.1115     17.59994    20.730405    21.471886    7834.1013    2617.5862     1785.462    2818.2862   -2029.6358    374.50221   -73.663135   -3293.8147 
 7343000    230.88583   -3996.6602   -3600.9298   -3996.6602            0    1917.6296    17.534165     20.65293     21.39164    7746.5947    1707.4618    2147.5752    1897.8518    628.46965   -1597.3545   -138.40481   -3384.2834 
 7344000    231.54508   -3996.7831   -3599.9228   -3996.7831            0    1796.8365    17.630259    20.766117    21.508875    7874.6578    1099.6333    1865.1689    2425.7074   -679.91682    402.70861   -900.51303   -3393.5673 
 7345000    231.18155   -3992.7195   -3596.4822   -3992.7195            0     2606.989    17.650995    20.790541    21.534173     7902.476    2019.3215    2193.7961    3607.8495   -120.21206    715.06179    660.97187    -3296.028 
 7346000    241.34038   -3966.9664   -3553.3173   -3966.9664            0    2649.3582    17.546373     20.66731    21.406534     7762.787    520.96175    4792.9692    2634.1437    839.56636   -101.14038    995.32184   -3253.3774 
 7347000    239.78616   -3982.7259   -3571.7406   -3982.7259            0    2418.4543    17.565061    20.689322    21.429333    7787.6168    1317.8936    3633.4649    2304.0042   -734.82021    709.88319    -805.8143   -3297.0661 
 7348000    221.27082   -3986.9994   -3607.7488   -3986.9994            0    1921.3052    17.584357    20.712049    21.452874    7813.3097     2774.717    1168.9143    1820.2842    386.87445   -1501.9784     32.15174   -3388.8178 
 7349000    233.81056   -3975.3347   -3574.5914   -3975.3347            0    3627.9237    17.575154     20.70121    21.441647    7801.0487     2350.169    3599.4938    4934.1084   -89.911965   -488.63255   -1081.8343   -3161.8414 
 7350000    230.31903   -3980.7447   -3585.9858   -3980.7447            0    4197.5732    17.511956    20.626771    21.364546    7717.1968    3506.5689     5848.432    3237.7186   -1126.4005    369.50606   -850.52513   -3113.5598 
 7351000    235.96406   -4011.6382   -3607.2039   -4011.6382            0    2167.0501    17.579811    20.706695    21.447328    7807.2513     2550.137    2039.1607    1911.8525    146.50802   -29.320671    139.42322   -3360.4619 
 7352000     239.4662   -3965.1743   -3554.7374   -3965.1743            0    850.34433    17.544467    20.665065    21.404209     7760.258    1192.6006    1650.7524   -292.32008    590.51674   -1450.1577    93.512664   -3458.4993 
 7353000    239.82816   -3972.3923    -3561.335   -3972.3923            0    2251.0636    17.606616    20.738268    21.480031    7843.0195    2303.3993    1681.3278    2768.4638    147.42609    438.27178    1229.9671    -3303.853 
 7354000    226.85788   -3966.6933   -3577.8667   -3966.6933            0    2539.4904    17.608133    20.740055    21.481881    7845.0462    1482.4482    2603.1714    3532.8517    25.863932    -451.2727   -505.67466   -3287.3186 
 7355000    229.08986   -3920.2701   -3527.6179   -3920.2701            0    2303.0377    17.552286    20.674274    21.413748    7770.6373    2023.3189    2922.7402     1963.054    472.95549     903.1693    394.28981   -3266.6221 
 7356000    232.95312   -3979.2596   -3579.9859   -3979.2596            0    905.85298    17.696138    20.843713    21.589247    7963.2633    735.59067    796.23056    1185.7377   -572.43804    584.64934   -136.97637   -3474.7838 
 7357000    229.43161   -3972.3785   -3579.1406   -3972.3785            0    2459.0483    17.625675    20.760717    21.503282    7868.5167     3052.173    2019.0308    2305.9412    112.03592   -100.56949   -1150.2127   -3296.9544 
 7358000    231.47588   -3957.8266   -3561.0848   -3957.8266            0    1621.4464    17.602007    20.732839    21.474407    7836.8611    1669.3906    1056.7841    2138.1645   -1349.3777   -444.16548   -2650.2556   -3375.7655 
 7359000     243.5147   -4014.3902   -3597.0143   -4014.3902            0    1294.0077     17.61583    20.749121    21.491272    7855.3394    2151.0929    1617.2428    113.68742   -95.064499    126.72133    -1416.266   -3448.7701 
 7360000    236.66494   -3987.9598   -3582.3242   -3987.9598            0    733.02953    17.632854    20.769173    21.512041     7878.135    1815.2477    436.11576   -52.274873   -466.42169    432.72573    332.51241   -3498.1031 
 7361000    236.79163   -3983.4288    -3577.576   -3983.4288            0    2657.4979    17.591484    20.720444    21.461569     7822.814    2280.4715    2983.0101    2709.0121   -684.53061    504.10378   -1040.1376   -3274.3882 
 7362000    234.94971   -3977.9182   -3575.2225   -3977.9182            0    2416.0517    17.591465    20.720422    21.461546    7822.7889    1526.7311    1945.0363    3776.3876     -163.067    737.81543   -814.63906   -3299.5815 
 7363000    230.85121   -3970.5409   -3574.8698   -3970.5409            0     2768.886    17.542864    20.663177    21.402253    7758.1308    1627.6088    4026.5436    2652.5057    1346.0916    1900.6771    168.68298   -3261.5859 
 7364000    241.15502   -3949.0186   -3535.6872   -3949.0186            0    3032.3228    17.548697    20.670047    21.409369    7765.8719    3427.4049      2644.12    3025.4435   -154.95586    1195.2264     184.2264   -3192.2546 
 7365000    240.97904   -3959.5884   -3546.5585   -3959.5884            0    2228.3418    17.560553    20.684011    21.423833    7781.6219    1935.0284    3587.6679    1162.3292    1161.4325   -40.804249    391.82818   -3293.6708 
 7366000    228.17916   -3981.3523    -3590.261   -3981.3523            0    475.50735    17.665459    20.807577    21.551818     7921.918   -155.51996   -128.19189    1710.2339   -426.28624    1938.7714   -58.106279   -3535.3242 
 7367000    229.81296   -4006.8933   -3613.0017   -4006.8933            0    2276.9551    17.581159    20.708284    21.448973    7809.0486    2620.2255    1466.7121    2743.9277   -880.91566    256.03421   -1116.0842   -3353.6862 
 7368000    223.46448   -4001.6567   -3618.6463   -4001.6567            0    1581.9586    17.604866    20.736207    21.477895    7840.6804    1378.2974    626.28775    2741.2906   -529.19564   -560.46059    694.65274    -3437.752 
 7369000     230.0741   -3982.0725   -3587.7334   -3982.0725            0    1787.7217    17.604195    20.735417    21.477077    7839.7847    3917.6418     1297.874    147.64939   -702.64126   -821.74492    133.99414   -3383.3338 
 7370000    230.80595   -3997.2542   -3601.6607   -3997.2542            0    1616.3387    17.623966    20.758704    21.501197    7866.2279    1400.8056    1542.2454    1905.9649   -477.43631   -379.89227    234.00696   -3416.2329 
 7371000    220.58584   -3985.2835   -3607.2069   -3985.2835            0     4840.414    17.517905    20.633778    21.371803    7725.0643    5908.5581    4110.6206    4502.0632   -32.300677   -387.19769   -561.44047   -3061.8755 
 7372000    240.25801   -3980.1218   -3568.3278   -3980.1218            0    2687.6918    17.619568    20.753524    21.495832     7860.341    3423.3002    1875.7881    2763.9871   -592.45264    1283.9879     348.8197   -3260.2242 
 7373000    224.73815   -4000.5193   -3615.3258   -4000.5193            0    2990.4632     17.58925    20.717813    21.458844    7819.8347    2961.2902    2476.4754    3533.6239   -342.67422    714.84427    524.92216   -3274.2806 
 7374000     237.3636   -3967.1611    -3560.328   -3967.1611            0    1928.3574     17.63106     20.76706    21.509852    7875.7309    3321.9406    2261.5527    201.57895   -146.69671    290.10931    501.73067   -3338.8379 
 7375000    237.23098   -3941.0488    -3534.443   -3941.0488            0    2970.1206    17.630328    20.766197    21.508958    7874.7492    3432.3462     1877.398    3600.6175    61.230234    806.01583    535.78064   -3193.3391 
 7376000    239.53162   -3990.4711   -3579.9221   -3990.4711            0    2373.2116    17.673578     20.81714    21.561724    7932.8461    2992.4966    3862.7283    264.40978    327.93029    915.62752   -605.41806   -3305.3595 
 7377000    235.57434   -3987.3673   -3583.6009   -3987.3673            0    3699.6944    17.562104    20.685839    21.425726     7783.685    4504.8272    3361.0575    3233.1984    453.55862   -76.230761    127.91736   -3163.6225 
 7378000     244.1887   -3997.1958   -3578.6647   -3997.1958            0    1042.8102    17.689701    20.836131    21.581394    7954.5762    2238.1939    1076.9294   -186.69281    393.68287   -685.39281    2.3940689    -3457.689 
 7379000    239.86221   -3959.1017   -3547.9861   -3959.1017            0    3093.0195    17.657125    20.797761    21.541651    7910.7118    3977.4942    2038.2547    3263.3097    545.98848    506.21121    273.45662   -3191.1456 
 7380000    226.79646   -3999.9876   -3611.2662   -3999.9876            0    983.03043    17.650901     20.79043    21.534058    7902.3493    1314.0946     1653.433   -18.436355    324.00411    1012.6462    648.65276   -3497.9743 
 7381000    232.50519   -4002.8425   -3604.3366   -4002.8425            0    2210.9952    17.704068    20.853054    21.598922     7973.974     2048.521    2576.6065    2007.8582   -237.09713    14.555893   -587.97926    -3347.215 
 7382000    238.76233   -3950.8119   -3541.5814   -3950.8119            0    4335.6025    17.594128    20.723559    21.464795    7826.3424    5011.1677    3838.0473    4157.5925    1195.2465   -1997.5489    21.555855   -3046.7193 
 7383000    239.65762   -3983.6843   -3572.9194   -3983.6843            0    2042.9412    17.598544     20.72876    21.470182    7832.2364    1133.9769    2920.6911    2074.1557   -526.65896   -1200.8748   -157.73468   -3339.5641 
 7384000    229.69884   -3992.2552   -3598.5592   -3992.2552            0    2393.8756    17.639399    20.776882    21.520026    7886.9114    2230.7809       2255.4     2695.446   -551.56125    40.445749   -408.37019   -3323.2096 
 7385000    217.06245   -3994.1628   -3622.1252   -3994.1628            0    2226.2698    17.613164     20.74598    21.488019    7851.7726    2260.9633    2822.4616    1595.3845   -633.96227   -981.96916   -771.04345   -3367.1949 
 7386000     238.6566   -3987.4932    -3578.444   -3987.4932            0    2985.9327    17.666062    20.808288    21.552555      7922.73    4154.3841    3305.6076    1497.8064   -5.8655653   -417.72801   -41.423554   -3233.4347 
 7387000    227.43882   -3991.4384   -3601.6161   -3991.4384            0     1299.399     17.71944     20.87116    21.617676    7994.7627     283.8733    1566.6148    2047.7088   -216.38476    108.58132   -278.37236   -3450.1121 
 7388000    240.16133   -3984.6847   -3573.0564   -3984.6847            0    2417.3964    17.576901    20.703267    21.443778    7803.3752    1779.9367    3586.2191    1886.0332   -951.09675    478.77983   -1001.7364   -3297.9465 
 7389000    223.71357   -4020.2261   -3636.7887   -4020.2261            0    3746.7908      17.5985    20.728709    21.470129    7832.1783      2575.93    3199.1761    5465.2664    400.94973   -956.20818    760.51824   -3208.8142 
 7390000    233.63107    -4000.981   -3600.5454    -4000.981            0      2891.96    17.679332    20.823918    21.568743    7940.5965    3563.2238    3069.0033    2043.6528    -54.16694   -341.56447     175.2058   -3265.6406 
 7391000    237.16555   -4038.7107    -3632.217   -4038.7107            0    1457.9811     17.75055    20.907803    21.655629    8036.9452    1329.3194    1049.6302    1994.9936   -1402.4624   -447.01841    242.75176   -3461.3262 
 7392000    219.91085   -3978.4479   -3601.5282   -3978.4479            0   -301.32139    17.836448     21.00898    21.760425     8154.188   -893.32697   -594.52458    583.88738   -789.91225    465.93108    7.4401745   -3637.3615 
 7393000    225.94579   -3981.9862   -3594.7229   -3981.9862            0    2935.4484    17.660857    20.802157    21.546204    7915.7289    857.28227    4806.8672    3142.1957   -764.43659    63.928751    199.50374   -3255.8465 
 7394000    234.21547   -3991.9104   -3590.4731   -3991.9104            0    2964.6197    17.573128    20.698823    21.439175    7798.3509     2131.783    3067.4003    3694.6757    1167.1544    805.49289    637.31876   -3253.3041 
 7395000    241.18859   -3974.2307   -3560.8417   -3974.2307            0    2874.0277    17.584305    20.711989    21.452811    7813.2414    2828.5345    2280.7262    3512.8224   -83.357456   -136.00783    856.57227   -3233.3517 
 7396000     235.3923   -3989.6885   -3586.2342   -3989.6885            0    3187.4129    17.656235    20.796712    21.540565     7909.515     1821.654    3202.1827     4538.402   -897.51681    825.79089    -977.6376   -3218.5592 
 7397000    224.33386   -4004.4579   -3619.9574   -4004.4579            0    3357.9804     17.62575    20.760806    21.503374    7868.6173    3711.8733    715.27502    5646.7929   -460.39829     1366.759     422.2711   -3234.6099 
 7398000    237.90117   -4032.5327   -3624.7782   -4032.5327            0    819.96952    17.698412    20.846392    21.592022     7966.334    3206.8939   -1969.0235    1222.0381    620.24673    232.17287   -213.03967   -3529.5135 
 7399000    244.21573   -3964.9547   -3546.3773   -3964.9547            0    2675.3319    17.627989    20.763442    21.506105    7871.6157    3219.3133    2160.2558    2646.4265   -1149.5437   -839.00344    238.09938   -3239.2507 
 7400000    232.77639   -3990.8449   -3591.8741   -3990.8449            0    4547.2668    17.599078    20.729389    21.470834    7832.9497    2603.2284     5064.317     5974.255   -1130.9171    -197.5008   -405.80839   -3072.4146 
 7401000    234.71272   -3962.1261   -3559.8365   -3962.1261            0    3030.5286    17.645572    20.784154    21.527557    7895.1947    3522.9694    3717.7291    1850.8872   -780.62534    627.24341     96.19434   -3210.8914 
 7402000    217.58885   -3982.7807   -3609.8409   -3982.7807            0    1615.7133    17.675862     20.81983     21.56451    7935.9216    995.21914    3099.0923    752.82836   -847.37476   -11.749408   -1182.5363   -3422.8427 
 7403000    238.89876   -3990.6643   -3581.1999   -3990.6643            0    2446.8745    17.675867    20.819837    21.564517    7935.9293    1828.7388     3342.757    2169.1277   -652.54211   -571.49842    659.83589   -3298.0051 
 7404000    227.93667     -3995.87   -3605.1943     -3995.87            0    3872.7844    17.630301    20.766166    21.508926    7874.7136    4462.5371    3466.2489    3689.5671   -666.63829   -732.56449    27.848429   -3160.4259 
 7405000    240.18834   -4013.3375   -3601.6629   -4013.3375            0    2325.1125     17.68355    20.828886     21.57389     7946.282    2308.2296    2886.5799    1780.5279    510.54808     15.82032   -718.22915   -3332.2094 
 7406000    221.59292   -4014.9484   -3635.1457   -4014.9484            0     2278.338    17.771111    20.932022    21.680714    8064.9069    2174.7549    2444.9401     2215.319     138.1904    407.98546   -388.19799   -3367.1713 
 7407000    229.77025   -4002.0418   -3608.2235   -4002.0418            0    1000.8625    17.784744    20.948079    21.697346    8083.4817   -88.503088    1526.7144    1564.3762    336.95199    716.69412    478.07511   -3490.2325 
 7408000    236.93274   -4006.4745   -3600.3799   -4006.4745            0    2338.6103    17.679479    20.824091    21.568923    7940.7945    2984.3161    584.12604    3447.3888   -46.783001   -363.94772   -941.43945   -3329.5493 
 7409000     237.2606   -3994.7595    -3588.103   -3994.7595            0    3336.1877    17.705816    20.855113    21.601054    7976.3359     2953.977    3271.9023    3782.6839    262.47339   -57.342186    -539.6647   -3200.0153 
 7410000    240.13777   -3960.4616   -3548.8737   -3960.4616            0    1990.7607    17.715467     20.86648    21.612828    7989.3855    2074.4785    1994.6093    1903.1942    758.11602   -1175.9405    251.00097   -3316.9163 
 7411000    230.42059   -4001.4229   -3606.4899   -4001.4229            0    3278.5506    17.597601    20.727649    21.469032    7830.9772    2192.8999       4425.5    3217.2519   -166.55138    -1540.856    414.71392   -3232.0572 
 7412000    225.77008    -3981.787   -3594.8249    -3981.787            0    2802.8317    17.601059    20.731722    21.473251    7835.5949     3190.561    3216.6359    2001.2981   -1182.5816      626.349    1156.1601   -3274.5337 
 7413000    232.70051   -3999.9818   -3601.1411   -3999.9818            0    2586.4409    17.658563    20.799455    21.543406    7912.6449    2723.7976    2736.7216    2298.8034   -231.30272   -698.44354   -776.19203   -3302.6715 
 7414000    231.16184   -3987.9868   -3591.7833   -3987.9868            0    1642.9083    17.647919    20.786918     21.53042    7898.3452    112.70027    3135.5076    1680.5172   -212.42108    69.310961   -1119.9057   -3402.5379 
 7415000    236.84598   -3994.6557   -3588.7098   -3994.6557            0    1536.5245    17.612227    20.744877    21.486876    7850.5196    1749.8359   -2.7687625    2862.5063    -959.1099    252.27733    78.493412   -3412.7904 
 7416000    228.14085    -3966.275   -3575.2494    -3966.275            0    2615.6127    17.587032    20.715201    21.456138    7816.8764    2322.5986    3151.9144    2372.3252   -257.13735   -671.05811    262.67574   -3277.0666 
 7417000    223.65515   -4009.4499   -3626.1126   -4009.4499            0    1410.6621    17.623346    20.757974    21.500441    7865.3983    1405.1485    2209.7542     617.0837   -93.374501   -1158.1688    -474.6385   -3464.2973 
 7418000    245.11883   -3979.1006   -3558.9753   -3979.1006            0     2587.045    17.634463    20.771068    21.514003    7880.2914    3543.9515    1644.0876    2573.0958    1033.5303    240.39808    -430.8569   -3261.6567 
 7419000    237.44088   -3963.3151   -3556.3495   -3963.3151            0    2887.6135    17.554827    20.677268    21.416848    7774.0132    3935.9968    3631.9123    1094.9315   -184.39425    925.00557   -112.57984   -3228.9634 
 7420000    226.24563   -3963.3884   -3575.6111   -3963.3884            0     3200.412    17.577576    20.704063    21.444602    7804.2746    5348.1702     2773.429     1479.637    468.62557   -1055.6008    367.09514   -3211.3487 
 7421000    234.51157   -3984.5219   -3582.5771   -3984.5219            0     2104.715    17.580992    20.708086    21.448769    7808.8255    2510.5289    1599.3158    2204.3002   -1120.2218   -171.00577   -679.70678   -3342.8844 
 7422000    234.24936   -4000.8881   -3599.3927   -4000.8881            0    1834.0234    17.603881    20.735046    21.476693    7839.3643      3521.73     801.7841    1178.5561   -17.696626   -138.49048    833.51937   -3389.7105 
 7423000    231.60613   -4001.7609   -3604.7959   -4001.7609            0     3264.358    17.604539    20.735822    21.477497    7840.2437    3174.8822    5311.0233    1307.1685    965.55743    -195.1267    169.90587   -3231.5429 
 7424000    232.35628   -3991.2245   -3592.9738   -3991.2245            0    2479.4791    17.569766    20.694864    21.435074    7793.8768     3601.708    2159.3936    1677.3355    -1050.196    194.87737    1226.1201   -3311.1421 
 7425000    237.31513   -3970.1579   -3563.4079   -3970.1579            0    566.71864    17.579864    20.706757    21.447393    7807.3223    2244.2351    315.19523   -859.27438    1472.3338    1789.5149     315.4612   -3498.8803 
 7426000     237.6861   -3990.4066   -3583.0207   -3990.4066            0     2286.732    17.536336    20.655487    21.394289    7749.4725    2417.2449    2422.8441    2020.1069    121.03223   -204.38026   -378.07857   -3324.5786 
 7427000    260.61817   -4009.2716   -3562.5809   -4009.2716            0    2712.7944     17.50901    20.623301    21.360951    7713.3027    2965.8715    3453.8727    1718.6391    603.41112   -117.63481    722.45928    -3257.417 
 7428000     232.5954   -3961.6822   -3563.0217   -3961.6822            0    1735.5463    17.567274    20.691929    21.432034     7790.561    785.29277    3268.8524    1152.4937   -457.79895   -562.45547    870.50886   -3365.8335 
 7429000    237.14689   -3998.0837    -3591.622   -3998.0837            0    1755.7529    17.584219    20.711888    21.452706    7813.1266    2058.3539    1960.0987    1248.8061   -18.792294   -673.34677     901.3593   -3391.5602 
 7430000    222.28299   -3972.3682   -3591.3828   -3972.3682            0     1434.318    17.588068    20.716421    21.457402    7818.2584     1857.656    1829.0971    616.20108    937.70938   -2294.5671    1252.4081     -3427.84 
 7431000    232.83106   -3960.6984   -3561.6339   -3960.6984            0    3170.8131     17.60102    20.731677    21.473204    7835.5435    3350.4661    2781.2945    3380.6786    1769.6265   -612.85877    1869.7096   -3199.2944 
 7432000    244.37056   -3969.4237   -3550.5809   -3969.4237            0    3323.8106    17.543462    20.663881    21.402983    7758.9241    4539.1578    2545.5684    2886.7055    255.34698   -721.22832    181.52811    -3174.472 
 7433000    229.01127   -3988.5241   -3596.0066   -3988.5241            0    3082.5743    17.595284     20.72492    21.466205    7827.8844    2553.2678    2177.0017    4517.4535   -366.21938   -894.06285    625.14769   -3244.0948 
 7434000    230.58433   -3989.3971   -3594.1834   -3989.3971            0    1440.4196    17.574096    20.699964    21.440357    7799.6408     1795.474    1242.5733    1283.2116    231.41768   -1731.4071     1629.487    -3430.336 
 7435000    245.48849    -3977.403   -3556.6441    -3977.403            0   -490.37917    17.622291    20.756731    21.499153    7863.9849   -896.86058   -780.59778    206.32085   -1052.3755   -22.892801    843.53171   -3612.8848 
 7436000    232.82534   -3950.5062   -3551.4516   -3950.5062            0    2038.3832    17.564304     20.68843     21.42841    7786.6099    1805.3301    2518.2599    1791.5596    81.255406   -50.126401    2403.1092   -3319.9734 
 7437000    238.12149    -3985.804    -3577.672    -3985.804            0    3021.1909    17.493697    20.605265     21.34227    7693.0828    2896.5655    2579.3632     3587.644    550.81394   -627.47574     503.7521   -3238.7073 
 7438000    247.84779   -3966.4142   -3541.6115   -3966.4142            0    4626.7922    17.509745    20.624167    21.361848    7714.2739    4748.2751    4649.3245     4482.777    -1409.632    583.60334    1102.3669   -3021.0753 
 7439000    216.62516   -3970.5169   -3599.2288   -3970.5169            0    2217.5311    17.618779    20.752594    21.494869    7859.2843    3277.1319    1781.9937    1593.4676   -475.88333   -287.70727   -538.39713   -3345.0563 
 7440000    239.09745   -3931.9685   -3522.1636   -3931.9685            0    3762.7037    17.652535    20.792354    21.536051    7904.5435    2279.6837    5415.9766    3592.4506    55.575667    443.99665   -94.617246   -3088.4004 
 7441000    238.33806   -3971.9031   -3563.3998   -3971.9031            0    3261.3727    17.615317    20.748517    21.490646    7854.6527    3532.3557     3952.617    2299.1455   -11.188572   -620.77107    229.36592   -3189.8029 
 7442000    234.29454   -3974.1617   -3572.5889   -3974.1617            0    632.85892    17.670391    20.813386    21.557836    7928.5553     243.1433    1083.0705    572.36294   -425.18407    675.98844   -369.17014   -3499.4115 
 7443000    235.11404   -3969.4046   -3566.4271   -3969.4046            0    253.86294    17.723944    20.876464     21.62317      8000.86   -276.79199    651.75231    386.62849   -257.35155    57.302218   -1147.8049   -3536.8053 
 7444000    229.87732   -3940.0759    -3546.074   -3940.0759            0    2928.6594    17.614583    20.747652     21.48975    7853.6709    1337.9111    3212.4881    4235.5789   -1043.7478    380.17696   -1269.4964    -3210.632 
 7445000    240.61233   -3990.3729   -3577.9716   -3990.3729            0    1665.8505    17.602336    20.733227    21.474809    7837.3011    452.36982    2851.3505    1693.8312   -503.22456    1613.4513    32.344217   -3387.5666 
 7446000    231.62915   -3978.9041   -3581.8996   -3978.9041            0    2175.8453    17.577035    20.703425    21.443941    7803.5537    928.71487    3063.0614    2535.7597   -507.30836   -756.88318    1083.5527   -3334.2736 
 7447000    229.69065   -3974.2343   -3580.5524   -3974.2343            0    1350.6778     17.64367    20.781912    21.525236    7892.6411    1310.0917    894.50357    1847.4381   -584.23998   -284.42959   -356.81255   -3425.0812 
 7448000    231.99403   -3973.6304   -3576.0005   -3973.6304            0     1231.901    17.642172    20.780149    21.523409    7890.6317    2114.4776    934.67658     646.5488    -97.05747    284.52801    231.06326   -3434.2373 
 7449000    243.08093   -3964.8999   -3548.2675   -3964.8999            0    2524.8193    17.640752    20.778476    21.521677    7888.7265    2193.7422    2788.0321    2592.6837    -157.0354    1375.2622   -266.90104   -3257.7896 
 7450000    229.98464   -3961.4866   -3567.3008   -3961.4866            0    3313.0694    17.622897    20.757444    21.499893     7864.796    3524.7616    3005.9362    3408.5105   -11.551772    164.41129    859.91636   -3187.2918 
 7451000    242.20363   -3981.5623   -3566.4336   -3981.5623            0    2932.3285    17.604991    20.736354    21.478048    7840.8482    1544.6271    3495.8651    3756.4933    601.64534   -1498.7156   -1587.3829   -3231.1197 
 7452000    235.16784   -3958.6953   -3555.6256   -3958.6953            0     2593.375    17.580469     20.70747    21.448131    7808.1285    2243.9167    2842.5275    2693.6807   -1138.4515   -341.05736    -672.4572   -3260.3088 
 7453000    229.90698   -3991.1741   -3597.1214   -3991.1741            0    3666.4412    17.540909    20.660874    21.399869    7755.5376    2176.5045    4298.5969    4524.2223    -217.2779    -774.6399      413.879   -3182.4229 
 7454000    231.20068   -3980.9657   -3584.6957   -3980.9657            0    1866.8411    17.572709     20.69833    21.438664    7797.7933    1220.2017    2567.9433    1812.3782   -8.4598033    1294.1892   -1930.6956   -3372.3932 
 7455000    241.70539   -4015.3301   -3601.0553   -4015.3301            0    2221.9019    17.602984     20.73399    21.475599    7838.1664    2967.7912    1007.1301    2690.7844    696.31464    1018.6058    446.47536   -3347.0661 
 7456000    231.42765   -3991.9851   -3595.3261   -3991.9851            0    2125.8708    17.675751      20.8197    21.564375    7935.7732     2507.006    1998.9004    1871.7059   -858.61684    270.23753    492.12653   -3349.2882 
 7457000    230.24641   -3966.3885    -3571.754   -3966.3885            0    1760.4384    17.572793    20.698429    21.438767    7797.9059     58.18669    2084.8399    3138.2886   -506.52612    481.91339    683.78636   -3371.5491 
 7458000    240.45526   -3971.8433   -3559.7112   -3971.8433            0    2916.8827    17.521056     20.63749    21.375648     7729.234    2244.7767    2824.0763    3681.7951   -664.31845    1232.9636    646.74653   -3230.9115 
 7459000    233.56731   -3991.6161   -3591.2898   -3991.6161            0    3431.2755    17.540931      20.6609    21.399895    7755.5664     3575.957    2588.7207    4129.1488     7.457272    815.71061   -1310.1568   -3203.1885 
 7460000    249.38995   -3978.7414   -3551.2956   -3978.7414            0      816.787     17.61643    20.749827    21.492003    7856.1411    956.39829    160.75793    1333.2048   -1085.9402   -15.780524   -355.68968   -3457.7132 
 7461000     240.9992   -3994.6445   -3581.5801   -3994.6445            0    3421.9438    17.523397    20.640248    21.378504    7732.3326     4153.948    2599.3511    3512.5323    1052.4006   -92.498146   -1068.6979   -3195.6939 
 7462000    231.09822   -3961.9328   -3565.8384   -3961.9328            0    2669.6358    17.624291    20.759087    21.501594    7866.6634    2582.7938    1348.5017     4077.612     1188.657   -210.22349    342.59484   -3259.5585 
 7463000    241.90738   -3968.1027   -3553.4817   -3968.1027            0    2749.3791    17.579235    20.706017    21.446626    7806.4848    2667.9509    3087.2004     2492.986    326.45556   -806.93825    86.462892   -3240.4661 
 7464000    231.17898   -3973.5416   -3577.3088   -3973.5416            0    2124.7814    17.548543    20.669866    21.409182    7765.6674    2412.1252    3207.0729     755.1462   -1543.6757   -786.00658    165.46483   -3336.6682 
 7465000    219.57032   -4005.0492   -3628.7132   -4005.0492            0      2290.61    17.536665    20.655875     21.39469    7749.9089    3488.1867    1298.0118    2085.6313   -578.31908   -377.31682   -151.52945   -3369.8182 
 7466000    234.88683   -3984.5552   -3581.9673   -3984.5552            0    3008.1314    17.505948    20.619695    21.357216    7709.2567    2483.5428     3238.593    3302.2584    879.69786     285.2876    1464.2221   -3243.7582 
 7467000    232.26952   -3996.4268   -3598.3248   -3996.4268            0    2751.4072     17.53201    20.650392    21.389011    7743.7388    2689.9992    3350.8234    2213.3989    1648.1649    101.92224   -1003.1465    -3287.596 
 7468000    240.26625   -3961.7026   -3549.8945   -3961.7026            0    3290.1549    17.459251    20.564691    21.300245    7647.7272    3821.8179    3541.2437    2507.4033   -451.01257    583.86699    648.02793   -3182.9295 
 7469000    248.22828   -3983.1585   -3557.7037   -3983.1585            0     2774.512    17.509606    20.624003    21.361679    7714.0905    2530.8214    1894.7404    3897.9741   -949.31079   -757.22887   -247.63621   -3245.5653 
 7470000    225.44472   -3980.6251   -3594.2205   -3980.6251            0     1447.592    17.543909    20.664408    21.403528    7759.5171    3832.5081    406.96488    103.30293    58.193393   -230.42764   -986.16408   -3430.4044 
 7471000    242.29141   -3987.3734   -3572.0942   -3987.3734            0    1378.1677    17.651917    20.791627    21.535297     7903.714    2198.2174    1680.7898    255.49588    890.76855     796.8413   -290.24111   -3413.2362 
 7472000    229.32411   -3977.3175   -3584.2638   -3977.3175            0    1361.3163    17.562555     20.68637    21.426277    7784.2847    2266.6279    1475.7689    341.55223   -153.84043    429.80123    87.408049   -3429.7193 
 7473000    235.72393   -3981.1962   -3577.1735   -3981.1962            0    1484.5397     17.59154     20.72051    21.461637    7822.8887    1977.6532    931.08622    1544.8797   -203.84745   -610.63644    441.49181   -3407.8041 
 7474000     239.7149   -4002.1817   -3591.3186   -4002.1817            0    1757.9714    17.550674    20.672375    21.411781    7768.4961    1392.6154    2271.4592    1609.8397   -965.96928     785.2132   -296.97115   -3392.1482 
 7475000    226.00086   -3989.6963   -3602.3386   -3989.6963            0    760.35371     17.64681    20.785611    21.529067    7896.8559   -222.79165    361.72951    2142.1233    250.40227    -809.6084    58.447365   -3514.7705 
 7476000    229.83603   -3962.7118   -3568.7807   -3962.7118            0    2737.6452    17.563092    20.687003    21.426932    7784.9987    2924.0347    2374.3684    2914.5326   -98.725165   -55.534577    1119.8576   -3257.9588 
 7477000    249.14945   -3942.1514   -3515.1178   -3942.1514            0    1816.6458    17.635182    20.771915    21.514881    7881.2562    1331.0724    652.32989    3466.5351   -209.44355   -369.64452      166.176   -3306.3124 
 7478000     237.3112   -3962.3498   -3555.6066   -3962.3498            0    4045.5715    17.576374    20.702647    21.443136    7802.6743    4860.4428    3299.1193    3977.1526  -0.57602132    164.22592    700.80903   -3095.2448 
 7479000     240.7397   -3976.6626    -3564.043   -3976.6626            0    3372.9482    17.569625    20.694698    21.434902    7793.6892     2639.075    3229.1828    4250.5869   -301.50323    329.60334   -856.62089   -3180.6637 
 7480000    239.52967   -3951.1959   -3540.6503   -3951.1959            0     1011.296    17.675145    20.818987    21.563636     7934.957    1758.4581     1957.737   -682.30705    1930.8531    973.28972   -249.28826   -3423.6198 
 7481000    229.63792   -3951.8386    -3558.247   -3951.8386            0    2949.1053    17.579676    20.706537    21.447164    7807.0726    1029.2696    3522.0451    4296.0011    179.91012    -1352.407    51.493447   -3222.4674 
 7482000    238.04838   -3976.4893   -3568.4825   -3976.4893            0    3226.2676    17.534118    20.652875    21.391584    7746.5334    2957.2949    4855.0792    1866.4288   -33.643497   -607.19213    650.88263   -3203.9942 
 7483000    226.70679   -3984.3985   -3595.8308   -3984.3985            0    2318.8745    17.608577    20.740578    21.482423    7845.6405    1731.4326    2208.7749    3016.4161   -491.10511    647.12668    843.23344   -3330.5038 
 7484000    235.60801   -3960.8546   -3557.0305   -3960.8546            0    3538.2943    17.518125    20.634038    21.372072    7725.3554    4365.8141    4040.2232    2208.8455    -265.2542    79.060698    865.57981   -3158.3837 
 7485000    226.84197   -3974.2492   -3585.4498   -3974.2492            0    1868.6558    17.612745    20.745488    21.487508     7851.213    2213.5658      1544.96    1847.4418    1600.1086    758.18738   -331.28355   -3371.4852 
 7486000     229.5646    -3972.891   -3579.4251    -3972.891            0    2684.8699    17.565026    20.689281    21.429291    7787.5706    2478.6776    3605.3649    1970.5673    918.44602    68.356553    80.739684   -3274.4944 
 7487000    233.57293    -3988.373    -3588.037    -3988.373            0    1781.4661    17.606964    20.738677    21.480455    7843.4836    1894.2499    1861.6602    1588.4882     216.0702   -942.66107   -88.663369   -3384.2566 
 7488000    229.37591   -3958.9045    -3565.762   -3958.9045            0    2051.5281     17.57932    20.706117    21.446729    7806.5978    2387.5948    2480.0274    1286.9623   -836.41922   -1007.7254    873.75404   -3332.1931 
 7489000    231.95128   -3986.5241   -3588.9676   -3986.5241            0    3707.0958    17.492301    20.603619    21.340566    7691.2403    4251.4343    4612.1912     2257.662     753.6804    547.62331    310.17225   -3173.1469 
 7490000    234.57452   -3980.8453   -3578.7926   -3980.8453            0    2984.2336    17.481735    20.591175    21.327676    7677.3126    3452.5207    2804.4479    2695.7322    465.07053    140.28863    197.32987   -3244.6607 
 7491000    231.90383    -4006.019   -3608.5437    -4006.019            0    3748.8953    17.484694     20.59466    21.331286    7681.2113     4946.737    3357.9418    2942.0073    389.96356   -896.17029     1371.278   -3188.5828 
 7492000    229.26879   -3960.3634   -3567.4045   -3960.3634            0    598.34634    17.614298    20.747316    21.489402    7853.2892    1768.8897    1662.9524   -1636.8031    707.79844   -132.65477   -380.04488   -3498.8746 
 7493000    241.74667   -3966.0631   -3551.7176   -3966.0631            0    2234.6387    17.516427    20.632037        21.37    7723.1091    2247.7496     3097.341    1358.8256   -64.355792    321.69703   -851.93089   -3300.0221 
 7494000    232.30713   -3972.1311   -3573.9646   -3972.1311            0    3313.6414    17.489369    20.600167     21.33699    7687.3743    3395.7489    4398.7946    2146.3807    1046.2032   -849.98233   -1079.1104   -3202.4641 
 7495000    241.91413   -3965.3429   -3550.7104   -3965.3429            0    3733.3223    17.511429     20.62615    21.363902    7716.4994    3117.0076    4617.2406    3465.7186    332.50441    962.38325    442.74901   -3130.5726 
 7496000    235.13643   -3990.6303   -3587.6145   -3990.6303            0    1843.9479    17.574878    20.700884     21.44131    7800.6809    780.43329    1597.9398    3153.4707   -103.22638    196.80092   -1739.6919   -3377.8379 
 7497000    217.65792     -3971.75   -3598.6917     -3971.75            0     2644.033     17.57426    20.700157    21.440556    7799.8583    3194.8611    3269.5373    1467.7007   -229.56088   -198.75429     657.2283   -3297.9252 
 7498000    248.61662   -3977.1757   -3551.0553   -3977.1757            0    2239.0352    17.507272    20.621254    21.358831     7711.006    2726.8312     2416.743    1573.5313    384.07237    635.09007   -952.08703   -3299.2599 
 7499000    224.89577   -3994.7819   -3609.3183   -3994.7819            0     1253.277    17.518831    20.634869    21.372933    7726.2891    837.56228    1898.9682    1023.3006    1223.6723   -378.81289   -834.95892    -3468.099 
 7500000    238.24833   -3955.4269   -3547.0774   -3955.4269            0    2427.4931    17.501294    20.614213    21.351538    7703.1101    2656.7257    1742.8942    2882.8593    722.30462   -447.47294     970.4978   -3274.3681 
Loop time of 372.246 on 64 procs for 250000 steps with 864 atoms

Performance: 116.052 ns/day, 0.207 hours/ns, 671.599 timesteps/s
191.9% CPU use with 32 MPI tasks x 2 OpenMP threads

MPI task timing breakdown:
Section |  min time  |  avg time  |  max time  |%varavg| %total
---------------------------------------------------------------
Pair    | 25.584     | 30.77      | 34.997     |  41.7 |  8.27
Bond    | 0.91992    | 1.0777     | 1.9805     |  16.5 |  0.29
Kspace  | 172.85     | 177.56     | 182.76     |  17.8 | 47.70
Neigh   | 2.9681     | 3.2009     | 3.3754     |   8.1 |  0.86
Comm    | 68.349     | 71.845     | 74.99      |  22.6 | 19.30
Output  | 0.50909    | 0.50941    | 0.51112    |   0.0 |  0.14
Modify  | 68.163     | 70.545     | 73.231     |  14.7 | 18.95
Other   |            | 16.74      |            |       |  4.50

Nlocal:        27.0000 ave          35 max          21 min
Histogram: 7 1 4 1 3 7 3 4 1 1
Nghost:        2443.94 ave        2516 max        2401 min
Histogram: 5 2 5 8 3 4 1 3 0 1
Neighs:        8025.31 ave       10807 max        4978 min
Histogram: 3 1 1 2 7 5 8 1 1 3

Total # of neighbors = 256810
Ave neighs/atom = 297.23380
Ave special neighs/atom = 2.0000000
Neighbor list builds = 10658
Dangerous builds = 0

unfix		3
unfix		2
unfix		1

write_data	data.final.${pid}
write_data	data.final.1
System init for write_data ...
PPPM initialization ...
  extracting TIP4P info from pair style
  using 12-bit tables for long-range coulomb (../kspace.cpp:340)
  G vector (1/distance) = 0.37330557
  grid = 24 24 25
  stencil order = 5
  estimated absolute RMS force accuracy = 0.0031795819
  estimated relative force accuracy = 9.5752165e-06
  using double precision FFTW3
  3d grid and FFT values/proc = 3822 576
Last active /omp style is kspace_style pppm/tip4p/omp
WARNING: Not all mixed pair coeffs generated from mixing. Use write_data with 'pair ij' option to store all pair coeffs. (../write_data.cpp:312)

write_restart   restart.lmp.${pid}
write_restart   restart.lmp.1
System init for write_restart ...
PPPM initialization ...
  extracting TIP4P info from pair style
  using 12-bit tables for long-range coulomb (../kspace.cpp:340)
  G vector (1/distance) = 0.37330557
  grid = 24 24 25
  stencil order = 5
  estimated absolute RMS force accuracy = 0.0031795819
  estimated relative force accuracy = 9.5752165e-06
  using double precision FFTW3
  3d grid and FFT values/proc = 3822 576
Last active /omp style is kspace_style pppm/tip4p/omp
Total wall time: 0:06:12
