LAMMPS data file via write_data, version 30 Jul 2021, timestep = 22500000

1296 atoms
2 atom types
864 bonds
1 bond types
432 angles
1 angle types

-10.565530898761875 12.545530898761875 xlo xhi
-9.23965038372578 12.22964838372578 ylo yhi
0.024193024390839923 21.835805975612253 zlo zhi
-9.040002459788512 1.943095687738899 2.912076611165027 xy xz yz

Masses

1 1.008
2 15.999

Pair Coeffs # lj/cut/tip4p/long/omp

1 0 0
2 0.21084 3.1668

Bond Coeffs # harmonic/omp

1 450 0.9572

Angle Coeffs # harmonic/omp

1 55 104.52

Atoms # full

280 94 2 -1.1794 -9.417252033471831 -4.637348349179945 1.4704795203104748 1 1 0
270 90 1 0.5897 -8.2387400142692 -7.452826626584513 2.056464166239476 1 1 0
269 90 1 0.5897 -9.072462901321941 -6.198344451458291 2.208614494361632 1 1 0
268 90 2 -1.1794 -8.934208492708134 -7.066040003949318 2.5883692528513857 1 1 0
314 105 1 0.5897 -8.787827837579792 -6.925656088240141 4.5020667150115 1 1 0
299 100 1 0.5897 -6.454286534626875 -8.04378982097416 3.8048808924831867 1 1 0
163 55 2 -1.1794 -6.982488857380664 -7.941754843517299 0.7199959447204497 1 1 0
164 55 1 0.5897 -6.148458622622522 -8.329391244805171 0.9852921529843732 1 1 0
298 100 2 -1.1794 -5.884136004738686 -7.279546482653705 3.8887745270926932 1 1 0
73 25 2 -1.1794 -8.317732995927493 -3.827513923711913 4.693370672379008 1 0 0
324 108 1 0.5897 -7.098217516838712 -4.404840235236029 3.359800784582144 1 1 0
107 36 1 0.5897 -9.007520386701923 1.4534202181148892 3.341586132527145 1 0 0
282 94 1 0.5897 -10.238698193468924 -4.146644617858993 1.4959730997475342 1 1 0
84 28 1 0.5897 -7.797174883646299 -0.5816714672152958 3.872528531307722 1 0 0
75 25 1 0.5897 -9.096423077063076 -3.392611164994179 4.345864029218298 1 0 0
281 94 1 0.5897 -8.737744052572545 -3.965194024996803 1.4192675370134915 1 1 0
301 101 2 -1.1794 -7.688080070939556 -2.2605478364921554 1.4908938890591317 1 1 0
53 18 1 0.5897 -12.247326490918386 0.7887225682349222 2.127651222829888 1 0 0
275 92 1 0.5897 -10.344802918068835 -8.15664391940584 3.3245906802955787 1 1 0
257 86 1 0.5897 -12.519120849139659 -3.7968984874813154 2.0337253100200385 1 1 0
322 108 2 -1.1794 -6.377467360053164 -4.8059258783242536 2.8741519376429436 1 1 0
300 100 1 0.5897 -4.9969121917373505 -7.636775807527573 3.850880301513346 1 1 0
241 81 2 -1.1794 -1.1791154900362972 -6.380280543432005 5.451461559497251 0 1 0
256 86 2 -1.1794 -11.803976763299705 -3.283159910429001 1.6585614585694104 1 1 0
258 86 1 0.5897 -12.218676307495745 -2.759459497754479 0.9729813376003053 1 1 0
259 87 2 -1.1794 -6.586865540726087 -5.317125327812526 0.2449134791456258 1 1 0
90 30 1 0.5897 -3.623802785738257 -0.33560170979206383 1.9560452072873837 1 0 0
69 23 1 0.5897 -10.776814325254946 -2.549352839338101 3.0520552230307585 1 0 0
272 91 1 0.5897 -9.231823573981682 -1.2923301886945806 1.0801737640692204 1 1 0
83 28 1 0.5897 -9.284426187963529 -0.8323941502117691 3.7423345817351223 1 0 0
82 28 2 -1.1794 -8.648608018702472 -0.15830332462797436 3.9821993214977187 1 0 0
271 91 2 -1.1794 -10.016957494250672 -0.8573656711587851 0.7475636733652844 1 1 0
98 33 1 0.5897 -11.662003190148326 0.44789026368670903 4.334771304762374 1 0 0
54 18 1 0.5897 -11.217414096436398 -0.31808972828758897 2.0489288144284092 1 0 0
67 23 2 -1.1794 -10.383114716653328 -2.3352437207193217 3.897896319535832 1 0 0
68 23 1 0.5897 -11.07384302799963 -2.513384029939475 4.53608415182641 1 0 0
52 18 2 -1.1794 -11.936157327221265 0.010034242291110829 2.589236540291031 1 0 0
261 87 1 0.5897 -6.592826412302792 -4.922553650543319 1.117009269118304 1 1 0
323 108 1 0.5897 -6.346490929315937 -5.708211357158 3.192164139992987 1 1 0
315 105 1 0.5897 -8.731191600867007 -5.588484122050982 5.209699263942748 1 1 0
260 87 1 0.5897 -6.880479192733164 -6.21706747149633 0.3866168959229625 1 1 0
103 35 2 -1.1794 -2.738218169453842 -2.372483355100777 4.1099186099389335 1 0 0
27 9 1 0.5897 -3.900504694661678 1.5990847249702078 5.399277069925242 0 0 0
317 106 1 0.5897 -1.0458808712447158 -4.081602519053695 1.2708600842517646 1 1 0
310 104 2 -1.1794 -3.4964366456322358 -8.708542639208703 3.5495539532545486 1 1 0
88 30 2 -1.1794 -4.209500664457399 0.13545349841801801 2.5487389491771313 1 0 0
302 101 1 0.5897 -7.228082007006256 -2.1201144496651656 2.318521592729699 1 1 0
97 33 2 -1.1794 -11.587403910403342 0.7781067955353347 5.230130716226629 1 0 0
306 102 1 0.5897 -0.7016105833109219 -7.730312148073496 2.161655789098408 1 1 0
304 102 2 -1.1794 -1.2868088343890403 -7.245887232584723 2.7439765692212674 1 1 0
318 106 1 0.5897 -2.519566962316908 -4.3590708134390574 1.4780790802209258 1 1 0
242 81 1 0.5897 -1.1079595301833614 -6.8067802005416675 4.597472685937088 0 1 0
305 102 1 0.5897 -1.3231303751837 -6.365629338827567 2.3697749473372904 1 1 0
316 106 2 -1.1794 -1.6646385869173184 -4.788820511384469 1.45284987660912 1 1 0
311 104 1 0.5897 -2.767771263597467 -8.149196283913312 3.280672695183198 1 1 0
293 98 1 0.5897 -4.903211162255272 -3.8334412890686007 2.319991890077409 1 1 0
303 101 1 0.5897 -7.009012819426407 -2.1764876213114066 0.8216222872097918 1 1 0
294 98 1 0.5897 -4.568854231402564 -2.8752673748873026 1.1966839708850698 1 1 0
3 1 1 0.5897 -1.2926234216947385 -3.5070149730033817 4.489670654340593 0 0 0
96 32 1 0.5897 -5.801646862685791 -1.7183516014201707 4.492790664181185 1 0 0
95 32 1 0.5897 -5.473603515839615 -0.888221872939063 3.270089359087533 1 0 0
105 35 1 0.5897 -3.156492128776109 -2.6640270619107334 3.299776103037175 1 0 0
94 32 2 -1.1794 -6.186333102398313 -1.3716058500412434 3.6877763259386365 1 0 0
104 35 1 0.5897 -3.3390239909905715 -2.6471563841105876 4.8025260337440745 1 0 0
26 9 1 0.5897 -3.855136218983099 0.4370954409711487 4.429876940617578 0 0 0
292 98 2 -1.1794 -4.172663499170009 -3.362771831903622 1.9189159340456445 1 1 0
89 30 1 0.5897 -4.282390414803188 1.0108953434335177 2.1686047587701722 1 0 0
243 81 1 0.5897 -0.9160605997685494 -5.474246254597539 5.289938981983364 0 1 0
59 20 1 0.5897 -13.278676158240128 -0.8765241368460508 3.3770221135802956 1 0 0
25 9 2 -1.1794 -3.9597426075421476 0.6445927739184523 5.358451913394349 0 0 0
99 33 1 0.5897 -11.371240016597802 1.7048348085461402 5.126945388127935 1 0 0
313 105 2 -1.1794 -8.709866039262321 -6.531747858195136 5.370994659806606 1 1 0
199 67 2 -1.1794 0.5357576986959725 -8.213187723466973 0.753913608140392 1 1 0
201 67 1 0.5897 0.28635850163196785 -8.865749666188592 0.09951457927337493 1 1 0
74 25 1 0.5897 -8.00270780859907 -3.2416718537154248 5.381723864541785 1 0 0
633 211 1 0.5897 -5.802404227661185 -6.09239814754101 5.291999321516277 1 1 0
44 15 1 0.5897 -9.83118947644443 0.8779916359303659 0.4599665846357914 1 0 0
165 55 1 0.5897 -7.377377939578187 -8.594475423737194 0.1418241481339135 1 1 0
420 140 1 0.5897 -9.117371396884732 -6.290659768711526 9.875290718503424 1 0 0
618 206 1 0.5897 -7.971211363409539 -7.400339445883466 6.6827655947627775 1 1 0
413 138 1 0.5897 -7.462756384352451 -3.610793175567051 7.681618014757855 1 0 0
419 140 1 0.5897 -8.694900843128538 -5.4200592769006075 8.711128432995286 1 0 0
418 140 2 -1.1794 -9.468029619621323 -5.78087560055069 9.144940182690583 1 0 0
414 138 1 0.5897 -6.641348824798209 -4.872096152499685 7.5192266806674875 1 0 0
350 117 1 0.5897 -7.140311386705909 -4.16331298353219 9.906922223601526 0 0 0
412 138 2 -1.1794 -7.227862449274175 -4.423950331323006 8.12864208091024 1 0 0
429 143 1 0.5897 -6.415626179871607 -7.300742354510569 8.701307659870766 1 0 0
427 143 2 -1.1794 -6.004805292144732 -7.0994552280520455 9.542139537929032 1 0 0
428 143 1 0.5897 -6.726253136401464 -7.112677414884424 10.171011018056822 1 0 0
411 137 1 0.5897 -13.172078767889184 0.42024026467421827 6.079161011465689 1 0 0
522 174 1 0.5897 -9.596265207276103 2.260304594213748 7.476330594895986 1 0 0
330 110 1 0.5897 -3.019651147082122 -0.3135820629728716 6.5139425386313405 0 0 0
435 145 1 0.5897 -7.411513914216353 -0.8596472560163608 9.892196347426008 0 0 0
425 142 1 0.5897 -7.19571112584883 -1.4072368923190384 6.7939872285979845 1 0 0
400 134 2 -1.1794 -10.086219512633651 -0.506412162078707 7.270443999109917 1 0 0
536 179 1 0.5897 -9.4720837211338 0.266560083000714 10.052759563185766 1 0 0
402 134 1 0.5897 -10.541517543093146 -0.07322212480291235 6.548422708689903 1 0 0
526 176 2 -1.1794 -12.43250779878278 1.2882027084419203 8.977354117512995 1 0 0
351 117 1 0.5897 -7.030973008787026 -2.9928168808323594 10.860857720686235 0 0 0
537 179 1 0.5897 -9.069232169743639 0.13233755863347874 8.599643589428899 1 0 0
426 142 1 0.5897 -8.68372975388972 -1.5831911812098385 7.009712993031569 1 0 0
401 134 1 0.5897 -10.743807887460784 -1.0852894853103106 7.655920485325296 1 0 0
527 176 1 0.5897 -11.625927798269533 1.764755421227397 8.78125965696018 1 0 0
535 179 2 -1.1794 -8.737698475338563 0.4059005258864179 9.454941310272487 1 0 0
424 142 2 -1.1794 -7.891894537045358 -2.0636033134040748 6.76800548167288 1 0 0
528 176 1 0.5897 -12.155050201414069 0.5714562966210703 9.547904660208426 1 0 0
326 109 1 0.5897 -3.446032461596374 -7.617330583508666 10.776950100144727 0 0 0
337 113 2 -1.1794 -5.954786789994503 0.020534546146038224 7.091488004439428 0 0 0
349 117 2 -1.1794 -7.265432145593091 -3.9201251507274124 10.824227219560786 0 0 0
631 211 2 -1.1794 -5.6189641552369505 -5.646743091975631 6.119056706696852 1 1 0
415 139 2 -1.1794 -8.220786633527803 1.582520401091033 6.267988685895622 1 0 0
329 110 1 0.5897 -3.303305273086906 -1.1747329462254879 7.7262500190640875 0 0 0
454 152 2 -1.1794 -4.497975065991492 1.1887787281645803 9.036073962666125 0 0 0
335 112 1 0.5897 -4.7759891978211915 -5.615109289378197 9.653042994226192 0 0 0
433 145 2 -1.1794 -6.551952276282635 -1.1735566221604508 10.173005873873894 0 0 0
616 206 2 -1.1794 -7.537759895688064 -7.895091912497511 7.378178932213926 1 1 0
544 182 2 -1.1794 0.3967123657195355 -8.015896920956031 7.22075383644312 0 1 0
555 185 1 0.5897 -2.8208169404271892 -6.866774776654715 6.322754155330928 0 1 0
416 139 1 0.5897 -7.488193585643942 1.1960567828350293 6.747788804156439 1 0 0
347 116 1 0.5897 -1.1246342447411912 -5.478487476353879 8.761088175134637 0 0 0
348 116 1 0.5897 -1.2886835220229003 -6.468223645281423 9.894785503819238 0 0 0
336 112 1 0.5897 -3.3816636417361057 -5.040124417196917 9.523129383425447 0 0 0
359 120 1 0.5897 -4.6227538206427194 -3.2588293149825036 8.826834783657484 0 0 0
346 116 2 -1.1794 -1.7728144582315792 -6.036303097775836 9.190989430323881 0 0 0
632 211 1 0.5897 -4.889373206583051 -6.136362111370776 6.498834339624079 1 1 0
546 182 1 0.5897 0.08483730938441525 -7.2766806893139355 6.698704155912956 0 1 0
553 185 2 -1.1794 -3.4074120500808958 -6.9003924897740605 7.0783496690535115 0 1 0
554 185 1 0.5897 -2.8422957405809566 -6.718486919709679 7.829237306364848 0 1 0
334 112 2 -1.1794 -4.283550771716735 -4.798305983113608 9.733617168124512 0 0 0
464 155 1 0.5897 -1.8072007110290826 0.2454055431451181 10.118047776707582 0 0 0
338 113 1 0.5897 -5.449353578746821 0.32456306438359483 7.845401911345506 0 0 0
442 148 2 -1.1794 -7.009530600287009 2.4785994633981456 9.335155663557574 0 0 0
456 152 1 0.5897 -4.093359820176743 0.7633006448602035 9.79205775006534 0 0 0
360 120 1 0.5897 -5.252308517077773 -1.8933206463660728 9.002945909376715 0 0 0
328 110 2 -1.1794 -2.588872506379622 -0.759716782759762 7.243086020360455 0 0 0
339 113 1 0.5897 -5.368758609924646 0.14262296788574957 6.344624094548156 0 0 0
455 152 1 0.5897 -3.796674591765896 1.7161087346368546 8.65369935011235 0 0 0
356 119 1 0.5897 1.1425725446498838 -6.946696910181531 10.100316922259395 0 0 0
444 148 1 0.5897 -6.180351055717261 2.0055834102191454 9.405477206838773 0 0 0
358 120 2 -1.1794 -4.542608541032726 -2.346684300658496 8.547973217632189 0 0 0
443 148 1 0.5897 -7.6793283116428075 1.813658438577578 9.49436588398529 0 0 0
405 135 1 0.5897 -4.88564835040709 -2.7750549882940563 6.750855606059451 1 0 0
434 145 1 0.5897 -6.287334491117293 -0.5642504319705122 10.862211886653588 0 0 0
627 209 1 0.5897 -10.221363340073447 -6.750090919065297 6.398411811322801 1 1 0
404 135 1 0.5897 -5.154825466896673 -3.935243902734502 5.81623975400457 1 0 0
430 144 2 -1.1794 -12.244321848132016 -2.040384126974697 8.337178753487056 1 0 0
357 119 1 0.5897 1.2493371749647988 -7.193491400084356 8.610475638251648 0 0 0
516 172 1 0.5897 -13.986518592961012 2.1759999674394184 9.343888387653234 1 0 0
410 137 1 0.5897 -13.331017901092814 0.7275448419227164 7.553011304318393 1 0 0
626 209 1 0.5897 -10.467261771272739 -6.5887665799716615 7.883471474264571 1 1 0
403 135 2 -1.1794 -4.884386460934132 -3.0170995274423955 5.824747712019302 1 0 0
417 139 1 0.5897 -8.452838503683834 0.9240522593996179 5.613121821641853 1 0 0
652 218 2 -1.1794 -5.615240316815167 -5.288347294753512 12.772154560865522 0 0 0
780 260 1 0.5897 -7.45784440319007 -4.0433985833576696 15.288749892327735 0 0 0
779 260 1 0.5897 -7.207123771494826 -3.1114786829880803 14.122386553786713 0 0 0
778 260 2 -1.1794 -7.906808570221272 -3.567153668263092 14.590261980019465 0 0 0
768 256 1 0.5897 -9.531394928603184 -2.6514730848994112 14.811146545731711 0 0 0
654 218 1 0.5897 -6.082450352816753 -4.765232930911502 12.120750966525923 0 0 0
653 218 1 0.5897 -6.295544418629325 -5.818945485551861 13.18659687017523 0 0 0
662 221 1 0.5897 -8.871036317433596 -4.207009799262975 13.209926233349055 0 0 0
661 221 2 -1.1794 -9.394520588056494 -4.475753337884561 12.454927909492536 0 0 0
663 221 1 0.5897 -8.782236919317965 -4.4571744835599985 11.719466154417601 0 0 0
684 228 1 0.5897 -8.420046484377808 -6.380144401434908 14.154716396522335 0 0 0
682 228 2 -1.1794 -7.703164605487947 -6.793574165633088 13.67371402069957 0 0 0
740 247 1 0.5897 -10.909216013058371 -3.3131451786018786 12.196819133278515 1 0 0
758 253 1 0.5897 -9.419686177802479 -5.331840990851523 16.194260576653335 0 0 0
669 223 1 0.5897 -4.12412818474107 -3.506168389059117 11.070649223590685 0 0 0
805 269 2 -1.1794 -4.592802147129223 2.630314848523625 12.519452953811875 0 0 0
766 256 2 -1.1794 -10.329418207768468 -2.1229062636128297 14.815161969507988 0 0 0
729 243 1 0.5897 -8.265238953667218 -6.948986987923094 11.912438570559702 1 0 0
655 219 2 -1.1794 -0.37517812006773354 -7.31673368911893 11.218836370620874 0 0 0
790 264 2 -1.1794 -10.839606470915522 0.4030889819164827 13.709212664300566 0 0 0
762 254 1 0.5897 -9.038303909771601 2.3441099483855314 12.014970441325788 0 0 0
761 254 1 0.5897 -9.468664237034933 1.3605925114993678 13.082291820527432 0 0 0
769 257 2 -1.1794 -12.200954539512056 2.890543117207203 12.48847086994969 0 0 0
792 264 1 0.5897 -11.476750132705916 0.8182557731837701 14.290498627074157 0 0 0
806 269 1 0.5897 -4.21400579140545 2.837438646218681 13.373790803966608 0 0 0
760 254 2 -1.1794 -8.694679011042503 1.7836733270767517 12.710730650718862 0 0 0
837 279 1 0.5897 -11.115637001165547 0.04771261385157999 11.876031402460537 1 0 0
791 264 1 0.5897 -10.55097943398171 -0.3750625003192045 14.186090573444037 0 0 0
888 296 1 0.5897 -10.414054136879901 3.210323415473841 15.408690198317508 0 0 0
788 263 1 0.5897 -4.959905033177387 -4.5572101496084425 15.640780167612276 0 0 0
836 279 1 0.5897 -11.163512601844571 -1.1961564717023503 11.014357634750292 1 0 0
896 299 1 0.5897 -7.805547179959043 2.535076199616345 15.552123689434989 0 0 0
1101 367 1 0.5897 -9.983063713595508 -1.0510524395731586 16.29911053466126 0 0 0
857 286 1 0.5897 -13.218686208685526 1.4178863008279645 12.29808744363641 1 0 0
835 279 2 -1.1794 -10.951032595697614 -0.2632863461607631 10.985856870351409 1 0 0
897 299 1 0.5897 -7.616656994082332 2.2548042521804916 14.076425661412404 0 0 0
678 226 1 0.5897 -3.960959905459161 -6.065374358993568 12.207853943268212 0 0 0
802 268 2 -1.1794 -2.5152946396280456 -2.2431884801427335 14.914445569020764 0 0 0
816 272 1 0.5897 0.4678004813759653 -3.9344352106836293 15.2196018679387 0 0 0
924 308 1 0.5897 -2.6668116511582767 3.4321822964027877 15.444305924657472 0 0 0
667 223 2 -1.1794 -3.8098334590766694 -2.9136332620315386 11.75358511142037 0 0 0
789 263 1 0.5897 -4.462975551935624 -4.832763000833136 14.237575981928543 0 0 0
676 226 2 -1.1794 -3.105601826569238 -6.4949484299874225 12.215311674881823 0 0 0
814 272 2 -1.1794 0.07234515806451469 -3.251417579215585 14.67799089091277 0 0 0
785 262 1 0.5897 -5.583235168022658 1.0416996772631464 12.452251714570933 0 0 0
657 219 1 0.5897 -0.3449071587536281 -6.9956393086920965 12.120085222705379 0 0 0
803 268 1 0.5897 -3.0890923650043307 -3.0049747509743243 14.995652283207246 0 0 0
795 265 1 0.5897 -2.815315360134697 -5.601552503708463 15.43091715445168 0 0 0
720 240 1 0.5897 -0.6224646510057124 -6.46266386992799 14.488876856215416 0 0 0
804 268 1 0.5897 -1.6307252923656428 -2.6088328532826495 14.906596537826177 0 0 0
698 233 1 0.5897 -0.9119250474215566 -4.019337191807437 13.337197937530672 0 0 0
699 233 1 0.5897 -0.759151881711448 -3.967511607601887 11.83192636482611 0 0 0
697 233 2 -1.1794 -1.3922112406555218 -4.165025426262426 12.522104749508244 0 0 0
718 240 2 -1.1794 0.027442077429949308 -6.779839756538264 13.861811064061055 0 0 0
677 226 1 0.5897 -2.475765556014691 -5.776442436296528 12.158702107826493 0 0 0
668 223 1 0.5897 -2.9371405517216047 -3.2406170984012608 11.972043609256252 0 0 0
793 265 2 -1.1794 -1.9637626044089238 -5.959314203681934 15.682133728189164 0 0 0
773 258 1 0.5897 -5.913949432909699 -1.207650039481532 13.215624438294194 0 0 0
774 258 1 0.5897 -5.021697051027826 -2.409839943112666 12.990714119309526 0 0 0
818 273 1 0.5897 -5.400896853300054 -1.685998735280407 15.099425219083443 0 0 0
787 263 2 -1.1794 -4.168003670837654 -4.550009784235126 15.10321225061748 0 0 0
901 301 2 -1.1794 -4.773449025601512 1.2065815018687314 15.472702070677935 0 0 0
772 258 2 -1.1794 -5.781639427366752 -2.1144382112158215 13.492123405797477 0 0 0
767 256 1 0.5897 -11.039801270070736 -2.760359075859217 14.74322265023817 0 0 0
765 255 1 0.5897 -3.1343375787608583 0.06383872013120317 12.085715099035355 0 0 0
784 262 2 -1.1794 -6.243058582350918 0.351468956975463 12.51823924445224 0 0 0
828 276 1 0.5897 -3.466646503496757 0.6623357779990009 14.367591230428745 0 0 0
826 276 2 -1.1794 -2.8489247859492632 0.20501484203583864 13.797070619817571 0 0 0
819 273 1 0.5897 -4.993983237867665 -0.4783793018267648 15.916773182493838 0 0 0
895 299 2 -1.1794 -7.148877085852217 2.5542997768889553 14.856021717812872 0 0 0
903 301 1 0.5897 -5.604266146230571 1.566983759213553 15.162693194453656 0 0 0
786 262 1 0.5897 -7.079731593365152 0.8137164623047966 12.467865413825125 0 0 0
827 276 1 0.5897 -2.79286389655341 -0.6778161740618796 14.162692605691097 0 0 0
763 255 2 -1.1794 -3.2153638133353386 -0.12328582359793216 11.150467413402026 0 0 0
794 265 1 0.5897 -1.6429547587647058 -5.362840306881111 16.35858015825932 0 0 0
866 289 1 0.5897 -12.521802160223515 1.8644400092567697 16.281651736918402 0 0 0
770 257 1 0.5897 -11.675020728902403 3.061944750959256 13.26968610665569 0 0 0
727 243 2 -1.1794 -8.40902705569408 -7.323928641441847 11.04351518638828 1 0 0
764 255 1 0.5897 -3.4973466669344804 -1.0371886778443749 11.112074905782265 0 0 0
817 273 2 -1.1794 -5.284811319033751 -1.3863971168085802 16.00111206998241 0 0 0
807 269 1 0.5897 -3.877006185046901 2.769456557486844 11.899455312539635 0 0 0
757 253 2 -1.1794 -9.646313194142275 -5.889514940555096 15.45000087590979 0 0 0
902 301 1 0.5897 -4.544937308874186 1.7466772717214365 16.22924922281125 0 0 0
1137 379 1 0.5897 -2.3500987617510845 -0.9573261441934751 16.285355371762964 0 0 0
689 230 1 0.5897 1.4225011160650904 -5.782643948795126 13.04070436707899 0 0 0
1150 384 2 -1.1794 -6.018840992043236 -4.342745319418262 19.169469249376068 0 0 0
1152 384 1 0.5897 -6.644856688338717 -3.9753699113435044 19.793443775120263 0 0 0
1227 409 1 0.5897 -8.79880548660822 -3.0353747324526346 20.6361938218779 0 0 0
1109 370 1 0.5897 -8.70654094675076 -3.4423167592915744 17.596247073537924 0 0 0
1089 363 1 0.5897 -6.370197700970928 -4.590566835042866 17.505960068095963 0 0 0
1151 384 1 0.5897 -5.7931278227582315 -5.199378132574511 19.53205039269927 0 0 0
1108 370 2 -1.1794 -9.33464819405098 -4.15273708105525 17.726339871265715 0 0 0
1225 409 2 -1.1794 -8.052182679163618 -3.4058381000522733 21.106912193480817 0 0 0
1097 366 1 0.5897 -9.114396020847634 -5.775156453109432 18.56115816273988 0 0 0
1218 406 1 0.5897 -13.068699316737913 3.2085479922718676 17.717810580554822 0 0 0
1010 337 1 0.5897 -10.573542727601119 4.053132807249842 21.584928604453843 0 -1 0
1196 399 1 0.5897 -9.432495584738918 1.3521522318640322 16.41978267673392 0 0 0
1130 377 1 0.5897 -7.014455961331559 -1.68660988333294 18.372562644510683 0 0 0
1248 416 1 0.5897 -5.6846860558464165 -1.6012124087952806 20.632296433806538 0 0 0
1166 389 1 0.5897 0.4424340770429822 -1.5472841605332288 18.908976784927965 0 0 0
1129 377 2 -1.1794 -7.445512936344663 -1.9362155287474838 17.555142110514108 0 0 0
1229 410 1 0.5897 -7.611662380167539 3.9193752185994306 18.365074227550593 0 0 0
1131 377 1 0.5897 -6.797238853469736 -1.7511397184423707 16.875719843726856 0 0 0
1221 407 1 0.5897 -10.643726102815673 -2.0542648728925528 19.621843293071198 0 0 0
1246 416 2 -1.1794 -6.135142367303492 -1.1412516538747148 19.92393334201144 0 0 0
1217 406 1 0.5897 -11.602018809543864 3.565145880554221 17.83372741184527 0 0 0
1195 399 2 -1.1794 -9.27505680151419 2.29179497749835 16.51204677053496 0 0 0
1231 411 2 -1.1794 -1.5491184993519482 2.410876377447577 16.618868796937996 0 0 0
1121 374 1 0.5897 -4.6559166418039535 -3.385057805415858 18.442556151686762 0 0 0
1253 418 1 0.5897 -3.953241565345375 3.580436701758657 17.79420404657934 0 0 0
1099 367 2 -1.1794 -9.663335996980893 -0.4501403469585892 16.97213092377496 0 0 0
1236 412 1 0.5897 -7.834970578978946 -0.2558003173446082 20.409933251619922 0 0 0
1009 337 2 -1.1794 -10.907110324832777 3.4474452461608625 20.922994797299033 0 -1 0
1100 367 1 0.5897 -8.811252111909008 -0.805060978328271 17.225556355997504 0 0 0
1234 412 2 -1.1794 -8.560658361159344 0.3595341201899238 20.51474112315796 0 0 0
1259 420 1 0.5897 -8.63335862798925 1.9587850144411796 19.642567220931564 0 0 0
1258 420 2 -1.1794 -8.836600778477822 2.792720822693468 19.21893690371858 0 0 0
1260 420 1 0.5897 -9.5738151622772 3.1426920535436924 19.719162668162728 0 0 0
1216 406 2 -1.1794 -12.20073784864453 2.8184538370541006 17.821252349017016 0 0 0
1197 399 1 0.5897 -9.202913423375197 2.4315200442061613 17.456256478222894 0 0 0
1206 402 1 0.5897 -10.92117753736331 -0.1368913520300108 18.191717599263946 0 0 0
1235 412 1 0.5897 -9.343355890218342 -0.19136999827334122 20.521170198009102 0 0 0
1294 432 2 -1.1794 -1.2819218388633615 2.828811616003186 19.442723117341863 0 0 0
1295 432 1 0.5897 -1.2268437645149923 1.9228224058352144 19.74663615801771 0 0 0
1287 429 1 0.5897 -3.485171165861077 2.078626079834226 21.498318930051294 0 0 0
1110 370 1 0.5897 -10.191146033731265 -3.7365316546693688 17.62932163868324 0 0 0
1205 402 1 0.5897 -11.899533401106657 1.0050821210887566 18.366810079378578 0 0 0
273 91 1 0.5897 -8.349247263585479 1.517648699853721 21.81620161310768 1 1 -1
1251 417 1 0.5897 -11.291730864277362 1.8167354552874517 21.39251204128037 0 0 0
1165 389 2 -1.1794 0.06024228730561276 -1.8130027354343756 18.072548883456566 0 0 0
1249 417 2 -1.1794 -11.500756160069196 0.8920959694766442 21.52496199951811 0 0 0
1285 429 2 -1.1794 -3.4697519997813187 1.1221425598032635 21.53192274985865 0 0 0
1011 337 1 0.5897 -11.716404522946188 3.853375793832912 20.61233046987917 0 -1 0
1186 396 2 -1.1794 1.6336578836587474 -4.517178700204134 19.11519516739761 0 0 0
1252 418 2 -1.1794 -4.629452817200765 2.905513152546055 17.736011483375623 0 0 0
1240 414 2 -1.1794 -3.8708492127332743 0.5208182475386351 18.91667035864487 0 0 0
1123 375 2 -1.1794 1.3983282704224038 -4.955235279556934 16.41096728960875 0 0 0
1087 363 2 -1.1794 -6.429290790213541 -4.852944611467995 16.587299693622043 0 0 0
1247 416 1 0.5897 -5.509702921609731 -0.4778024440623927 19.632756054259804 0 0 0
1141 381 2 -1.1794 -8.512241379700736 -6.009494334798774 21.716183152814455 0 0 0
1145 382 1 0.5897 -0.8738596687915301 -3.4415318225456044 17.731456164420088 0 0 0
1122 374 1 0.5897 -4.263465688669024 -2.4596884563038035 17.31057707619243 0 0 0
1242 414 1 0.5897 -3.201511842033179 0.18106527166597353 18.322754476168882 0 0 0
1270 424 2 -1.1794 -0.9381093433879766 0.26127074673610373 20.307783521143165 0 0 0
1271 424 1 0.5897 -1.530905093607549 -0.48780704176819434 20.2474054823722 0 0 0
1144 382 2 -1.1794 -1.4318105509460572 -4.219202343153363 17.740811547088978 0 0 0
1263 421 1 0.5897 -0.9992462659816663 -3.0843626488227436 20.507049834187427 0 0 0
1133 378 1 0.5897 -1.2585028338218525 -5.951301391708975 18.631061330177435 0 0 0
1188 396 1 0.5897 0.9986766674189589 -4.14907724463229 19.72960666921322 0 0 0
1257 419 1 0.5897 -2.9904196383480457 -2.285998862454827 19.54211293839297 0 0 0
1255 419 2 -1.1794 -2.4908702438307984 -2.1173697036638055 20.341051043302617 0 0 0
1261 421 2 -1.1794 -0.2931013797854476 -3.5880796293004034 20.91187687178313 0 0 0
1256 419 1 0.5897 -3.154142180558406 -2.03789455363696 21.026552723558243 0 0 0
1120 374 2 -1.1794 -3.900904218427268 -2.9459491832642826 18.05108702283774 0 0 0
1146 382 1 0.5897 -2.3242079250502883 -3.874669937707517 17.706962410218665 0 0 0
1232 411 1 0.5897 -1.8013305176814143 1.4904160687478178 16.545689404020766 0 0 0
1045 349 2 -1.1794 -3.285537857223547 3.931595519895035 20.99625763594699 0 -1 0
1296 432 1 0.5897 -1.9975707203681754 3.209644640768939 19.951657048646506 0 0 0
1142 381 1 0.5897 -8.503171872836564 -6.2981456465691394 20.803571197412662 0 0 0
1135 379 2 -1.1794 -2.1308685596945107 -0.3796822728636702 17.016477025034455 0 0 0
1286 429 1 0.5897 -3.3512768993283197 0.8518471933624685 20.62134353735158 0 0 0
1136 379 1 0.5897 -1.3950158730022348 -0.8110585131104262 17.450872851142016 0 0 0
1088 363 1 0.5897 -6.552230015938392 -5.801772764448825 16.616098830972668 0 0 0
1241 414 1 0.5897 -4.229259506812092 1.2837740707987475 18.463144352806715 0 0 0
1254 418 1 0.5897 -5.439176255804703 3.3902618308269474 17.575961896943735 0 0 0
1219 407 2 -1.1794 -10.270102403272878 -1.902325657668035 20.489947532666154 0 0 0
1233 411 1 0.5897 -1.4631769522549405 2.5621139362597063 17.560146025490642 0 0 0
1187 396 1 0.5897 1.7828653279155482 -5.408854199296166 19.429646647829447 0 0 0
1124 375 1 0.5897 1.2060046779255469 -5.877334306094259 16.58107378467584 0 0 0
309 103 1 0.5897 -0.6977685824373587 1.2839736652580935 21.824095506146087 1 1 -1
1143 381 1 0.5897 -8.412429298994308 -5.058731674886216 21.668217846638168 0 0 0
1125 375 1 0.5897 1.2803390012582767 -4.525200138222239 17.25796996263313 0 0 0
1204 402 2 -1.1794 -11.629248148864038 0.17343399747736576 18.756085332512527 0 0 0
1250 417 1 0.5897 -11.656458358061512 0.5525738179559596 20.64362143314138 0 0 0
1226 409 1 0.5897 -7.794737592789398 -2.7217566683332084 21.72499943172705 0 0 0
1262 421 1 0.5897 -0.15449922008295047 -3.167730389645845 21.760628457353956 0 0 0
1272 424 1 0.5897 -0.06202496210752706 -0.12383197506939858 20.28796520762035 0 0 0
1179 393 1 0.5897 -0.7436438222705917 -5.283208168180291 21.45719645065073 0 0 0
1177 393 2 -1.1794 -0.8922219508221012 -6.225435790230463 21.536817576228746 0 0 0
40 14 2 -1.1794 -15.106479007806076 3.753400557379841 1.6123857322343769 1 0 0
177 59 1 0.5897 -13.922628591004926 4.550695386352528 3.0866051665634964 1 0 0
56 19 1 0.5897 -12.326323732324083 5.612034311047703 1.3059624261652254 1 0 0
66 22 1 0.5897 -13.465532985264218 2.703459065049845 1.397664465918926 1 0 0
65 22 1 0.5897 -11.990749962377171 3.0190324259126022 1.2668480093607504 1 0 0
64 22 2 -1.1794 -12.607798744252769 2.2884113343295063 1.30687223260242 1 0 0
191 64 1 0.5897 -12.44817557380185 6.149883273225388 4.210458145447938 1 0 0
183 61 1 0.5897 -11.978840534252262 3.7806796667108564 4.2679492575593745 1 0 0
175 59 2 -1.1794 -13.615416718049428 4.680021803435393 3.9839224403933997 1 0 0
176 59 1 0.5897 -14.386212726718218 4.516677613188396 4.527348623102655 1 0 0
181 61 2 -1.1794 -11.146181036965908 3.5037767635879007 4.650347910709665 1 0 0
55 19 2 -1.1794 -12.937254002624869 6.234409346687183 0.9114299410676174 1 0 0
42 14 1 0.5897 -15.487340410715902 4.402416526632479 1.0208062273378629 1 0 0
108 36 1 0.5897 -9.850310525063245 2.7021386274070522 3.491171104083272 1 0 0
215 72 1 0.5897 -12.328182292299548 8.531843565637738 3.2720802863548974 1 0 0
190 64 2 -1.1794 -11.876996410565345 6.91029455974841 4.102367313577307 1 0 0
91 31 2 -1.1794 -5.697680047123648 6.1576849998700744 0.899398849166374 1 0 0
153 51 1 0.5897 -12.740039506236732 9.401421754787789 1.0518305820869476 1 0 0
216 72 1 0.5897 -13.026588802071057 9.861321920531138 3.463623309295794 1 0 0
162 54 1 0.5897 -14.249413253539599 6.875189623203431 2.2648778283539954 1 0 0
193 65 2 -1.1794 -14.016187573780945 11.785156488170225 1.5286117754854593 1 0 0
148 50 2 -1.1794 -18.08490963523205 11.00617131620349 1.8293816388751192 1 0 0
174 58 1 0.5897 -16.56938893581184 10.02254582979383 1.494324146150827 1 0 0
214 72 2 -1.1794 -12.419456827299907 9.401854689435053 2.883537080134962 1 0 0
57 19 1 0.5897 -13.184247582890162 5.832936662233223 0.07830515724324408 1 0 0
206 69 1 0.5897 -14.730397124907945 7.404523164607438 4.541769651068161 1 0 0
160 54 2 -1.1794 -14.997481272399062 7.144633034877954 2.7977693999058197 1 0 0
173 58 1 0.5897 -15.083349110178371 10.285347822258542 1.6141132042182105 1 0 0
85 29 2 -1.1794 -10.82816813406463 4.443504662006301 1.617557503916633 1 0 0
195 65 1 0.5897 -13.410883577931447 11.85247941767477 0.7902226666393187 1 0 0
291 97 1 0.5897 -15.115891974225995 10.811267637404379 4.48570245033955 1 0 0
161 54 1 0.5897 -15.206076326371136 8.026713264440433 2.4901163578102894 1 0 0
172 58 2 -1.1794 -15.726828069157541 9.577379747098634 1.5846192328622932 1 0 0
289 97 2 -1.1794 -14.323553319469983 10.425130755048512 4.85900257683649 1 0 0
283 95 2 -1.1794 -16.463762348665615 11.85991305203389 3.963487189539725 1 0 0
285 95 1 0.5897 -16.95785532990723 11.682134709252429 3.1631409897650493 1 0 0