LAMMPS data file via write_data, version 30 Jul 2021, timestep = 43500000

864 atoms
2 atom types
576 bonds
1 bond types
288 angles
1 angle types

0.17046952564722773 18.037102874352172 xlo xhi
0.18534476591700866 23.443833034088698 ylo yhi
0.1326668643148814 22.08052893568224 zlo zhi

Masses

1 1.00794
2 15.9994

Atoms # full

707 1 1 0.5897 3.276181952943036 1.9840944678338401 3.9051929051642347 0 0 0
706 1 2 -1.1794 3.282901843039033 1.8946028574372 2.9523657026974846 0 0 0
30 1 1 0.5897 5.34910545820771 4.083507829853516 2.288484073365248 0 0 0
708 1 1 0.5897 2.48476936292968 2.337588160930662 2.664145330477371 0 0 0
29 1 1 0.5897 4.609646471050946 2.7623462213506693 2.276471488011038 0 0 0
28 1 2 -1.1794 5.383739131535351 3.1998427568906593 1.9219694486330576 0 0 0
495 1 1 0.5897 8.262309983520682 2.284769162171745 2.769890535865169 0 0 0
1 1 2 -1.1794 0.9131543641095079 3.088797822397331 2.1150256147203814 0 0 0
494 1 1 0.5897 6.7504736498996865 2.2585054250122742 2.693998248763095 0 0 0
493 1 2 -1.1794 7.497928462988026 1.7908757674112177 3.0667253286812186 0 0 0
846 1 1 0.5897 7.442920357809956 1.9149052925155265 4.853581351475081 0 0 0
3 1 1 0.5897 0.8661687253125111 3.9993580730145704 2.40674045985922 0 0 0
136 1 2 -1.1794 5.346614020195328 5.662813462878465 2.9874065928665203 0 0 0
595 1 2 -1.1794 0.8554561304809144 5.688381624876059 3.0369979720524336 0 0 0
597 1 1 0.5897 0.81068477423814 5.665799076381153 3.992725042906992 0 0 0
137 1 1 0.5897 5.350370261400324 5.768549354652667 3.9385834857562156 0 0 0
20 1 1 0.5897 0.8766929172360379 3.1431263442578343 0.30030903436184053 0 0 0
419 1 1 0.5897 9.008503588443052 2.8012025145531507 6.486910351228839 0 0 0
176 1 1 0.5897 8.978448559966118 2.8052374059323313 9.830943109450354 0 0 0
183 1 1 0.5897 0.9265632538880111 4.7830679132696705 6.083957365461806 0 0 0
275 1 1 0.5897 5.276851421784292 3.248443795833327 8.54505998423833 0 0 0
276 1 1 0.5897 5.944254378511721 2.742306888206631 9.8059601238111 0 0 0
181 1 2 -1.1794 0.9693865926395558 5.691945554044595 5.7864120501676775 0 0 0
785 1 1 0.5897 0.8401026388357863 3.050503140400935 7.576138463296375 0 0 0
845 1 1 0.5897 7.46743491370713 1.0912725708280058 6.12344957111751 0 0 0
784 1 2 -1.1794 0.9267526106325049 3.0625986310533206 6.623104605833681 0 0 0
678 1 1 0.5897 5.135159607372783 4.84534732505778 10.134006955945155 0 0 0
487 1 2 -1.1794 3.2621718703202047 1.9768035333451175 5.652199131969051 0 0 0
112 1 2 -1.1794 0.6494192380708136 5.76757006439235 10.265769197316905 0 0 0
355 1 2 -1.1794 7.504172103790691 1.9824447157204905 10.361727149125192 0 0 0
84 1 1 0.5897 6.125222390560347 2.8512514135266214 6.4584253270902785 0 0 0
673 1 2 -1.1794 2.8536279655847125 1.963150035824786 10.380779306700772 0 0 0
274 1 2 -1.1794 5.172732141085402 3.2165649434757144 9.495887797149322 0 0 0
82 1 2 -1.1794 5.335430634885311 3.3094350498610945 6.74585585062425 0 0 0
36 1 1 0.5897 1.3381788861096946 2.735463194648992 9.7661633399025 0 0 0
675 1 1 0.5897 2.916570837040674 1.0709793060383501 10.039487840967505 0 0 0
686 1 1 0.5897 5.337490078692856 4.988881892354468 6.071005157974583 0 0 0
844 1 2 -1.1794 7.486041786780378 1.9943315706768414 5.806346425484404 0 0 0
356 1 1 0.5897 7.451396806487547 1.0745067028546178 10.062921683339571 0 0 0
685 1 2 -1.1794 5.342309571547773 5.881456229175076 5.7250308136341745 0 0 0
35 1 1 0.5897 0.6107053185835505 4.055280855922793 9.620331673664625 0 0 0
488 1 1 0.5897 2.4427320562575923 2.3506942234155694 5.976266954227822 0 0 0
674 1 1 0.5897 3.642967573065644 2.3992687422426844 10.059742493580686 0 0 0
489 1 1 0.5897 3.2823626967891557 1.091385625443281 6.015549021579518 0 0 0
676 1 2 -1.1794 5.144664646086376 5.721656759437412 10.51920821587664 0 0 0
83 1 1 0.5897 4.614526111229905 2.8030995701280013 6.371395644116824 0 0 0
34 1 2 -1.1794 0.5860852827022063 3.1417075246125763 9.335366963667338 0 0 0
166 1 2 -1.1794 3.0528424772863354 1.9587336333650822 13.074584017314743 0 0 0
167 1 1 0.5897 3.001353354044046 2.0059428052853017 12.120095729275487 0 0 0
457 1 2 -1.1794 5.25826255762743 3.2322893645293957 14.105868758976458 0 0 0
458 1 1 0.5897 6.006786912317065 2.7736422016022266 13.724238483643033 0 0 0
459 1 1 0.5897 4.49302192176947 2.797992680881682 13.728935410902292 0 0 0
762 1 1 0.5897 5.253696859977021 4.944271931718307 13.537936798234133 0 0 0
594 1 1 0.5897 8.282141905488935 2.3819110424890826 13.442215112895266 0 0 0
168 1 1 0.5897 2.2927780463367657 2.453668258410443 13.380621515497216 0 0 0
71 1 1 0.5897 5.302707595592893 3.275735817727023 15.924768093599626 0 0 0
592 1 2 -1.1794 7.464450214785151 1.9970490625266653 13.126677724996334 0 0 0
466 1 2 -1.1794 0.8314559000940153 3.3031834861887557 13.908140445415725 0 0 0
593 1 1 0.5897 7.4835956866431195 1.095560251797914 13.448185815434668 0 0 0
468 1 1 0.5897 0.839461808753128 3.2261847946387854 14.86204583503307 0 0 0
365 1 1 0.5897 0.7209410524612494 5.032352907763988 13.39353097338219 0 0 0
761 1 1 0.5897 5.198677011834021 5.777514353699748 12.275298650723546 0 0 0
760 1 2 -1.1794 5.289359447947729 5.848413985082014 13.225395532845958 0 0 0
364 1 2 -1.1794 0.6619156699310165 5.917095714901161 13.032774590546463 0 0 0
113 1 1 0.5897 0.6416826186881784 5.792332596825501 11.222459107265943 0 0 0
357 1 1 0.5897 7.498574388063036 1.9213381161531935 11.316798558972696 0 0 0
737 1 1 0.5897 2.876836292823568 0.32130913383904497 13.730866350702755 0 1 0
133 1 2 -1.1794 0.9128433832418479 3.1568658126210525 16.57402492673782 0 0 0
323 1 1 0.5897 7.551035575320866 0.19580572627927723 17.061644869103603 0 1 0
599 1 1 0.5897 9.06546627677816 2.7776089948644795 16.989135407204817 0 0 0
40 1 2 -1.1794 7.760475225162454 1.9513367642457031 20.277713458235308 0 0 0
360 1 1 0.5897 9.098985736388125 2.7951299452415572 21.02928109901858 0 0 0
278 1 1 0.5897 5.244094338028431 5.0192407506313215 17.33587145362365 0 0 0
72 1 1 0.5897 4.609841962459902 2.794233747852244 17.181575794801766 0 0 0
42 1 1 0.5897 7.720412674694974 1.0672444464877924 20.642647314646876 0 0 0
568 1 2 -1.1794 3.133052653870092 1.8885890741169433 20.48124019393483 0 0 0
291 1 1 0.5897 2.345656132746988 2.407583636231843 17.27238735147183 0 0 0
569 1 1 0.5897 2.352266260183167 2.3546681012722646 20.780337890019222 0 0 0
21 1 1 0.5897 0.789787257099406 4.027172070424756 21.02239739243645 0 0 0
19 1 2 -1.1794 0.8336439280094586 3.10986099074455 21.29267788452108 0 0 0
646 1 2 -1.1794 0.6928180118261287 5.751026907281868 20.49581819321479 0 0 0
754 1 2 -1.1794 7.60815304075872 1.875482029469742 17.53294262916452 0 0 0
290 1 1 0.5897 3.001619652570202 1.0483846686795806 17.393704329785102 0 0 0
570 1 1 0.5897 3.0558015988360494 1.8786424677927687 19.527374087730376 0 0 0
648 1 1 0.5897 0.7550210231763208 5.691005715094728 19.542688482161175 0 0 0
142 1 2 -1.1794 5.347014600002466 5.89776969302035 20.41200773198062 0 0 0
289 1 2 -1.1794 3.0614564359320573 1.949066551574343 17.712462933224508 0 0 0
571 1 2 -1.1794 0.7670230483587832 5.607438770226721 17.75334259182648 0 0 0
277 1 2 -1.1794 5.280077182777266 5.909948417794804 17.684798826055545 0 0 0
143 1 1 0.5897 5.442682177910139 4.982139763753436 20.67450993008548 0 0 0
70 1 2 -1.1794 5.333998673895181 3.3422894066699116 16.878979285764363 0 0 0
756 1 1 0.5897 6.809894437713246 2.3439668828250007 17.288741990391024 0 0 0
755 1 1 0.5897 7.633871773883723 1.9270939476114568 18.488247088171523 0 0 0
669 1 1 0.5897 4.6620879088230955 2.8215932042819483 20.883364095820752 0 0 0
667 1 2 -1.1794 5.488218109704478 3.2452116834728955 21.116555146836816 0 0 0
41 1 1 0.5897 6.925227864908678 2.3500321967872138 20.522097034595884 0 0 0
144 1 1 0.5897 5.301303082169656 5.869838266017757 19.456466942262143 0 0 0
134 1 1 0.5897 0.8459029426248627 4.038611199984937 16.940685900053392 0 0 0
135 1 1 0.5897 0.1848828565163103 2.676740567594883 16.96879076446648 0 0 0
81 1 1 0.5897 3.086650232601202 0.22540669307063865 21.056873421837032 0 1 0
668 1 1 0.5897 5.50742483007244 3.2232554083673732 22.073152267254713 0 0 -1
123 1 1 0.5897 3.1123025512731806 8.68111357339211 2.6823451262552678 0 0 0
121 1 2 -1.1794 3.0717925899820937 9.598080645225359 2.954308913194078 0 0 0
122 1 1 0.5897 3.051207643094091 9.563970441311174 3.910522893038064 0 0 0
44 1 1 0.5897 1.5310558390690525 10.453910368541274 2.4555825401704277 0 0 0
218 1 1 0.5897 5.954735100103197 10.671228605079873 2.4139812815197157 0 0 0
417 1 1 0.5897 8.232897362338093 6.686224695918475 2.3309159079049278 0 0 0
219 1 1 0.5897 4.443831053737847 10.57536875369867 2.422907333801306 0 0 0
254 1 1 0.5897 3.034329511404908 6.972512862941064 1.1984666175831231 0 0 0
415 1 2 -1.1794 7.444468717216372 7.118391682695838 2.0024142388379484 0 0 0
217 1 2 -1.1794 5.1653539860115165 11.131115609845939 2.1281499247140356 0 0 0
66 1 1 0.5897 7.327965789986005 9.708503713128094 3.880611207240465 0 0 0
65 1 1 0.5897 7.388595343681084 8.85764882748535 2.6300356833774705 0 0 0
64 1 2 -1.1794 7.412477742234764 9.766726351338297 2.929087479734979 0 0 0
253 1 2 -1.1794 3.0850978921152334 7.000597934291688 2.1537465532293676 0 0 0
255 1 1 0.5897 2.2780696640879685 6.57916145632515 2.4493893397227855 0 0 0
416 1 1 0.5897 6.722033683346506 6.589911929642584 2.341692227384055 0 0 0
43 1 2 -1.1794 0.7376021904321686 10.878381929743137 2.129154465192552 0 0 0
396 1 1 0.5897 0.7752048806687343 11.051107163852208 0.3422307313913247 0 0 0
162 1 1 0.5897 7.493740892227877 7.122073802406701 0.25602245354509934 0 0 1
138 1 1 0.5897 4.56473321855348 6.132473888919162 2.6968885819829094 0 0 0
773 1 1 0.5897 8.939978653034592 10.610644792702907 2.3542794498763797 0 0 0
363 1 1 0.5897 5.153294771130024 10.915185863205176 0.3313559044551199 0 0 1
45 1 1 0.5897 0.7973875807198008 11.778338388073093 2.449962717709133 0 0 0
712 1 2 -1.1794 7.2096327260370705 9.736806781145553 5.651771822912202 0 0 0
552 1 1 0.5897 0.6702495349637716 11.778327767580144 6.429585427710414 0 0 0
528 1 1 0.5897 8.17511210800243 6.583804042124461 9.735017293013643 0 0 0
793 1 2 -1.1794 2.869478686131053 9.631029372357117 5.731617533691434 0 0 0
145 1 2 -1.1794 7.561285296847064 7.161473389097952 6.66974850643583 0 0 0
526 1 2 -1.1794 7.380877435004504 7.011333615182202 9.41453171360316 0 0 0
256 1 2 -1.1794 2.875427502522169 9.634719677667892 10.406613164904895 0 0 0
677 1 1 0.5897 5.917109139349141 6.141845493359772 10.1409833644816 0 0 0
146 1 1 0.5897 6.814931221866689 6.655004229674892 6.349181328613108 0 0 0
649 1 2 -1.1794 2.913733347834241 7.066851577600128 9.561218073685412 0 0 0
165 1 1 0.5897 8.952787023661845 6.222260780688223 6.057363370886959 0 0 0
820 1 2 -1.1794 7.440322938163095 9.57918945817727 10.361032838345466 0 0 0
795 1 1 0.5897 3.604431099073302 10.116948346367776 6.1058127249654195 0 0 0
577 1 2 -1.1794 5.051852624763278 10.914476646182028 6.782164075368495 0 0 0
687 1 1 0.5897 4.557462723460963 6.286347242736859 6.094311303506999 0 0 0
581 1 1 0.5897 5.952412925150093 10.378390231414143 9.792500654331258 0 0 0
12 1 1 0.5897 2.977410469038499 7.954750852621844 6.423069763379598 0 0 0
527 1 1 0.5897 7.425009621857807 7.898501331759245 9.771449490148969 0 0 0
13 1 2 -1.1794 0.6663354300086101 10.95136464647491 9.43961921347663 0 0 0
257 1 1 0.5897 2.851677940014965 8.723782903340986 10.113258517217162 0 0 0
713 1 1 0.5897 7.969238213904644 10.222729769124674 5.973011392825747 0 0 0
580 1 2 -1.1794 5.160535915888413 10.846127202368317 9.52701621811094 0 0 0
551 1 1 0.5897 0.6828035542397913 10.901873174091516 7.663786094473649 0 0 0
11 1 1 0.5897 2.361927228196862 6.571622005231456 6.399092104156558 0 0 0
10 1 2 -1.1794 3.1165962216186287 7.058739186911771 6.730001219140631 0 0 0
822 1 1 0.5897 8.20393485433914 10.030641990767405 10.001333858010332 0 0 0
550 1 2 -1.1794 0.6049896191105912 10.865528895320244 6.710603447239346 0 0 0
258 1 1 0.5897 3.6957297091793317 9.97933393970508 10.053577104273423 0 0 0
651 1 1 0.5897 3.68450015460267 6.5978940499166985 9.8810698214498 0 0 0
582 1 1 0.5897 5.206141051860799 10.871893496449058 8.571408765370688 0 0 0
147 1 1 0.5897 7.467309468502316 7.1505209028833505 7.6221021452793 0 0 0
114 1 1 0.5897 1.4662622542452457 6.20256523756749 10.021080279958792 0 0 0
794 1 1 0.5897 2.0915537811161338 10.081448604977451 6.0606436720545975 0 0 0
15 1 1 0.5897 1.4359149168735716 10.490499065883993 9.773770990717829 0 0 0
578 1 1 0.5897 5.822378168240247 10.479593436908889 6.41684595325359 0 0 0
650 1 1 0.5897 3.026916802823261 7.094595907390031 8.611296455203414 0 0 0
714 1 1 0.5897 7.322920386655709 8.853879655531323 6.003919679699448 0 0 0
579 1 1 0.5897 5.0726933532770575 11.794996270595457 6.407142191907909 0 0 0
828 1 1 0.5897 7.466367585335783 7.270553134285453 14.887083985716762 0 0 0
261 1 1 0.5897 0.8629574770799081 10.97845559835455 14.970868592186022 0 0 0
332 1 1 0.5897 3.0981264018694743 8.027819423849845 13.768552715786583 0 0 0
797 1 1 0.5897 3.0701100270759727 9.669612776462875 12.150231624574431 0 0 0
796 1 2 -1.1794 3.1379290650209444 9.672549834064485 13.104861963176074 0 0 0
798 1 1 0.5897 2.363702749401457 10.152572683152183 13.3989170060688 0 0 0
722 1 1 0.5897 4.575526331847764 10.583599091236321 13.763768233499615 0 0 0
259 1 2 -1.1794 0.8791155212725944 11.035040588371258 14.015638537079111 0 0 0
721 1 2 -1.1794 5.355922481123995 11.096102305388296 13.975104126002915 0 0 0
723 1 1 0.5897 5.429384173169322 11.03953715825174 14.927643975673353 0 0 0
331 1 2 -1.1794 3.0019387747436563 7.1212517574683245 14.060629219003799 0 0 0
225 1 1 0.5897 2.963792868895669 7.11781366099493 15.849997122385439 0 0 0
826 1 2 -1.1794 7.518436250922691 7.243457166081145 13.931844185588105 0 0 0
475 1 2 -1.1794 7.6594942505481365 9.798388803096516 13.07029011771036 0 0 0
476 1 1 0.5897 6.860832847628962 10.216519832515878 13.392170175333465 0 0 0
477 1 1 0.5897 7.58479491439658 8.88728276894433 13.354429181174302 0 0 0
827 1 1 0.5897 6.740058751188788 6.75549096319168 13.662872022864757 0 0 0
333 1 1 0.5897 3.8021198104191978 6.687370461043254 13.76435877109224 0 0 0
366 1 1 0.5897 1.4700760787038796 6.34573711640841 13.3146539483347 0 0 0
821 1 1 0.5897 7.506632929409952 9.711819090796892 11.306521644409555 0 0 0
851 1 1 0.5897 9.024173054956087 6.290588445937141 13.489004053623502 0 0 0
104 1 1 0.5897 9.017014495236792 10.64488844516491 13.739226189142867 0 0 0
462 1 1 0.5897 9.034914123565537 6.247767433026207 20.802960534562526 0 0 0
362 1 1 0.5897 5.264510472770428 11.702890648109186 20.99132900158518 0 0 0
6 1 1 0.5897 3.052617566991154 7.9757822676129635 21.007931374518304 0 0 0
521 1 1 0.5897 6.717923305081431 6.765976723472412 16.97484370859256 0 0 0
690 1 1 0.5897 2.204894449017776 10.215592774912492 20.765480098329856 0 0 0
287 1 1 0.5897 9.062739249010614 10.542222303141184 21.028572023115636 0 0 0
7 1 2 -1.1794 7.664147386716519 9.686838172237657 17.679143701719493 0 0 0
679 1 2 -1.1794 5.440449023258261 10.900082392590784 16.723826646469945 0 0 0
5 1 1 0.5897 3.7912799696169888 6.654947180718111 20.961227028714195 0 0 0
447 1 1 0.5897 0.208113788587184 10.430295844570102 17.075835627167574 1 0 0
625 1 2 -1.1794 3.1885253000545144 9.639336189201773 17.75823796865013 0 0 0
140 1 1 0.5897 6.751184363300687 10.042490986687262 20.76803020118787 0 0 0
680 1 1 0.5897 4.667375957041181 10.491462653485899 17.113271101050678 0 0 0
9 1 1 0.5897 6.8574430029400135 10.112624256098366 17.388897380598017 0 0 0
688 1 2 -1.1794 2.9350455861968623 9.682297313131087 20.451160179944274 0 0 0
711 1 1 0.5897 8.896444007900703 6.190561661436903 17.305520860180515 0 0 0
223 1 2 -1.1794 2.9318480172664008 7.036801057131065 16.80306856896872 0 0 0
161 1 1 0.5897 6.77744331125737 6.733139695933626 20.928313823147064 0 0 0
141 1 1 0.5897 7.622164188769989 8.80620643759285 20.694772658016277 0 0 0
279 1 1 0.5897 4.457922777200323 6.3114356431262895 17.403412900583174 0 0 0
647 1 1 0.5897 1.463202015027091 6.256561732089597 20.755187578195216 0 0 0
4 1 2 -1.1794 2.988509762550443 7.062233356937968 21.286766399853054 0 0 0
520 1 2 -1.1794 7.513012108816772 7.164570849530293 16.620944297022756 0 0 0
394 1 2 -1.1794 0.793122686959126 11.107494781939776 21.334880405144204 0 0 0
626 1 1 0.5897 3.105127142237344 9.694385653933757 18.71004926432892 0 0 0
627 1 1 0.5897 2.412700693784685 10.088827161103241 17.423044703222537 0 0 0
8 1 1 0.5897 7.64329672882009 9.758472953466248 18.63327650695275 0 0 0
361 1 2 -1.1794 5.221803975174792 10.808746266611287 21.33058023479036 0 0 0
445 1 2 -1.1794 0.9766151130410381 10.866228139807022 16.707515609386817 0 0 0
522 1 1 0.5897 7.538053993429557 8.03814926084046 17.011608356554532 0 0 0
689 1 1 0.5897 3.7135087364354606 10.10030789049885 20.819332614948358 0 0 0
160 1 2 -1.1794 7.5755445363246725 7.151863474842378 21.250811330113688 0 0 0
139 1 2 -1.1794 7.580028330839543 9.72035664553972 20.413734288835425 0 0 0
224 1 1 0.5897 2.9361630083899217 7.939796269700077 17.12087088587754 0 0 0
572 1 1 0.5897 1.5032700429955765 6.0874518672001825 17.37410400411169 0 0 0
446 1 1 0.5897 0.9356566074240237 11.757921381744174 17.053360227276045 0 0 0
200 1 1 0.5897 5.233357544880329 13.57349774164437 4.807585962308004 0 0 0
173 1 1 0.5897 4.510474502451982 14.114670264151606 2.684520082338986 0 0 0
172 1 2 -1.1794 5.296187418574175 13.697355271539106 3.037789508889508 0 0 0
293 1 1 0.5897 3.038704807113734 16.601631279993256 2.7024064419150795 0 0 0
558 1 1 0.5897 3.00227694896387 14.843190689118318 1.2357733903184034 0 0 0
556 1 2 -1.1794 3.0240563234507514 14.885092135884149 2.1916477589967216 0 0 0
557 1 1 0.5897 2.29860922456043 14.327424376798993 2.472839650665458 0 0 0
478 1 2 -1.1794 7.470825690273197 14.892006347358814 1.9225437935500242 0 0 0
174 1 1 0.5897 5.233720618968023 12.786167876802077 2.75097775386851 0 0 0
479 1 1 0.5897 8.239944646505098 14.463125253846169 2.297784662937302 0 0 0
449 1 1 0.5897 7.5637467225077115 16.508546697852093 2.6644780185866233 0 0 0
480 1 1 0.5897 6.726365429426368 14.430626980303261 2.3088016504634177 0 0 0
373 1 2 -1.1794 0.8563773909484277 13.454830910330319 3.018184010463014 0 0 0
374 1 1 0.5897 0.7986403970619204 13.467990154959823 3.973390571676687 0 0 0
308 1 1 0.5897 7.449494802379573 17.303942985050796 4.773662016034015 0 0 0
294 1 1 0.5897 3.0679276853285034 17.46992916940521 3.9420776462920157 0 0 0
317 1 1 0.5897 7.4293645629724505 14.744137502105234 0.14031965522627413 0 0 0
448 1 2 -1.1794 7.575306498129735 17.388375963630924 3.041515167938334 0 0 0
292 1 2 -1.1794 3.1108736808270163 17.51280940017133 2.986963583434022 0 0 0
186 1 1 0.5897 7.637390919604639 16.48173835975256 10.066243705385402 0 0 0
378 1 1 0.5897 7.525326834609064 14.801506817841716 8.489064764252875 0 0 0
17 1 1 0.5897 3.024196069233946 14.86108923836583 7.548474195386139 0 0 0
656 1 1 0.5897 1.525538489017487 13.926519305639534 6.057985081221447 0 0 0
813 1 1 0.5897 2.3513421554543035 14.45357997786454 9.701954549529674 0 0 0
238 1 2 -1.1794 2.9470984724660503 17.353012242507468 5.717156996046512 0 0 0
812 1 1 0.5897 3.8615210718687685 14.448598567291112 9.595051313281642 0 0 0
766 1 2 -1.1794 0.9708279710352262 13.544378422192858 10.337651022399813 0 0 0
655 1 2 -1.1794 0.7694863488643197 13.436221724590835 5.73501731688071 0 0 0
519 1 1 0.5897 8.18909163891876 14.398898825277982 6.377397575864851 0 0 0
16 1 2 -1.1794 2.9866703970539836 14.760765082679205 6.597443737675791 0 0 0
199 1 2 -1.1794 5.195740163818314 13.430431179418354 5.75313056948396 0 0 0
59 1 1 0.5897 9.047267227407849 13.968686577044696 10.040513992712388 0 0 0
377 1 1 0.5897 6.853336633602311 14.358942193068783 9.771251077852739 0 0 0
456 1 1 0.5897 5.289550457128702 12.616313930105026 10.014305189638396 0 0 0
376 1 2 -1.1794 7.625628859656864 14.817857496982814 9.440695536361481 0 0 0
811 1 2 -1.1794 3.0873035147276786 14.95773067206995 9.354822822572665 0 0 0
307 1 2 -1.1794 7.324574072023988 17.333519408128222 5.722057527771449 0 0 0
18 1 1 0.5897 3.7878977061358885 14.286852099452325 6.374345549709628 0 0 0
518 1 1 0.5897 7.403066064367315 15.692768420638489 6.398939113508857 0 0 0
184 1 2 -1.1794 7.551809780828622 17.373903548130997 10.402584161197368 0 0 0
517 1 2 -1.1794 7.416420352728447 14.808853058514972 6.766238949901668 0 0 0
384 1 1 0.5897 3.0471682617775078 16.6009952043054 10.036468356201368 0 0 0
239 1 1 0.5897 3.009350202116835 16.443352857267588 6.008826819102748 0 0 0
454 1 2 -1.1794 5.349322277928386 13.542647401069512 10.248346873671746 0 0 0
201 1 1 0.5897 5.955647565951384 13.899957035742265 6.097215948032447 0 0 0
382 1 2 -1.1794 2.964427482811906 17.503087256416233 10.345985425888335 0 0 0
768 1 1 0.5897 0.17922049657588346 13.963292838533595 9.999770363379824 0 0 0
14 1 1 0.5897 0.7654227667346273 11.847954143349071 9.760124206485992 0 0 0
429 1 1 0.5897 5.828811246757265 14.108258190034666 13.262016356578403 0 0 0
232 1 2 -1.1794 2.927192890960303 14.97871228685282 13.88776356041216 0 0 0
234 1 1 0.5897 3.023336902957051 14.944381908320208 14.83934475131392 0 0 0
606 1 1 0.5897 2.9991956267215625 16.706451549867573 13.401252555412764 0 0 0
427 1 2 -1.1794 5.072650343620582 13.597315479709577 12.97308377919568 0 0 0
233 1 1 0.5897 3.659496150770066 14.460529264753777 13.553800505657346 0 0 0
639 1 1 0.5897 1.4756653583718509 14.125531109764024 13.385646849759853 0 0 0
428 1 1 0.5897 5.208749518026386 12.730097999877694 13.354915219438382 0 0 0
297 1 1 0.5897 8.063365330379607 14.596081688148846 13.630686677186958 0 0 0
296 1 1 0.5897 7.274771166857097 14.94080044738723 14.875979781251406 0 0 0
295 1 2 -1.1794 7.251499328318672 15.011319843340699 13.921821637317596 0 0 0
270 1 1 0.5897 7.474398171642275 16.686748685359316 13.382380485416526 0 0 0
638 1 1 0.5897 0.7909510815797263 12.775330600122418 13.409133436849817 0 0 0
637 1 2 -1.1794 0.6962515194077811 13.66645606306542 13.072480006009144 0 0 0
455 1 1 0.5897 5.253012133702344 13.55621728760506 11.200433736578724 0 0 0
268 1 2 -1.1794 7.513876823769115 17.6015829245914 13.103185719190826 0 0 0
767 1 1 0.5897 0.8706490211473409 13.574294153773206 11.28896627005125 0 0 0
269 1 1 0.5897 7.503591855760953 17.561220685313444 12.147052700012752 0 0 0
605 1 1 0.5897 3.0367294579847592 17.555925524262385 12.14883525984335 0 0 0
604 1 2 -1.1794 3.0312335252867553 17.6158630672387 13.103981132871 0 0 0
49 1 2 -1.1794 7.440452516043016 14.744235205969966 16.67815157304464 0 0 0
823 1 2 -1.1794 2.9543872803868787 14.939492580845448 16.690512091961615 0 0 0
684 1 1 0.5897 4.4595841976521156 13.785423275567483 20.672210636122983 0 0 0
51 1 1 0.5897 8.239933714005854 14.35155622358434 17.028753221822832 0 0 0
682 1 2 -1.1794 5.218489441913696 13.325923796615555 20.312742131178293 0 0 0
583 1 2 -1.1794 2.902233838303731 17.43372276059242 17.841350657293262 0 0 0
117 1 1 0.5897 8.982798832413 14.021875703745804 20.611488093690745 0 0 0
125 1 1 0.5897 5.258187595630008 13.459666921523457 18.492953956882964 0 0 0
664 1 2 -1.1794 3.1006564322502994 14.769190477668115 21.396812223416074 0 0 0
715 1 2 -1.1794 3.104945832715599 17.38010307357895 20.53322505923462 0 0 0
451 1 2 -1.1794 0.8047717024960086 13.673067882904082 20.35638930958266 0 0 0
666 1 1 0.5897 3.109261847372331 15.675945666806443 21.089980311413317 0 0 0
452 1 1 0.5897 0.7771251628758903 12.785177144394169 20.713157962950472 0 0 0
318 1 1 0.5897 7.3400747914369475 15.639959407231979 20.87115889246685 0 0 0
716 1 1 0.5897 3.1044928697021708 17.42242587076395 19.577121550324115 0 0 0
124 1 2 -1.1794 5.218216033042991 13.497528908114333 17.537496140871262 0 0 0
665 1 1 0.5897 2.282979355437902 14.407711992509581 21.05471826978768 0 0 0
157 1 2 -1.1794 7.293802960895817 17.34311141247881 20.345473941292333 0 0 0
584 1 1 0.5897 2.906408811847445 16.540191309060727 17.497853831775096 0 0 0
126 1 1 0.5897 6.006425340545081 13.977516193119788 17.283203761095756 0 0 0
824 1 1 0.5897 3.7034291033147158 14.456652861224947 17.03994536087673 0 0 0
316 1 2 -1.1794 7.425201857768292 14.72264354004231 21.131392349520247 0 0 0
683 1 1 0.5897 5.971950590463117 13.830577787586913 20.61923547429288 0 0 0
610 1 2 -1.1794 7.439960677335477 17.340795576267254 17.633735012037768 0 0 0
159 1 1 0.5897 7.372720431220187 17.287000952617085 19.39334159583156 0 0 0
825 1 1 0.5897 2.190139163649688 14.450110386509518 16.99505999236951 0 0 0
50 1 1 0.5897 7.46543795467094 15.651697158199896 16.98197465277105 0 0 0
52 1 2 -1.1794 0.8458458864025309 13.450719250061601 17.610009573703703 0 0 0
53 1 1 0.5897 0.8602448072185465 13.54271365829995 18.562511510199126 0 0 0
681 1 1 0.5897 5.369460252234934 11.824421103251122 16.962576579233524 0 0 0
267 1 1 0.5897 6.041725522074006 21.67026147584446 2.864421063145766 0 0 0
696 1 1 0.5897 1.6318257170379415 21.754023205738235 2.7166139845688315 0 0 0
266 1 1 0.5897 4.529819153919345 21.591336419238345 2.867582017335559 0 0 0
265 1 2 -1.1794 5.310671222103004 21.1681133520378 3.224572372932407 0 0 0
228 1 1 0.5897 5.381448349744333 19.580344574927476 2.4798175686440618 0 0 0
343 1 2 -1.1794 0.7835556345275185 18.74709795137197 2.144176959096431 0 0 0
249 1 1 0.5897 5.322498430158563 21.197016719703225 4.978106795939063 0 0 0
226 1 2 -1.1794 5.405518298829059 18.716368349649358 2.068306724788238 0 0 0
187 1 2 -1.1794 3.133455040600797 22.48616124556953 2.176303999534142 0 0 0
818 1 1 0.5897 8.188439358295222 22.084186608483922 2.4774783124536284 0 0 0
189 1 1 0.5897 3.1198963664934443 22.511522820292676 1.2196962241858977 0 0 0
344 1 1 0.5897 1.5967188630079727 18.34622476092656 2.4513705180907155 0 0 0
817 1 2 -1.1794 7.41175006159954 22.517772048934003 2.123853180338604 0 0 0
345 1 1 0.5897 0.8433442544971094 18.709751638625374 1.1897357022262633 0 0 0
413 1 1 0.5897 0.9416156428714461 21.39602357533663 4.839186411585125 0 0 0
695 1 1 0.5897 0.8030620001297893 20.486933576971616 2.7210016717994496 0 0 0
227 1 1 0.5897 4.620622890536095 18.274268430764188 2.3920187278790292 0 0 0
694 1 2 -1.1794 0.8099659353324655 21.388171735323805 3.0437075350653506 0 0 0
450 1 1 0.5897 6.782882871964106 17.805148586905247 2.7028938441768333 0 0 0
602 1 1 0.5897 5.341696970364267 18.878976576587636 0.24142348576511352 0 0 0
498 1 1 0.5897 7.451364209683514 22.605690676524404 0.34374027091820514 0 0 0
321 1 1 0.5897 8.93709366125366 18.311788682867174 2.3139131175654146 0 0 0
188 1 1 0.5897 3.129407469675692 23.40620058786499 2.4407950946106394 0 0 0
819 1 1 0.5897 7.482152948836286 23.422538259344265 2.4285857667525432 0 -1 0
102 1 1 0.5897 5.308087496307721 18.684150287593617 8.623740399758491 0 0 0
405 1 1 0.5897 0.6908709884314405 19.47199905312794 9.692577883968092 0 0 0
385 1 2 -1.1794 5.168835772081679 18.642661739741392 6.8316324757699824 0 0 0
412 1 2 -1.1794 0.9431144179894339 21.410387842658213 5.796119320584446 0 0 0
94 1 2 -1.1794 0.8049174021335552 21.15815374966286 10.21812421763702 0 0 0
38 1 1 0.5897 2.301890770552523 22.04110611249548 9.705605904355092 0 0 0
383 1 1 0.5897 3.7841811988922585 17.922694650079354 10.084741690411782 0 0 0
702 1 1 0.5897 2.4019614040644592 22.22389551396803 6.382317745381689 0 0 0
240 1 1 0.5897 3.7167798392035496 17.77926765930653 6.094229218930808 0 0 0
342 1 1 0.5897 0.7462506513670553 18.697592794642844 7.615017735792355 0 0 0
85 1 2 -1.1794 7.402121821226367 22.61130191260391 9.46682208701572 0 0 0
86 1 1 0.5897 7.458331591896006 22.63764778926969 8.511794820421795 0 0 0
387 1 1 0.5897 5.2414874294202916 19.549826435867466 6.534651083277684 0 0 0
87 1 1 0.5897 8.177600013210322 22.120711373173833 9.739377677770976 0 0 0
39 1 1 0.5897 3.809889315073635 22.119329725520572 9.814802733555286 0 0 0
553 1 2 -1.1794 5.2263755106647025 21.2992375485258 10.467690395823036 0 0 0
33 1 1 0.5897 6.753033171040154 22.230458004448142 6.467420202934541 0 0 0
32 1 1 0.5897 8.264381214473246 22.142313794082824 6.480117847102757 0 0 0
403 1 2 -1.1794 0.6341286945716633 18.571125817455464 9.373796567849958 0 0 0
701 1 1 0.5897 3.1279344235925786 22.692678374989043 7.62517161590028 0 0 0
555 1 1 0.5897 5.329795360284641 20.395087009628 10.170633860627246 0 0 0
248 1 1 0.5897 4.534042748253609 21.704270339256052 6.166626323751067 0 0 0
247 1 2 -1.1794 5.336217127022888 21.23646278257082 5.9342349029973205 0 0 0
341 1 1 0.5897 1.5214887618581545 18.210343566923484 6.409566005482187 0 0 0
37 1 2 -1.1794 3.051098301368632 22.58591307496432 9.46432350029386 0 0 0
309 1 1 0.5897 8.131525056940212 17.72349929185899 6.058276165479477 0 0 0
404 1 1 0.5897 1.4078611103458771 18.139155232324867 9.735777309878719 0 0 0
340 1 2 -1.1794 0.7871827115762353 18.770346194850713 6.661623566729891 0 0 0
101 1 1 0.5897 6.078518300725814 18.225543311229057 9.843425720862532 0 0 0
554 1 1 0.5897 6.001740755943343 21.75143022468813 10.135069421567122 0 0 0
31 1 2 -1.1794 7.536273391361569 22.699649796072865 6.7550199504808885 0 0 0
386 1 1 0.5897 5.905885084602174 18.194431538582414 6.416755351505207 0 0 0
414 1 1 0.5897 0.9255852882466752 20.487514943965127 6.049968396905783 0 0 0
700 1 2 -1.1794 3.172438528507481 22.71406544432389 6.669404090055753 0 0 0
185 1 1 0.5897 8.34118837656678 17.82190551064221 10.09847022922343 0 0 0
100 1 2 -1.1794 5.319896804087127 18.745887131869154 9.57871523930064 0 0 0
88 1 2 -1.1794 5.118703253056956 21.409176755367557 13.224230771005763 0 0 0
381 1 1 0.5897 1.4547271792687557 21.825429909145626 13.309959213524134 0 0 0
90 1 1 0.5897 5.145180507275527 20.505462664000046 13.538900436071549 0 0 0
763 1 2 -1.1794 5.256090200268016 18.803915182017384 14.147649573546673 0 0 0
738 1 1 0.5897 3.6143698241458972 22.258635536526523 13.785518466109343 0 0 0
89 1 1 0.5897 5.155444163519846 21.332395286313908 12.270982170691944 0 0 0
736 1 2 -1.1794 2.8013226228273234 22.68359664794934 14.058788213782448 0 0 0
789 1 1 0.5897 6.648619079247387 22.210471293678548 13.696983975896105 0 0 0
765 1 1 0.5897 6.017428670692347 18.40721826457398 13.724254274818174 0 0 0
787 1 2 -1.1794 7.47673426782094 22.618517733931064 13.950043096476016 0 0 0