LAMMPS (30 Jul 2021)
Processor partition = 0
  using 1 OpenMP thread(s) per MPI task
using multi-threaded neighbor list subroutines
variable        pid world 0 1
variable        phase world IceII IceIII

shell cd ${phase}
shell cd IceII
include Restart.lmp
echo both
log log.lammps
#include		in.partitions
include		in.temp
variable        temperature equal 101.88
variable	tempDamp equal 100.0
include		in.pressure
variable        pressure equal 2418.8
variable        pressureDamp equal 1000.0 # This is 1 ps
include		in.seed
variable        seed equal 745823

units		real
atom_style	full
box tilt large
read_restart	restart.lmp.${pid}
read_restart	restart.lmp.0
Reading restart file ...
  restart file = 30 Jul 2021, LAMMPS = 30 Jul 2021
  restoring atom style full from restart
  triclinic box = (-10.617580 -9.1617213 0.040865997) to (12.597580 12.151719 21.819133) with tilt (-8.8781991 1.9298907 2.6912530)
  4 by 4 by 4 MPI processor grid
  restoring pair style lj/cut/tip4p/long/omp from restart
  restoring bond style harmonic/omp from restart
  restoring angle style harmonic/omp from restart
  1296 atoms
  864 bonds
  432 angles
Finding 1-2 1-3 1-4 neighbors ...
  special bond factors lj:    0        0        0       
  special bond factors coul:  0        0        0       
     2 = max # of 1-2 neighbors
     1 = max # of 1-3 neighbors
     1 = max # of 1-4 neighbors
     2 = max # of special neighbors
  special bonds CPU = 0.006 seconds
  read_restart CPU = 0.016 seconds
include 	in.setup
variable	out_freq equal 1000
variable	out_freq2 equal 10000
variable	out_freq3 equal 1000

timestep	2.0

neigh_modify    delay 7 every 1

include		in.tip4p
# This is TIP4P/Ice

# create groups ###
group ox type 2
432 atoms in group ox
group hy type 1
864 atoms in group hy

# set charges - beside manually ###
set group ox charge -1.1794
Setting atom values ...
  432 settings made for charge
set group hy charge 0.5897
Setting atom values ...
  864 settings made for charge

# ### TIP3P Potential Parameters ###
pair_style lj/cut/tip4p/long/omp 2 1 1 1 0.1577 8.5
pair_coeff 1 1*2 0.000 0.000
pair_coeff 2 2 0.21084 3.1668
bond_style  harmonic
bond_coeff  1 450 0.9572
angle_style harmonic
angle_coeff 1 55 104.52
kspace_style pppm/tip4p/omp 1.0e-5
pair_modify tail yes

thermo          ${out_freq}
thermo          1000
thermo_style    custom step temp pe etotal epair emol press lx ly lz vol pxx pyy pzz pxy pxz pyz enthalpy

restart 	${out_freq3} restart.lmp.${pid} restart2.lmp.${pid}
restart 	1000 restart.lmp.${pid} restart2.lmp.${pid}
restart 	1000 restart.lmp.0 restart2.lmp.${pid}
restart 	1000 restart.lmp.0 restart2.lmp.0


include         in.dump
dump            myDump all atom ${out_freq2} dump.water.${pid}
dump            myDump all atom 10000 dump.water.${pid}
dump            myDump all atom 10000 dump.water.0
dump            myDump2 all dcd ${out_freq2} dump.dcd
dump            myDump2 all dcd 10000 dump.dcd
dump_modify     myDump append yes
dump_modify     myDump2 append yes


variable natoms 	equal  "count(all)"                        # NUMBER ATOMS
variable H      	equal  "enthalpy/v_natoms"                 # ENTHALPY-per-atom
variable Vol      	equal  "vol/v_natoms"                 # volume-per-atom
fix AVG all 		ave/time ${out_freq} 1 ${out_freq} v_Vol v_H file vol_enthalpy.dat
fix AVG all 		ave/time 1000 1 ${out_freq} v_Vol v_H file vol_enthalpy.dat
fix AVG all 		ave/time 1000 1 1000 v_Vol v_H file vol_enthalpy.dat


timer           timeout 10:00:00 every 1000
New timer settings: style=normal  mode=nosync  timeout=10:00:00

fix 		1 all shake 1e-6 200 0 b 1 a 1
Finding SHAKE clusters ...
       0 = # of size 2 clusters
       0 = # of size 3 clusters
       0 = # of size 4 clusters
     432 = # of frozen angles
  find clusters CPU = 0.004 seconds
fix             2 all nph tri ${pressure} ${pressure} ${pressureDamp}
fix             2 all nph tri 2418.8 ${pressure} ${pressureDamp}
fix             2 all nph tri 2418.8 2418.8 ${pressureDamp}
fix             2 all nph tri 2418.8 2418.8 1000
fix             3 all temp/csvr ${temperature} ${temperature} ${tempDamp} ${seed}
fix             3 all temp/csvr 101.88 ${temperature} ${tempDamp} ${seed}
fix             3 all temp/csvr 101.88 101.88 ${tempDamp} ${seed}
fix             3 all temp/csvr 101.88 101.88 100 ${seed}
fix             3 all temp/csvr 101.88 101.88 100 745823


run             250000
PPPM initialization ...
  extracting TIP4P info from pair style
  using 12-bit tables for long-range coulomb (../kspace.cpp:340)
  G vector (1/distance) = 0.36856752
  grid = 27 40 32
  stencil order = 5
  estimated absolute RMS force accuracy = 0.004246529
  estimated relative force accuracy = 1.2788296e-05
  using double precision FFTW3
  3d grid and FFT values/proc = 4845 560
Last active /omp style is kspace_style pppm/tip4p/omp
Neighbor list info ...
  update every 1 steps, delay 7 steps, check yes
  max neighbors/atom: 2000, page size: 100000
  master list distance cutoff = 10.8154
  ghost atom cutoff = 10.8154
  binsize = 5.4077, bins = 7 5 5
  1 neighbor lists, perpetual/occasional/extra = 1 0 0
  (1) pair lj/cut/tip4p/long/omp, perpetual
      attributes: half, newton on, omp
      pair build: half/bin/newton/tri/omp
      stencil: half/bin/3d/tri
      bin: standard
Setting up Verlet run ...
  Unit style    : real
  Current step  : 1500000
  Time step     : 2
  Walltime left : 9:59:59.89
Per MPI rank memory allocation (min/avg/max) = 9.401 | 9.412 | 9.423 Mbytes
Step Temp PotEng TotEng E_pair E_mol Press Lx Ly Lz Volume Pxx Pyy Pzz Pxy Pxz Pyz Enthalpy 
 1500000    103.69421   -6745.6764   -6478.9294   -6745.6764            0    2126.4915    23.215159    21.313441    21.778267    10775.776    2157.0345     1906.794    2315.6459   -699.09666   -218.28011    542.00126   -6144.7435 
 1501000    101.35998   -6754.7357   -6493.9933   -6754.7357            0    2718.6363    23.199621    21.359503    21.660612    10733.534    3203.7591    2653.7341    2298.4157    56.093493   -1046.8906    528.38882   -6068.4245 
 1502000    103.67008   -6759.3986   -6492.7137   -6759.3986            0    1977.5018    23.258085    21.397097     21.61534    10756.993    1573.3592    1915.7175    2443.4289    320.94358    197.11193   -707.97978   -6182.4838 
 1503000    102.18177     -6757.13   -6494.2736     -6757.13            0    2179.3755    23.276297    21.318968    21.693394     10764.84      1556.59    2731.2954    2250.2412   -220.82938    1365.3787   -1272.9593   -6152.1244 
 1504000    97.307272   -6757.7063   -6507.3893   -6757.7063            0    2949.3262    23.183578    21.311141     21.71623    10729.305    3842.7011    2907.6827    2097.5949    129.99621   -763.73586   -365.06256   -6045.8908 
 1505000    101.86816   -6757.1228   -6495.0732   -6757.1228            0    2597.1426    23.226514    21.418003    21.614804     10752.62     1716.489    2287.8057    3787.1333   -174.79868   -676.76345    475.35963   -6087.7999 
 1506000    103.10611   -6749.1381   -6483.9039   -6749.1381            0    2658.1538    23.254431    21.380973    21.582915    10731.076    2570.7502    2357.4861    3046.2252   -165.40091   -139.05308   -154.32324   -6067.8982 
 1507000    101.38765   -6758.8434   -6498.0299   -6758.8434            0    2383.0614    23.237757    21.311695    21.728985    10760.976    2720.2101    1685.8716    2743.1026    488.37656   -156.70557    599.28487   -6124.0375 
 1508000    105.04871    -6760.441   -6490.2096    -6760.441            0    2357.0946     23.20921    21.373348       21.696    10762.485    1850.9168    2743.9089    2476.4582    177.77411    615.32044   -612.83441   -6120.2405 
 1509000    106.43732    -6748.183   -6474.3795    -6748.183            0    2588.1277    23.261624    21.414754    21.554634    10737.267    2509.3366    2454.2282    2800.8183      36.2476   -123.51047    -417.8787   -6069.0993 
 1510000    102.29482   -6749.0092    -6485.862   -6749.0092            0    2613.3476    23.252849    21.309262    21.685217    10745.048    2487.2463    3403.3266    1949.4699    642.73253   -110.54552    1059.7367   -6076.3361 
 1511000    103.91714   -6758.1485    -6490.828   -6758.1485            0    2620.4229    23.228205    21.293694    21.745332    10755.552    3129.0838    2865.8532    1866.3316    326.26427   -105.77006    115.00497   -6079.7919 
 1512000    105.99874   -6748.6699   -6475.9946   -6748.6699            0    2353.1471    23.223681    21.444512    21.599891    10757.189    2063.0023    1194.6794    3801.7594    417.13572    300.45855    859.97091   -6106.8269 
 1513000    106.13705   -6756.0688   -6483.0377   -6756.0688            0    2651.3353    23.243075    21.393544     21.62095    10751.055    2553.6085    2577.5351    2822.8623   -537.28723    297.75352   -282.97475   -6067.3266 
 1514000    101.19906   -6765.1383   -6504.8099   -6765.1383            0    2014.4374    23.316524    21.300989    21.686661    10771.006    2418.4375    1616.5294    2008.3452   -868.94212   -64.869755    146.18866   -6188.3738 
 1515000    105.59532    -6761.314   -6489.6765    -6761.314            0    2529.5933    23.267265    21.408825    21.583313    10751.183     3070.353    2613.5372    1904.8895    199.43508    -236.3539   -745.74573   -6093.0489 
 1516000    100.23609   -6751.3261   -6493.4748   -6751.3261            0    2222.8758    23.086153    21.526108    21.668471    10768.256    2732.0546    1713.4178    2223.1551    480.03587     232.2045   -56.338186   -6144.3856 
 1517000    102.84931   -6752.6851   -6488.1115   -6752.6851            0    3597.6619     23.31325     21.21656    21.640637    10704.043    3474.9109    4564.8485    2753.2262    187.57971     314.8278    222.69078   -5926.4896 
 1518000    99.951473   -6763.3037   -6506.1847   -6763.3037            0     1959.432    23.299546    21.275436    21.722983    10768.257    2490.5865    2022.0578    1365.6515   -513.88896   -794.88705   -215.11599   -6198.4677 
 1519000    100.32972   -6751.7405   -6493.6484   -6751.7405            0    2968.9038     23.05542    21.513161    21.627837    10727.298    3862.2761    1788.7599    3255.6755    91.955883    117.77767    315.59724   -6029.1734 
 1520000     103.6146   -6765.3623   -6498.8201   -6765.3623            0    2305.9399    23.265996    21.391649    21.574228    10737.451    2628.3111    2050.0579    2239.4506    -634.6807   -382.35032   -635.67484   -6137.7221 
 1521000     98.37866   -6759.2571    -6506.184   -6759.2571            0    2772.8313    23.346029    21.225403    21.645401    10725.921    1630.4473    4260.7872    2427.2593    82.399828   -259.93641   -142.99461   -6072.4395 
 1522000    104.31427   -6761.1068   -6492.7647   -6761.1068            0    2406.7576      23.0968    21.445054    21.700852    10748.695     3325.854    1761.4516    2132.9671   -127.47619    29.841329   -16.224021   -6115.4845 
 1523000     102.8104   -6761.5665    -6497.093   -6761.5665            0    3391.7857    23.131744    21.407883    21.601867     10697.28     4212.628    2699.2561     3263.473    35.686203   -94.788486   -71.889641   -5967.9444 
 1524000    108.12781   -6742.4719   -6464.3197   -6742.4719            0    2727.7259     23.35887    21.244531    21.664357    10750.899    2734.3348    2376.7641    3072.0787    184.57629   -574.80705    810.01054   -6036.6373 
 1525000    109.83804   -6759.2316   -6476.6799   -6759.2316            0    2942.6302    23.201395    21.395619    21.630185    10737.401    3364.2756    2773.1146    2690.5005   -723.86309    509.68327    235.12838   -6015.8817 
 1526000    103.59919    -6741.247   -6474.7444    -6741.247            0    3275.7853    23.097611    21.477331    21.624638    10727.443    4118.6463    2939.9319    2768.7776    318.86524   -775.00098   -36.158978   -5962.2519 
 1527000    103.73041   -6751.0522    -6484.212   -6751.0522            0    2279.0306    23.330789    21.310828     21.64735    10763.028     2257.962    2079.5456    2499.5843    743.42145   -290.44313   -609.14093   -6126.4778 
 1528000    100.81016   -6763.4235   -6504.0955   -6763.4235            0    2463.1345    23.346992    21.314452    21.580024    10738.832    2451.5261    1717.6703     3220.207   -835.20747   -151.80734   -129.82465   -6118.3321 
 1529000    101.30416   -6761.5823   -6500.9835   -6761.5823            0    2568.7418    23.050942    21.467622    21.688366    10732.464    4388.8784    2118.3488    1198.9983   -475.82373    150.04102   -769.37211   -6098.9189 
 1530000     106.6475   -6751.2423   -6476.8981   -6751.2423            0    2872.6632     23.18376     21.33119    21.719216     10740.96    2968.2101    2969.9877    2679.7918   -723.88446    1002.5562    231.35733   -6026.9072 
 1531000     104.2837   -6749.2829   -6481.0194   -6749.2829            0     1948.021    23.397652    21.260096    21.654144    10771.558    1702.2948    2755.0913    1386.6769   -26.746855   -110.90975    24.140142   -6175.0007 
 1532000    104.75522   -6754.1414    -6484.665   -6754.1414            0    2333.5887    23.150253    21.384867    21.731411    10758.462    2676.5605    2637.8642    1686.3416   -86.234661    419.70578   -442.72232   -6118.5223 
 1533000    101.79769   -6752.5166   -6490.6482   -6752.5166            0    2670.6031    23.128387    21.420858     21.67469    10738.289     3303.706    2461.3136    2246.7899    241.37539     636.3518    231.52202   -6072.4132 
 1534000     99.19209   -6753.2639   -6498.0983   -6753.2639            0    2950.4972    23.343113    21.236418    21.647032    10730.956     2169.622    3842.3488    2839.5207    356.62737   -405.16282   -89.795232   -6036.3455 
 1535000    99.604858   -6760.2662   -6504.0388   -6760.2662            0    2986.6612    23.228125    21.265768    21.722783    10730.271      2465.08    4502.8125    1992.0912    53.046244    324.24184   -90.057214   -6036.6562 
 1536000    98.292696   -6752.5005   -6499.6485   -6752.5005            0    2235.9065    23.031775    21.527465    21.704172     10761.27    3214.6761    1679.2762    1813.7672   -84.165532     594.4145   -516.45118   -6148.7407 
 1537000    103.40905   -6753.4858   -6487.4723   -6753.4858            0    3166.4647    23.282736     21.32452     21.57506     10711.87    2534.8858    2901.6393    4062.8691    264.06807    480.57003   -198.38699    -5992.802 
 1538000     101.0985   -6751.2657   -6491.1959   -6751.2657            0    3530.8099    23.402589    21.210161    21.590733     10717.05    2799.0566    3932.4709    3860.9022    88.656127   -387.81723    298.10531   -5939.3403 
 1539000    100.17744   -6748.0845   -6490.3842   -6748.0845            0    3418.9173    23.103879    21.420311    21.639049    10708.998    4424.6342    2757.4954    3074.6224   -321.07673   -198.20299     236.9488   -5956.4185 
 1540000    98.926736   -6753.2904   -6498.8074   -6753.2904            0    2841.5229    23.197543    21.418561    21.619497     10741.82    2403.0961    2792.9887    3328.4839    574.57764    400.75035    146.11177   -6053.6589 
 1541000    101.46912   -6760.1478   -6499.1247   -6760.1478            0    2732.0396    23.394604    21.232872    21.618067    10738.443    1804.8987    3524.0155    2867.2048   -1476.8237   -443.39476   -236.00796   -6071.2622 
 1542000    102.31977   -6757.5999   -6494.3885   -6757.5999            0    3076.2484     23.18471    21.425168    21.582842    10720.981    3352.3978    2715.0091    3161.3382    30.624347   -254.25275   -838.84933   -6013.4032 
 1543000    101.66477   -6746.9739   -6485.4475   -6746.9739            0    3502.0864    23.110185    21.412584    21.650494    10713.721    3892.6593    2555.3314    4058.2686    418.93579   -17.491838    375.41998   -5938.2513 
 1544000    104.29118   -6755.4544   -6487.1717   -6755.4544            0    2549.5297    23.352364    21.209596    21.696116    10745.961    2141.8911    2892.4838    2614.2141   -601.42256    342.84905    496.83247   -6087.6124 
 1545000    99.262044    -6771.262   -6515.9164    -6771.262            0     3137.725    23.240835     21.29104    21.609538    10692.865    3082.5031     4060.931    2269.7409   -80.352214   -246.75345   -664.18924   -6026.6056 
 1546000    100.69691   -6744.8868   -6485.8501   -6744.8868            0    3459.9369    23.126619    21.494714    21.540144    10707.607    4012.0611    2253.7221    4114.0274    116.30899   -190.08127    1150.1603   -5945.5482 
 1547000     100.9182   -6761.9919   -6502.3859   -6761.9919            0    3106.2189    23.287614    21.177764    21.732686    10718.117    3214.3652    4079.3742    2024.9173   -51.655678    216.83045    153.42794   -6016.8443 
 1548000    101.06165   -6746.3098   -6486.3349   -6746.3098            0    2557.5804    23.218333    21.351733    21.706555     10761.06    2901.4833    2011.9078    2759.3502   -381.44365    733.31128    38.497752   -6084.9507 
 1549000    102.97027   -6747.7438    -6482.859   -6747.7438            0    2966.3732    23.181211    21.463169     21.57003    10732.001    2504.4743    2285.3998    4109.2455    521.77047    313.97162    602.49406   -6018.5765 
 1550000    102.81995   -6756.1935   -6491.6955   -6756.1935            0    2269.5267    23.312543    21.328998    21.620603    10750.481      2049.49     2935.634    1823.4561    499.13875    398.70533    445.72776   -6135.8683 
 1551000    103.47701   -6749.9723    -6483.784   -6749.9723            0    1973.7018    23.215641    21.310622    21.767542    10769.268      2368.64    1654.1672    1898.2981   -1160.9043   -110.54093   -305.79775   -6173.7969 
 1552000    100.65135   -6761.0455    -6502.126   -6761.0455            0    2210.3025    23.201833    21.519026    21.531821    10750.426    2150.2396     1117.727    3362.9407    353.26462   -150.45333    -344.5133   -6155.5861 
 1553000    101.01643   -6757.4579   -6497.5992   -6757.4579            0    2676.7931    23.310604    21.380157    21.539406    10734.903    2277.2167    2581.1262    3172.0363    522.90214     52.27933   -329.38078   -6078.5271 
 1554000    104.95724   -6755.9373   -6485.9411   -6755.9373            0    2485.1272     23.25103    21.311283    21.698925    10752.018    2424.8004     3087.616    1942.9652   -456.25004   -276.16619   -1106.1189   -6096.2554 
 1555000    100.00808   -6747.9992   -6490.7345   -6747.9992            0    2232.0738    23.224627    21.429185    21.659542    10779.625    1793.6178    1833.6833    3068.9202    338.47771   -132.76723     83.90114   -6139.8307 
 1556000    105.83615    -6750.927   -6478.6699    -6750.927            0    2830.9787     23.27342    21.350752    21.585881    10726.133     2634.719    2611.1191    3247.0981    282.13928    87.165913    494.89487   -6035.8209 
 1557000    104.02435   -6761.5826   -6493.9863   -6761.5826            0    2599.0899    23.259315    21.339458     21.65881    10750.159    2141.1833     2537.122    3118.9644   -73.265866    346.20994   -325.43323   -6086.5009 
 1558000    101.70237    -6757.567   -6495.9438    -6757.567            0     2200.652     23.18288    21.401669    21.685701     10759.41    2306.7626    2299.1398    1996.0536   -29.452107   -88.973799    181.29679   -6150.6286 
 1559000    102.72226   -6755.8144   -6491.5676   -6755.8144            0    2661.4188    23.235395    21.280518    21.713363    10736.417    2894.4187    2694.0779    2395.7599    149.81509   -5.7945977    312.78819   -6074.8437 
 1560000    97.505749   -6757.7246    -6506.897   -6757.7246            0    3012.7488    23.158104    21.290895    21.708204    10703.377    3364.8181     3070.421    2603.0073    220.97983    320.78843    627.48145   -6036.6136 
 1561000    100.92886   -6754.9535   -6495.3201   -6754.9535            0    2677.1175     23.21184     21.37817    21.628991    10732.882    2648.5487    1829.8897    3552.9139   -293.20667     717.3425    571.00624   -6076.2761 
 1562000    102.19557   -6749.6276   -6486.7357   -6749.6276            0    1698.9657     23.26938    21.257467    21.801487    10784.064    1449.9903    2131.6536    1515.2533   -308.72904    1444.1684    860.82625   -6219.5317 
 1563000    103.86172   -6742.1045   -6474.9266   -6742.1045            0    2004.0443    23.321899    21.312471    21.673389    10772.699    1926.2694    1879.7303    2206.1332    279.84107    27.962667    107.53017   -6160.0737 
 1564000    96.455369   -6742.8944   -6494.7689   -6742.8944            0     2122.679     23.12439    21.549009    21.589966    10758.447    1927.4377    1758.3818    2682.2176    372.40737   -413.46443    -459.3442   -6161.7186 
 1565000    99.198475   -6770.6419   -6515.4599   -6770.6419            0    1832.4892    23.258724    21.366539    21.689907    10778.982    2032.5235    1696.9095    1768.0345   -752.66969    349.23239    336.01806   -6227.3919 
 1566000      104.122    -6744.965   -6477.1175    -6744.965            0    3002.1386    23.272078    21.251307    21.709427    10736.659    2340.7023    3218.6684    3447.0451   -279.75265    12.371206    280.06657   -6007.0331 
 1567000    96.381615   -6755.6551   -6507.7193   -6755.6551            0    2507.2435    23.239732    21.470269    21.515946    10735.668    2503.7362    2204.3534    2813.6409     498.2005   -802.60638   -674.89405   -6115.1635 
 1568000     101.2126   -6762.6884   -6502.3251   -6762.6884            0    2791.0485    23.231088    21.419613    21.570041    10733.272    1938.3661    2938.5601    3496.2193    227.03441    544.69699   -437.43545   -6065.4318 
 1569000      96.6206   -6760.3976    -6511.847   -6760.3976            0    2633.9424     23.28049    21.269606    21.678838    10734.642    2287.6764    3091.6735    2522.4772    -105.9492   -687.98067   -250.52793   -6099.4935 
 1570000     97.25465   -6743.4656   -6493.2839   -6743.4656            0    2788.5114    23.262638    21.331866    21.673041    10754.931    3426.4676    2802.5706    2136.4961   -299.33478   -909.88205   -990.24266   -6055.9069 
 1571000    103.54013   -6754.0775   -6487.7268   -6754.0775            0    2746.8143    23.157683    21.473818    21.572806    10727.808    3023.3523    1832.9997    3384.0909    563.36733   -798.76416   -108.44328   -6057.9765 
 1572000    107.00204   -6744.7802    -6469.524   -6744.7802            0    2714.2127    23.300445    21.377653    21.580025    10749.201     2414.887    2421.5422     3306.209    375.75517   -250.76504    158.34579   -6044.0275 
 1573000    101.50027   -6764.2304   -6503.1272   -6764.2304            0    2746.7785    23.270534     21.26753    21.662231    10720.784    2603.2907    3268.4399    2368.6048   -94.730693   -139.15577   -25.093821   -6073.6638 
 1574000    102.88104   -6756.1398   -6491.4846   -6756.1398            0    3058.7113    23.120672    21.379682    21.672099    10712.792    3384.7115    2687.0572    3104.3653    115.61683    -139.6895   -145.69694   -6013.6065 
 1575000    101.77863   -6756.2419   -6494.4226   -6756.2419            0    2486.8937    23.179257    21.389692    21.665213    10741.551    2842.8815    2535.0304    2082.7691    119.36423    850.73494   -259.74554   -6104.8395 
 1576000    102.50874   -6755.8388   -6492.1413   -6755.8388            0    2563.6143     23.35972    21.213947    21.649991    10728.693    1805.8942    2992.6646    2892.2843    445.61422   0.81120814    823.56236   -6091.0203 
 1577000    101.22957   -6762.9566   -6502.5497   -6762.9566            0      1763.13    23.230938    21.391318    21.665189    10766.307    1863.4607    1692.7508    1733.1787   -91.800774    59.900179    172.18052   -6225.7109 
 1578000    107.07181   -6753.2906   -6477.8549   -6753.2906            0    1950.4496    23.128878    21.417483    21.710031    10754.332    2063.6554    1689.2703    2098.4231   -101.30428    872.56874    293.71316   -6171.9447 
 1579000    101.21368   -6762.9916   -6502.6256   -6762.9916            0    1719.7084    23.322116    21.228267    21.724534    10755.559    1255.8573     2887.717     1015.551    82.870959   -251.05222    910.16632   -6232.8742 
 1580000    105.79798   -6750.4582   -6478.2994   -6750.4582            0    1554.5691    23.365962    21.304845    21.679002    10791.985    902.90839    1250.3611    2510.4377    214.78245    -362.1836    580.83684   -6233.6257 
 1581000    99.607059   -6757.1263   -6500.8932   -6757.1263            0    2286.6933    23.104574    21.449309    21.703628    10755.822     2967.286     1590.387     2302.407   -198.73189   -214.65917    256.65817   -6142.1965 
 1582000    102.93126   -6765.6999   -6500.9155   -6765.6999            0    1622.3499    23.293334    21.412449    21.617093      10781.9    1223.7664     2112.556    1530.7274    480.19827   -422.71725   -322.84988   -6245.8124 
 1583000    102.27535   -6753.8565   -6490.7593   -6753.8565            0    2341.6478    23.312472    21.315744    21.626605     10746.75    2255.5815    2115.5674    2653.7944    194.00542   -243.00266   -48.602011   -6123.7521 
 1584000    107.92727   -6749.0723    -6471.436   -6749.0723            0    2264.0638    23.176187     21.41712    21.715707    10778.965    2604.2609    2476.3861    1711.5443   -457.16891   -290.54381   -750.83401   -6115.5248 
 1585000    100.51551    -6757.551    -6498.981    -6757.551            0    2225.6933    23.188809    21.409874    21.686897    10766.883    2140.2371    2071.3278    2465.5151    112.51475   -28.066797     201.5288   -6149.4939 
 1586000    102.08558    -6764.374    -6501.765    -6764.374            0    1425.7478    23.320746    21.350819    21.659129    10784.448     719.1464    1672.5093    1885.5877   -73.935759    284.29471    192.13316   -6277.5233 
 1587000    100.35287   -6764.9477   -6506.7961   -6764.9477            0    733.81866    23.337113    21.334613    21.704235    10806.284    637.27268    1550.1946    13.988732   -276.30903    260.29622    -75.47155   -6391.1473 
 1588000    100.52486   -6745.5329   -6486.9388   -6745.5329            0    2694.2454    23.231533    21.260876    21.702091    10719.156    3596.4385    1964.3937    2521.9039     -112.356    255.63301    111.93762   -6065.7531 
 1589000    97.799964   -6762.4352   -6510.8507   -6762.4352            0    1798.1072    23.198065    21.344452    21.727636    10758.439     1316.818    2667.1687    1410.3349   -287.39713    1074.1272    256.23568   -6228.7263 
 1590000    101.77571   -6761.0029   -6499.1911   -6761.0029            0    1833.6992    23.230895    21.360695    21.699503    10767.902    2150.9283    1566.4338    1783.7354    624.93507   -210.88161    586.64815   -6211.2292 
 1591000    97.920307   -6756.0744   -6504.1803   -6756.0744            0    2374.5543     23.28356    21.333552    21.625635    10741.908    1934.1571    1936.9589    3252.5468    95.707075    711.60757    414.77481   -6132.1833 
 1592000    100.51597   -6750.6412     -6492.07   -6750.6412            0    2345.9727    23.287222    21.304199    21.677878    10754.733    2229.5555    2550.0466    2258.3159    1337.8031   -154.16273    211.46209   -6124.1118 
 1593000    103.40261    -6760.185   -6494.1881    -6760.185            0    2472.1605    23.105404    21.383204    21.753074    10747.488    2832.6752    2412.5125    2171.2936   -54.766293   -918.17496   -308.58337   -6106.6989 
 1594000    100.72229   -6748.5674   -6489.4655   -6748.5674            0    2984.0147    23.236574    21.386339    21.597726    10732.887    2895.8378    2983.5913     3072.615    18.119824   -620.11648    -199.1088   -6022.3832 
 1595000    95.920723   -6756.1533   -6509.4031   -6756.1533            0    2852.5589    23.241376    21.356095     21.62042    10731.188    3098.1857    2950.0271    2509.4639   -103.89172   -326.25204   -896.45394    -6062.968 
 1596000    105.03927   -6751.2877   -6481.0806   -6751.2877            0    2336.2864    23.218347    21.299433    21.788462    10775.214    2926.9623    2990.8411    1091.0559    281.22212   -1043.0504    -1805.725   -6113.9438 
 1597000    98.324567   -6750.1798   -6497.2459   -6750.1798            0    2197.6656    23.326574    21.334683    21.638694    10768.822    1221.1813    2188.2951    3183.5204   -194.73753    745.35889    41.694478   -6152.0976 
 1598000    99.208346   -6766.1119   -6510.9045   -6766.1119            0    2435.7372    23.231444    21.438047    21.553568     10734.47     2080.624     2193.486    3033.1017     114.5296   -227.54969    189.07219   -6129.5868 
 1599000    98.564573    -6747.161   -6493.6096    -6747.161            0    950.96717    23.146392     21.48262    21.757125    10818.625    2090.9281    738.55025    23.423143   -740.51686   -845.28003   -763.24502   -6343.5674 
 1600000    100.78586   -6764.4833   -6505.2178   -6764.4833            0    2854.7199    23.256784    21.263914    21.684336     10723.56    1663.4762    3717.1858    3183.4977    130.36941   -51.163642   -98.932303   -6058.7621 
 1601000    96.215126   -6754.2913   -6506.7838   -6754.2913            0    2943.5201    23.261365    21.264524    21.702554    10734.992    2966.5312    3353.0418    2510.9872   -208.48632    609.74445    134.03455   -6045.9497 
 1602000    98.235682    -6745.251   -6492.5457    -6745.251            0    3005.1034    23.103584    21.474379      21.6206    10726.739     3590.555    2445.8717    2978.8837   -55.989914    307.56765    142.22943   -6022.4318 
 1603000    102.64265   -6745.8181   -6481.7761   -6745.8181            0    2912.1748    23.213648     21.31082    21.670772    10720.571    2504.6433    3548.3113    2683.5697   -728.18978    155.86105    138.56319   -6026.4619 
 1604000    100.59557   -6749.2501   -6490.4741   -6749.2501            0    2517.9618    23.277392     21.32831    21.664497    10755.717    2516.8998    2165.5183    2871.4672    201.68074    -181.0655   -461.28302   -6095.5039 
 1605000    105.13066    -6760.169   -6489.7268    -6760.169            0     1432.553    23.200868    21.579296    21.576544    10802.478    1729.4285    709.60083    1858.6297    298.30848    674.66287   -519.46694    -6264.038 
 1606000    101.20021   -6762.0188   -6501.6874   -6762.0188            0    2984.9726    23.222709    21.349632    21.643465     10730.75    2486.8188    2939.1773    3528.9217   -699.08355    390.14271   -5.6393492   -6034.5482 
 1607000    99.620062   -6755.0894   -6498.8228   -6755.0894            0    2870.4986    23.340592    21.264309    21.627671    10734.279    2336.4309    3559.0878    2715.9771   -457.86653    560.02651   -314.66887   -6049.4507 
 1608000    101.22539   -6756.7416   -6496.3454   -6756.7416            0     2309.518    23.220066    21.501361    21.557135     10762.68    2855.1937    1027.7367    3045.6236    95.318752    -311.5506   -1.1777977   -6133.8374 
 1609000    98.300501   -6756.4725   -6503.6004   -6756.4725            0     2432.923    23.175117    21.392114    21.687184    10751.741    2686.4188    2289.1479    2323.2023   -94.949804    654.24157   -154.68371   -6122.1105 
 1610000    101.49204   -6760.8919   -6499.8098   -6760.8919            0    2352.1485    23.292114    21.225559    21.729972     10743.04    2304.5321    2708.2432    2043.6701   -113.28249    709.43421   -81.111832   -6131.2841 
 1611000    100.09737   -6748.8145   -6491.3201   -6748.8145            0    2200.4651    23.333868    21.355782    21.612808    10769.943     1616.856    2387.8541    2596.6852   -178.95728      193.472     666.4367   -6145.6962 
 1612000    104.25002   -6760.8476   -6492.6708   -6760.8476            0    2624.5454    23.154632    21.439219    21.632718    10738.854    2051.8809    2642.7313     3179.024    61.350218     292.3082    328.06168   -6081.6272 
 1613000    103.19089   -6756.0104   -6490.5581   -6756.0104            0    2665.3383    23.251125    21.284759    21.682115    10730.362    2807.9722    2221.1691    2966.8738    126.76741   -24.857968    483.96445   -6073.4558 
 1614000    105.09661   -6756.8092   -6486.4546   -6756.8092            0    2029.5768    23.299352    21.275535    21.706331    10759.963    2861.2774    2312.7232    914.72983   -534.42909    39.194465    16.211847   -6167.9673 
 1615000     101.2184   -6748.2935   -6487.9154   -6748.2935            0    2840.6438    23.154714    21.400978    21.652441     10729.51    2591.2049     3319.598    2611.1285   -421.13579    954.64591   -882.49457   -6043.4145 
 1616000    99.429283   -6765.2488    -6509.473   -6765.2488            0    3265.8048    23.192487    21.339927    21.646472    10713.401    3185.6413    3824.7767    2786.9964    780.22957    297.85228    326.17025   -5999.2107 
 1617000    97.273615   -6770.6562   -6520.4258   -6770.6562            0     3541.306    23.197007    21.248099     21.70507    10698.262    3966.4882    3894.9465    2762.4833   -225.59992    372.20351    -79.28398   -5967.8999 
 1618000    97.641784   -6756.1926   -6505.0151   -6756.1926            0    2853.5867    23.232524    21.382203     21.60009    10730.116    2921.6639    2516.6204    3122.4758   -577.04729    483.02505    210.03564   -6058.4637 
 1619000    103.29081    -6765.037   -6499.3276    -6765.037            0    2535.1379    23.205637    21.426317    21.599319    10739.426     2567.307    2335.5985    2702.5083    681.70497   -775.98764   -197.66242   -6102.2654 
 1620000    98.799924   -6751.9508   -6497.7941   -6751.9508            0     2542.276    23.288414    21.344244    21.647742    10760.521    2327.7527    2557.8191    2741.2562    651.20907   -4.4470857   -110.18361   -6098.8317 
 1621000    98.691247   -6751.9274   -6498.0501   -6751.9274            0    2566.0129    23.243561    21.255056    21.789236    10764.824    2072.7745    3272.7654    2352.4988    826.42597     985.6965   -498.34749   -6095.2017 
 1622000    104.50163   -6747.5248   -6478.7007   -6747.5248            0    1711.0959    23.182175     21.47939    21.681392     10796.01    1527.3555    1282.6583    2323.2739   -618.35768   -12.166524   -337.73685   -6209.2908 
 1623000    99.609952   -6757.1522   -6500.9117   -6757.1522            0    2320.6142    23.203526    21.425268    21.610571    10743.517    2761.1521    1702.2285    2498.4619   -666.26942   -29.601659    183.10026   -6137.3105 
 1624000    101.90269   -6753.8116   -6491.6731   -6753.8116            0    2010.8292    23.318721    21.252085    21.740743    10774.091    1639.1716    2130.5068    2262.8092   -256.29637    3.5032576    108.07299   -6175.7134 
 1625000    102.10336   -6746.9022   -6484.2475   -6746.9022            0    2680.8836    23.233098    21.326494     21.65217    10728.228    2903.6085    2561.7793    2577.2631    718.91463    635.39275   -502.86609   -6064.7959 
 1626000    103.75653   -6761.7198   -6494.8125   -6761.7198            0    2062.9081    23.089006    21.516604    21.644505    10752.925    2485.3246    1126.1834    2577.2163    592.97019     643.2574    703.02013   -6171.3064 
 1627000    101.24014   -6754.9889   -6494.5548   -6754.9889            0    3161.2001    23.285185    21.200783    21.719217    10721.999    2426.6319     4683.957    2373.0115   -558.90198    355.93534   -469.85373     -6000.24 
 1628000    103.69057   -6759.3643   -6492.6266   -6759.3643            0    2735.2132    23.322503    21.244235    21.640374    10722.128    2371.6531    3850.6043    1983.3822   -526.37574    189.28895    43.764387   -6064.9179 
 1629000    100.47942   -6735.2782    -6476.801   -6735.2782            0    2911.3365    23.042305    21.445808    21.705254    10725.887     3203.777     2677.734    2852.4986    392.24251    500.61263   -135.03718   -6021.3921 
 1630000    99.038559   -6768.5184   -6513.7477   -6768.5184            0    2671.5007    23.232398    21.296535    21.682061    10727.624    2978.9931     2555.964    2479.5451    276.04854   -213.88848    162.87835   -6095.7877 
 1631000    94.832544   -6753.6203   -6509.6694   -6753.6203            0    1870.9304    23.428559    21.267166    21.588408    10756.619    1721.4268    2032.4476    1858.9168    106.65815   -420.64145    435.56088   -6216.1686 
 1632000    103.90003   -6747.8381   -6480.5616   -6747.8381            0    2298.1312    23.186346    21.385195    21.684576    10752.179    2436.3344    1679.0213    2779.0377    212.16528   -1024.1988    22.216459   -6120.1928 
 1633000    102.03263   -6749.1994   -6486.7267   -6749.1994            0    1888.2702    23.132586    21.484855     21.69107    10780.468    2484.3161    2282.9534    897.54114    -6.508503   -682.16529   -1073.6677   -6189.8489 
 1634000    99.574938   -6763.9448   -6507.7943   -6763.9448            0    2094.6073     23.42902    21.302807    21.533913     10747.66    1479.2002    1478.4002    3326.2217    368.99162   -430.49255   -103.47793    -6179.478 
 1635000    99.323776   -6766.1551   -6510.6507   -6766.1551            0    1867.3802    23.248527    21.385096    21.673908     10775.66    1694.7496    1774.1572    2133.2338   -373.46889   -164.52281   -285.87907   -6217.1883 
 1636000    101.84349   -6749.1889   -6487.2027   -6749.1889            0    1112.2563    23.108111    21.489923    21.780214    10815.869     1414.654    299.82551    1622.2895    767.12729   -197.87128    652.67218   -6311.7572 
 1637000    99.074106   -6753.0719   -6498.2098   -6753.0719            0    2231.2858     23.30845    21.280092    21.652134    10739.587    1932.8046    2085.9284    2675.1243    540.35377    271.13482    754.24606   -6148.7328 
 1638000    97.095923   -6755.0306   -6505.2573   -6755.0306            0    1460.3955    23.353455    21.322674    21.663196    10787.364     790.8519    1604.9761    1985.3585    314.91977    738.10635    513.33594    -6275.504 
 1639000    96.993056   -6752.1439   -6502.6352   -6752.1439            0    1577.5044    23.103735    21.505622     21.73325    10798.387      2097.98    1126.0602     1508.473   -67.446223   -64.409515    551.47556   -6254.2044 
 1640000    101.68732   -6757.0057   -6495.4213   -6757.0057            0     3038.948    23.194373    21.319022    21.681699    10721.196    2724.4009    3369.6184    3022.8247    142.49619    229.42305    51.183253   -6020.2585 
 1641000    100.26193   -6761.5777     -6503.66   -6761.5777            0    2170.3003    23.427312    21.337055    21.526454    10760.425    1374.5408     2155.191    2981.1691   -180.34109    237.71226    209.93984   -6163.0753 
 1642000     102.2834    -6759.218   -6496.1002    -6759.218            0     2951.595    23.126995    21.447926    21.614921    10721.564    3143.2407    3331.1613     2380.383   -377.84842    -425.4376   -516.55245   -6034.5799 
 1643000    101.12792   -6752.3124    -6492.167   -6752.3124            0     3383.173    23.064908    21.379674    21.723062    10712.081    4076.9551    2963.0571    3109.5068    649.28652    36.014181    262.02405   -5963.6318 
 1644000    96.688362   -6749.6869    -6500.962   -6749.6869            0    2134.5703    23.348977    21.313368    21.631518    10764.824    1300.8355    2551.9045    2550.9708    280.44703    468.27737    18.811285   -6165.8474 
 1645000    103.32266   -6745.5312   -6479.7399   -6745.5312            0    2463.4262    23.353675     21.37539      21.4953    10730.323    1739.1161    2329.4845    3321.6781   -580.47086    534.81636   -507.35098   -6094.2365 
 1646000    101.07105   -6760.2963   -6500.2972   -6760.2963            0    1953.1825    23.158887    21.483421     21.61168    10752.505    2561.8421    1765.5136    1532.1918   -28.521438   -419.32869   -1378.7908   -6194.0103 
 1647000    99.900068   -6761.9835   -6504.9967   -6761.9835            0    2006.2507    23.271884    21.331115    21.663052    10753.869     2312.073    2298.6617    1408.0174   -207.51198   -535.54687   -525.92036   -6190.3481 
 1648000    106.56865   -6781.7599   -6507.6185   -6781.7599            0    1718.9527    23.318366    21.377607     21.63847     10786.58    992.49063    2125.7912    2038.5762   -326.79644   -49.557109    -323.9767    -6237.208 
 1649000    105.87898   -6755.0364   -6482.6692   -6755.0364            0    2519.9565    23.219113     21.50103    21.533547    10750.297    2573.4859    1798.0153    3188.3683    188.52565   -816.55709   -1007.2464   -6087.5852 
 1650000    102.58066   -6763.8934   -6500.0109   -6763.8934            0    3124.6935    23.238764    21.414243    21.536572    10717.472    3143.0135    2875.1434    3355.9236    569.66388   -715.12627   -474.90417   -6011.6109 
 1651000    104.77552   -6752.3005   -6482.7718   -6752.3005            0    2959.9718    23.278943    21.269614    21.670131    10729.622    2196.0506    3300.6451    3383.2199   -407.13051    182.73709    297.23625   -6019.5939 
 1652000    99.099776   -6761.2776   -6506.3495   -6761.2776            0    3519.0377    23.124719    21.393282    21.624982    10698.173    3597.4466     3139.217    3820.4496    324.23858   -116.29278    93.761489   -5957.3026 
 1653000    102.65953     -6743.43   -6479.3446     -6743.43            0    2602.4243    23.115796    21.508195    21.611763    10744.916    1997.7744    2930.7187    2878.7798    936.64703    483.13065    531.44418   -6071.5354 
 1654000    100.98042   -6753.4981   -6493.7321   -6753.4981            0    2439.8826    23.356686    21.184021    21.717078    10745.361    2685.1093    2303.1422    2331.3962   -445.97436   -448.92479    501.95202   -6111.3779 
 1655000    99.215245   -6758.4185   -6503.1933   -6758.4185            0     3110.599    23.205744    21.294968    21.660761    10704.003    3662.1412    3266.5328    2403.1229    -468.3206    134.93225   -800.70265   -6017.6074 
 1656000    95.741168   -6763.9358   -6517.6475   -6763.9358            0    2054.3631    23.142343    21.517454    21.605481    10758.758    2384.7801    1431.7974     2346.512    52.434223    383.82639   -482.64258   -6195.3067 
 1657000    97.684685   -6751.2603   -6499.9724   -6751.2603            0    2750.5791    23.285748    21.319928    21.594064    10720.383    2241.0468     2806.059    3204.6315   -1215.0758   -206.12708   -739.27846   -6069.9309 
 1658000    103.18298   -6769.2403   -6503.8083   -6769.2403            0    2314.9388    23.256625    21.301521    21.713801    10757.049    2000.5135    2763.9348    2180.3681   -992.48479    289.73831   -320.64922   -6140.6395 
 1659000    101.49401   -6756.8278   -6495.7407   -6756.8278            0    2591.0999    23.141408    21.469681    21.619804    10741.555    2393.4919    2456.9317    2922.8762   -18.891076    366.53198   -312.24606    -6089.833 
 1660000    100.46313   -6758.0548   -6499.6195   -6758.0548            0    2437.2897    23.274193    21.386164    21.592686    10747.666      2213.69    2040.1481     3058.031    1185.0505   -671.85375    152.87027   -6117.5897 
 1661000    102.79479   -6773.4012   -6508.9678   -6773.4012            0    2379.6811    23.331408    21.100736    21.835459    10749.813    2263.9078    3290.5926    1584.5431   -337.71551   -84.133131    182.53513   -6135.8933 
 1662000    100.63898   -6752.5322   -6493.6445   -6752.5322            0    2214.7661    23.147386    21.427384     21.67111    10748.609    3600.0906    1337.2984    1706.9092   -395.41947   -829.72865    130.59547   -6146.4635 
 1663000    100.94285   -6756.0374    -6496.368   -6756.0374            0    2154.1349    23.190482    21.494107     21.58555    10759.505    1742.0221    1331.9931    3388.3896    204.59281    232.45742    283.86993   -6158.3491 
 1664000    97.409474   -6756.7658   -6506.1858   -6756.7658            0    1477.7904    23.449318    21.198825    21.701389    10787.717    271.97753    1741.3722    2420.0214   -264.70552    368.79062   -134.04923   -6273.6883 
 1665000    101.94254   -6757.7502   -6495.5092   -6757.7502            0    2934.6199    23.243094    21.304521    21.678223    10734.687    3757.3939    1852.6427    3193.8233    104.06567   -186.04905   -205.30145   -6036.0815 
 1666000    104.42522    -6750.891   -6482.2635    -6750.891            0    3613.1335    23.103381    21.443571    21.624505    10713.191    3646.7619     2971.658    4220.9805    518.49122     502.8014     247.8854   -5917.7443 
 1667000     101.0361   -6755.7766   -6495.8674   -6755.7766            0    3173.6815    23.211706      21.2928     21.69229    10721.245    2641.7633    4465.4264    2413.8548    35.147957    764.28601   -319.28031   -5999.6358 
 1668000    103.69138   -6752.4546   -6485.7148   -6752.4546            0    1998.7375     23.28745    21.253886    21.765266    10772.692    2168.3751    1712.2367    2115.6007    426.15603   -700.64467    544.48382   -6171.6959 
 1669000    107.83978    -6749.281   -6471.8697    -6749.281            0    3023.7121    23.125804    21.409602    21.640209    10714.376     3578.233    2345.4517    3147.4517    89.828775   -64.138039    550.59862   -5999.3899 
 1670000     101.3184   -6757.7627   -6497.1273   -6757.7627            0    2536.3404    23.166926    21.450372    21.635957    10751.755    2939.9136    1176.9134    3492.1943    496.04448     100.6992    1144.4148   -6099.4207 
 1671000    100.45705   -6755.0269   -6496.6073   -6755.0269            0    2233.1628    23.305758    21.216637    21.742474    10750.997    1657.2392      3362.06    1680.1891   -7.1900301   -785.95794    18.406414   -6146.4647 
 1672000    103.82647   -6761.4172   -6494.3299   -6761.4172            0    2215.4707    23.221478    21.319203     21.74549    10765.397    2220.7955    2303.0133    2122.6033    341.55018    125.29186    382.50492    -6146.496 
 1673000    97.789443   -6748.8846   -6497.3273   -6748.8846            0    2539.1952    23.151312    21.569557    21.511059    10741.838    2631.4419    1610.2786    3375.8651   -372.22505   -699.75257   -346.20062   -6099.5403 
 1674000    101.33229    -6766.629   -6505.9578    -6766.629            0    1841.0583    23.268845    21.375672    21.646239    10766.562      1232.04    2210.1089     2081.026    -286.5343    111.16347   -562.59842   -6216.8762 
 1675000    101.64713   -6754.4387   -6492.9577   -6754.4387            0     1745.286    23.330174    21.295504    21.699709    10781.019    1618.9643    1975.5821    1641.3117    377.39209   -643.82552   -267.84294   -6218.5462 
 1676000    100.62408   -6764.0927   -6505.2434   -6764.0927            0     1732.753    23.192605    21.484534    21.595784    10760.797    1451.2471     1153.979     2593.033    742.22676   -171.54305     363.6652   -6233.3135 
 1677000    102.90957   -6746.6806    -6481.952   -6746.6806            0    1265.4241    23.232363    21.464022    21.633714    10787.867    1636.7599    1107.6181    1051.8943   -530.06399     555.0444   -490.19001   -6282.8628 
 1678000    103.48012   -6758.1253    -6491.929   -6758.1253            0    1920.2436    23.324574    21.280255    21.682301    10762.073    1281.2662    2211.6948    2267.7698   -91.167873   -408.14472    372.59867   -6190.5395 
 1679000    97.547696   -6747.2632   -6496.3277   -6747.2632            0    1899.3925    23.325374    21.306583    21.684075    10776.639    1247.8536    2302.0848    2148.2391    347.05862     973.0513    74.945851   -6197.8074 
 1680000    104.92619   -6763.8627   -6493.9465   -6763.8627            0    1830.1465    23.170233     21.45516    21.627109    10751.291    1752.2389    1247.4466     2490.754   -129.17166    186.93721    639.02969   -6206.9858 
 1681000    102.90714   -6762.7548   -6498.0324   -6762.7548            0    2211.9144    23.200031    21.364182    21.669394    10740.428    3683.8439    1655.6222     1296.277   -385.08817    362.81813    274.59505   -6151.5623 
 1682000     103.4394   -6752.9098   -6486.8183   -6752.9098            0    2184.7201    23.330921    21.188243    21.773357    10763.468    965.66525    3141.5783    2446.9167    442.02127    811.75576    214.15528   -6143.8737 
 1683000    101.36782   -6766.3489   -6505.5864   -6766.3489            0    2124.6231    23.218279    21.355559    21.679018     10749.31    1972.2095    2177.7729     2223.887    679.40666     245.0599    33.797004   -6172.5142 
 1684000    99.588151   -6758.8513   -6502.6669   -6758.8513            0    3287.2306    23.108918     21.44642    21.587745    10698.963    2791.7942    3708.9421    3360.9555    75.425593    426.74996    141.24074   -5989.7491 
 1685000    105.40388   -6757.0893   -6485.9442   -6757.0893            0    2812.8259    23.237564    21.317965    21.692282     10745.87    2941.5281    3227.4674    2269.4823   -79.367504   -329.95085   -866.43968   -6045.1252 
 1686000    103.61718   -6751.5541   -6485.0052   -6751.5541            0    2993.7891    23.294555    21.254952    21.716705    10752.476    2883.3262    3205.0288    2893.0125    437.52681   -791.44649   -291.79221   -6015.5377 
 1687000    96.861084   -6758.1411   -6508.9719   -6758.1411            0    2962.2673    23.203093    21.389807    21.642648    10741.456    2722.0533    2393.1812    3771.5673   -193.85426    948.12906   -131.06893   -6044.9235 
 1688000    100.29881   -6740.7098   -6482.6972   -6740.7098            0    2260.6564    23.313696    21.452685    21.504568    10755.325    2663.2743    1484.7874    2633.9075    367.38179   -922.64922    -886.8912   -6128.1011 
 1689000    100.66943    -6771.658    -6512.692    -6771.658            0    1677.5366    23.279921    21.365535    21.668311    10777.557    1277.9154    2147.3714     1607.323    -285.4072   -366.57791    81.486417   -6249.0175 
 1690000    105.14458   -6741.1121    -6470.634   -6741.1121            0    1391.1044     23.25334    21.389237    21.753434    10819.532     932.9308    1466.3541    1774.0282   -167.35084   -427.72357    437.29321   -6251.1292 
 1691000    102.12673   -6745.5253   -6482.8105   -6745.5253            0    2380.9071    23.254961    21.429889    21.567439     10748.16    2781.7158    1732.4888    2628.5168    115.93036   -500.62123   -195.06363   -6109.6012 
 1692000    102.20096   -6753.7857     -6490.88   -6753.7857            0    2149.3896    23.294249    21.359335    21.629478    10761.739    1659.1766     2192.282    2596.7102   -943.37542    990.50471    367.27018   -6153.5356 
 1693000     100.6411   -6761.0604   -6502.1673   -6761.0604            0    1778.2616    23.227041    21.274195    21.814371    10779.279    2163.0822    2111.4013    1060.3012    439.18128   -599.75376    461.32658   -6222.6161 
 1694000    102.59586   -6754.5868   -6490.6652   -6754.5868            0    3189.9236    23.163178    21.275414    21.753013     10720.02    3633.0726    3985.6609    1951.0372    497.15383   -35.632606   0.21786777    -5991.951 
 1695000    101.27687   -6747.2381   -6486.7095   -6747.2381            0    2506.4896    23.232718    21.410379    21.597375    10742.994    2332.3117    2214.9136    2972.2435    97.220993    322.74814    24.390146   -6094.0039 
 1696000    103.72514   -6767.6637   -6500.8371   -6767.6637            0    1881.4385    23.249013    21.411254    21.649708    10777.019    1953.6171     1555.665    2135.0335    237.91845   -778.43012   -317.44355   -6205.1281 
 1697000    100.54776   -6751.0783   -6492.4253   -6751.0783            0    2623.1954    23.214738    21.332915    21.745387    10769.142    3314.2149    1759.5437    2795.8275    230.62407   -606.25327    252.92482   -6080.4344 
 1698000    106.06237   -6762.6641   -6489.8251   -6762.6641            0    2089.1917    23.265778    21.375449    21.636572    10760.223    1936.4817    2340.7603     1990.333   -145.74721    808.81592   -119.22595   -6161.9749 
 1699000    103.97519   -6753.6017   -6486.1319   -6753.6017            0    2705.5524    23.252649    21.388072    21.561901    10723.366    2628.3896    3196.1272    2292.1406   -215.16141    558.33728   -351.54896   -6063.0125 
 1700000    97.754368   -6752.5835   -6501.1163   -6752.5835            0    2313.6101    23.266207    21.311682    21.714146    10766.786    1856.8216     2672.134    2411.8748    -566.1347   -153.80903   -377.88103   -6137.8274 
 1701000    104.31142   -6760.5559   -6492.2211   -6760.5559            0    2253.8557    23.205025    21.370161    21.698871    10760.364    2129.9477    2431.8323    2199.7869   -436.48922    586.97518   -20.353837   -6138.5261 
 1702000    103.34501   -6763.3743   -6497.5255   -6763.3743            0    2549.9176    23.209935    21.449768    21.561579    10734.383    2910.5736    1905.9357    2833.2435    470.71643   -276.96434    143.60989    -6098.336 
 1703000    97.822038   -6767.7935   -6516.1523   -6767.7935            0    2570.0489    23.239382    21.345007    21.635018    10731.938    2569.0326    2594.6966    2546.4173    319.61163    740.71729    71.089669   -6113.9029 
 1704000    104.39353   -6766.2408   -6497.6948   -6766.2408            0     3279.129    23.183831    21.281712    21.695713    10704.483    3317.5889     3476.815    3042.9831   -696.53246    366.08768    357.55357   -5985.7772 
 1705000     98.98257   -6756.8382   -6502.2116   -6756.8382            0    2804.0534    23.197372    21.331482    21.705619    10740.685    3354.0569    2882.3881    2175.7151   -65.003837   -651.18096    383.27773   -6062.9794 
 1706000    99.236604   -6761.8166   -6506.5364   -6761.8166            0    3838.5653    23.180677    21.288065     21.65722    10687.226    3047.5844    3972.2842    4495.8274    1066.0483    145.95703    483.27067   -5908.2491 
 1707000    97.587195   -6757.6005   -6506.5634   -6757.6005            0     3447.089    23.261847    21.295865    21.610839    10705.603    3028.1759    3886.9162     3426.175    905.13488    251.99036    108.52925   -5968.3686 
 1708000    105.67685   -6763.2948   -6491.4476   -6763.2948            0    2963.6416    23.162012    21.344003    21.660864    10708.483    3188.0214    2515.6711    3187.2323    89.597749    134.30834    243.86465    -6028.609 
 1709000    100.85644   -6748.0473   -6488.6002   -6748.0473            0    2157.2764    23.216879    21.355526    21.751349    10784.507    1959.3836    2622.4286    1890.0171   -818.19499   -210.66174   -565.81224   -6149.3017 
 1710000    105.38605   -6768.8419   -6497.7427   -6768.8419            0     2297.856    23.284797    21.346721    21.603663    10738.189    1409.8853    2437.8805    3045.8022    -366.5066   -201.01092   -4.1203142   -6137.8859 
 1711000    103.43856   -6753.6507   -6487.5613   -6753.6507            0    2412.6499    23.257592    21.434339    21.579793    10757.766    2182.9334    2038.2455    3016.7708    472.46875   -377.91662    95.974139   -6109.0383 
 1712000    102.44968   -6767.1255   -6503.5799   -6767.1255            0    2507.9437    23.179573     21.40498     21.68962    10761.485    3125.4452    2404.0237    1994.3623   -240.55984   -633.98519   -960.44029   -6109.9701 
 1713000    99.872991    -6756.053   -6499.1359    -6756.053            0    2322.9981    23.253019    21.307837    21.734042    10768.599    2244.0857    2990.9004    1734.0081    8.5477711    -127.4797   -353.24498   -6134.3114 
 1714000    100.96489   -6757.6902   -6497.9641   -6757.6902            0    2223.2333    23.331396    21.356299    21.585178    10755.295    2268.8402     2178.183    2222.6767    234.69458   -298.52509   -121.26274    -6149.239 
 1715000    100.03222   -6768.8812   -6511.5544   -6768.8812            0    2505.0335    23.148717    21.416246    21.665163    10740.691    3521.3683    2017.8891    1975.8431   -1107.8403   -250.03626   -305.89692    -6119.161 
 1716000    98.183878   -6749.0525   -6496.4805   -6749.0525            0    2600.9819    23.154103    21.330084    21.751768    10742.741     3073.475    2488.5482    2240.9224    3.6056056    219.20517   -42.148623   -6088.9798 
 1717000    102.28962   -6756.5331   -6493.3993   -6756.5331            0    2796.1657    23.331413    21.229708     21.64369    10720.533    3064.5312    3156.3835    2167.5823    287.51512   -338.09351    -243.7486   -6056.2244 
 1718000    99.441192   -6740.1129   -6484.3065   -6740.1129            0    2776.3634    23.246726    21.319592    21.687441    10748.528    2622.7246     3226.869    2479.4967    442.02117    384.88261   -141.69639   -6049.0942 
 1719000    96.449942   -6745.9719   -6497.8603   -6745.9719            0    2729.7764    23.153034    21.441838    21.627772    10736.969    2408.4608    2723.4799    3057.3885   -226.72719     603.5196    604.96402   -6070.4109 
 1720000    92.425698   -6748.6259   -6510.8664   -6748.6259            0    2922.9092    23.238135    21.317692    21.673359    10736.622    3627.6103    3193.8285    1947.2888    96.895366   -1112.4427   -58.040709   -6053.1896 
 1721000     97.55408   -6751.8946   -6500.9427   -6751.8946            0    1750.9827    23.262746    21.326701    21.754437    10792.759     1397.366    1958.3567    1897.2255    336.77046   -92.827384    -109.7133   -6225.3357 
 1722000    100.51494   -6762.6238   -6504.0552   -6762.6238            0     2176.253    23.232093    21.481507    21.548625    10754.065    1915.9542    1689.8415    2922.9633    336.70423    104.46566   -518.44383   -6162.7382 
 1723000    103.16013   -6766.3504   -6500.9773   -6766.3504            0    2829.2884    23.267145    21.346206    21.584766    10720.404    2560.8499    2541.3006    3385.7147   -398.64332      309.839   -406.79836   -6058.6291 
 1724000    103.70891    -6750.507   -6483.7222    -6750.507            0    2408.2956    23.221715    21.284834    21.797902    10774.057    2482.5951    2652.5556    2089.7361   -10.892705   -165.57792   -12.879672   -6105.3101 
 1725000    100.73774   -6762.3944   -6503.2527   -6762.3944            0    1679.4028    23.233903    21.411944    21.655939    10773.463    1815.9785    1367.1979    1855.0319    146.61362    -385.7942   -230.08805   -6239.3851 
 1726000    98.973173   -6751.0471   -6496.4447   -6751.0471            0    2232.6028    23.250353    21.474406     21.54493    10757.115    1173.0809    2579.6849    2945.0427    340.83181     459.7646   -64.903635   -6146.1906 
 1727000    107.43741    -6748.191   -6471.8148    -6748.191            0    2392.5649    23.235176    21.269594    21.754676    10751.221    2540.3622    2724.6574    1912.6752   -828.38495    264.30683   -324.91329   -6096.6713 
 1728000    105.88863   -6749.3354   -6476.9434   -6749.3354            0    2587.3255    23.225099    21.303717    21.717665    10745.486     2502.278     3033.822    2225.8764   -180.40217    265.28448    247.53729   -6071.4787 
 1729000     99.17822   -6744.8449    -6489.715   -6744.8449            0    2577.2507     23.20606     21.38971    21.631533    10737.264    2384.9385    3049.3708    2297.4428     952.0283   -514.26674   -281.39207   -6086.1382 
 1730000    107.33839    -6760.422   -6484.3005    -6760.422            0    2261.2133    23.231084    21.428678    21.619246    10762.308    2646.0575    1704.0636    2433.5187    103.97104    60.558561   -92.946931   -6129.3868 
 1731000    105.24361   -6752.7411   -6482.0083   -6752.7411            0    2701.3926    23.383241     21.22342    21.641579    10740.117    2087.4472    2545.2927     3471.438    132.32627    531.02877   -196.77391   -6058.8795 
 1732000    99.454791   -6742.7314     -6486.89   -6742.7314            0    3485.5025    23.244553    21.317319    21.614206    10710.089    3199.2397    4185.5734    3071.6944     857.1172   -331.97512   -227.65829   -5942.4697 
 1733000    99.997623   -6761.2631   -6504.0253   -6761.2631            0    2769.6919    23.159948    21.444787    21.627375    10741.455    2892.9303    2168.1955    3247.9499    189.74969   -200.48149   -5.1675281   -6070.1444 
 1734000     99.65195   -6749.4785     -6493.13   -6749.4785            0    2679.3088    23.191884    21.359686     21.67426    10736.808    2534.6533    3341.1788    2162.0943      183.074    310.91151    493.90417   -6073.5895 
 1735000      101.552   -6755.7446   -6494.5083   -6755.7446            0    2457.9183    23.353812    21.250135    21.673594     10755.99    2100.5426    2700.6607    2572.5516    -5.219848  -0.58802438   -68.817106   -6108.9467 
 1736000    100.91684   -6758.1677   -6498.5653   -6758.1677            0    2044.6774    23.223271    21.424415    21.592836    10743.407    1316.0919    1950.9271    2867.0132    1097.7674    546.12943    605.08856    -6178.202 
 1737000    99.466997   -6761.1448    -6505.272   -6761.1448            0    1621.6828      23.2494    21.405949    21.658978    10779.142    1260.2747    1953.4573    1651.3162     307.9718   -81.170763   -399.44653   -6250.3391 
 1738000    101.80269   -6744.5321   -6482.6509   -6744.5321            0    1786.1082    23.228375    21.310592    21.800247    10791.349    2795.3831    1620.0745    942.86715    212.82754   -848.87216    439.56006   -6201.5519 
 1739000    101.77421   -6759.8399   -6498.0319   -6759.8399            0     2290.934    23.243691    21.401852    21.626937    10758.493    3442.2834    1223.7145    2206.8041   -503.27457   -735.96607   -114.22334   -6138.5807 
 1740000    103.30388   -6755.6894   -6489.9465   -6755.6894            0     1602.686    23.306422    21.446294    21.547524    10770.236     1334.489    780.82558    2692.7433    123.04731    632.15013   -298.81487    -6238.208 
 1741000    103.79604   -6770.2425   -6503.2335   -6770.2425            0    1443.1617    23.332589    21.303524     21.66693    10769.902    1552.3201     1341.993     1435.172    129.71129    203.60111   -298.18532    -6276.559 
 1742000    99.736098   -6757.2973   -6500.7323   -6757.2973            0    1942.0768    23.156919     21.29988    21.854053    10779.285    2482.6451    2365.4059    978.17952   -551.81441    -397.0561    435.04504   -6195.4284 
 1743000      101.732   -6750.2952   -6488.5958   -6750.2952            0    2306.0045    23.113404    21.430277     21.70629    10751.704    2785.8006    2388.0924    1744.1204    11.641154   -373.35267   -106.32684   -6127.0084 
 1744000    98.695722   -6751.0065   -6497.1178   -6751.0065            0    2463.1583    23.360117    21.280337    21.611456    10743.296    1204.1006    3415.4504    2769.9238     689.5038    224.33003   -53.357631   -6111.1903 
 1745000    105.58339   -6745.4781   -6473.8713   -6745.4781            0    2213.5862    23.323243    21.310594    21.638734    10755.147    1913.6444    2501.8972    2225.2171    139.69937    760.74853    1.7005086   -6126.6641 
 1746000    99.019967   -6756.2513   -6501.5285   -6756.2513            0    1534.1666    23.161829    21.481603    21.691222    10792.537    2255.6715    872.90461    1473.9238   -427.89399   -162.19363    112.83219   -6260.0536 
 1747000    97.021692   -6745.6269   -6496.0445   -6745.6269            0     2429.862    23.247363     21.37172    21.643791    10753.417    3060.2896    1804.2509    2425.0455   -651.88044   -736.94647    656.21276   -6114.9752 
 1748000    98.874769   -6742.6207   -6488.2714   -6742.6207            0     1754.192    23.361147    21.204118    21.794788    10796.103    912.85807    2915.8893    1433.8288   -723.33402    -35.56602   -802.05743   -6212.0737 
 1749000    101.73121   -6762.4348   -6500.7375   -6762.4348            0    2525.3444    23.204731    21.381795    21.638336    10736.051      3008.53    2582.9062    1984.5969    41.600667   -168.88575   -671.53885   -6105.3335 
 1750000    105.06852   -6743.0585   -6472.7761   -6743.0585            0    3293.9765    23.191466    21.408654    21.600485      10724.6    2910.2294    3562.5024    3409.1978    176.11202   -336.17257    250.15102   -5957.5742 
Loop time of 500.749 on 64 procs for 250000 steps with 1296 atoms

Performance: 86.271 ns/day, 0.278 hours/ns, 499.252 timesteps/s
99.1% CPU use with 64 MPI tasks x 1 OpenMP threads

MPI task timing breakdown:
Section |  min time  |  avg time  |  max time  |%varavg| %total
---------------------------------------------------------------
Pair    | 29.353     | 40.465     | 51.41      | 113.3 |  8.08
Bond    | 0.27986    | 0.28723    | 0.30013    |   0.7 |  0.06
Kspace  | 246.8      | 259.01     | 270.74     |  45.3 | 51.72
Neigh   | 1.3545     | 1.377      | 1.3922     |   0.9 |  0.27
Comm    | 88.305     | 89.405     | 92.226     |   9.5 | 17.85
Output  | 0.68197    | 0.68258    | 0.68406    |   0.1 |  0.14
Modify  | 99.414     | 100.88     | 101.7      |   5.6 | 20.15
Other   |            | 8.644      |            |       |  1.73

Nlocal:        20.2500 ave          26 max          14 min
Histogram: 6 5 8 4 4 8 6 9 9 5
Nghost:        2621.70 ave        2650 max        2602 min
Histogram: 7 5 13 6 10 9 5 4 4 1
Neighs:        6513.39 ave        8305 max        4423 min
Histogram: 4 6 9 4 5 4 6 12 9 5

Total # of neighbors = 416857
Ave neighs/atom = 321.64892
Ave special neighs/atom = 2.0000000
Neighbor list builds = 2531
Dangerous builds = 0

unfix		3
unfix		2
unfix		1

write_data	data.final.${pid}
write_data	data.final.0
System init for write_data ...
PPPM initialization ...
  extracting TIP4P info from pair style
  using 12-bit tables for long-range coulomb (../kspace.cpp:340)
  G vector (1/distance) = 0.36644503
  grid = 30 40 32
  stencil order = 5
  estimated absolute RMS force accuracy = 0.0047642601
  estimated relative force accuracy = 1.4347428e-05
  using double precision FFTW3
  3d grid and FFT values/proc = 5168 640
Last active /omp style is kspace_style pppm/tip4p/omp
WARNING: Not all mixed pair coeffs generated from mixing. Use write_data with 'pair ij' option to store all pair coeffs. (../write_data.cpp:312)

write_restart   restart.lmp.${pid}
write_restart   restart.lmp.0
System init for write_restart ...
PPPM initialization ...
  extracting TIP4P info from pair style
  using 12-bit tables for long-range coulomb (../kspace.cpp:340)
  G vector (1/distance) = 0.36644503
  grid = 30 40 32
  stencil order = 5
  estimated absolute RMS force accuracy = 0.0047642601
  estimated relative force accuracy = 1.4347428e-05
  using double precision FFTW3
  3d grid and FFT values/proc = 5168 640
Last active /omp style is kspace_style pppm/tip4p/omp
Total wall time: 0:08:20
