LAMMPS data file via write_data, version 30 Jul 2021, timestep = 7000000

1296 atoms
2 atom types
864 bonds
1 bond types
432 angles
1 angle types

-10.74750627065589 12.72750627065589 xlo xhi
-9.269126104278051 12.259124104278051 ylo yhi
-0.07238891085695265 21.93238791086511 zlo zhi
-9.058035671051824 2.115417695766144 2.8976303331459725 xy xz yz

Masses

1 1.008
2 15.999

Pair Coeffs # lj/cut/tip4p/long/omp

1 0 0
2 0.21084 3.1668

Bond Coeffs # harmonic/omp

1 450 0.9572

Angle Coeffs # harmonic/omp

1 55 104.52

Atoms # full

282 94 1 0.5897 -10.164660746291242 -4.199174463421285 1.3177280685409698 1 1 0
270 90 1 0.5897 -8.483556494100572 -7.584201887779075 2.304620537704443 1 1 0
269 90 1 0.5897 -9.279830231420737 -6.335454279500373 1.990372772718592 1 1 0
268 90 2 -1.1794 -9.245615645652 -7.0803613074097145 2.590539764695877 1 1 0
163 55 2 -1.1794 -7.222965050585021 -8.072296529815308 0.9892730337867026 1 1 0
260 87 1 0.5897 -6.683832495454056 -6.410841239218401 0.3400808123215242 1 1 0
324 108 1 0.5897 -6.718243894311586 -4.107480419711967 3.5621718103204145 1 1 0
300 100 1 0.5897 -5.170690620145654 -7.518133976928129 3.9547466076791755 1 1 0
164 55 1 0.5897 -6.527570214928837 -8.646100917294806 1.3110466360802284 1 1 0
314 105 1 0.5897 -9.085580167866555 -6.718425130980538 4.533581613806631 1 1 0
280 94 2 -1.1794 -9.3545629989871 -4.683399857736043 1.157640131677605 1 1 0
299 100 1 0.5897 -6.633951339894599 -7.8031037809799875 4.218804302937616 1 1 0
73 25 2 -1.1794 -8.217467796687105 -3.693150151046586 5.065505751302978 1 0 0
281 94 1 0.5897 -8.72462826180933 -4.014928993760266 0.8882589176517618 1 1 0
75 25 1 0.5897 -8.950003975166467 -3.388084428714338 4.530133767160709 1 0 0
261 87 1 0.5897 -6.491943741831131 -5.068040137415429 1.0122534837770785 1 1 0
165 55 1 0.5897 -7.552625516356484 -8.511192874852027 0.20516933832247003 1 1 0
298 100 2 -1.1794 -6.008153546157797 -7.085395887943755 4.121349987145516 1 1 0
323 108 1 0.5897 -6.0291266244180015 -5.4240496274596985 3.2726812583448277 1 1 0
313 105 2 -1.1794 -8.80067845526819 -6.358284909626274 5.373375801369335 1 1 0
315 105 1 0.5897 -8.529905492657441 -5.462763698283633 5.17097078461313 1 1 0
633 211 1 0.5897 -5.85979377295703 -5.893085943316118 5.3515111831449005 1 1 0
257 86 1 0.5897 -12.355731641432257 -3.598697493016706 2.390101042430665 1 1 0
275 92 1 0.5897 -10.572662276384378 -8.052375095665024 3.1663203861766753 1 1 0
1226 409 1 0.5897 -10.120224172722498 -5.811146527783835 -0.022935766398356414 0 0 1
419 140 1 0.5897 -9.00973627300468 -5.311956113876983 8.476512703861369 1 0 0
418 140 2 -1.1794 -9.561626497518038 -5.848779481011895 9.045267088616106 1 0 0
618 206 1 0.5897 -7.805136037145148 -7.763362651515273 6.442459645693058 1 1 0
427 143 2 -1.1794 -6.024791256634156 -6.8085908181460475 9.017264018981484 1 0 0
627 209 1 0.5897 -10.36058204083258 -6.82711539857535 6.172975409196759 1 1 0
420 140 1 0.5897 -8.950397928057983 -6.441487517657555 9.482808265675422 1 0 0
414 138 1 0.5897 -7.009674858350413 -4.70191512355766 7.41841569937006 1 0 0
413 138 1 0.5897 -7.461795779158399 -3.338493365639825 7.896576031334331 1 0 0
412 138 2 -1.1794 -7.467415998853105 -4.265098345981758 8.13666510015837 1 0 0
428 143 1 0.5897 -6.562965695906318 -6.836163871202437 9.808359658360619 1 0 0
350 117 1 0.5897 -7.332963265975287 -4.142923983812776 10.00563487063124 0 0 0
429 143 1 0.5897 -6.522145163808878 -7.309911643499852 8.371159662727672 1 0 0
349 117 2 -1.1794 -7.196233121835074 -3.759996021010835 10.87211746718392 0 0 0
351 117 1 0.5897 -6.928544201920887 -2.857956823308953 10.696309477886745 0 0 0
616 206 2 -1.1794 -7.387749650195062 -8.299412345745885 7.116791212591282 1 1 0
327 109 1 0.5897 -4.4743834638566815 -7.966302895517341 9.407442568388703 0 0 0
626 209 1 0.5897 -10.528930473134071 -6.690249054944568 7.671173767607521 1 1 0
727 243 2 -1.1794 -8.016799600957295 -7.2725424405334955 10.826980226286038 1 0 0
631 211 2 -1.1794 -5.673120599609172 -5.2401299488409245 6.026001204814896 1 1 0
661 221 2 -1.1794 -9.223795144286711 -4.238278746319219 12.7797390274209 0 0 0
729 243 1 0.5897 -8.110706127687399 -6.84795510116194 11.679651152393689 1 0 0
780 260 1 0.5897 -7.202087920044169 -3.65475874897116 15.635555281245365 0 0 0
779 260 1 0.5897 -7.220158273487616 -2.779237646435277 14.400623563140014 0 0 0
778 260 2 -1.1794 -7.780672156562351 -3.3329218243878405 14.94422562073269 0 0 0
663 221 1 0.5897 -8.65168060072499 -4.087677707703078 12.02725476027699 0 0 0
662 221 1 0.5897 -8.700078998004226 -3.9739007842278493 13.53602757617162 0 0 0
652 218 2 -1.1794 -5.779488516383823 -5.246281470926213 12.705075817077873 0 0 0
654 218 1 0.5897 -6.234082630784733 -4.586633146685929 12.181114976488335 0 0 0
653 218 1 0.5897 -6.476566121205366 -5.814480188780667 13.032905964964327 0 0 0
758 253 1 0.5897 -9.397786432232676 -5.377892302392795 16.351811681176947 0 0 0
766 256 2 -1.1794 -10.145891575442842 -2.1766632472139698 15.073529208692962 0 0 0
684 228 1 0.5897 -8.49252477713376 -6.27571979685694 13.99380855018026 0 0 0
740 247 1 0.5897 -10.854941648915254 -3.536165530817427 12.277631353366594 1 0 0
768 256 1 0.5897 -9.295955817319701 -2.6097641675146157 14.993565013487487 0 0 0
682 228 2 -1.1794 -7.856197244061308 -6.8511988087352975 13.569285176021278 0 0 0
788 263 1 0.5897 -4.772061891331536 -4.238528774795104 15.521726641870549 0 0 0
767 256 1 0.5897 -10.784933910847101 -2.8833084550335784 14.981477326130612 0 0 0
1089 363 1 0.5897 -6.22852724471057 -4.663459544286875 17.56634142898647 0 0 0
1121 374 1 0.5897 -4.751280118278435 -3.291995865624404 18.838893898201476 0 0 0
1227 409 1 0.5897 -8.963516568810354 -3.279472364974451 20.86887014715058 0 0 0
1248 416 1 0.5897 -5.424634374450237 -1.6253444614706662 20.77402237235853 0 0 0
1219 407 2 -1.1794 -10.182049493113205 -1.7933204056997134 20.545481130393405 0 0 0
1225 409 2 -1.1794 -8.301432306461564 -3.652590376847982 21.4508751609023 0 0 0
1152 384 1 0.5897 -6.848428713832129 -3.9877785294904644 20.08469256458617 0 0 0
1096 366 2 -1.1794 -8.617198266935983 -6.356217276464351 19.189534806253455 0 0 0
1151 384 1 0.5897 -6.12985096085748 -5.228493105325791 19.59854591919516 0 0 0
1150 384 2 -1.1794 -6.160353526460056 -4.2783954556567645 19.486065017693818 0 0 0
1109 370 1 0.5897 -8.650365331803272 -3.3334548047658554 17.726144028627687 0 0 0
1108 370 2 -1.1794 -9.325128613200338 -4.0046375390177875 17.82829628789115 0 0 0
1129 377 2 -1.1794 -7.372904932672479 -1.6226557351596487 18.07980529509117 0 0 0
1097 366 1 0.5897 -8.74159890084304 -5.480920185179217 18.822551401975048 0 0 0
1130 377 1 0.5897 -6.8737973164578445 -1.5601481868383935 18.894151715890402 0 0 0
1098 366 1 0.5897 -8.077689581926148 -6.812724099484084 18.543974222685883 0 0 0
1110 370 1 0.5897 -10.103052585068475 -3.5222377315070297 18.108423269447478 0 0 0
1221 407 1 0.5897 -10.705395220986507 -1.7611577541359953 19.74468586044211 0 0 0
1087 363 2 -1.1794 -6.270921920051442 -4.732345499634451 16.612611393354506 0 0 0
1088 363 1 0.5897 -6.491193649776934 -5.649151429287819 16.447839274161694 0 0 0
1143 381 1 0.5897 -8.362904762175383 -5.357610101770506 21.830922071391633 0 0 0
1141 381 2 -1.1794 -8.316751874698 -6.312978931380039 21.86850893148192 0 0 0
301 101 2 -1.1794 -7.761932879517958 -2.0699477449965755 1.16223753463069 1 1 0
69 23 1 0.5897 -10.857170896723485 -2.267132490458586 3.2821312030219563 1 0 0
272 91 1 0.5897 -9.376031448676999 -1.1668126759072557 0.8384399449771573 1 1 0
271 91 2 -1.1794 -10.21970857224348 -0.7569108218643681 0.6472599903031622 1 1 0
82 28 2 -1.1794 -8.964924223098274 -0.1106230435232387 4.153292925117141 1 0 0
83 28 1 0.5897 -9.576012789777245 -0.8323042837242411 4.301543205769558 1 0 0
44 15 1 0.5897 -9.946863164539568 1.0894775221597666 0.14076890715517568 1 0 0
258 86 1 0.5897 -12.263194471271543 -2.7686050516062366 1.1274694341171536 1 1 0
98 33 1 0.5897 -11.648655351445045 0.45383073679297325 4.600774526850067 1 0 0
54 18 1 0.5897 -11.395397831298382 -0.15127641815813675 2.0160650637825945 1 0 0
53 18 1 0.5897 -12.03413658412826 1.1342658452663628 2.497112103116834 1 0 0
52 18 2 -1.1794 -11.930982116479091 0.209690934624982 2.7225187668214716 1 0 0
67 23 2 -1.1794 -10.491696429960188 -2.381349993055692 4.159372474730646 1 0 0
68 23 1 0.5897 -11.25163584488078 -2.5533441848442475 4.715401000280002 1 0 0
84 28 1 0.5897 -8.139771812074182 -0.5381445527038995 3.9237223317981096 1 0 0
256 86 2 -1.1794 -11.724656641422715 -3.2064134865032967 1.7867025920855444 1 1 0
59 20 1 0.5897 -13.466223105220124 -0.619969676844411 3.3362325421903507 1 0 0
107 36 1 0.5897 -9.113828729945789 1.4599053739312815 3.2504887980085093 1 0 0
1010 337 1 0.5897 -12.750765542496428 1.5042241647543655 0.03181330085763871 0 -1 1
426 142 1 0.5897 -8.57567275332049 -1.3918147095773152 7.247869892760312 1 0 0
435 145 1 0.5897 -7.212710628232868 -0.6249062975301598 9.735438504520667 0 0 0
528 176 1 0.5897 -12.320740235028538 0.5618251970961587 9.850532248600231 1 0 0
402 134 1 0.5897 -10.865009407447047 -0.08661341039299941 6.9598675542776585 1 0 0
401 134 1 0.5897 -10.899800140923363 -1.1649867153716933 8.02187570054066 1 0 0
400 134 2 -1.1794 -10.302414804864132 -0.5777934036535388 7.558645526090809 1 0 0
527 176 1 0.5897 -12.10539529800144 1.7085562496278897 8.885864289905147 1 0 0
526 176 2 -1.1794 -12.789518559417438 1.2400225925430597 9.364096068174755 1 0 0
424 142 2 -1.1794 -7.726788510427418 -1.832918780038571 7.213430778314399 1 0 0
537 179 1 0.5897 -9.118069375751123 0.13088521579156165 9.006628821940469 1 0 0
536 179 1 0.5897 -9.616088748489489 -0.013978578078591042 10.428853661160892 1 0 0
535 179 2 -1.1794 -8.875395034644255 0.30837602919520357 9.91532077376487 1 0 0
522 174 1 0.5897 -9.938417133404622 2.1167847901347105 7.475289654890433 1 0 0
411 137 1 0.5897 -13.484818570749212 0.2309511491511973 6.568347442593328 1 0 0
99 33 1 0.5897 -11.819584976110836 1.5538599423635695 5.626672782091236 1 0 0
417 139 1 0.5897 -8.963629866342654 1.1430311716304935 5.6670506415682524 1 0 0
97 33 2 -1.1794 -11.864546563656182 0.6035580723638816 5.521171410254183 1 0 0
458 153 1 0.5897 -10.337904788535852 2.6527492826294505 9.941320773575393 0 0 0
74 25 1 0.5897 -7.964261130739414 -2.9290536755503576 5.583377602612893 1 0 0
760 254 2 -1.1794 -8.702528167409252 1.5549687629965803 12.934520065710963 0 0 0
790 264 2 -1.1794 -10.915943205870539 0.2660532575566208 13.801211122406178 0 0 0
791 264 1 0.5897 -10.787501223459946 -0.5512244283493004 14.282717490435594 0 0 0
837 279 1 0.5897 -11.243935077834841 -0.11195312825163839 12.043421727796135 1 0 0
762 254 1 0.5897 -9.069154690079882 1.9052365923856573 12.122648663986526 0 0 0
761 254 1 0.5897 -9.465392145965941 1.2811967147769643 13.443791507471877 0 0 0
888 296 1 0.5897 -10.513056844591967 3.139685112800599 15.464462902559363 0 0 0
792 264 1 0.5897 -11.629463095282944 0.7068997002953612 14.262574361660713 0 0 0
769 257 2 -1.1794 -12.508959239256951 2.679840363073888 12.6379811903677 0 0 0
896 299 1 0.5897 -7.678123238520721 2.9059113874299722 15.480964030777846 0 0 0
771 257 1 0.5897 -11.85934182574804 2.7118100030840164 11.935682520941075 0 0 0
835 279 2 -1.1794 -11.309801025418269 -0.4570579352312425 11.153091724340099 1 0 0
836 279 1 0.5897 -11.398216841244915 -1.403177633102672 11.268392206094132 1 0 0
770 257 1 0.5897 -12.05462186099549 3.035976198184807 13.401445283435393 0 0 0
772 258 2 -1.1794 -6.063680365895333 -1.98413447881242 13.400722182748009 0 0 0
866 289 1 0.5897 -12.490411699366282 1.6961298888062384 16.198832184039112 0 0 0
1101 367 1 0.5897 -9.667416358092854 -0.9018012460562641 16.258560913034323 0 0 0
1250 417 1 0.5897 -10.838732778108962 0.9282018396601845 20.84478043534842 0 0 0
1260 420 1 0.5897 -9.476180045700788 3.2151023458221406 19.93400480055319 0 0 0
1235 412 1 0.5897 -8.884032406278866 -0.48919841514817364 20.685069634927395 0 0 0
1259 420 1 0.5897 -8.463355678804188 2.1200756873058424 19.674598662056283 0 0 0
1258 420 2 -1.1794 -8.796462957211377 2.9432871186946663 19.317259213581167 0 0 0
1236 412 1 0.5897 -7.4756075060405855 -0.08800919886679459 20.301142199062852 0 0 0
1206 402 1 0.5897 -10.53233910879111 0.20706535133506776 18.299056976718944 0 0 0
1011 337 1 0.5897 -11.65387654115888 4.239292559899553 20.928463009803835 0 -1 0
1234 412 2 -1.1794 -8.375422419489293 0.23769637797227006 20.325654800263642 0 0 0
1100 367 1 0.5897 -8.764478932896974 -0.8357193799358846 17.47188022022341 0 0 0
1216 406 2 -1.1794 -12.071236788879643 2.796850240739257 17.714295610550522 0 0 0
1099 367 2 -1.1794 -9.380208234359959 -0.3139244346516925 16.957157080113177 0 0 0
1246 416 2 -1.1794 -5.848569251898151 -0.9826853471256705 20.205182769345008 0 0 0
1218 406 1 0.5897 -12.894924609431811 3.2107675048463005 17.972291854597124 0 0 0
1197 399 1 0.5897 -9.156839678834597 2.754738992186116 17.44028991204008 0 0 0
1009 337 2 -1.1794 -10.781160253100879 3.956629630912028 21.20194494109628 0 -1 0
1205 402 1 0.5897 -11.57137067855692 1.283144941846393 18.532834306566173 0 0 0
1251 417 1 0.5897 -11.140817594097122 2.248705917101205 21.520655099028055 0 0 0
1195 399 2 -1.1794 -9.130976176320532 2.5091678641980995 16.51554011315318 0 0 0
1217 406 1 0.5897 -11.441461423627075 3.516833266371327 17.679307715856616 0 0 0
1196 399 1 0.5897 -9.155838356324836 1.552290278219278 16.520586088025958 0 0 0
1204 402 2 -1.1794 -11.178569155566173 0.5094843979318497 18.93717151983838 0 0 0
1249 417 2 -1.1794 -11.147864274990525 1.303164619467239 21.669407479087887 0 0 0
273 91 1 0.5897 -8.440502366879294 1.6572054745729226 21.89751815564516 1 1 -1
1131 377 1 0.5897 -6.741491573101277 -1.405029690996721 17.39409820016737 0 0 0
85 29 2 -1.1794 -10.914707835374214 4.826167608323125 1.7654587623358058 1 0 0
66 22 1 0.5897 -13.361387302401479 3.107156519140746 1.4618869027778354 1 0 0
176 59 1 0.5897 -14.463401893107084 4.4161850203336215 4.503844711748724 1 0 0
56 19 1 0.5897 -12.097486847802164 5.954716050604079 1.0057733614460769 1 0 0
65 22 1 0.5897 -11.878667169988855 3.170161715716466 1.7612726008045196 1 0 0
64 22 2 -1.1794 -12.589699883171578 2.5541707199561046 1.5846867665992794 1 0 0
177 59 1 0.5897 -14.041451896685555 4.656884183987893 3.0700374488874917 1 0 0
160 54 2 -1.1794 -14.957805971873665 6.999910840433419 2.2810784004743985 1 0 0
41 14 1 0.5897 -15.670691551811958 3.5475288541626533 2.0761995555052164 1 0 0
183 61 1 0.5897 -12.111727204869151 3.8035788096730077 4.450028006893652 1 0 0
181 61 2 -1.1794 -11.178218219812559 3.687195719597975 4.627059442007907 1 0 0
191 64 1 0.5897 -12.568641981240583 6.001639935809488 4.1313926219079 1 0 0
108 36 1 0.5897 -9.738291254980293 2.809543975800807 3.5344003058114803 1 0 0
175 59 2 -1.1794 -13.711412557211105 4.669321065038222 3.9684105528495692 1 0 0
42 14 1 0.5897 -15.571561169157594 4.4782356739503175 0.8863144942565548 1 0 0
40 14 2 -1.1794 -15.07129516388806 4.147472146108713 1.6323635490788444 1 0 0
55 19 2 -1.1794 -12.907325979677658 6.242854351543192 0.5845063035680157 1 0 0
190 64 2 -1.1794 -12.012055152378641 6.770897875041502 4.2524302430438885 1 0 0
43 15 2 -1.1794 -9.856001657493113 2.0417971449692303 0.10804748154188554 1 0 0
45 15 1 0.5897 -9.73615184283089 2.302894922880478 1.0210589869860365 1 0 0
162 54 1 0.5897 -14.282931911456643 6.621703906647356 1.7173506765842645 1 0 0
167 56 1 0.5897 -16.61446595755502 6.411829267511875 3.139440387355561 1 0 0
182 61 1 0.5897 -11.016872790944813 4.206258692083868 5.4148701674563275 1 0 0
192 64 1 0.5897 -11.122543880543093 6.419508384877545 4.293192251657928 1 0 0
86 29 1 0.5897 -10.586171356209755 5.072563676921483 2.6300310937155107 1 0 0
206 69 1 0.5897 -14.949673332699378 7.282394484252162 4.162080478763206 1 0 0
57 19 1 0.5897 -13.101044804934345 5.558673674264234 -0.05619449352066065 1 0 0
508 170 2 -1.1794 -13.466971203373776 6.514796856932453 7.116373097119014 1 0 0
520 174 2 -1.1794 -10.607062053527262 2.5889708241192793 7.971527740039205 1 0 0
510 170 1 0.5897 -13.750909527020607 6.994205011012003 6.3380481552236745 1 0 0
509 170 1 0.5897 -14.249570331145009 6.048008097053012 7.409475490685493 1 0 0
644 215 1 0.5897 -12.473740261016752 7.152941226969979 10.111846449874763 1 0 0
543 181 1 0.5897 -10.62642414007041 6.236310013403877 9.788073607861504 0 0 0
645 215 1 0.5897 -12.494964027858344 7.014495291652146 8.60451116771339 1 0 0
521 174 1 0.5897 -10.656133905586836 3.447664988413786 7.55137926943716 1 0 0
643 215 2 -1.1794 -11.937041410098105 7.291103713930529 9.331403333624182 1 0 0
532 178 2 -1.1794 -10.739831779433418 5.0384137910355005 6.773682534193322 1 0 0
534 178 1 0.5897 -11.580486733047774 5.477640280556082 6.9030947065508625 1 0 0
457 153 2 -1.1794 -10.37051233724386 3.0270192473018103 10.821655172626803 0 0 0
636 212 1 0.5897 -15.228597964808884 7.700149041451901 9.738081008774394 1 0 0
541 181 2 -1.1794 -9.799260563359795 5.823520112030916 10.036610158236119 0 0 0
459 153 1 0.5897 -10.18322036096293 3.957021206983603 10.694115361294253 0 0 0
519 173 1 0.5897 -16.31131387929368 7.466165523017288 6.053483067711562 1 0 0
518 173 1 0.5897 -16.610349683879505 7.674378159316294 7.522815097146237 1 0 0
900 300 1 0.5897 -14.18957698615684 8.036585827174868 14.728135579699725 0 0 0
898 300 2 -1.1794 -13.570526467038663 7.5814349072463045 14.15726864764898 0 0 0
886 296 2 -1.1794 -10.972011219667332 3.554097589879202 14.733783315552703 0 0 0
848 283 1 0.5897 -13.938180707141782 3.734026125911793 12.19177681922423 1 0 0
899 300 1 0.5897 -13.628499631167312 6.6638232449946635 14.423542243231742 0 0 0
869 290 1 0.5897 -12.360507903936837 8.316221832770811 13.0570163523316 0 0 0
874 292 2 -1.1794 -13.511087950482723 4.9022767030897345 15.034686849286038 0 0 0
876 292 1 0.5897 -12.740383186844948 4.353121416973121 14.890440457687413 0 0 0
945 315 1 0.5897 -13.830996440360213 7.063044911915878 12.279198562207242 1 0 0
887 296 1 0.5897 -10.31458957519821 4.117992665602689 14.326285978909489 0 0 0
880 294 2 -1.1794 -9.049329087578986 5.298479819794187 13.476005974317806 0 0 0
943 315 2 -1.1794 -13.70072355593636 6.857116854142934 11.353579385255973 1 0 0
944 315 1 0.5897 -13.89862633039251 5.923086477770687 11.285404645231067 1 0 0
847 283 2 -1.1794 -14.632572241669763 4.224379243652093 11.751660338414254 1 0 0
1209 403 1 0.5897 -12.811057223557999 5.904279970155642 16.409445775027415 0 0 0
1207 403 2 -1.1794 -12.513680258939726 6.4805497659001645 17.113438418715198 0 0 0
1208 403 1 0.5897 -11.64160492557728 6.155472542912857 17.33742441393042 0 0 0
989 330 1 0.5897 -14.712622452146658 8.30458868296422 18.679003173678346 0 -1 0
1034 345 1 0.5897 -14.45005686126759 7.7460514982582644 20.667362945953215 0 -1 0
1018 340 2 -1.1794 -11.399843766309413 7.344678749323123 20.536137669853332 0 -1 0
1019 340 1 0.5897 -12.082567679799663 6.6759513117729306 20.59008520227391 0 -1 0
1020 340 1 0.5897 -10.659061047137225 6.898839037500835 20.125297034610746 0 -1 0
1030 344 2 -1.1794 -8.939922061751297 6.06407635958821 19.751988945056347 0 -1 0
1043 348 1 0.5897 -12.05464254213604 8.887552020654649 19.817274563007786 0 -1 0
1033 345 2 -1.1794 -14.466024854330785 8.11916386959091 21.548643135482052 0 -1 0
990 330 1 0.5897 -13.872423901781685 7.072927718013375 18.41590157367615 0 -1 0
1238 413 1 0.5897 -9.861048043550273 5.412472815872281 18.47633630234788 0 0 0
1239 413 1 0.5897 -9.698905847891295 5.185255282950827 16.988469344773385 0 0 0
1237 413 2 -1.1794 -10.319220985419895 5.071028288301029 17.708459893577924 0 0 0
1032 344 1 0.5897 -8.532259973193927 5.651962893118876 20.51371382871016 0 -1 0
1005 335 1 0.5897 -13.531407465404136 4.717483300609203 19.541702796763055 0 -1 0
1003 335 2 -1.1794 -13.190739261888798 5.060180159427679 20.36791065161411 0 -1 0
988 330 2 -1.1794 -14.645264203926123 7.374177986310659 18.89367646712264 0 -1 0
1035 345 1 0.5897 -14.513817663464685 9.064800563869149 21.408049781330405 0 -1 0
980 327 1 0.5897 -12.26059816915065 8.239721838937601 16.745432475918697 0 -1 0
650 217 1 0.5897 -15.843828902496991 8.946522850819413 16.448837903875294 0 -1 0
174 58 1 0.5897 -16.684284698068005 10.188189301356115 1.2978132768849953 1 0 0
173 58 1 0.5897 -15.170892378701144 10.16432340795447 1.3325905593374792 1 0 0
172 58 2 -1.1794 -15.934737980825169 9.596538306598706 1.2307253219875625 1 0 0
161 54 1 0.5897 -15.034134914141488 7.907990864427049 1.9880639495671901 1 0 0
194 65 1 0.5897 -13.945615523715205 12.11733175910619 2.4954618946186637 1 0 0
150 50 1 0.5897 -18.573613699949266 11.629106782474256 1.275535095510955 1 0 0
148 50 2 -1.1794 -18.04127803330836 11.16819270664898 1.923975441473295 1 0 0
214 72 2 -1.1794 -12.630999238884058 9.163980598790317 2.8328524131683785 1 0 0
285 95 1 0.5897 -17.571483188318048 12.195149952105652 3.6710483506396123 1 0 0
291 97 1 0.5897 -15.392740451042219 11.03678258802422 4.287879281100834 1 0 0
289 97 2 -1.1794 -14.722235262136254 10.475902511537466 4.677992662528 1 0 0
207 69 1 0.5897 -15.0793589024338 8.60919738526551 4.879429408478412 1 0 0
284 95 1 0.5897 -17.171212463213216 11.97622378159948 5.114524318552964 1 0 0
283 95 2 -1.1794 -16.838290204258342 12.299732426286702 4.2774382862097 1 0 0
216 72 1 0.5897 -13.326436403739063 9.564412073151228 3.3546737110413187 1 0 0
193 65 2 -1.1794 -14.255349796795771 11.751636635484846 1.6669345353291105 1 0 0
153 51 1 0.5897 -12.881656562851546 9.278155620021085 0.8266007202157418 1 0 0
149 50 1 0.5897 -18.6021299664536 10.456700311188289 2.232948570673399 1 0 0
215 72 1 0.5897 -12.561847029973704 8.270801257328603 3.170079988813397 1 0 0
205 69 2 -1.1794 -14.814118612607388 7.699183855107414 5.01298133043595 1 0 0
525 175 1 0.5897 -11.571410608605404 8.192237867079506 5.415825767425313 1 0 0
290 97 1 0.5897 -14.257836807955591 11.047028803611198 5.2897790899566175 1 0 0
642 214 1 0.5897 -14.781076026718196 12.66765127813516 6.692712188805526 1 0 0
634 212 2 -1.1794 -15.481789827710791 8.307799385520873 9.043153988091643 1 0 0
566 189 1 0.5897 -12.980691682838536 10.096714599032325 9.730781591544254 0 0 0
630 210 1 0.5897 -12.23637027549271 9.346823316338998 7.359959466798753 1 0 0
629 210 1 0.5897 -13.267896517043859 10.454746821672874 7.334050933580748 1 0 0
628 210 2 -1.1794 -12.89515115740649 9.780605996625987 7.902292770677907 1 0 0
635 212 1 0.5897 -14.653157762605879 8.662252509932706 8.720683496983694 1 0 0
640 214 2 -1.1794 -13.89531382314312 12.307421544763695 6.647669825183803 1 0 0
567 189 1 0.5897 -12.753333092179826 11.287387474500907 10.637574880917972 0 0 0
617 206 1 0.5897 -17.17497223329668 12.854684142969976 7.611306575613368 1 0 0
624 208 1 0.5897 -17.12293860779233 9.360456789310533 9.130571125869583 1 0 0
565 189 2 -1.1794 -13.075287045753996 10.385971665709715 10.638260048884442 0 0 0
641 214 1 0.5897 -13.32251177534761 13.073323515764237 6.686338807417346 1 0 0
879 293 1 0.5897 -14.683702500168653 10.003322606366002 11.756814626653355 0 0 0
870 290 1 0.5897 -12.172177130698714 9.240915557392405 11.873232011544811 0 0 0
877 293 2 -1.1794 -15.320935118704893 9.887694046594735 12.46164862556219 0 0 0
658 220 2 -1.1794 -16.51722355744808 11.953024103690332 15.156291946861971 0 -1 0
672 224 1 0.5897 -13.676110303398596 10.092829855585318 15.391794435705018 0 -1 0
671 224 1 0.5897 -13.379131536191732 11.109814778739281 14.310403491773638 0 -1 0
670 224 2 -1.1794 -14.101065062427132 10.653714223490997 14.742872859571262 0 -1 0
660 220 1 0.5897 -15.621972827148191 11.706051149859398 14.924168874944106 0 -1 0
956 319 1 0.5897 -16.858023440496723 11.067815205467337 11.898530377965201 1 0 0
878 293 1 0.5897 -14.850678960664883 10.144570448943131 13.254757142579333 0 0 0
680 227 1 0.5897 -10.76490192814621 9.758365188876251 15.396583857243327 0 -1 0
683 228 1 0.5897 -16.75684824774539 13.981069784207321 14.207339430704714 0 -1 0
664 222 2 -1.1794 -12.059675200209288 12.279813584347629 13.17249085758994 0 -1 0
868 290 2 -1.1794 -11.686461755402334 8.766708281870148 12.54812138363427 0 0 0
955 319 2 -1.1794 -17.68061303310407 11.393852920673623 11.533307526056488 1 0 0
993 331 1 0.5897 -16.36190034113978 13.315580131116441 16.354802018490005 0 -1 0
659 220 1 0.5897 -16.97020963481917 11.119745830148556 15.28541216542999 0 -1 0
728 243 1 0.5897 -17.195590748037525 13.323637074050506 11.008421446260602 1 -1 0
1022 341 1 0.5897 -13.349837462532111 12.39480045434188 18.59694459622505 0 -1 0
1140 380 1 0.5897 -11.820934348906667 12.62681237692156 20.44942916187155 0 -1 0
992 331 1 0.5897 -15.282788928126955 13.604437839070037 17.37649017092253 0 -1 0
1117 373 2 -1.1794 -14.080973837934586 11.13491881600331 20.890357208718918 0 -1 0
1119 373 1 0.5897 -14.960070995496483 11.46433126962103 20.703177484863303 0 -1 0
1138 380 2 -1.1794 -12.242633741220047 13.204073168264582 19.81285818671973 0 -1 0
981 327 1 0.5897 -12.585676280522685 9.509187432242875 17.50348858601952 0 -1 0
991 331 2 -1.1794 -16.142459003895635 13.902078256449794 17.078674752072367 0 -1 0
1127 376 1 0.5897 -15.282158756672798 14.000951100925366 20.36080544077423 0 -1 0
1128 376 1 0.5897 -13.837981880533839 14.319447926992538 20.036799263704516 0 -1 0
1023 341 1 0.5897 -13.289302343210503 12.575367176205187 17.095131555966802 0 -1 0
1000 334 2 -1.1794 -15.400881236961094 9.875510971565184 18.17945075474897 0 -1 0
1042 348 2 -1.1794 -12.38289826951931 9.64663400396325 19.335240707589485 0 -1 0
1044 348 1 0.5897 -12.966248324463598 10.08879436298453 19.952049965560953 0 -1 0
1118 373 1 0.5897 -13.784784633931746 11.653195631785046 21.638539647049058 0 -1 0
1021 341 2 -1.1794 -13.891192121276795 12.362226528444353 17.80825157236452 0 -1 0
1126 376 2 -1.1794 -14.643294703336403 14.71365235691992 20.372083627532305 0 -1 0
1001 334 1 0.5897 -14.79955593305068 10.620006048860422 18.1606540572962 0 -1 0
1142 381 1 0.5897 -17.221310575549683 14.946627561260765 20.962737008833038 0 -1 0
1111 371 2 -1.1794 -16.56336312272413 12.566836496900159 20.110970882470873 0 -1 0
1013 338 1 0.5897 -10.67022856561018 10.705523981582697 18.592517685983033 0 -1 0
152 51 1 0.5897 -10.783067492170822 11.007163618372228 21.869239431433307 1 0 -1
151 51 2 -1.1794 -10.883418584572343 11.958357358103306 21.906650418776728 1 0 -1
979 327 2 -1.1794 -12.397889423087012 9.179339562022214 16.62480199498208 0 -1 0
317 106 1 0.5897 -1.386514324803498 -3.916896712957379 1.1578786062672146 1 1 0
318 106 1 0.5897 -2.8838204702653076 -4.056419121494976 1.3330522735159527 1 1 0
305 102 1 0.5897 -1.880357352419212 -6.305468790579093 2.1352196498234317 1 1 0
304 102 2 -1.1794 -1.7049464183548633 -7.145843906107174 2.5586667438726396 1 1 0
316 106 2 -1.1794 -2.0820330239194433 -4.570035071746833 1.2346155015701092 1 1 0
242 81 1 0.5897 -1.4142641749024207 -6.6972872022124275 4.235112939189307 0 1 0
306 102 1 0.5897 -0.9749659047328816 -7.516759680482499 2.062827875163114 1 1 0
311 104 1 0.5897 -3.022252632744207 -8.206879293040807 3.2217322079749224 1 1 0
241 81 2 -1.1794 -1.5823439039182627 -6.425443451781817 5.137333319929614 0 1 0
3 1 1 0.5897 -1.1667179935687049 -3.4338823987629805 4.628773180748453 0 0 0
243 81 1 0.5897 -1.0226942424175398 -5.659549828133272 5.265366337030051 0 1 0
310 104 2 -1.1794 -3.7453262030121977 -8.682857551346197 3.630217412534582 1 1 0
293 98 1 0.5897 -4.991975572700029 -3.5911055623851142 2.2396842989915458 1 1 0
201 67 1 0.5897 0.16735811042069848 -8.559242550442608 0.18146268290511158 1 1 0
199 67 2 -1.1794 0.4473264877430889 -8.147373961633928 0.9988314656984609 1 1 0
227 76 1 0.5897 1.006164788843412 -7.935330108538492 3.8775391617194206 0 1 0
322 108 2 -1.1794 -6.302318012679477 -4.605465250417945 2.8584538538948867 1 1 0
259 87 2 -1.1794 -6.404570943696976 -5.511492456077338 0.16853976268473336 1 1 0
1179 393 1 0.5897 -2.5098367342798635 -8.407002411506163 -0.0593419191094951 0 0 1
1177 393 2 -1.1794 -2.9345902070014755 -9.26478618285578 -0.0614411882496203 0 0 1
348 116 1 0.5897 -1.2724511632633497 -6.698999614302827 9.589491659145265 0 0 0
347 116 1 0.5897 -1.011537542856031 -5.430539969361414 8.805331899703873 0 0 0
346 116 2 -1.1794 -1.718979435471196 -5.98616411609043 9.132531354790084 0 0 0
336 112 1 0.5897 -3.187086743398937 -4.845903262709246 9.556418781749203 0 0 0
546 182 1 0.5897 -0.1852600368023687 -7.518297015653072 6.342869951491311 0 1 0
334 112 2 -1.1794 -4.057362501911475 -4.495521788840225 9.366114881527173 0 0 0
544 182 2 -1.1794 0.2745373429587463 -7.940652251512457 7.0684303152777845 0 1 0
555 185 1 0.5897 -3.0593249111070353 -6.524338001509051 6.212531694411769 0 1 0
554 185 1 0.5897 -2.890437710260855 -6.722558423493421 7.703800652773524 0 1 0
326 109 1 0.5897 -3.496342608739824 -7.830294553601671 10.554930139631828 0 0 0
553 185 2 -1.1794 -3.528152407698771 -6.812542441054305 6.9957022089271135 0 1 0
632 211 1 0.5897 -5.032823934136198 -5.662798998098718 6.598435867017091 1 1 0
359 120 1 0.5897 -4.585282389621916 -3.065040736157572 8.368894144318302 0 0 0
335 112 1 0.5897 -4.609355783762702 -5.269935050551566 9.25753348241211 0 0 0
356 119 1 0.5897 1.1311004256722654 -7.383907697356163 10.068128370346226 0 0 0
357 119 1 0.5897 1.3815497835028214 -7.441935711708036 8.576277745112618 0 0 0
404 135 1 0.5897 -5.448834612027103 -3.5403339790521082 5.452587257517719 1 0 0
794 265 1 0.5897 -1.9699783642254722 -5.409866749189315 16.42191860801259 0 0 0
804 268 1 0.5897 -1.5999356180822204 -2.5101823472608 15.078842465549098 0 0 0
667 223 2 -1.1794 -4.214909185444789 -2.7332480952297438 11.728688721888261 0 0 0
795 265 1 0.5897 -2.6706027732451183 -5.6981263923292005 15.111320900718994 0 0 0
774 258 1 0.5897 -5.413459482734264 -2.48443565942779 12.90756441301067 0 0 0
668 223 1 0.5897 -3.380074874483884 -2.9416967318414935 12.148114541903833 0 0 0
657 219 1 0.5897 -0.3478046705917759 -7.3975023084927685 11.852928992957825 0 0 0
697 233 2 -1.1794 -1.7871832626657405 -4.082075892839193 12.242623274626805 0 0 0
793 265 2 -1.1794 -1.9881203676183894 -6.031169249746017 15.694055512907655 0 0 0