LAMMPS (30 Jul 2021)
  using 1 OpenMP thread(s) per MPI task
package omp 0
using multi-threaded neighbor list subroutines
echo both

include		in.partitions
variable        pid world 0
include		in.temp
variable        temperature equal 265.86
variable	tempDamp equal 100.0
include		in.pressure
variable        pressure equal 9375.0
variable        pressureDamp equal 1000.0 # This is 1 ps
include		in.seed
variable        seed world 745823

units		real
atom_style	full
read_restart    restart.lmp.${pid}
read_restart    restart.lmp.0
Reading restart file ...
  restart file = 30 Jul 2021, LAMMPS = 30 Jul 2021
  restoring atom style full from restart
  triclinic box = (-3.1221546 -0.19290286 -0.079470665) to (14.732154 22.772902 19.309469) with tilt (0.11091428 -6.3797377 0.053238417)
  4 by 4 by 4 MPI processor grid
  restoring pair style lj/cut/tip4p/long/omp from restart
  restoring bond style harmonic/omp from restart
  restoring angle style harmonic/omp from restart
  1008 atoms
  672 bonds
  336 angles
Finding 1-2 1-3 1-4 neighbors ...
  special bond factors lj:    0        0        0       
  special bond factors coul:  0        0        0       
     2 = max # of 1-2 neighbors
     1 = max # of 1-3 neighbors
     1 = max # of 1-4 neighbors
     2 = max # of special neighbors
  special bonds CPU = 0.526 seconds
  read_restart CPU = 0.770 seconds

include 	in.setup
variable	out_freq equal 1000
variable	out_freq2 equal 10000
variable	out_freq3 equal 1000

timestep	2.0

neigh_modify    delay 7 every 1

include		in.tip4p
# This is TIP4P/Ice

# create groups ###
group ox type 2
336 atoms in group ox
group hy type 1
672 atoms in group hy

# set charges - beside manually ###
set group ox charge -1.1794
Setting atom values ...
  336 settings made for charge
set group hy charge 0.5897
Setting atom values ...
  672 settings made for charge

# ### TIP3P Potential Parameters ###
pair_style lj/cut/tip4p/long/omp 2 1 1 1 0.1577 8.5
pair_coeff 1 1*2 0.000 0.000
pair_coeff 2 2 0.21084 3.1668
bond_style  harmonic
bond_coeff  1 450 0.9572
angle_style harmonic
angle_coeff 1 55 104.52
kspace_style pppm/tip4p/omp 1.0e-5
pair_modify tail yes

thermo          ${out_freq}
thermo          1000
thermo_style    custom step temp pe etotal epair emol press lx ly lz vol pxx pyy pzz pxy pxz pyz enthalpy

restart 	${out_freq3} restart.lmp.${pid} restart2.lmp.${pid}
restart 	1000 restart.lmp.${pid} restart2.lmp.${pid}
restart 	1000 restart.lmp.0 restart2.lmp.${pid}
restart 	1000 restart.lmp.0 restart2.lmp.0


include         in.dump
dump            myDump all atom ${out_freq2} dump.water.${pid}
dump            myDump all atom 10000 dump.water.${pid}
dump            myDump all atom 10000 dump.water.0
dump            myDump2 all dcd ${out_freq2} dump.dcd
dump            myDump2 all dcd 10000 dump.dcd
dump_modify     myDump append yes
dump_modify     myDump2 append yes


variable natoms 	equal  "count(all)"                        # NUMBER ATOMS
variable H      	equal  "enthalpy/v_natoms"                 # ENTHALPY-per-atom
variable Vol      	equal  "vol/v_natoms"                 # volume-per-atom
fix AVG all 		ave/time ${out_freq} 1 ${out_freq} v_Vol v_H file vol_enthalpy.dat
fix AVG all 		ave/time 1000 1 ${out_freq} v_Vol v_H file vol_enthalpy.dat
fix AVG all 		ave/time 1000 1 1000 v_Vol v_H file vol_enthalpy.dat



fix 		1 all shake 1e-6 200 0 b 1 a 1
       0 = # of size 2 clusters
       0 = # of size 3 clusters
       0 = # of size 4 clusters
     336 = # of frozen angles
  find clusters CPU = 0.090 seconds
fix             2 all nph tri ${pressure} ${pressure} ${pressureDamp}
fix             2 all nph tri 9375 ${pressure} ${pressureDamp}
fix             2 all nph tri 9375 9375 ${pressureDamp}
fix             2 all nph tri 9375 9375 1000
fix             3 all temp/csvr ${temperature} ${temperature} ${tempDamp} ${seed}
fix             3 all temp/csvr 265.86 ${temperature} ${tempDamp} ${seed}
fix             3 all temp/csvr 265.86 265.86 ${tempDamp} ${seed}
fix             3 all temp/csvr 265.86 265.86 100 ${seed}
fix             3 all temp/csvr 265.86 265.86 100 745823


run             250000
PPPM initialization ...
  extracting TIP4P info from pair style
  using 12-bit tables for long-range coulomb (../kspace.cpp:340)
  G vector (1/distance) = 0.38328773
  grid = 24 30 32
  stencil order = 5
  estimated absolute RMS force accuracy = 0.0019601829
  estimated relative force accuracy = 5.9030327e-06
  using double precision FFTW3
  3d grid and FFT values/proc = 4080 384
Last active /omp style is kspace_style pppm/tip4p/omp
Neighbor list info ...
  update every 1 steps, delay 7 steps, check yes
  max neighbors/atom: 2000, page size: 100000
  master list distance cutoff = 10.8154
  ghost atom cutoff = 10.8154
  binsize = 5.4077, bins = 5 5 4
  1 neighbor lists, perpetual/occasional/extra = 1 0 0
  (1) pair lj/cut/tip4p/long/omp, perpetual
      attributes: half, newton on, omp
      pair build: half/bin/newton/tri/omp
      stencil: half/bin/3d/tri
      bin: standard
Per MPI rank memory allocation (min/avg/max) = 9.341 | 9.347 | 9.350 Mbytes
Step Temp PotEng TotEng E_pair E_mol Press Lx Ly Lz Volume Pxx Pyy Pzz Pxy Pxz Pyz Enthalpy 
 9750000     276.8755   -4799.6778   -4245.8926   -4799.6778            0    8261.5585    17.854308    22.965805    19.388939    7950.2126    9285.7948    7841.1561    7657.7246    -907.8825   -293.66834   -14.255265   -3288.0005 
 9751000    250.96288   -4778.6804   -4276.7236   -4778.6804            0    8596.1692    18.095734    23.036065    19.021155    7929.0542    7272.3156    8984.6801    9531.5117   -39.629238    414.46016    1969.8378   -3282.6873 
 9752000    273.79441   -4819.3181   -4271.6955   -4819.3181            0    7506.2751    17.640911    23.217356    19.428741    7957.5327    8729.6456    7120.6499    6668.5299   -448.68622    27.566885    11.570557   -3400.5739 
 9753000    266.92582   -4811.0405   -4277.1559   -4811.0405            0     10216.95    17.879838    23.100137    19.152854    7910.6403    10821.009    9585.9749    10243.865    797.36497   -589.17855    711.85119    -3098.441 
 9754000    253.49107   -4822.1849   -4315.1714   -4822.1849            0    8832.9253    18.037224    22.972564    19.125557    7924.8902    9915.5728    9181.9208    7401.2822    164.34519    550.05316    190.60378   -3294.2938 
 9755000    270.58537   -4814.4079   -4273.2038   -4814.4079            0    9860.2797    17.900399    22.753827    19.435599    7916.1693    11967.624    9956.6304    7656.5848   -129.67985    866.65475   -1668.8721   -3134.8423 
 9756000    273.07008   -4810.6443   -4264.4704   -4810.6443            0    8140.2626     18.07867    22.942143     19.19559    7961.6285    7311.3401    9099.0932    8010.3546    5.4097387    749.60239    43.287644   -3319.2867 
 9757000    264.66141   -4805.4388   -4276.0833   -4805.4388            0    9759.3972    17.920765    22.793882      19.3245    7893.7454    8428.6429    10244.268     10605.28    1307.1736    210.72533    283.67271   -3152.5603 
 9758000    266.42354   -4801.3335   -4268.4535   -4801.3335            0    8186.4647    17.959831    22.975393    19.226721    7933.6023    7376.7751    7952.7717    9229.8474   -804.76433    1057.8693    -421.8679   -3321.2513 
 9759000    277.43009   -4796.5133   -4241.6188   -4796.5133            0    8775.8255    17.869413    23.131395    19.223028    7945.7318    7890.8063    8596.2094    9840.4607     -1394.43   -798.09264   -787.28585   -3224.6731 
 9760000     273.5896   -4809.1499   -4261.9369   -4809.1499            0     7706.814     17.73627    23.180147    19.429664     7988.105    7955.3204    7834.2556    7330.8658   -498.72868    1188.8893   -1402.0397    -3364.106 
 9761000    269.69269   -4823.7973   -4284.3786   -4823.7973            0    9488.8824    17.934598    23.015682    19.143843    7902.1383    10689.136    7702.5789    10074.932   -51.694066   -913.29074   -279.51681   -3190.8364 
 9762000    272.34075   -4766.7719   -4222.0567   -4766.7719            0    11157.227    17.917538    22.969035    19.167702    7888.4401    11018.232    10695.905    11757.544    312.24091    1095.3962    628.16274   -2938.4757 
 9763000    287.67378   -4793.2033   -4217.8202   -4793.2033            0    10930.838     17.70501    23.133646    19.219173    7871.8162    11193.202     10665.15    10934.161   -1287.9545   -257.98848    655.49656   -2962.9341 
 9764000    262.98757   -4802.0881   -4276.0805   -4802.0881            0    7972.0161    17.799773    23.099796    19.310771    7940.0312    7915.6724    7719.7276    8280.6482   -701.74863   -186.93539   -353.15027   -3352.9433 
 9765000    267.37242   -4804.0301   -4269.2522   -4804.0301            0    9086.7135     17.99261    22.856899    19.244251    7914.2998    8673.8018    8832.7265    9753.6121     437.0226     638.4534    580.17828    -3220.446 
 9766000    266.94635    -4789.365   -4255.4393    -4789.365            0    10093.608    17.824676    22.934205    19.327281    7900.8915    10939.144    10689.544    8652.1364   -95.174931    290.08961   -1241.4158   -3092.3892 
 9767000    264.26435   -4798.7178   -4270.1565   -4798.7178            0    9223.6998    18.146282    22.818773    19.164523    7935.5668    7803.2045    9847.1031    10020.792   -762.99642   -537.30255    42.201329   -3202.6783 
 9768000    256.96351   -4805.2652   -4291.3064   -4805.2652            0    9673.6466    17.815754    22.882185    19.386185     7903.038    10187.918    10125.253    8707.7688    69.795123    809.57785    1466.9534   -3176.3442 
 9769000    260.39809   -4796.8496   -4276.0212   -4796.8496            0    9349.2885    17.982422    23.023794    19.162927    7933.9039     8214.672    9574.0926    10259.101   -46.858568    45.004632   -823.80983   -3194.2352 
 9770000    265.33794   -4804.6463   -4273.9376   -4804.6463            0    10625.691      17.8784     22.87493    19.281156    7885.3596    9963.1387    9936.4856    11977.448    162.13727    530.64992    63.092609   -3051.9844 
 9771000    265.61625   -4818.2224   -4286.9571   -4818.2224            0    9436.1686    17.720663    22.866942    19.473629    7891.0527    11238.802    9137.3101    7932.3936    223.10942    618.79673    843.81089   -3201.0153 
 9772000    266.00415   -4804.6221   -4272.5809   -4804.6221            0     8864.555    18.029699     22.95206    19.242769    7963.0185    6415.3028    10085.596    10092.766    -1470.667    332.88684   -1405.2763   -3243.1184 
 9773000    268.42114   -4843.2682   -4306.3928   -4843.2682            0    10055.694    17.979121    22.621716    19.410179      7894.48    10091.288    11166.104    8909.6902   -462.86603    165.90592   -1441.4363   -3148.6516 
 9774000    278.17536   -4779.3022   -4222.9171   -4779.3022            0    9108.1686    18.033256    22.774247     19.32388    7936.1983    10384.132    8920.7615    8019.6124    119.69993   -156.93386   -2194.4697   -3168.7257 
 9775000     282.7435   -4814.1198   -4248.5978   -4814.1198            0    8853.0685    17.903686    22.877517    19.368313    7933.1039    8931.5689    9078.4345    8549.2019    1899.8019    856.23717   -506.95714   -3224.3316 
 9776000     277.7842   -4808.9712   -4253.3685   -4808.9712            0    9303.8997    17.909589    23.006689     19.23901    7927.2486    9582.2671    8892.8763    9436.5557    2050.7627   -434.70031   -141.05682   -3177.7373 
 9777000    273.13848   -4782.6299   -4236.3192   -4782.6299            0    9040.7208    17.900789    22.961765     19.30023    7933.0454    9094.7819    8505.9322    9521.4483      495.271   -1123.0317   -108.01271   -3190.3501 
 9778000    271.92097   -4825.2801   -4281.4046   -4825.2801            0    10110.508    17.957547    22.965746    19.119482    7885.0363    10486.879    10580.282    9264.3623    -148.8917    178.48008   -2548.8448   -3118.7451 
 9779000    273.02192   -4805.1834   -4259.1058   -4805.1834            0    10071.649    17.811509    22.983191    19.241416    7876.7683    9976.2518    9847.3294    10391.367   -1487.6867    5.3870652    102.67935   -3102.1293 
 9780000    277.36874   -4792.8922   -4238.1205   -4792.8922            0    9455.3656    17.881953    23.046411    19.206579    7915.3163    8078.4693     10548.47    9739.1573    678.59158   -120.04801   -756.92069   -3146.6236 
 9781000    266.06851   -4770.8071   -4238.6372   -4770.8071            0    7374.2869    17.838037    23.285013    19.241153    7991.9847    8037.9564    6731.5252    7353.3791    1900.9718    -553.2908    1209.2264   -3379.1279 
 9782000    270.20746   -4788.7079   -4248.2596   -4788.7079            0    9397.7055    17.777527    23.199092    19.148426    7897.2416    9285.8145    8818.1856    10089.116    983.70001   -367.51796    219.28139   -3165.8961 
 9783000    269.74145    -4811.705   -4272.1888    -4811.705            0    8949.0534    17.601928    23.426162    19.216964    7924.0308     10025.31     6418.952    10402.898    210.19509   -1620.3046   -2272.1505   -3238.0016 
 9784000    252.65682   -4808.6273   -4303.2825   -4808.6273            0    9928.6018    17.858829     23.04361    19.171303    7889.6025     10635.53    9102.6932    10047.583    -2246.215    806.42129   -742.19007   -3160.8801 
 9785000    273.72593   -4838.7648   -4291.2791   -4838.7648            0    9139.3653    17.588841    23.286792     19.22912    7876.0107    9510.7919    8890.2858    9017.0183   -545.82883   -1246.9631   -1058.2848   -3241.4993 
 9786000    259.42052   -4811.6565   -4292.7834   -4811.6565            0    12382.452    17.738808    22.983334    19.166695    7814.2031    13813.068    12066.591    11267.696   -427.95103   -161.76881   -1208.1862   -2881.6527 
 9787000    266.85606   -4802.2805   -4268.5354   -4802.2805            0    9795.4169    17.778436    23.127858    19.216622    7901.4361    10273.974    9450.0769    9662.1998   -575.65601    7.8052834   -1703.1734    -3139.767 
 9788000     258.6072   -4783.9136   -4266.6673   -4783.9136            0    9531.5968    17.820138    22.969628    19.344293    7918.0437    10326.343    8760.6005    9507.8469   -1203.3958    406.55175   -444.24505   -3165.9914 
 9789000    267.67617   -4812.7567   -4277.3713   -4812.7567            0    9175.8625    17.797051    23.176566    19.190171    7915.4563    7339.3497    10033.405    10154.833    58.780623    1164.0909    1303.0942   -3218.1207 
 9790000    266.72062   -4794.6087   -4261.1345   -4794.6087            0    9292.1123    17.959284    23.021053    19.187274    7932.8179    10717.671    8765.2376    8393.4284   -397.75542   -1149.6118    309.56482   -3186.1113 
 9791000    274.55707   -4827.1272   -4277.9792   -4827.1272            0    8499.5474    17.923387    22.842864    19.451771    7963.9733    9268.9864    9216.0731    7013.5826   -526.28365   -393.33915    1854.4948   -3290.7875 
 9792000    272.71709    -4812.184   -4266.7161    -4812.184            0    9743.6785    18.051299    22.824002    19.177263    7901.0876     8457.602    9483.1894    11290.244    1083.6747   -1063.2922    497.08625   -3143.9593 
 9793000    274.68059   -4797.9149   -4248.5198   -4797.9149            0    8868.9946    17.722538     23.05431    19.441367     7943.371     8648.871    9229.0195    8729.0933    490.76491    1888.5097     -1318.34    -3221.083 
 9794000    258.38352   -4819.6588   -4302.8598   -4819.6588            0    10265.847    17.930921    22.976585    19.166918    7896.6044    7650.4075    11456.532    11690.602   -1064.1485    879.41711   -584.74215   -3120.6051 
 9795000    267.40156   -4842.2059   -4307.3697   -4842.2059            0    9297.0665    17.840362    22.863868    19.337129    7887.6088     9343.493    9938.8313    8608.8752    381.68294    723.88703   -737.60408   -3237.9032 
 9796000    266.45508   -4825.3443   -4292.4012   -4825.3443            0    9877.0081    17.884652     23.07283    19.172722    7911.6151     9435.649    8372.0578    11823.318    1019.5913    78.481876     1360.463   -3152.7644 
 9797000    272.64073   -4815.3837   -4270.0686   -4815.3837            0     9680.603    17.725786    23.221814    19.123224    7871.5954    10410.137    7949.5394    10682.132    286.96693   -1194.9622   -505.00374   -3158.7436 
 9798000    270.83714   -4823.8268    -4282.119   -4823.8268            0    11200.643    17.651844    23.207303    19.104978    7826.3864    13323.522    9239.9564     11038.45    -1095.819    -920.9204   -1589.7794   -3003.6797 
 9799000    280.94231   -4816.0774    -4254.158   -4816.0774            0    8387.6397    17.822359     23.20994    19.212694    7947.4436    6235.4317    8616.0826    10311.405   -267.58788     287.8685     -452.873    -3281.986 
 9800000    259.75117   -4814.2335   -4294.6991   -4814.2335            0    9312.2429    17.721988    23.192776    19.226029    7902.3231    10296.241     8704.175    8936.3131   -513.41459   -400.57343   -976.07236   -3221.4885 
 9801000    272.71245   -4750.1258   -4204.6672   -4750.1258            0    9447.0641    17.722415    23.309027    19.170916    7919.3568    9475.9948    9315.0379    9550.1596    751.32915   -125.23819    192.01937   -3113.5719 
 9802000    262.00856   -4821.2607   -4297.2112   -4821.2607            0    9045.9033    17.727895    23.164946    19.249082    7904.9382    10066.734    9087.3062    7983.6701   -201.01978    1389.9409   -177.41222   -3254.3505 
 9803000     255.8664   -4824.0498   -4312.2854   -4824.0498            0    10652.115    17.796088    23.065483    19.170448    7868.9968    11135.941     9926.386    10894.018   -382.82718    752.03579     1468.983   -3089.8354 
 9804000    284.30709   -4801.2734   -4232.6241   -4801.2734            0     8846.674    17.707535    23.124746    19.320813    7911.5297    8982.8155    9352.1072    8205.0994   -1518.9475    456.83958   -152.44414   -3211.8811 
 9805000     273.0812    -4794.731   -4248.5349    -4794.731            0    10086.986    17.841063    23.076866    19.187754    7899.9018    10396.449    10775.122    9089.3879    641.29885    484.13271   -340.18682   -3086.3934 
 9806000    272.54158   -4767.8258   -4222.7089   -4767.8258            0    9909.0688    17.839991    22.965718    19.313993    7913.1016    10666.958    11005.361    8054.8876    -803.7486    320.98242   -1255.9552   -3079.1581 
 9807000    262.84295   -4829.6959   -4303.9775   -4829.6959            0    8832.0092    18.025864    22.644012    19.357084    7901.1332     9376.729    8692.7341    8426.5646    -591.0651   -358.86977    -2718.031   -3286.2658 
 9808000     278.9268   -4829.7353   -4271.8472   -4829.7353            0    5055.5418    18.021484    22.924344    19.412845    8020.0425    4785.3535    5210.4389     5170.833    440.35674   -530.72712   -31.029274   -3680.5303 
 9809000    248.66916   -4781.5985   -4284.2294   -4781.5985            0    8062.4908      17.9945    22.614665    19.578662    7967.3323    7008.1998    8091.8599    9087.4126     881.8061   -106.88975   -39.012816   -3347.4053 
 9810000    269.71848   -4813.8696   -4274.3993   -4813.8696            0    10155.683    18.063891     22.59843    19.298497    7877.9469    8749.6234    11821.121    9896.3049    1961.3237   -13.215532    1842.0966   -3107.5949 
 9811000    271.33358   -4798.7477    -4256.047   -4798.7477            0    9016.5467    17.993902    22.665195    19.478094     7943.854    9741.2216    8823.7393    8484.6793   -311.88017    466.74162    1579.7518   -3211.4533 
 9812000    268.17564   -4754.5256   -4218.1412   -4754.5256            0    9603.4641    18.006566    22.758311    19.358742    7933.1937    10122.714     10337.54     8350.138    780.31833    501.93656    294.72735   -3107.0445 
 9813000    276.40685   -4794.4181   -4241.5702   -4794.4181            0    7603.0598    18.023575    22.790204    19.359472    7952.1148    8364.2191    6957.2262    7487.7342    80.660414    297.27875   -856.45952   -3359.8172 
 9814000    260.48766   -4803.9141   -4282.9066   -4803.9141            0    7748.8755    18.027145    22.846469    19.314659    7954.8698    7007.5504    7843.1464    8395.9297    389.84502   -377.86383   -1491.7534   -3383.9316 
 9815000    262.65576   -4823.9552   -4298.6113   -4823.9552            0    9223.4475    17.966208    22.714276    19.346423    7895.0705    5895.4638    11473.851    10301.028    1978.3493    705.03936   -730.95407   -3236.6096 
 9816000    266.18151   -4770.0688   -4237.6729   -4770.0688            0    8411.0817    17.841882    22.977771    19.374521     7942.908    10230.283    8428.1193    6574.8424    836.42075    -1025.731    91.063379   -3263.3402 
 9817000    268.61798   -4822.9463   -4285.6772   -4822.9463            0    10793.791    17.958703    22.718321    19.291104    7870.6081    10930.957    10935.389    10515.028    343.97042    552.71327   -1285.2766   -3046.7146 
 9818000    268.42997    -4810.281   -4273.3879    -4810.281            0      8677.57    18.078169    22.979238    19.116509    7941.4287    7802.5365    9505.1103    8725.0631    472.52977    52.790615   -1289.2996   -3268.3726 
 9819000    259.99956   -4824.1174   -4304.0861   -4824.1174            0    9873.7162    17.773405    22.881655    19.325722    7859.4801    8873.8715    10367.363    10379.915    131.42275     821.0115    1205.8298   -3172.3365 
 9820000    263.80164   -4790.8334   -4263.1975   -4790.8334            0    8782.1545    17.888735    23.021059    19.283113    7941.1261     8999.417    8111.4504     9235.596     450.7246   -2048.2975    1407.3613   -3246.1083 
 9821000    275.90231   -4822.3405   -4270.5018   -4822.3405            0    10454.265    17.811747    22.833465    19.457484    7913.4347    12080.186    10162.765    9119.8431    1350.9698    162.17108   -105.50525   -3063.9821 
 9822000    277.82049   -4763.5413    -4207.866   -4763.5413            0    10403.154    17.924482    22.745507    19.368051    7896.3821    9444.4631    11444.292    10320.705    2.5118822      1549.96    1425.5923   -3009.8322 
 9823000    251.44816   -4813.0502   -4310.1228   -4813.0502            0    9795.3505    17.843111    22.819406    19.416473    7905.7898     10036.48    10176.238    9173.3332    148.28637   -292.70676    639.33929   -3180.7401 
 9824000    262.16307   -4835.3194   -4310.9608   -4835.3194            0     8215.134    17.943548    22.802014    19.387558     7932.401    7908.5354    9326.0835     7410.783   -255.05642    95.404881     1153.235   -3360.5854 
 9825000    265.07339   -4796.6798   -4266.5003   -4796.6798            0    11835.402     17.85649    22.847851     19.24451    7851.4217    11854.048    11524.329    12127.829   -205.60375    682.55699    2389.2011   -2911.2884 
 9826000    266.46777    -4803.866   -4270.8976    -4803.866            0    9930.3713    17.951488    23.011179    19.207614    7934.3751    8822.4137     10819.94    10148.761   -1921.0163    553.86136    1951.3189   -3121.8074 
 9827000    262.16772   -4833.4871   -4309.1193   -4833.4871            0     9397.565    17.690241    23.002139    19.292936    7850.5539    9690.4107    9078.4908    9423.7934   -548.13741    753.19163    621.53001   -3233.1707 
 9828000    280.68386    -4780.124   -4218.7216    -4780.124            0    10521.797    17.915642    23.132312    19.030768    7886.9254    8650.6959    11147.754    11766.942    1279.1591    451.62334    342.53571   -3008.4759 
 9829000    259.43664   -4819.3663    -4300.461   -4819.3663            0    7219.8905    17.719039    23.268409    19.332055    7970.4875    9455.4351    5753.5633    6450.6732   -526.55428   -1333.2041    473.30166   -3461.2109 
 9830000    271.60147   -4785.7221   -4242.4856   -4785.7221            0    8832.5699    18.044729    23.023111    19.080646    7926.9743    7631.4239    9037.5815    9828.7044   -219.20326   -422.79742   -363.17464   -3221.3806 
 9831000      265.222   -4803.4183   -4272.9415   -4803.4183            0    7131.9431    17.777182    23.063876    19.486778    7989.7879    8509.4366    7078.5338    5807.8588   -304.20207   -110.20402   -567.00263   -3441.9071 
 9832000    261.56228   -4821.5499    -4298.393   -4821.5499            0    9771.1585    18.068392    22.860699    19.115379    7895.7237    7324.0229     11109.77    10879.683    709.47427   -17.479724    214.95153   -3173.2341 
 9833000    271.69892    -4793.414   -4249.9826    -4793.414            0    8210.4165    18.058339    22.550948    19.530694     7953.537     8798.871    8361.9304    7470.4482     1485.454   -878.46225    859.42742   -3297.6221 
 9834000    273.48206   -4786.4607   -4239.4628   -4786.4607            0    9357.4167    18.091884    22.574708    19.418098    7930.7203    9295.0295    10244.681    8532.5394   -207.56376   -401.41599   -1090.3396   -3157.1707 
 9835000    265.34141    -4812.442   -4281.7264    -4812.442            0    11681.333    18.138537    22.686413    19.070977    7847.6756    9507.2746    11808.737    13727.988    1073.3001    741.72288   -2450.1494   -2944.7943 
 9836000    267.83598   -4828.3186   -4292.6136   -4828.3186            0    8474.2245     17.89554    22.891168    19.330961    7918.9244    7354.6434    9098.0853    8969.9449     101.5371   -659.82321   -162.13659   -3313.9305 
 9837000    267.21355   -4818.9254   -4284.4653   -4818.9254            0    9814.0086    17.874074    22.937427    19.235261    7886.1737    10114.803    10035.326    9291.8974   -584.51792   -394.92821    381.89275   -3155.7389 
 9838000    256.52922   -4795.7148   -4282.6247   -4795.7148            0     7049.093    17.777189    23.259913     19.29998    7980.4618    9256.0378    7114.6214    4776.6199    726.03202    706.47527    832.75333    -3462.203 
 9839000    254.58608   -4841.2678   -4332.0642   -4841.2678            0    7782.5636    17.940076    23.119664    19.138963    7938.2398    6403.4924     8609.249    8334.9495    92.253875    1883.0206   -24.933438   -3431.0684 
 9840000    260.31705    -4796.613   -4275.9468    -4796.613            0     12080.75    17.812722    22.953252    19.129303    7821.2048    11877.011    12009.914    12355.326    923.45204    981.77199   -753.63782   -2897.9651 
 9841000    267.68153   -4824.7968   -4289.4006   -4824.7968            0    7237.5345    17.807233    23.106878    19.242242    7917.5969    7853.8071    6573.7332    7285.0631   -51.898036   -482.29708    -568.3993   -3453.6823 
 9842000    265.71794   -4814.0441   -4282.5754   -4814.0441            0    7522.8466    17.838699    23.124813    19.223096     7929.846    8220.1749    7620.0603    6728.3045    1398.4375   -1198.0921    1405.7817   -3412.5682 
 9843000    272.34406   -4799.2012   -4254.4795   -4799.2012            0    9672.1616    17.961359    23.040997    19.149173    7924.8393    9508.5078    8345.0513    11162.926   -173.18799    987.24382   -121.88761   -3136.6131 
 9844000    268.34477   -4801.0986   -4264.3759   -4801.0986            0    10999.896    17.815556    22.912073    19.214147    7843.0479    13064.998     11077.22    8857.4714   -715.22565    1116.1756    -1936.555   -3006.1769 
 9845000    248.18964   -4814.4827   -4318.0727   -4814.4827            0    9968.8312    17.867543    22.850282    19.312769    7884.9864    9322.9086    9391.8261    11191.759    1219.1646    427.57708    1199.3448   -3171.7126 
 9846000    270.98039    -4801.126   -4259.1317    -4801.126            0    9672.3958    17.886526    22.878047    19.302655    7898.8162    7613.2465    9862.5208     11541.42   -2180.7513   -1030.5364   -1703.1735   -3144.9092 
 9847000    262.90808   -4804.8199   -4278.9713   -4804.8199            0     10131.74    18.078994    22.706425    19.203829    7883.3509     8429.714    10654.377    11311.129    1253.8413    1375.3366    387.23222   -3114.1192 
 9848000    259.29238   -4801.8767   -4283.2599   -4801.8767            0    7593.3403    18.072407    22.853647    19.300002    7971.2946    8564.9221    6896.6986    7318.4003    170.73725   -98.008594    464.22714   -3400.5101 
 9849000    258.25902   -4789.5118   -4272.9618   -4789.5118            0    10953.088      17.7026    23.085429    19.310404    7891.6238    9913.0513     12079.05    10867.162    854.16957    123.49202   -1033.9634   -3012.3574 
 9850000    262.66099   -4800.2941   -4274.9396   -4800.2941            0    9435.3154    17.873683    23.099464    19.169536    7914.5742     9698.587    10215.327    8392.0325   -186.12128   -380.26863   -562.00108   -3185.8594 
 9851000    256.20323   -4814.8452   -4302.4071   -4814.8452            0    11038.682    17.762856    22.985228    19.285425     7873.917    9439.9712    11207.717    12468.357   -1045.4094    1555.9059   -1005.2953   -3034.8021 
 9852000    260.04516   -4785.9049   -4265.7825   -4785.9049            0    10198.099    18.043706    22.949782    19.092518    7906.1948    8679.2868    10374.558    11540.452    1689.6479     1622.453    1620.7509   -3089.9035 
 9853000    266.00095   -4790.4007    -4258.366   -4790.4007            0    11237.923     18.00868    22.848055    19.119705    7867.0575    11686.246    11507.069    10520.455   -1757.8809     295.0496   -1091.0903   -2969.0057 
 9854000     265.1332   -4786.8993   -4256.6001   -4786.8993            0     10291.36    17.933816    22.810417    19.278446    7886.3844    11499.373    9331.2266     10043.48   -1700.8099   -763.37602    312.25448   -3072.9412 
 9855000    260.37451   -4748.4795   -4227.6983   -4748.4795            0    9487.6218    17.952836    22.871612    19.360487    7949.6154    7289.7819    10171.025    11002.058     366.0368    7.2104806    1923.2779   -3127.7321 
 9856000    255.04931   -4817.1988   -4307.0687   -4817.1988            0    7158.8234    17.997381    22.830935     19.34353    7948.1992    8090.4544    7235.7095    6150.3065   -288.56621   -316.14716   -2722.4986   -3477.2441 
 9857000    272.83117   -4796.4756   -4250.7795   -4796.4756            0    10356.216    17.943702    22.966967    19.121744    7880.3084    10744.598    9154.2308    11169.819    256.78046    206.88818   -1394.6906   -3060.5788 
 9858000    276.57518   -4803.5507   -4250.3662   -4803.5507            0    8565.7067    17.902882    23.041244    19.228192     7931.719    9116.3748    8214.2107    8366.5345    714.81847    868.08183   -103.04173   -3259.5196 
 9859000    264.28676   -4797.6425   -4269.0363   -4797.6425            0    10977.817    17.739963    23.116589    19.130017    7844.9795    12327.425    9012.6677    11593.358   -201.02021   -1947.5973   -2317.4389   -3013.0535 
 9860000    269.81557   -4784.2887   -4244.6243   -4784.2887            0    10169.608    17.784662    23.173984    19.130044    7884.2845    11223.758    8865.3186    10419.749    1071.3841   -790.75919   -665.51633     -3075.28 
 9861000    283.76935   -4794.8537   -4227.2799   -4794.8537            0    10962.412    17.869296    23.017056    19.096395    7854.3203    11966.681    10607.656    10312.899    203.41806    112.36666    1295.4723   -2971.5663 
 9862000    258.47304   -4775.3458   -4258.3678   -4775.3458            0    10272.607    17.884673     23.08888    19.109828    7891.1562    9928.5508    9721.6327    11167.636    1896.1297    781.18212     571.7772   -3076.1509 
 9863000    265.36687   -4813.1792   -4282.4126   -4813.1792            0    9278.0442    17.859559    23.105398    19.113488    7887.2234    8736.6086    8422.6625    10674.862   -2722.6638   -26.152462   -728.89171   -3215.1865 
 9864000    271.77675   -4801.9886   -4258.4016   -4801.9886            0    8541.0173    17.703862     23.31558     19.21275    7930.5583    9801.0174    7999.3823    7822.6521    2128.2615   -79.770783    -362.1218   -3270.5556 
 9865000    251.25487   -4779.1702   -4276.6294   -4779.1702            0    8974.2876    17.991149    23.175881    19.041077     7939.381    8719.5546    7601.7358    10601.573   -783.28135    734.69832    2176.7297    -3237.517 
 9866000    259.42415   -4822.4801   -4303.5998   -4822.4801            0    8235.8443    17.783912    23.036351    19.342845    7924.3077    8195.6525    8636.7559    7875.1244   -522.04328   -432.56418   -656.42277   -3351.8006 
 9867000    261.96397   -4836.5448   -4312.5845   -4836.5448            0    9523.9018    18.055961    22.914348    19.052134    7882.6411    8393.1885    9822.2741    10356.243    -563.7368    441.58347    517.60275   -3217.7145 
 9868000    260.59085    -4812.789   -4291.5751    -4812.789            0    10920.486    17.939102    22.412725    19.613921    7886.0547    11297.768    12129.255    9334.4344   -2313.7489   -8.1213078   -1466.0648   -3035.6099 
 9869000    265.69888   -4832.9332   -4301.5027   -4832.9332            0    10198.368    18.170406    22.588744    19.250402     7901.263    8634.1815    12069.356    9891.5676   -1243.1149    1037.4813   -1573.5959   -3126.3262 
 9870000    256.26766   -4792.0026   -4279.4357   -4792.0026            0    8843.3492    18.157845    22.512059    19.423706    7939.8375    8173.1221     10481.52    7875.4056    -1185.029    157.00609    684.68536   -3255.4255 
 9871000    276.42114   -4838.1929   -4285.3165   -4838.1929            0    9910.6276    17.971993    22.752551    19.164161     7836.392     8562.099    11142.029    10027.755   -301.79852   -729.59135    1531.2071   -3152.6731 
 9872000     272.0123   -4803.6609   -4259.6027   -4803.6609            0    8674.3331    18.037796    22.779555    19.391119    7967.6746    7554.4488    9118.2999    9350.2505   -783.62309      172.904   -1262.6194    -3251.642 
 9873000    276.08178   -4823.4573   -4271.2596   -4823.4573            0    10687.093    17.975485    22.690737    19.231092    7843.9198    8280.1797    12955.172    10825.929    1547.1618    1829.7993    456.95387    -3048.704 
 9874000    275.61792   -4807.9152   -4256.6453   -4807.9152            0    9064.5859    18.048553    22.859987    19.172353    7910.3153    8470.6555    9927.0227    8796.0796    291.31964   -696.38274   -678.76151   -3210.9199 
 9875000    258.42601   -4766.1158   -4249.2319   -4766.1158            0    7704.0135    17.801865    23.017807    19.378584    7940.5667    7405.5209    7499.7378    8206.7817    194.51969   -1081.8734   -260.88254   -3357.0685 
 9876000    269.06173   -4829.2299   -4291.0732   -4829.2299            0    9957.5475    18.000805    22.973064    19.075139    7888.2115    8863.8412    11055.659    9953.1424    697.47111    1168.9898    767.47832   -3145.5423 
 9877000    253.61797   -4796.6876   -4289.4203   -4796.6876            0    8013.8958    17.843931    23.120356    19.330572    7974.9827    8363.5825    7185.9648      8492.14    668.27381     685.7677    1236.4302   -3357.3486 
 9878000    262.07417   -4819.5767   -4295.3959   -4819.5767            0    9780.8355       17.915    22.974559    19.185495    7896.5432     9506.266    9867.2668    9968.9736    745.46081    298.81511   -1570.4089   -3169.0058 
 9879000    286.02374   -4789.7648    -4217.682   -4789.7648            0    9249.7211    17.895847    23.080393     19.15446     7911.619    10255.039      8706.69    8787.4349    456.59551   -72.716675   -1880.7014   -3150.4228 
 9880000      258.717   -4829.5745   -4312.1085   -4829.5745            0    9390.8131    17.857273    23.021698    19.182103    7885.8536    9419.5794    9677.8238    9075.0362     575.2252    800.04705    718.37709   -3232.0984 
 9881000    253.81122   -4819.8405   -4312.1867   -4819.8405            0    10533.223     17.88142    22.871398    19.328191    7904.7094    11678.175    8723.0775    11198.417   -1382.2284    522.20534   -1953.4265   -3097.8948 
 9882000    266.89232   -4784.5558   -4250.7382   -4784.5558            0    8871.3125     17.98756    22.985042    19.315277    7985.8015     8098.146    9376.7702    9139.0212    205.22002    1663.0887     735.5279   -3217.5432 
 9883000    276.81826   -4795.9725   -4242.3018   -4795.9725            0    12116.344    17.989306    22.646482    19.326208    7873.3906    11462.529    12785.516    12100.986    80.066165     671.6514    325.91896   -2851.0386 
 9884000    253.15116   -4818.2889   -4311.9553   -4818.2889            0    7313.8292    18.018536    22.927893    19.329617    7985.5877    7536.5838    7752.5214    6652.3824    2507.0054     607.3511    870.02668    -3460.175 
 9885000    254.76174   -4791.1042   -4281.5492   -4791.1042            0    9617.7845    18.067181    22.789295    19.144499    7882.5239    8412.4339    10723.625    9717.2948    477.42757   -1984.3458   -839.76103   -3175.9029 
 9886000    284.16038   -4824.5812   -4256.2254   -4824.5812            0    9749.3486    18.041191    22.770278    19.259808    7911.9855    11072.086    9768.1182    8407.8421     1373.092    630.03439   -1365.2234   -3131.2656 
 9887000    255.24512   -4796.7502   -4286.2284   -4796.7502            0    9944.1146    18.001159    22.784367    19.291799    7912.4352    9460.2439    10757.904    9614.1959    2619.9156    836.79364    810.53616   -3138.7298 
 9888000       272.57   -4809.1188   -4263.9451   -4809.1188            0    9619.2161    17.747973    23.119707    19.207752    7881.4771    7843.8879    10894.774    10118.987    607.97489    837.37569    8.2136945   -3158.2811 
 9889000    253.55545   -4816.5143   -4309.3721   -4816.5143            0      9013.42    17.883727    22.976225    19.266632    7916.6694    9939.1048    7660.3248    9440.8304    462.48155   -1415.5102    673.64737   -3268.7141 
 9890000     277.1399   -4818.1908   -4263.8768   -4818.1908            0    9980.5299    17.996243    22.898616    19.249698    7932.5897    8206.9142    10815.785     10918.89    558.16582    762.03204    708.83212   -3109.2424 
 9891000    269.61649   -4828.9422   -4289.6759   -4828.9422            0    7617.5356    18.103173    22.803217    19.206452     7928.627    9004.4572    5606.2761    8241.8734   -478.02971   -502.17557    28.673199   -3408.8535 
 9892000    258.57602   -4785.1865   -4268.0025   -4785.1865            0     12180.57    17.864879    22.849694    19.145257    7815.2286    10344.244    13688.863    12508.604   -598.83708    291.50995    572.18633   -2879.6965 
 9893000    260.84938   -4803.7356   -4282.0046   -4803.7356            0    9019.1628    17.803602    23.096575    19.223006    7904.5432    9407.0767    8570.3382    9080.0736    818.30306   -1067.1382   -2171.5969   -3242.2786 
 9894000    261.77716   -4802.8851   -4279.2985   -4802.8851            0    8537.2111    17.895317    23.101621    19.224045    7947.4286     7842.263    8172.9811    9596.3892   -186.73309    172.72533    871.54832   -3289.7922 
 9895000    262.46206   -4801.1162   -4276.1597   -4801.1162            0    9672.1846    17.925564    22.980813    19.209021    7913.0417    10625.016    9834.6485    8556.8893    929.65456    2114.2306    133.57689   -3159.9548 
 9896000     263.5804    -4817.903   -4290.7096    -4817.903            0    9230.7689    18.012485    22.850931    19.230664    7915.3805     7950.514     10308.72    9433.0723   -786.64481   -479.40754    999.62756   -3225.1309 
 9897000    268.88526   -4835.2336   -4297.4299   -4835.2336            0    10108.743    17.873227    22.692644    19.387195    7863.2673    10979.423    10854.164    8492.6431   -397.86349   -951.38158    2430.0373   -3138.1826 
 9898000     266.1375   -4818.3719    -4286.064   -4818.3719            0    9179.8892    18.057806    22.892273    19.177947    7927.8608    8182.7496    10778.398    8578.5199    1613.5677   -85.671509    1311.9666   -3224.6878 
 9899000    277.14496   -4807.2345   -4252.9103   -4807.2345            0    9014.3099    17.882069    22.823592    19.441813    7934.8462    8515.9862    8981.7874     9545.156    86.546078    501.56233   -1423.2192     -3209.76 
 9900000    261.01486   -4808.9987   -4286.9367   -4808.9987            0    9759.6419    17.906032     22.84363    19.303314    7895.8036    11277.496    9156.0816    8845.3478    749.49227   -1634.5778   -368.65767   -3163.0925 
 9901000    271.89023    -4769.033    -4225.219    -4769.033            0    9780.6359    18.060987    22.758289    19.326001    7943.7048    6927.4855    11506.975    10907.447    130.64263    1241.0838     -2288.25   -3092.1246 
 9902000    266.14562   -4795.2545   -4262.9304   -4795.2545            0    10774.459    17.894845    22.759362    19.300508    7860.6193    10871.484    11430.672    10021.221    2698.3441    247.23388    2142.9496   -3027.7564 
 9903000    262.60925   -4786.6596   -4261.4086   -4786.6596            0    8795.8762    17.948024    22.918434    19.245388    7916.4098    8932.1135    8694.5836    8760.9314   -953.06358   -698.93166    162.00997   -3245.9008 
 9904000     261.0665   -4811.8177   -4289.6525   -4811.8177            0    9867.2352    18.001641    22.925242     19.17399    7912.9519    9559.1978    10287.869     9754.639   -1295.1241    519.04553   -1539.6443   -3150.9509 
 9905000     254.2966   -4794.5488   -4285.9241   -4794.5488            0    10229.495    17.853359    22.878952    19.400419    7924.4143    11225.183    8922.6259    10540.676    1678.3094    649.06653     1928.513    -3103.707 
 9906000    255.47465   -4810.2736   -4299.2927   -4810.2736            0    10333.773    17.809804    22.945707    19.188615    7841.5917    10965.138    9593.4816      10442.7   -462.83379   -62.962455   -1095.9699   -3117.5062 
 9907000    267.97554   -4824.7934   -4288.8092   -4824.7934            0    9914.1117    18.021838    22.875298    19.123234    7883.6475    8660.1765    9809.3669    11272.792   -223.85595    272.20671   -67.235683    -3148.935 
 9908000    253.65535    -4808.305    -4300.963    -4808.305            0    10636.061    17.719998    23.035335     19.24853    7856.9819    13389.305    8986.5593    9532.3186    1246.6869    227.07931   -1548.4522   -3082.2191 
 9909000    263.14813   -4811.7913   -4285.4626   -4811.7913            0    9680.0167     17.85232    23.065027    19.088885    7860.1203    10335.527    8806.6065    9897.9163    423.37623   -817.98776    36.660816   -3175.8249 
 9910000     267.2415   -4800.5725   -4266.0565   -4800.5725            0    7493.4472    17.963062    23.011795    19.267943    7964.6412    7367.6489    6889.8879    8222.8049    123.49856   -492.70061   -1932.9503   -3395.6467 
 9911000    255.96152   -4819.8121   -4307.8574   -4819.8121            0    6839.0944    17.994099    22.990105    19.371235     8013.613    7366.0495    6970.9099    6180.3237    123.91602     337.5397   -332.03667   -3508.5702 
 9912000    266.49021   -4790.2284   -4257.2151   -4790.2284            0    11698.135    17.739612    22.912248    19.255584    7826.5165    12708.741    11621.368    10764.295   -1807.9196    1458.5485   -382.83613   -2921.9699 
 9913000    252.19249    -4785.392   -4280.9759    -4785.392            0    9490.3986     17.94069    23.025846     19.10454    7892.0769    8299.5756    9155.8028    11015.817    416.63449   -473.14375    23.265825   -3188.6514 
 9914000    275.11126   -4831.8688   -4281.6123   -4831.8688            0    10423.148    17.571305    23.045393    19.402106     7856.643    12643.178    9797.8404    8828.4252    66.537473    621.46394   -701.57857   -3087.3167 
 9915000    266.56518   -4810.1709   -4277.0077   -4810.1709            0    10961.114    18.020544    23.023725    18.934255    7855.8229    9611.5485    9781.1879    13490.605    1230.8609    -2041.384    1.6934686   -3021.2025 
 9916000    280.74822   -4793.4464   -4231.9153   -4793.4464            0    9186.7641    17.680728    23.237135    19.366322     7956.643    11734.961    7732.6504    8092.6805   -470.39049   -791.75976     416.7182    -3165.888 
 9917000    264.01204   -4827.9248   -4299.8681   -4827.9248            0    8649.1405    17.855548     23.17743    19.115174    7910.7325    8399.5584    8713.6284    8834.2348   -395.55656    317.30326    187.34285   -3302.0175 
 9918000    270.87784   -4794.2243   -4252.4352   -4794.2243            0    10753.661    17.780174    23.080956     19.17901    7870.7475    11765.076    9808.0054    10687.903    1952.5975    704.57717    1737.3308    -3018.057 
 9919000    277.78209   -4779.8695    -4224.271   -4779.8695            0    11171.092     17.66348    23.173607    19.237446    7874.3973    10888.873    10621.342    12003.063   -23.319885   -214.18201   -335.91903   -2941.3827 
 9920000    275.77533   -4814.8348     -4263.25   -4814.8348            0    10050.552    17.893624    23.093783     19.05356    7873.5308     10947.37    9074.8651    10129.422   -1193.8384     548.4358   -353.23074   -3109.1715 
 9921000    281.47082   -4822.5793   -4259.6028   -4822.5793            0    8322.4681    17.785727    23.312013     19.18367    7953.9544    8547.7224    7223.1963    9196.4857   -476.75327     783.9977   -511.48035   -3294.1943 
 9922000    262.44738   -4810.0186   -4285.0914   -4810.0186            0    8777.0517    17.837319     23.28123    19.011314    7894.9183    9946.3744    7424.6569    8960.1238    1154.3746    -690.0322   -1835.9854   -3274.5079 
 9923000    257.58535    -4810.108   -4294.9055    -4810.108            0    10144.379    17.782817    22.978207     19.27973    7878.0305    8769.3409    10810.958    10852.839    1474.6733   -912.33852   -128.15378   -3129.3874 
 9924000    265.30996   -4828.0869   -4297.4342   -4828.0869            0    7622.0982     17.93679    23.039815    19.236813    7949.8113    7066.6829    8329.5194    7470.0923    1170.3441    87.656576   -1023.0602   -3413.7293 
 9925000    261.42648   -4801.6781   -4278.7929   -4801.6781            0    11151.336    17.855477    22.828485    19.260111     7850.681    12036.301    10857.426     10560.28    661.22559   -97.383308   -1023.9355   -3002.0304 
 9926000    263.15443   -4810.5757   -4284.2343   -4810.5757            0    10508.688    18.021629    22.618551    19.337213    7882.2952    9760.6253    10705.686    11059.753    234.74323    273.23409    472.77479   -3076.2061 
 9927000    265.63862   -4774.5459   -4243.2359   -4774.5459            0    10264.656    17.936193    22.909139    19.173219    7878.3281    10931.192    9830.5533    10032.222   -1048.1119   -810.91841    540.54366   -3063.8543 
 9928000     257.2196   -4781.3756   -4266.9046   -4781.3756            0    10746.597    17.919466     22.75498    19.378178    7901.5894    10651.873    11663.161    9924.7569    -436.4377    137.02838    1239.4253   -3028.5035 
 9929000    263.04668   -4792.1906   -4266.0647   -4792.1906            0    7958.7273    18.112054    22.834007    19.288827    7977.2948    8662.2575    7999.8523    7214.0722   -550.31148    891.93688    372.98156   -3340.1411 
 9930000    266.17918   -4814.5892    -4282.198   -4814.5892            0    8332.5108    17.978069    22.927104    19.292247     7951.976    10176.231    7872.3792    6948.9224    -785.0821    112.59426   -1590.3977   -3315.8649 
 9931000    271.17396   -4825.3663   -4282.9849   -4825.3663            0    10527.024    17.907193    22.762921    19.273734    7856.3597    11661.626    10724.268    9195.1781   -905.91585    523.05424   -16.363614   -3076.8306 
 9932000    270.25841   -4815.9292    -4275.379   -4815.9292            0     9344.767    18.091753     22.76223    19.277822    7938.7738    9033.4112    10454.579    8546.3108   -1633.1413   -300.74561   -2509.1277   -3193.4524 
 9933000    251.84755   -4802.7932    -4299.067   -4802.7932            0    9592.7184    17.930676    22.697978    19.427137    7906.6526    7286.5697    11053.255    10438.331    512.24046     296.4113    1180.0014   -3192.9266 
 9934000    249.60752    -4810.157   -4310.9111    -4810.157            0    8553.7698    17.916364    23.021833    19.301562    7961.2676    8188.0653     8661.495    8811.7491    716.13731   -271.86125   -994.93112   -3317.7593 
 9935000    275.73174    -4797.103   -4245.6054    -4797.103            0    8932.9653    17.991723    22.745231    19.334321     7912.105    8379.4259    9721.1025    8698.3673    317.52272     122.8432    52.869249   -3214.8312 
 9936000    277.95593   -4811.0012    -4255.055   -4811.0012            0    10596.952    18.020056    22.808846    19.218289    7899.0374    9139.4605    9829.9171    12821.478    181.48313   -1356.7551   -195.14761    -3034.293 
 9937000    263.79658   -4820.9006   -4293.2749   -4820.9006            0    5962.6804    17.945183    23.123574    19.291253    8005.0363    7424.6079    4791.8062    5671.6272   -360.85876   -1174.4608    1597.4664   -3597.1603 
 9938000    269.90269   -4781.4071   -4241.5683   -4781.4071            0    12094.873    17.955811    22.731843    19.253883     7858.832    9856.7449    13779.019    12648.856    149.42467    1067.9635   -868.17178   -2855.3386 
 9939000    258.64834   -4839.0212   -4321.6926   -4839.0212            0    8751.7706    18.028834    22.692261    19.398601    7936.2585    9981.6194    9379.7034    6893.9891   -574.71474    179.18402   -1453.3072   -3308.7435 
 9940000    272.23662   -4767.9608   -4223.4539   -4767.9608            0    9203.7722    17.960437    22.893749    19.247266    7914.1245    10271.251    8710.0659    8629.9992    1780.5726   -916.79183    1476.0031   -3161.1601 
 9941000    269.72087   -4806.4608   -4266.9857   -4806.4608            0    9889.0474    17.915986    22.869685    19.301234    7908.3518    10409.575    9224.9188    10032.648    150.21347   -1537.0919    -239.2193   -3126.4304 
 9942000    270.00635    -4798.469   -4258.4229    -4798.469            0    9694.9798    17.866241    23.011413    19.208428    7897.1123    10631.225    9173.9275    9279.7866   -1161.4451    671.76108   -103.55123   -3141.8396 
 9943000    271.72773   -4819.4777   -4275.9886   -4819.4777            0    9310.7525    17.750352    22.962954    19.345809    7885.3618    9933.1226    9674.1345    8325.0004    450.78115   -93.780858    1178.3401   -3205.2529 
 9944000    265.49598   -4792.4385   -4261.4138   -4792.4385            0    9045.1587    17.835104    23.164912    19.210622    7936.8422    8945.9779    8283.7458    9905.7523   -372.33997    673.24956    636.86218   -3214.4303 
 9945000    252.83702   -4777.9566   -4272.2514   -4777.9566            0    11179.081     17.88276    22.837196    19.293179    7879.1817    11280.054    11378.092    10879.097     106.9283    172.75494    2671.2437   -2987.6656 
 9946000    262.60794   -4815.0493    -4289.801   -4815.0493            0    9649.7256    18.025787     23.06089    19.124113    7949.7158    10830.779    8551.6958    9566.7022   -2731.4861   -1420.2655    -861.1077   -3171.0267 
 9947000    261.48126    -4799.181   -4276.1861    -4799.181            0    8696.2554    17.857692    22.828673    19.395006     7906.712    9067.8826    9309.7212    7711.1624   -9.4536798    1904.3173   -710.67989   -3273.4098 
 9948000    272.71289   -4820.1198   -4274.6603   -4820.1198            0    9517.6256    18.083359    22.921548    19.104391    7918.7428    6539.6184    10181.631    11831.627    1226.8196    453.95682    -108.9097   -3175.5007 
 9949000    284.63887   -4831.5056   -4262.1927   -4831.5056            0    7828.5129    17.860748    22.950367    19.434699    7966.4915    9921.3279    6752.2986    6811.9123   -896.15589     88.94362   -1256.6431   -3352.6518 
 9950000    254.93381   -4787.5904   -4277.6913   -4787.5904            0    10327.749    18.136347      22.6855    19.170743    7887.4591    8643.5147    11202.234    11137.497    1789.7998   -558.63148    1237.7872   -3089.6852 
 9951000    264.25016    -4805.669   -4277.1361    -4805.669            0    8062.7242    17.801825    22.913962    19.450974    7934.2536    9612.3108    7520.8388    7055.0229   -738.96435   -1071.1433   -3102.0721   -3344.1745 
 9952000    271.92523   -4815.8859   -4272.0019   -4815.8859            0    10367.047     18.08597    22.884083    19.069292     7892.415    10922.522    9561.8566    10616.761    1404.5494   -514.82252    668.24597    -3078.726 
 9953000    263.92679   -4845.0523   -4317.1661   -4845.0523            0    9183.4222    17.901617    22.866473    19.318474    7907.9559    8901.9789    9054.8723    9593.4153    255.66597   -501.79572   -937.14348   -3258.0473 
 9954000    258.85832   -4826.7099   -4308.9612   -4826.7099            0    10156.144    17.995457    22.969103    19.079177    7886.1777    9190.3722    8570.3064    12707.754    794.40748    114.00119    1336.1738   -3140.8847 
 9955000    266.62193   -4832.2942   -4299.0174   -4832.2942            0    9956.2373    17.764372    22.923326    19.317326    7866.3722    12597.643    9438.9366    7832.1323   -551.31836   -1192.2762   -638.79225   -3156.8083 
 9956000    261.82006   -4833.7715    -4310.099   -4833.7715            0    5163.1178    18.037342    23.023235    19.418448    8064.0535    4555.2523    4802.0333    6132.0677   -1138.8489    706.93934   -412.32313   -3702.8856 
 9957000    277.26213   -4826.1832   -4271.6247   -4826.1832            0    9645.6215    17.864398    22.903742    19.296786    7895.5033    10337.223    9548.1925    9051.4485    660.19186    -789.5326   -374.50144   -3160.9524 
 9958000    273.65676   -4801.6547   -4254.3073   -4801.6547            0    8922.7796    18.014625    22.883655    19.196746    7913.6757    8870.3186    8313.0018    9585.0185    -355.8687   -1601.8426   -144.70367    -3224.504 
 9959000    271.52727   -4818.3838   -4275.2957   -4818.3838            0    8429.7249    17.885319    22.898357    19.343475    7922.0123    8276.0956    8207.9102    8805.1691    15.351475    444.09081   -984.67525   -3301.3723 
 9960000    271.67516   -4803.5269    -4260.143   -4803.5269            0    7878.1489    18.010943    23.133128    19.031316    7929.3874     8190.159    6229.6473    9214.6404    358.56584   -1086.4188    1308.0194   -3349.0983 
 9961000    265.04744   -4791.2595   -4261.1319   -4791.2595            0    9208.8701    17.674716    23.046568    19.352808    7883.2025    10165.797    9106.6053    8354.2078   -1760.6891   -195.15339   -2150.6478   -3202.4026 
 9962000     270.9114   -4807.0098   -4265.1535   -4807.0098            0    11454.472    17.897999    22.956077    19.100293    7847.6958     12841.18    9445.5472    12076.689    249.74271   -1577.7897    -872.6426   -2954.1824 
 9963000    268.13307   -4815.2232   -4278.9239   -4815.2232            0    7932.1033    17.648983    23.444306    19.150427    7923.8369    6948.9098    8391.5093    8455.8908   -2200.1467    495.39006   -1681.3923   -3362.2819 
 9964000    262.68731   -4812.9578   -4287.5507   -4812.9578            0     8572.179    17.879896    23.052262    19.287142    7949.6209    8732.3142    7991.5708    8992.6521   -1104.4002   -892.95859     1228.707   -3293.7174 
 9965000    253.10185   -4834.9166   -4328.6816   -4834.9166            0    9809.5077    18.030514    22.878545    19.128442    7890.7103    9653.3068    9006.5759     10768.64   -613.32726   -830.93815    651.97933   -3199.8239 
 9966000    266.91107    -4813.227   -4279.3719    -4813.227            0    9604.9554    17.788772    22.933644    19.381262    7906.8059    9001.4008    10198.085    9615.3799    -518.6011   -1086.2337   -1242.3649    -3171.799 
 9967000    253.94764   -4824.4762   -4316.5496   -4824.4762            0    8074.2786    17.989861    23.040407    19.125538    7927.4154    6509.0723    7317.8543    10395.909   -1194.4228   -780.60082   -495.16288   -3383.0562 
 9968000    280.68412   -4820.6994   -4259.2965   -4820.6994            0    9432.8249    17.961003    22.973472    19.200318    7922.5618    9487.4337    9256.6686    9554.3725   -71.771897    452.36367    579.19848   -3169.4049 
 9969000      263.286   -4812.6305    -4286.026   -4812.6305            0    9279.1228    17.813975    23.141526     19.26107    7940.2331    9589.5219    8972.7235     9275.123   -2016.7826    703.93786   -130.18178   -3211.5021 
 9970000    257.98835   -4824.9317   -4308.9231   -4824.9317            0     10050.14    17.732483    23.117376    19.142647     7847.116     9999.256    10698.367    9452.7961    2390.5132    126.80507    1202.0023   -3158.7637 
 9971000    266.42449    -4809.327   -4276.4451    -4809.327            0    9215.3827    17.811922    23.348554    18.948352    7880.2901    9610.0822    7578.9949    10457.071    519.22009   -1009.1641    11.900809   -3217.3585 
 9972000    237.77094   -4797.9356   -4322.3643   -4797.9356            0    11022.694    17.730374    23.055372    19.353511    7911.3349    12393.925    9435.0173     11239.14    109.87071   -1392.4442   -312.07039   -3050.5801 
 9973000    252.43321    -4814.022   -4309.1244    -4814.022            0    11442.764    17.912126     22.96015    19.072474     7843.843    11087.269    11378.871    11862.153    1566.3337      770.926   -1633.8636   -3000.1361 
 9974000    255.77397   -4790.9055   -4279.3259   -4790.9055            0    9542.2555    17.972049    22.986833     19.14409    7908.8159     6692.694    10906.713     11027.36    1303.0672    410.87622    963.38358   -3178.7034 
 9975000    271.00557   -4845.6464   -4303.6018   -4845.6464            0    10565.662    17.925578    22.877621    19.217812    7881.1207    10789.922    11270.719    9636.3451   -934.40951    439.63829   -250.77655   -3089.2051 
 9976000    263.81515   -4799.1447   -4271.4818   -4799.1447            0    11359.725    17.754156    22.904402     19.31694    7855.2014    10390.053    11950.191     11738.93    -456.1108    1011.5787   -960.62575   -2970.1111 
 9977000    274.11211   -4767.4086   -4219.1505   -4767.4086            0    8158.6053    17.989889    23.015233    19.284788    7984.7022     9581.028    7624.4724    7270.3153    722.05299    784.64079    461.04095   -3269.0916 
 9978000    266.56736   -4783.0222   -4249.8546   -4783.0222            0    10901.558    17.899146    22.765605    19.327781    7875.7789    10384.476    11615.342    10704.855    146.52179   -228.95217   -2684.2025      -2997.7 
 9979000    268.44236   -4796.6514   -4259.7335   -4796.6514            0    10704.667    17.982941    22.920765    19.207214    7916.8828    11611.385    9128.4426    11374.172    1113.0096   -522.64165   -124.36149   -3023.7769 
 9980000    268.98855   -4767.9277   -4229.9173   -4767.9277            0     10146.17    17.969064    22.897294    19.283089    7933.8907    10244.918    9521.4015    10672.191    1411.8861    1557.9347    -478.5289   -3055.9277 
 9981000      269.928   -4790.8299   -4250.9406   -4790.8299            0      9314.36    17.954346    23.070857    19.169724    7940.5243    9692.6947    8243.2198    10007.165    1822.6475   -976.12821   -1457.7455   -3172.2967 
 9982000    265.94974   -4792.1081   -4260.1757   -4792.1081            0    10237.085    17.533488     23.16645    19.358617    7863.2507    13025.777    10001.401    7684.0751      -319.97   -1126.6146   -2097.2443    -3086.213 
 9983000    257.33023   -4804.6202    -4289.928   -4804.6202            0    10079.369    17.927419    22.965241    19.121886    7872.6238    9771.5128    9341.7104    11124.883    1009.1103   -652.63771    1264.3411   -3132.6739 
 9984000    270.06159   -4803.1788   -4263.0223   -4803.1788            0    9052.6936    17.942686    22.926886    19.338104    7955.1139    9839.0946    8935.7933    8383.1928    683.91668    561.70784   -729.21592   -3212.7543 
 9985000    259.68139   -4823.1831   -4303.7883   -4823.1831            0    9178.9349    17.951448    23.175826    19.004337    7906.5572    10498.288    8149.5788    8888.9382   -1979.4988   -26.921738    14.636459   -3245.3742 
 9986000     265.1808    -4821.945   -4291.5506    -4821.945            0    6858.3185    17.781134     23.11986    19.398033    7974.4797     7790.233    6988.8087    5795.9137   -121.83438   -666.62267    270.32936   -3493.9309 
 9987000    256.99738   -4799.8028   -4285.7763   -4799.8028            0    9572.7497    17.729067    23.268506    19.109254    7883.1196    9758.9919    8180.7082    10778.549    497.09617   -176.87121    1839.8239    -3185.224 
 9988000    270.04854   -4803.9052   -4263.7747   -4803.9052            0    8694.7779    17.903851     23.08437    19.214692    7941.4153    9391.6819     7829.924    8862.7279     1147.172    1196.6201   -112.59704   -3256.7682 
 9989000    258.82289   -4789.4852   -4271.8075   -4789.4852            0    11135.022    17.983547    22.820975    19.185577    7873.8008      10453.2    10785.998    12165.868    1107.6363    2018.4505    1186.9001   -2993.1583 
 9990000    271.06712   -4798.9257    -4256.758   -4798.9257            0    9282.2745    17.815141    22.980951     19.30955     7905.501    10879.482    9432.0513      7535.29   -737.89743    -464.3307    1006.6886   -3186.5709 
 9991000    260.31511   -4808.4319   -4287.7695   -4808.4319            0    9345.2324    17.777447     23.22277    19.092499    7882.1769    9535.4932    8425.8912    10074.313    634.24402   -1713.8548    1268.6069   -3213.5027 
 9992000    257.70399   -4801.7958    -4286.356   -4801.7958            0    10062.837    17.864347    22.871375    19.246628     7863.829    8497.6408    11024.976    10665.895    1035.0558   -230.71434    1223.9351   -3132.2907 
 9993000     269.6873   -4782.2786   -4242.8707   -4782.2786            0    9875.7277    17.889081     22.96077    19.318103    7934.8541    10940.839    9446.0843    9240.2595    361.00533    795.83991    727.75631   -3100.0346 
 9994000    264.91423   -4778.8262    -4248.965   -4778.8262            0    9626.1245    17.909729    22.933617    19.238936    7902.1019    8666.0751    10711.454    9500.8442    864.50095    115.28282   -165.43565   -3139.6114 
 9995000    280.67343   -4790.7612   -4229.3797   -4790.7612            0    9548.0958    17.712345    23.282927    19.160304     7901.618    9957.2422    8610.3062    10076.739    360.76933   -461.54442   -921.31339   -3129.0858 
 9996000    260.09009   -4802.3972   -4282.1849   -4802.3972            0     8409.729    17.762145    23.247639    19.186333     7922.573    8457.0182    7804.4089    8967.7599   -401.27795   -555.24168   -705.99816    -3310.503 
 9997000      264.176   -4807.8521   -4279.4675   -4807.8521            0    9915.2309    17.892468    22.959974    19.207163     7890.506    9134.8665    10444.634    10166.192    694.81054    1275.0038     143.6016   -3138.4729 
 9998000    277.28766   -4799.7341   -4245.1245   -4799.7341            0     10142.65    17.839332    23.107048    19.163528    7899.4805    9715.3504    9667.1123    11045.488    896.55954    -804.8263    155.97541   -3076.6321 
 9999000    261.73272   -4817.4731   -4293.9753   -4817.4731            0    8737.9905    17.851729    22.969036    19.363253    7939.6505    7985.4726    9530.2572    8698.2418    946.12248      840.178    222.56105   -3282.1889 
10000000    263.26158   -4773.5166   -4246.9609   -4773.5166            0    7108.6398    17.940531    22.931463    19.433563    7995.0185    9173.3983    6713.5029    5439.0181   -748.49526   -1185.9624   -1655.1673   -3418.0996 
Loop time of 560.241 on 64 procs for 250000 steps with 1008 atoms

Performance: 77.110 ns/day, 0.311 hours/ns, 446.237 timesteps/s
99.2% CPU use with 64 MPI tasks x 1 OpenMP threads

MPI task timing breakdown:
Section |  min time  |  avg time  |  max time  |%varavg| %total
---------------------------------------------------------------
Pair    | 28.799     | 32.549     | 37.033     |  33.2 |  5.81
Bond    | 0.28747    | 0.29585    | 0.31109    |   1.0 |  0.05
Kspace  | 260.54     | 272.61     | 285.18     |  36.7 | 48.66
Neigh   | 4.4603     | 5.3938     | 6.5958     |  24.2 |  0.96
Comm    | 104.74     | 118.94     | 131.2      |  59.5 | 21.23
Output  | 0.82226    | 0.82297    | 0.82882    |   0.1 |  0.15
Modify  | 119.91     | 123.12     | 126.18     |  14.1 | 21.98
Other   |            | 6.511      |            |       |  1.16

Nlocal:        15.7500 ave          20 max          12 min
Histogram: 3 6 8 14 0 12 8 5 6 2
Nghost:        2491.08 ave        2524 max        2461 min
Histogram: 3 2 7 15 8 11 8 5 4 1
Neighs:        5226.25 ave        6653 max        3968 min
Histogram: 4 5 8 14 7 7 6 5 6 2

Total # of neighbors = 334480
Ave neighs/atom = 331.82540
Ave special neighs/atom = 2.0000000
Neighbor list builds = 10041
Dangerous builds = 0

unfix		3
unfix		2
unfix		1

write_data	data.final.${pid}
write_data	data.final.0
System init for write_data ...
PPPM initialization ...
  extracting TIP4P info from pair style
  using 12-bit tables for long-range coulomb (../kspace.cpp:340)
  G vector (1/distance) = 0.37940075
  grid = 24 27 32
  stencil order = 5
  estimated absolute RMS force accuracy = 0.0024214984
  estimated relative force accuracy = 7.2922706e-06
  using double precision FFTW3
  3d grid and FFT values/proc = 3825 384
Last active /omp style is kspace_style pppm/tip4p/omp
WARNING: Not all mixed pair coeffs generated from mixing. Use write_data with 'pair ij' option to store all pair coeffs. (../write_data.cpp:312)

write_restart   restart.lmp.${pid}
write_restart   restart.lmp.0
System init for write_restart ...
PPPM initialization ...
  extracting TIP4P info from pair style
  using 12-bit tables for long-range coulomb (../kspace.cpp:340)
  G vector (1/distance) = 0.37940075
  grid = 24 27 32
  stencil order = 5
  estimated absolute RMS force accuracy = 0.0024214984
  estimated relative force accuracy = 7.2922706e-06
  using double precision FFTW3
  3d grid and FFT values/proc = 3825 384
Last active /omp style is kspace_style pppm/tip4p/omp
Total wall time: 0:09:21
