LAMMPS data file via write_data, version 30 Jul 2021, timestep = 5000000

972 atoms
2 atom types
648 bonds
1 bond types
324 angles
1 angle types

-0.11757761994647176 20.117578619941295 xlo xhi
-0.11444701224857745 20.114448012254858 ylo yhi
-0.03976541814641621 20.739763418141642 zlo zhi

Masses

1 1.008
2 15.999

Pair Coeffs # lj/cut/tip4p/long/omp

1 0 0
2 0.21084 3.1668

Bond Coeffs # harmonic/omp

1 450 0.9572

Angle Coeffs # harmonic/omp

1 55 104.52

Atoms # full

5 2 1 0.5897 4.1266717712310115 0.4524060698336305 2.935255522108249 0 0 0
33 11 1 0.5897 1.4182592184730396 1.9948826087532998 0.8527947675457644 0 0 0
19 7 2 -1.1794 0.45360017845629796 6.184816493235964 1.7163054541493932 0 0 0
11 4 1 0.5897 1.0973752487578223 3.172135721891625 2.6256575925577077 0 0 0
18 6 1 0.5897 4.014482633335974 2.6431153250765034 3.5731573729399577 0 0 0
126 42 1 0.5897 3.9749944200561407 9.532523570814837 3.1947473183140254 0 0 0
16 6 2 -1.1794 4.05239342585354 3.599595980859643 3.5656457460632134 0 0 0
10 4 2 -1.1794 1.1747716364795873 4.003170803620092 3.0943643771154736 0 0 0
12 4 1 0.5897 2.1077953516923382 4.080310486609718 3.2936569611665916 0 0 0
17 6 1 0.5897 4.428533220616124 3.8182137249447226 2.713106961863116 0 0 0
236 79 1 0.5897 1.0633331663715981 0.04514905226040408 1.7513628936949783 0 1 0
31 11 2 -1.1794 0.8882235690819222 1.7930689430343674 1.6238114970141708 0 0 0
23 8 1 0.5897 2.829272537937723 0.29000102281810625 4.681003810615874 0 0 0
111 37 1 0.5897 1.8635256969987903 8.963182410745814 0.8987574273430675 0 0 0
132 44 1 0.5897 0.7681809656831877 7.232293964003164 4.9560582400283755 0 0 0
139 47 2 -1.1794 0.6764466403060025 8.910295123231965 2.161916005559662 0 0 0
13 5 2 -1.1794 4.770844714739769 5.688798033445872 1.5559630048848268 0 0 0
114 38 1 0.5897 3.183627797067311 7.402099171440704 3.9386824064602255 0 0 0
6 2 1 0.5897 4.8535373222149625 0.6271293653981501 4.251603535963616 0 0 0
4 2 2 -1.1794 4.13745275610989 0.9876838073599175 3.7286900580846996 0 0 0
110 37 1 0.5897 3.3158431508422073 9.211008024057492 0.5505312521509738 0 0 0
112 38 2 -1.1794 3.8823940320291133 7.749919787873243 3.3846790233669917 0 0 0
20 7 1 0.5897 0.6710346641103268 5.372927922660303 2.1743974491658 0 0 0
14 5 1 0.5897 4.134860601350534 5.75328472360912 0.8435584778436594 0 0 0
141 47 1 0.5897 0.5688797347455654 7.990852796837567 2.4056234535627583 0 0 0
15 5 1 0.5897 4.419021812774802 6.254152138641884 2.243561251764342 0 0 0
140 47 1 0.5897 0.7954955384610289 9.36702152337379 2.9945859697405868 0 0 0
674 225 1 0.5897 1.9432516368034563 5.985229145420197 0.29035028931758644 0 0 1
32 11 1 0.5897 0.006344613323707185 1.6531731387427226 1.2789463271636388 0 0 0
113 38 1 0.5897 4.682668192764611 7.608023872906088 3.890250186020637 0 0 0
81 27 1 0.5897 0.06909921741688516 3.9972386803503204 4.469086997963959 1 0 0
130 44 2 -1.1794 1.7171018641535913 7.130807655561007 5.0301830229323325 0 0 0
109 37 2 -1.1794 2.4576911972799427 9.059433732567014 0.15454198774803785 0 0 0
3 1 1 0.5897 3.5198008850306572 2.541746604705642 0.23102047234269563 0 0 0
325 109 2 -1.1794 2.491569488444127 2.2891119120223418 7.404764367955126 0 0 0
326 109 1 0.5897 2.4751129715791924 1.6568478235925301 6.686334405079567 0 0 0
327 109 1 0.5897 3.402401902741604 2.2942980492976623 7.699009706051188 0 0 0
356 119 1 0.5897 1.1891336444109921 1.8801262097707716 8.604606963812989 0 0 0
131 44 1 0.5897 1.833752051236542 6.410331423517398 5.649483622477996 0 0 0
344 115 1 0.5897 0.639728919345964 5.062953842231115 9.49415579675528 0 0 0
339 113 1 0.5897 3.7730662156826598 5.186544979156288 7.628941837435722 0 0 0
330 110 1 0.5897 4.447848413827 0.4803862939129754 10.04921958103288 0 0 0
435 145 1 0.5897 2.116218423102971 8.24833203231793 6.3191500984716695 0 0 0
438 146 1 0.5897 3.951724955696557 8.668693684456837 9.846435546171097 0 0 0
27 9 1 0.5897 2.0318168191949013 4.037590839450607 6.785860275318225 0 0 0
468 156 1 0.5897 4.374168007715444 9.13797627670561 7.289969852674035 0 0 0
337 113 2 -1.1794 4.433793994625702 5.391207366938695 8.290542986247837 0 0 0
25 9 2 -1.1794 1.993492376475014 4.99317422395529 6.827298208140788 0 0 0
343 115 2 -1.1794 0.1562160170457404 5.503928877709496 8.795646940269314 0 0 0
26 9 1 0.5897 1.2235169630388958 5.17940289538405 7.364530019640181 0 0 0
437 146 1 0.5897 4.479120318055881 7.2722694385572115 9.593410510324961 0 0 0
443 148 1 0.5897 0.8604478747752637 9.876603717878268 10.237097121527771 0 0 0
464 155 1 0.5897 1.3453778133630845 8.477131030926483 8.207469931087903 0 0 0
345 115 1 0.5897 0.2924124459865194 6.436852747459147 8.9613435506057 0 0 0
436 146 2 -1.1794 4.210251156255982 7.864114458760087 10.295991208675503 0 0 0
355 119 2 -1.1794 0.4864823117426892 1.5527046064064634 9.166105984382925 0 0 0
463 155 2 -1.1794 0.6612883500187433 8.314648175908157 8.856915668340605 0 0 0
433 145 2 -1.1794 2.470997431159125 8.860657085302405 6.9636657675009515 0 0 0
342 114 1 0.5897 4.283891502017727 4.306558321358814 10.073361881872525 0 0 0
434 145 1 0.5897 2.5173143764961625 9.696957580734253 6.500244117810492 0 0 0
102 34 1 0.5897 0.46181603108922753 0.3157379187280124 5.266891867522836 1 0 0
335 112 1 0.5897 1.205150680029022 3.052542676719366 10.322737781740143 0 0 0
22 8 2 -1.1794 2.228505540700715 0.16307151845845957 5.415244134179737 0 0 0
561 187 1 0.5897 0.8124659077026836 -0.10999523297076053 8.928892811644463 0 1 0
649 217 2 -1.1794 2.8779287752629403 2.346229062229671 13.549593781545616 0 0 0
650 217 1 0.5897 2.3194866902915736 2.0436001401630226 12.833570374236459 0 0 0
346 116 2 -1.1794 1.5948046300291592 0.5388108116866243 11.631044793823438 0 0 0
340 114 2 -1.1794 4.086572361483096 3.943899986115948 10.936887807165306 0 0 0
668 223 1 0.5897 1.2056325394019076 5.704866116958034 14.569626761117249 0 0 0
405 135 1 0.5897 -0.10396663373592442 4.247487097063941 11.994924502960846 1 0 0
348 116 1 0.5897 2.194253895272834 0.6547861939235252 10.893917348346907 0 0 0
757 253 2 -1.1794 2.8770841322314165 9.114456070619283 14.276015287840353 0 0 0
350 117 1 0.5897 2.83853644455235 4.241479336256976 13.320575494266684 0 0 0
329 110 1 0.5897 4.814010549775269 0.8422504976743085 11.472786193909728 0 0 0
347 116 1 0.5897 0.7277006347665095 0.7130504360888166 11.265001971770443 0 0 0
683 228 1 0.5897 4.5320930164982345 2.7190224726913765 14.092921146144594 0 0 0
456 152 1 0.5897 2.595589047447413 6.643015786227268 12.407077914591847 0 0 0
759 253 1 0.5897 2.9884348290028 8.372386163966397 13.681718742331881 0 0 0
454 152 2 -1.1794 2.2521592874479497 7.502330472786402 12.162262429530006 0 0 0
455 152 1 0.5897 2.82256284839146 7.795146919144925 11.45159226348797 0 0 0
651 217 1 0.5897 2.2719517327879792 2.518285561928387 14.270223874170387 0 0 0
351 117 1 0.5897 3.3972378634890927 5.34357120931634 14.195335312345305 0 0 0
349 117 2 -1.1794 2.724301527810879 5.166685552885469 13.53803272593712 0 0 0
792 264 1 0.5897 4.67914852722541 9.659358763271388 14.680363214812592 0 0 0
334 112 2 -1.1794 1.358534978659719 3.8714404701622898 10.794089540203746 0 0 0
336 112 1 0.5897 2.293484830672652 3.8589220174622816 10.998917664298045 0 0 0
667 223 2 -1.1794 0.6801295180565957 5.953942946278048 15.32984939496768 0 0 0
533 178 1 0.5897 0.2228472219832197 7.426385668581789 11.902511291644746 1 0 0
758 253 1 0.5897 2.7197828990302253 9.862262279515054 13.699555121428036 0 0 0
789 263 1 0.5897 1.3080766487490174 9.000078855682004 15.060680018616388 0 0 0
680 227 1 0.5897 0.12914363008610935 2.4606030354719417 15.311713793417375 0 0 0
341 114 1 0.5897 4.317056618697061 3.017493818137769 10.866557971091577 0 0 0
328 110 2 -1.1794 4.359039724167304 1.1767092634279608 10.699941886792477 0 0 0
669 223 1 0.5897 0.9546274443186287 6.849242255654854 15.528432562574324 0 0 0
661 221 2 -1.1794 4.921091478090029 5.693636777394097 15.454689232468597 0 0 0
665 222 1 0.5897 3.02523317253271 4.2470192840038985 17.469262594353417 0 0 0
653 218 1 0.5897 3.2758832127018915 0.9250536017917546 17.602894504916257 0 0 0
664 222 2 -1.1794 3.91540563750708 3.94638912130943 17.286314111944723 0 0 0
671 224 1 0.5897 2.1792048937647572 1.0615377925853304 19.440591379446502 0 0 0
760 254 2 -1.1794 4.486711805396929 8.0455952022552 17.377411569157353 0 0 0
666 222 1 0.5897 3.8299350068371005 3.0001221497264874 17.169563311625613 0 0 0
654 218 1 0.5897 4.26886137371122 0.47862356408773343 16.551010883891006 0 0 0
658 220 2 -1.1794 1.2582294717208538 4.308492753406683 17.642915961559282 0 0 0
670 224 2 -1.1794 1.9719803681496875 0.411794108564431 18.768939037619305 0 0 0
788 263 1 0.5897 0.8029123430737831 9.286406377832451 16.458681447953413 0 0 0
660 220 1 0.5897 0.8425041602272001 4.987738821850313 17.111826022161814 0 0 0
659 220 1 0.5897 0.6266303174663388 4.128170155441331 18.33914528789428 0 0 0
662 221 1 0.5897 4.634452643952308 4.981465313308239 16.026447351149642 0 0 0
787 263 2 -1.1794 0.6189709339853607 8.760582784191497 15.68032250373271 0 0 0
652 218 2 -1.1794 4.050609684064445 1.2155367658790397 17.12160550024676 0 0 0
884 295 1 0.5897 0.38898314716408533 0.2552215090358073 15.745678144263255 0 1 0
761 254 1 0.5897 4.458754971493973 8.998719601719372 17.461830027148096 0 0 0
672 224 1 0.5897 1.0443954081593776 0.5512787133101246 18.578219326289897 0 0 0
778 260 2 -1.1794 1.977601907743057 7.539118789319497 18.407265026435198 0 0 0
681 227 1 0.5897 1.028066687524749 2.7995408302602427 16.481645455840493 0 0 0
675 225 1 0.5897 2.636850837969908 6.123993134800976 19.73149700551852 0 0 0
779 260 1 0.5897 2.1653087889069877 7.993920203590719 19.228281301504502 0 0 0
780 260 1 0.5897 2.7849400923159715 7.618176918473662 17.89917508027321 0 0 0
679 227 2 -1.1794 0.8290676756736687 2.1018618355983563 15.857255089878478 0 0 0
2 1 1 0.5897 2.5360166220228497 3.329416613438709 20.171794254013925 0 0 -1
858 286 1 0.5897 0.03928609426634522 7.440164470304946 18.85272405977034 1 0 0
673 225 2 -1.1794 2.6718717465681263 5.637988622862136 20.555350199707796 0 0 0
1 1 2 -1.1794 2.717176427551374 2.447757377203236 20.49763799224103 0 0 -1
120 40 1 0.5897 0.9571755391265646 11.713938049972159 3.506057118844717 0 0 0
129 43 1 0.5897 0.5744343047140312 13.680889104619427 2.333283093657963 0 0 0
221 74 1 0.5897 4.186263719173621 15.081465140690437 3.110006872349906 0 0 0
119 40 1 0.5897 2.1618122006902136 11.080276526726369 4.168761339310699 0 0 0
220 74 2 -1.1794 4.253191894577394 14.176426717581885 3.414570892802961 0 0 0
118 40 2 -1.1794 1.2228662674884252 10.957503217471434 4.028998881711254 0 0 0
240 80 1 0.5897 2.614132018270247 13.940346035594992 4.448908832273027 0 0 0
229 77 2 -1.1794 4.4776056827176225 19.298247889003115 1.609746639948209 0 0 0
890 297 1 0.5897 1.983519682406126 18.720574646062744 0.47098868803202676 0 0 1
238 80 2 -1.1794 1.8329082930636345 13.926829423208472 5.001787893129454 0 0 0
230 77 1 0.5897 4.037706926811253 19.09988241864456 0.7831513091859885 0 0 0
233 78 1 0.5897 4.447286485035948 17.900490831041353 2.591925275877026 0 0 0
125 42 1 0.5897 4.6551180966921795 10.617919193035958 4.001742442686165 0 0 0
127 43 2 -1.1794 0.39256316928663404 12.765972935423502 2.118377971734392 0 0 0
232 78 2 -1.1794 4.248096482372836 17.05994702569747 3.0043833231651482 0 0 0
249 83 1 0.5897 1.4238395494760778 15.498933425417654 1.5298950043453488 0 0 0
247 83 2 -1.1794 0.7743497040748024 15.433158635321432 2.2298933667524166 0 0 0
783 261 1 0.5897 1.338390956292979 12.38314124792478 0.710315704647241 0 0 1
222 74 1 0.5897 4.685460380116826 13.713053214991438 2.6972072772985918 0 0 0
248 83 1 0.5897 1.0312536351013502 16.10673039988133 2.8596072897073737 0 0 0
235 79 2 -1.1794 0.8823155850276122 19.335804546091083 1.808671547213577 0 0 0
228 76 1 0.5897 0.9015972828814649 17.52629064156421 4.482781486952386 0 0 0
234 78 1 0.5897 3.385725974866542 17.185333904651998 3.4003050948550944 0 0 0
124 42 2 -1.1794 3.9729550580480604 10.477902782598857 3.3450935806346216 0 0 0
226 76 2 -1.1794 1.6767152473686646 17.608606949836016 3.927276293112882 0 0 0
227 76 1 0.5897 1.3816258603781715 18.127414248740408 3.1789837566964003 0 0 0
122 41 1 0.5897 4.0214299736255015 11.76150826249732 2.113646092562145 0 0 0
121 41 2 -1.1794 4.39224779595101 12.288491913976662 1.4058763518653106 0 0 0
123 41 1 0.5897 3.761285697420453 12.207641567589576 0.6906917945138076 0 0 0
219 73 1 0.5897 3.4233299838326077 15.75521518698126 0.2877690248606961 0 0 0
237 79 1 0.5897 -0.06352014924915572 19.265538659719404 1.6794257423406658 0 0 0
217 73 2 -1.1794 2.5039361844157 15.958583335621006 0.1157352442500175 0 0 0
133 45 2 -1.1794 2.519794071770036 11.744087815223883 6.742364388194882 0 0 0
134 45 1 0.5897 1.7836580228816445 11.978599077740162 7.3074337696212135 0 0 0
135 45 1 0.5897 3.2951207534876517 11.896212159801276 7.282639039779503 0 0 0
576 192 1 0.5897 4.524152212399173 15.780532073256904 7.372427020781646 0 0 0
445 149 2 -1.1794 4.6228468389997985 12.827440091881396 8.20633000960047 0 0 0
24 8 1 0.5897 2.5820853249664557 19.63782942775196 5.886988747962893 0 -1 0
559 187 2 -1.1794 0.8182700491254358 19.174724794726394 8.771243081243469 0 0 0
544 182 2 -1.1794 4.251417676164442 14.852547063043662 10.179039032916807 0 0 0
446 149 1 0.5897 4.440119747727092 13.647668554939957 8.664732527831104 0 0 0
450 150 1 0.5897 4.1556858291904115 11.50424266668031 9.389516577796863 0 0 0
573 191 1 0.5897 1.4047203136905762 14.27014475063027 9.252117890119731 0 0 0
543 181 1 0.5897 2.435885572651924 15.082579533070588 6.3884447513820835 0 0 0
451 151 2 -1.1794 0.6512392787656767 12.412905539194028 8.708054447468228 0 0 0
571 191 2 -1.1794 1.1809121269806662 15.198527381007821 9.186092599919117 0 0 0
239 80 1 0.5897 1.9521166791166058 13.163542222235339 5.566968884185805 0 0 0
243 81 1 0.5897 2.110240163407566 18.647803526623917 7.891282172939434 0 0 0
453 151 1 0.5897 0.778135734682859 11.792920810782274 9.426195023953337 0 0 0
241 81 2 -1.1794 2.905011140650568 18.400534124067192 7.4186183181535 0 0 0
242 81 1 0.5897 2.735440719029316 17.509082543695605 7.113831135308303 0 0 0
541 181 2 -1.1794 2.7189913946661313 15.803154192656208 6.951367195714956 0 0 0
542 181 1 0.5897 2.262540325732801 15.654305932251633 7.779388928575393 0 0 0
555 185 1 0.5897 4.330877828499193 19.123250430054227 8.263525793826279 0 0 0
572 191 1 0.5897 1.2215611357845053 15.519895554186759 10.086741815723181 0 0 0
551 184 1 0.5897 0.8473507306937168 18.285195623330807 10.268711207925692 0 0 0
558 186 1 0.5897 4.244503390962394 18.193586613329472 10.065033985850592 0 0 0
448 150 2 -1.1794 3.947796390081834 10.820444075578441 10.026257221715372 0 0 0
560 187 1 0.5897 -0.045742734343953234 18.987333622719333 8.404425224583848 0 0 0
553 185 2 -1.1794 4.888727288695662 19.3699056068654 9.001162880677512 0 0 0
457 153 2 -1.1794 2.5490836154343692 11.725201911591727 13.240212270967909 0 0 0
458 153 1 0.5897 1.73449488039075 11.854651828455177 13.725900135475325 0 0 0
459 153 1 0.5897 3.237552848321949 11.983429167067499 13.853007318298998 0 0 0
562 188 2 -1.1794 2.115262329144701 14.040748425127886 11.862471025077983 0 0 0
563 188 1 0.5897 2.4344062433555376 13.246518808031498 12.290965916581664 0 0 0
449 150 1 0.5897 4.615522894601874 10.914215120164405 10.705608027018036 0 0 0
885 295 1 0.5897 0.9706068304614532 19.374837986331954 14.895312261860555 0 0 0
564 188 1 0.5897 2.229057980059738 14.729300424995504 12.517565381736027 0 0 0
642 214 1 0.5897 0.06278026963994346 14.108799873896944 11.912171610224707 1 0 0
769 257 2 -1.1794 4.475695139754162 12.510481588584584 15.22663459535654 0 0 0
444 148 1 0.5897 2.04235797584452 10.760904750069393 10.573425368716489 0 0 0
567 189 1 0.5897 2.0545100533606004 19.39845530897923 12.895900338122601 0 0 0
556 186 2 -1.1794 3.8354686603188233 17.67445879011565 10.75740544737876 0 0 0
545 182 1 0.5897 3.4982841606566804 14.602929698779317 10.714472397823302 0 0 0
879 293 1 0.5897 3.771382084681944 19.102942740505824 14.906284337809224 0 0 0
552 184 1 0.5897 1.9960606386401554 17.515604133770637 10.885267705889898 0 0 0
867 289 1 0.5897 1.734490518850931 15.952818795851615 14.194970586148642 0 0 0
866 289 1 0.5897 3.229363934575051 16.056678538843165 13.97943740381691 0 0 0
865 289 2 -1.1794 2.394674491355845 16.064737951914438 13.511016148018467 0 0 0
565 189 2 -1.1794 2.3494836627731672 18.995873975734767 13.712633096379614 0 0 0
566 189 1 0.5897 2.360600968382184 18.056837029117638 13.527086756237304 0 0 0
557 186 1 0.5897 4.0676708079137605 16.769678791099736 10.548121756618361 0 0 0
442 148 2 -1.1794 1.1028288239609345 10.662075433643537 10.727578336881376 0 0 0
550 184 2 -1.1794 1.0422646931333395 17.594557782106826 10.90215861659772 0 0 0
775 259 2 -1.1794 0.74341159897482 12.643698659492735 15.32696445225962 0 0 0
895 299 2 -1.1794 0.5458718884839506 15.357663725853172 15.476072724681114 0 0 0
777 259 1 0.5897 0.7872603695750575 13.595243640974218 15.421793006179929 0 0 0
768 256 1 0.5897 1.1057339788868272 11.559418585161206 16.79416094323286 0 0 0
772 258 2 -1.1794 3.9102407540406965 10.802103020450147 17.45458068318685 0 0 0
888 296 1 0.5897 1.9008062881758914 13.340392065896173 19.435802991007492 0 0 0
766 256 2 -1.1794 1.1462362433385218 10.875727604578435 17.46284543794164 0 0 0
886 296 2 -1.1794 1.813829889417848 14.148088716930825 18.9295150228237 0 0 0
773 258 1 0.5897 2.962300689274908 10.793353374888614 17.587085036332304 0 0 0
869 290 1 0.5897 3.00977404854952 14.361004935304148 17.72239801100705 0 0 0
774 258 1 0.5897 4.028035403625214 11.194432421055263 16.58952229672502 0 0 0
875 292 1 0.5897 0.2516053921944199 17.570991297350062 18.147256261291172 0 0 0
767 256 1 0.5897 0.6106556303428501 11.211238045439554 18.181679851446482 0 0 0
868 290 2 -1.1794 3.735136742324208 14.559077575637426 17.13011478677467 0 0 0
897 299 1 0.5897 0.7080124271001376 15.895959146019047 16.250725411080204 0 0 0
876 292 1 0.5897 0.7988070121086895 18.21311063322306 16.890317386971997 0 0 0
870 290 1 0.5897 4.520248657856265 14.327435125612615 17.62624100092783 0 0 0
873 291 1 0.5897 4.806459298970483 17.580663139016444 18.986256684104294 0 0 0
887 296 1 0.5897 2.1251214685193096 14.835386461484157 19.51854566039677 0 0 0
889 297 2 -1.1794 2.618807998261171 18.649993737504794 20.53806797388492 0 0 0
880 294 2 -1.1794 3.8508235049870074 17.272190275334978 17.441954672611423 0 0 0
881 294 1 0.5897 2.9186367323351834 17.456832070288996 17.556758282061054 0 0 0
782 261 1 0.5897 1.637405150033852 11.221601594149542 20.566064875851257 0 0 0
874 292 2 -1.1794 0.9944407236270061 17.542128683577836 17.544318311993212 0 0 0
882 294 1 0.5897 3.887420930916205 16.336590183656533 17.242827566739457 0 0 0
891 297 1 0.5897 2.2991587464980148 19.257041643759543 19.870588362840657 0 0 0
771 257 1 0.5897 4.16703619865048 13.25624497062471 15.741258291386146 0 0 0
965 322 1 0.5897 0.10496005923023113 13.97375383238806 18.963336180375283 1 0 0
878 293 1 0.5897 4.315766553276366 18.41210684373047 16.138397664494715 0 0 0
781 261 2 -1.1794 1.8518032977714705 12.141943173806661 20.718891442869882 0 0 0
218 73 1 0.5897 2.504637809012357 16.883862006317244 20.649900002019475 0 0 -1
877 293 2 -1.1794 4.44927305850344 19.176562722783586 15.577994266258395 0 0 0
764 255 1 0.5897 4.919721780070316 11.118660598315813 18.840034901537756 0 0 0
883 295 2 -1.1794 0.33828255265034884 19.54022376652238 15.594550612260125 0 0 0
9 3 1 0.5897 5.130551466207343 3.9600476393212736 4.7796706861398714 0 0 0
48 16 1 0.5897 7.18849475940068 4.145014999107471 4.501366909051417 0 0 0
46 16 2 -1.1794 7.846493559597149 4.1267390101768235 3.8064838064124986 0 0 0
47 16 1 0.5897 7.69071781994894 3.299805024798561 3.350215577975348 0 0 0
67 23 2 -1.1794 7.518500696498447 1.9627327043639777 2.231085625692083 0 0 0
68 23 1 0.5897 8.243469318598137 1.9176968837911965 1.6077311446659877 0 0 0
69 23 1 0.5897 6.748673984711762 2.1424781222986837 1.6913992104618336 0 0 0
53 18 1 0.5897 9.82944052357522 4.427393554493752 3.683024819405553 0 0 0
145 49 2 -1.1794 9.420486373386574 9.126620046952569 -0.029298241494811646 0 0 0
55 19 2 -1.1794 7.586883562815098 5.90689943499088 1.653684724661984 0 0 0
176 59 1 0.5897 7.315032312921201 7.877220422680305 1.8885264084960347 0 0 0
57 19 1 0.5897 7.7324259407515745 5.3857826946494045 2.443257360152346 0 0 0
143 48 1 0.5897 5.944357286498947 9.264614588327085 1.0835425950276554 0 0 0
711 237 1 0.5897 8.662764076049672 5.187393290879334 0.2808419943870773 0 0 1
175 59 2 -1.1794 7.448590118489409 8.823891336726655 1.8401454282394583 0 0 0
166 56 2 -1.1794 8.50216876623132 7.722772994550435 5.103273868315756 0 0 0
56 19 1 0.5897 6.637322591409229 5.900353878083652 1.5334475309853177 0 0 0
177 59 1 0.5897 8.190308483522712 8.931492898451703 1.2448091509312285 0 0 0
41 14 1 0.5897 9.782395529476565 1.1027259042692585 3.8013498972834574 0 0 0
34 12 2 -1.1794 5.255414312539503 2.541501920587305 0.343488065623797 0 0 0
142 48 2 -1.1794 5.268245849939718 9.30305531350601 0.40711473654842945 0 0 0
149 50 1 0.5897 9.737829715530795 7.797644896668611 3.904496379249284 0 0 0
37 13 2 -1.1794 9.455362582393603 2.140300161813721 0.13664779427469748 0 0 0
273 91 1 0.5897 7.33573621547837 0.22861263370741752 2.100176330246421 0 1 0
58 20 2 -1.1794 8.322585815005086 0.681881082948809 5.0494984823823 0 0 0
138 46 1 0.5897 6.638662541074972 7.340980782465749 5.133263867952195 0 0 0
155 52 1 0.5897 7.810262359419051 9.965967176726812 3.1497724800562863 0 0 0
144 48 1 0.5897 5.324392010307307 8.456758972940404 -0.03663046058088426 0 0 0
59 20 1 0.5897 8.469527091037751 1.4064946554670783 5.657417006406591 0 0 0
362 121 1 0.5897 9.135430126600466 3.834895425762462 6.484302837491233 0 0 0
391 131 2 -1.1794 7.574692207957842 2.102080652283839 8.777638311120151 0 0 0
469 157 2 -1.1794 9.005630202484328 9.818325568067765 7.022683858831185 0 0 0
500 167 1 0.5897 7.7047912728545525 9.28794667679788 9.817618888727871 0 0 0
392 131 1 0.5897 7.954029001459652 2.159547183723184 7.900789544106235 0 0 0
359 120 1 0.5897 5.868767292397586 2.3542009993167667 8.17962003398055 0 0 0
467 156 1 0.5897 5.410853879312499 8.159649022892772 6.779973073968163 0 0 0
393 131 1 0.5897 7.774374799703937 1.211956059873228 9.067662422532667 0 0 0
137 46 1 0.5897 5.787210002995282 6.145300309990607 5.504045722802771 0 0 0
8 3 1 0.5897 5.503877348082971 3.775982635037939 6.2351029966506735 0 0 0
7 3 2 -1.1794 5.772807080339618 4.229468398494541 5.4362450652816365 0 0 0
381 127 1 0.5897 7.762218877307891 5.6742605134486395 9.074926604977346 0 0 0
361 121 2 -1.1794 9.437220838733527 2.928451362807404 6.424197045045193 0 0 0
61 21 2 -1.1794 9.278961096918614 5.750893819212113 6.654602053722996 0 0 0
380 127 1 0.5897 7.320670556032254 7.024431374885684 8.551292553659456 0 0 0
379 127 2 -1.1794 7.1740678181506725 6.084892359246211 8.44116420448975 0 0 0
499 167 2 -1.1794 7.638913860325399 8.60264237474557 9.152599841224145 0 0 0
466 156 2 -1.1794 5.280639740158094 8.85932897405105 7.420038401375478 0 0 0
501 167 1 0.5897 6.782906360837949 8.742600422773666 8.747818875795662 0 0 0
62 21 1 0.5897 8.496600433836623 5.994222823483903 7.149483948988524 0 0 0
168 56 1 0.5897 8.838282349434982 8.46357221371291 5.60773282090519 0 0 0
470 157 1 0.5897 8.53780596022645 9.16792300826752 7.546488007728798 0 0 0
136 46 2 -1.1794 5.731411607542877 7.075011234498721 5.28296616214955 0 0 0
360 120 1 0.5897 5.396577129225374 1.4054908624535083 7.098545818135727 0 0 0
358 120 2 -1.1794 5.188904124780443 2.2418184230489464 7.515319232322455 0 0 0
338 113 1 0.5897 5.261924026422563 5.392055423843693 7.810568910329894 0 0 0
60 20 1 0.5897 8.750811599455712 -0.06821520450021257 5.462073467282732 0 0 0
471 157 1 0.5897 9.928936117387517 9.584937297256955 7.118972484084563 0 0 0
371 124 1 0.5897 8.195472501847204 3.691264095051774 10.027581718451499 0 0 0
28 10 2 -1.1794 5.871272058858625 0.2632195099356295 5.759742268218745 0 0 0
167 56 1 0.5897 8.934621308557698 6.957802137855405 5.482876213300741 0 0 0
29 10 1 0.5897 6.737828684427084 0.5165709197872831 5.441738564169196 0 0 0
370 124 2 -1.1794 8.399883743029244 4.577993703594259 10.324553901866134 0 0 0
353 118 1 0.5897 6.999122262513445 0.7126366625337321 12.44093523037598 0 0 0
382 128 2 -1.1794 8.732322595948094 0.5396781621362058 11.93238513626457 0 0 0
331 111 2 -1.1794 6.386435788913477 4.807744451689026 12.180284021106763 0 0 0
354 118 1 0.5897 5.898171288766358 1.2763961603279785 13.31379366475096 0 0 0
793 265 2 -1.1794 9.123643713535515 9.178359751936656 14.190964211658729 0 0 0
462 154 1 0.5897 5.191777476771952 7.689677343573836 12.125705675030249 0 0 0
686 229 1 0.5897 8.639062173726431 2.277916847195408 14.614291292472904 0 0 0
685 229 2 -1.1794 9.151757436466449 2.4918909023988265 13.834876733867434 0 0 0
791 264 1 0.5897 6.137952147156032 9.39564099731175 14.987290850862111 0 0 0
383 128 1 0.5897 8.881655401482394 1.2840085981595792 12.515378670870042 0 0 0
352 118 2 -1.1794 6.1060148161194965 0.5398858105467429 12.738803602760619 0 0 0
372 124 1 0.5897 7.798180616884398 4.731803148543368 11.052867332338499 0 0 0
332 111 1 0.5897 5.6152497043511875 4.586681247620281 11.65816554280833 0 0 0
684 228 1 0.5897 5.80243759064179 3.5084872535449287 13.858482050020791 0 0 0
705 235 1 0.5897 8.182809357247 5.700758654458224 15.345440868141349 0 0 0
386 129 1 0.5897 9.144235473065683 4.363835812598633 13.812034202571992 0 0 0
461 154 1 0.5897 5.792012142167218 8.383811825615306 13.32967763366138 0 0 0
460 154 2 -1.1794 5.917369792439616 7.6344428599092025 12.747445651182796 0 0 0
682 228 2 -1.1794 5.456485557352665 2.7560868982623075 14.338567690313448 0 0 0
492 164 1 0.5897 7.796816045683127 7.5553236280808544 12.022609968101788 0 0 0
491 164 1 0.5897 9.044043480236612 7.6907837508649495 11.175330465300185 0 0 0
490 164 2 -1.1794 8.751289605886939 7.49755144386896 12.06587527095327 0 0 0
387 129 1 0.5897 9.18141577827445 5.7513921433071475 13.20753140964675 0 0 0
333 111 1 0.5897 6.150344198256442 5.622390981238054 12.624006196920757 0 0 0
794 265 1 0.5897 8.959383565188329 8.710863625214799 13.37204806900283 0 0 0
384 128 1 0.5897 9.439248459607942 0.5929768815974215 11.289300700013632 0 0 0
385 129 2 -1.1794 9.366646226888799 5.272444391221644 14.015281410106736 0 0 0
790 264 2 -1.1794 5.562924812684968 9.815264318427918 14.347418477759565 0 0 0
696 232 1 0.5897 8.151188150658719 4.495231875217695 17.374300748305764 0 0 0
823 275 2 -1.1794 7.66249695630763 8.678262978307053 16.366310739557722 0 0 0
657 219 1 0.5897 6.60324622171102 4.382511380185864 18.87850065745028 0 0 0
715 239 2 -1.1794 7.5205211788474795 1.8431223743329261 16.08982673516752 0 0 0
677 226 1 0.5897 5.126901247157372 0.7040054050937645 18.54724543727476 0 0 0
815 272 1 0.5897 9.18737570189003 6.349262209192704 19.179024082009832 0 0 0
708 236 1 0.5897 7.719924855040275 0.8952053063932319 18.86074074964927 0 0 0
676 226 2 -1.1794 5.757459930411834 0.5529861939506 19.25126249914204 0 0 0
655 219 2 -1.1794 5.7251041746107285 4.4513736587966095 19.2530125535707 0 0 0
694 232 2 -1.1794 8.313586864225316 3.7240232106772586 17.917565525621637 0 0 0
695 232 1 0.5897 7.958868093884988 2.993921416305795 17.410236078361002 0 0 0
38 13 1 0.5897 9.327532083443298 1.5326725874087679 20.187717536442563 0 0 -1
704 235 1 0.5897 6.723484817233971 5.51373787388667 15.702107904627146 0 0 0
703 235 2 -1.1794 7.575744625712833 5.721324046574536 16.085149411018868 0 0 0
784 262 2 -1.1794 6.015652058898387 7.20972087162482 19.440183984019466 0 0 0
804 268 1 0.5897 7.892261308667242 9.91215126379268 17.50931795856117 0 0 0
785 262 1 0.5897 5.765635367040986 6.2973799241565995 19.58671900399673 0 0 0
656 219 1 0.5897 5.136421782331158 4.283687015551735 18.51718479860922 0 0 0
816 272 1 0.5897 9.012065657691544 7.8223491918100425 19.481483798944787 0 0 0
786 262 1 0.5897 6.972788882006431 7.198599277744617 19.43633567981679 0 0 0
825 275 1 0.5897 7.662248776342979 7.73309633914404 16.517940795367494 0 0 0
814 272 2 -1.1794 8.87338237488494 7.168537775564045 18.79626738610172 0 0 0
716 239 1 0.5897 7.390939978041635 0.9035261169349416 16.219133856194418 0 0 0
706 236 2 -1.1794 8.649301559585863 0.6665595054998985 18.875890678848666 0 0 0
707 236 1 0.5897 8.702158013268924 -0.08423154872996944 19.467294941207637 0 0 0
717 239 1 0.5897 6.667611789501976 2.1651145223323707 15.798109101009667 0 0 0
709 237 2 -1.1794 9.388492730070164 4.923994644968675 20.494581166702183 0 0 0
689 230 1 0.5897 9.93362554733825 0.6495785633955752 17.59732725698477 0 0 0
824 275 1 0.5897 8.403663096479535 8.826922462095565 15.779146565288775 0 0 0
710 237 1 0.5897 9.352250953808618 3.9674575996512846 20.487307062567115 0 0 0
663 221 1 0.5897 4.966993073918735 6.4584970615217 16.02839678138885 0 0 0
762 254 1 0.5897 5.083080699121936 7.760709139836266 18.069748940856332 0 0 0
36 12 1 0.5897 5.588984676470821 3.2030113452800038 20.51692461047243 0 0 -1
146 49 1 0.5897 9.103438401058337 9.983301613928136 20.464055750939586 0 0 -1
35 12 1 0.5897 5.431701976157308 1.70702357273261 20.688436378771147 0 0 -1
154 52 2 -1.1794 7.944298657738431 10.71243284974909 3.7337495261377476 0 0 0
262 88 2 -1.1794 8.056640573181047 17.52109705380837 3.8292064812175206 0 0 0
163 55 2 -1.1794 7.106073028460127 12.797655891611146 2.0640477411748845 0 0 0
285 95 1 0.5897 7.4414434354741426 14.853271929161174 2.2920547234161797 0 0 0
164 55 1 0.5897 6.281768837008184 12.462716247544737 1.7110896722493314 0 0 0
245 82 1 0.5897 5.415580044850283 13.75307232901206 4.690010363440433 0 0 0
819 273 1 0.5897 8.270921243089699 12.152451506441503 0.7274786642225022 0 0 1
231 77 1 0.5897 5.410861990338495 19.254254302112322 1.4016097845620417 0 0 0
165 55 1 0.5897 7.444311918266665 12.08271567583643 2.603223277460226 0 0 0
276 92 1 0.5897 9.05446230748748 14.667799484678431 4.566451682980735 0 0 0
156 52 1 0.5897 8.893191550159845 10.75807777186992 3.8510144911938524 0 0 0