LAMMPS data file via write_data, version 30 Jul 2021, timestep = 7250000

1008 atoms
2 atom types
672 bonds
1 bond types
336 angles
1 angle types

-3.2036671464070423 14.81366614596125 xlo xhi
-0.2674307747585196 22.847429774754346 ylo yhi
-0.00995925354583349 19.239957253543093 zlo zhi
-0.34282459701601053 -6.346588200814755 0.1297700955786319 xy xz yz

Masses

1 1.008
2 15.999

Pair Coeffs # lj/cut/tip4p/long/omp

1 0 0
2 0.21084 3.1668

Bond Coeffs # harmonic/omp

1 450 0.9572

Angle Coeffs # harmonic/omp

1 55 104.52

Atoms # full

21 7 1 0.5897 0.9048955047742417 2.2712224336929823 0.6604330900722393 0 0 0
55 19 2 -1.1794 -0.6634179364365376 4.4365240148469764 3.496878435253763 0 0 0
56 19 1 0.5897 -1.3022609787931883 3.902104183296662 3.025244335083427 0 0 0
57 19 1 0.5897 0.14845651130086424 4.334155646220085 3.0003372899028884 0 0 0
121 41 2 -1.1794 -2.3977237060576626 2.583970461440684 2.3635786481840673 1 0 0
122 41 1 0.5897 -2.240582694489793 2.1715830456191045 1.5143168620900926 1 0 0
86 29 1 0.5897 -2.339072299611086 1.4688966827838086 4.409885624167805 1 0 0
31 11 2 -1.1794 1.140350442077854 1.2627335631409915 2.134107148333504 0 0 0
32 11 1 0.5897 1.0953948886368927 1.3870505560669693 3.0820289285023907 0 0 0
123 41 1 0.5897 -3.331795705835652 2.793104138858953 2.3596442495313465 1 0 0
158 53 1 0.5897 -4.302985312206433 4.268678140989827 4.478732136518981 1 0 0
70 24 2 -1.1794 3.7193508642739044 0.18921526871656064 1.4730783913727723 0 0 0
482 161 1 0.5897 -1.2076264229319655 -0.024644367173796894 0.738368935872434 1 1 0
71 24 1 0.5897 2.89238137838389 0.3326564971108167 1.9332182155386002 0 0 0
46 16 2 -1.1794 1.9624563658092118 4.870950119146213 2.365760741547463 0 0 0
33 11 1 0.5897 0.5177441838418417 0.5582451508864692 1.9546474768525988 0 0 0
52 18 2 -1.1794 3.8602143646284794 2.95352466935266 3.299078124200198 0 0 0
526 176 2 -1.1794 3.748245544209821 2.559249318536527 0.2404173187170126 0 0 1
54 18 1 0.5897 3.2645605873419044 3.5107754987320736 2.798178311960299 0 0 0
78 26 1 0.5897 -0.12004460600756373 2.803830265809699 4.442600928441002 0 0 0
16 6 2 -1.1794 5.237012416372247 4.8096008453717 0.5185730990416594 0 0 0
53 18 1 0.5897 4.697582871617102 3.024335684754705 2.8408521914055918 0 0 0
6 2 1 0.5897 3.344329328062704 1.6092081553148236 4.75337675515717 0 0 0
528 176 1 0.5897 2.8093491292468675 2.6248847925736873 0.06596474307048933 0 0 1
527 176 1 0.5897 3.826366253437521 1.8391591184551173 0.8661085860815213 0 0 1
47 16 1 0.5897 1.8800666244196034 5.322955569415173 1.5261103682745083 0 0 0
18 6 1 0.5897 4.635279827439787 4.065352978628551 0.5305741928757105 0 0 0
76 26 2 -1.1794 0.6331045654476322 2.3050422318716812 4.759183105888114 0 0 0
101 34 1 0.5897 -2.662154128391882 4.330117742011367 0.11584233967827212 1 0 0
134 45 1 0.5897 -2.0945911093630936 2.5178625686705915 6.229280975767725 1 0 0
135 45 1 0.5897 -1.56021089101249 3.7744963367913336 6.8826573488938125 1 0 0
159 53 1 0.5897 -3.1583587815530247 4.350570408083986 5.466113809877387 1 0 0
34 12 2 -1.1794 0.11797045189262656 1.1594416477773597 7.269082794249187 0 0 0
35 12 1 0.5897 0.33622117583573496 1.7609390354673584 7.980871347873109 0 0 0
36 12 1 0.5897 -0.6440578931861092 0.6762005712264437 7.5883665538795215 0 0 0
68 23 1 0.5897 -3.200456716573058 0.2484502911174863 7.8304369495316895 0 0 0
60 20 1 0.5897 3.0656260008062555 3.4978027249114523 6.5675645908309965 0 0 0
77 26 1 0.5897 0.362090406259032 1.9802911504128806 5.617755807365336 0 0 0
58 20 2 -1.1794 2.351122963139394 3.9722584926168505 6.142582424801844 0 0 0
59 20 1 0.5897 1.8722107484404935 3.3005278643984663 5.657244085804788 0 0 0
5 2 1 0.5897 3.265043944087747 0.12206219862583412 5.024895233877306 0 0 0
124 42 2 -1.1794 -5.265807296975742 2.3438852932963363 7.168808214981637 1 0 0
126 42 1 0.5897 -4.396126318347464 2.74075363634466 7.120307995039375 1 0 0
45 15 1 0.5897 0.7792625529617281 4.632772649329224 6.96878331068215 0 0 0
133 45 2 -1.1794 -2.3752210153153204 3.3392248331317598 6.632697377515551 1 0 0
87 29 1 0.5897 -3.3250263622529115 0.8000187799913567 5.34373586078733 1 0 0
43 15 2 -1.1794 -0.1295294760880732 4.749533230710934 7.245707296538259 0 0 0
67 23 2 -1.1794 -2.4695935762692853 0.4237889394283695 8.42314332999789 0 0 0
4 2 2 -1.1794 3.621515549706798 0.9377324867829782 5.376622626882601 0 0 0
69 23 1 0.5897 -2.6926784495344767 1.2563256652748092 8.83935113455522 0 0 0
44 15 1 0.5897 -0.06773043536557388 5.037182240882299 8.156479204167454 0 0 0
669 223 1 0.5897 -5.32532719569585 1.9118448953142222 9.0440531659494 1 0 0
90 30 1 0.5897 -5.068731508939694 1.0582461740588658 5.924321933728873 1 0 0
98 33 1 0.5897 -4.375476099290392 4.9443935565883965 8.60730304719292 1 0 0
522 174 1 0.5897 2.54683332972074 5.343833236763431 9.204728955620567 0 0 0
401 134 1 0.5897 2.466971252848859 0.03554649232176643 8.795649018223296 0 1 0
97 33 2 -1.1794 -4.395430045112661 4.6214242462266295 9.50806748758194 1 0 0
85 29 2 -1.1794 -2.404792418637041 1.0526803155643578 5.269263644653545 1 0 0
24 8 1 0.5897 1.2352348941328888 3.290140261103593 9.602358802444547 0 0 0
157 53 2 -1.1794 -3.7440703193364575 4.894388359411554 4.939419373889071 1 0 0
550 184 2 -1.1794 -1.6553458134450283 4.838053497283532 12.159611867728715 0 0 0
556 186 2 -1.1794 0.4886307730727548 3.095077000623201 12.828975503853906 0 0 0
560 187 1 0.5897 -4.598264668511056 3.8260071345027162 12.862092440790622 0 0 0
23 8 1 0.5897 0.76303532712762 2.0755162846811324 10.3725896433676 0 0 0
574 192 2 -1.1794 0.7550556911344755 0.3574739201857877 11.289365655622655 0 0 0
99 33 1 0.5897 -3.9641929878038793 5.306820808270878 10.018345351897105 1 0 0
525 175 1 0.5897 -1.5790979414119177 2.7403734695190716 10.005413623561264 0 0 0
576 192 1 0.5897 0.07026260020268227 0.5873821477810928 11.917333681971076 0 0 0
535 179 2 -1.1794 -1.8200043306198257 0.9210388168264347 12.409051364438643 0 0 0
536 179 1 0.5897 -2.2341136104236377 1.2259766032061519 13.216253672321018 0 0 0
537 179 1 0.5897 -2.103167805110768 1.5471925020275277 11.742797563908113 0 0 0
552 184 1 0.5897 -2.534051462147951 4.61115865746805 12.46378079413224 0 0 0
625 209 2 -1.1794 -6.023534532205337 2.818463228069682 12.00509492415441 1 0 0
587 196 1 0.5897 -1.2251562967380791 5.524633230871461 10.480074603280102 0 0 0
557 186 1 0.5897 0.2055410692705566 2.271549271262322 13.226185782678094 0 0 0
668 223 1 0.5897 -5.657447342609762 1.8406530234973415 10.519212598547012 1 0 0
558 186 1 0.5897 -0.3189542387855848 3.5956195907836555 12.712903672781191 0 0 0
559 187 2 -1.1794 -3.9932550124136976 4.310132747523006 13.423994682400853 0 0 0
627 209 1 0.5897 -6.8847273997558425 3.1521734754693096 12.256507676263489 1 0 0
589 197 2 -1.1794 -5.6052073760131105 1.0783846448731984 14.007341331405934 1 0 0
626 209 1 0.5897 -5.811070979575765 2.171480109110519 12.677698580961083 1 0 0
561 187 1 0.5897 -3.6876897265726427 3.6639390120220106 14.060575923587265 0 0 0
523 175 2 -1.1794 -2.5091589490734116 2.5482099439203063 10.124876785569457 0 0 0
662 221 1 0.5897 -7.484517831920156 4.623773817210125 14.15218065315119 1 0 0
606 202 1 0.5897 -6.124473149995943 4.593644745034757 9.626921629246239 1 0 0
551 184 1 0.5897 -1.3382688413599357 5.4775391799943955 12.797258764955952 0 0 0
661 221 2 -1.1794 -6.800249160811283 5.278087566903068 14.29292024950787 1 0 0
524 175 1 0.5897 -2.95610246873264 3.353442075807343 9.864025208384056 0 0 0
667 223 2 -1.1794 -5.225622118105487 1.355283680992075 9.816338226826383 1 0 0
987 329 1 0.5897 -3.06372575498486 -0.14597071907499976 11.80019066255287 1 1 0
986 329 1 0.5897 -4.195852511412026 0.2639187442337363 10.8824779533769 1 1 0
591 197 1 0.5897 -4.941490904539007 0.44797891597206596 14.28719820373627 1 0 0
22 8 2 -1.1794 0.49996463402905267 2.682375614196626 9.68073681838364 0 0 0
571 191 2 -1.1794 -5.657050891928918 0.22455891510348786 17.765338629361736 0 0 0
19 7 2 -1.1794 -5.304962113669814 2.8481061890635013 19.075206400253315 0 0 -1
590 197 1 0.5897 -5.630448133060714 1.7280165853841034 14.709782729937428 1 0 0
163 55 2 -1.1794 -8.984693771141728 1.2010185082463483 19.063724947895643 1 0 -1
582 194 1 0.5897 -1.755849962476299 3.1709092956618647 15.104940681775366 0 0 0
548 183 1 0.5897 -3.686308189596282 5.551049740719575 16.286201040704544 0 0 0
639 213 1 0.5897 -5.721917124316208 3.912846307754757 15.007826313100825 1 0 0
581 194 1 0.5897 -2.6291913824429685 2.0687670213090055 15.665455817251651 0 0 0
538 180 2 -1.1794 -3.1585068849270357 1.1412610808653219 17.250270760140456 0 0 0
539 180 1 0.5897 -2.9556126536540956 1.650346069757238 18.0349740221993 0 0 0
547 183 2 -1.1794 -3.771327575092098 4.8864965323064355 16.969755748603816 0 0 0
540 180 1 0.5897 -4.078612303898873 0.8982461412926106 17.35307449638235 0 0 0
638 213 1 0.5897 -6.191350614444799 3.181074727127864 16.24704467135217 1 0 0
549 183 1 0.5897 -4.399079485668876 4.256780621902092 16.615475193777048 0 0 0
562 188 2 -1.1794 -1.0078768123774875 4.172074538165044 16.398504945757082 0 0 0
601 201 2 -1.1794 -7.0326909028502484 5.009453042428727 19.02416842558309 1 0 0
564 188 1 0.5897 -1.9056506222169052 4.265621344351648 16.717044326468315 0 0 0
637 213 2 -1.1794 -5.480835558838408 3.2057554567693796 15.606200450228457 1 0 0
164 55 1 0.5897 -8.724095998967442 1.7979003263590818 18.362357718177044 1 0 -1
628 210 2 -1.1794 -7.978449957736473 2.645760744280665 16.87767300818587 1 0 0
510 170 1 0.5897 0.6209082539838944 1.21287323363658 15.44776039099508 0 0 0
563 188 1 0.5897 -0.8853917749683404 4.913080451722912 15.805189426467013 0 0 0
20 7 1 0.5897 -5.407011351132988 2.161716524885253 18.416024222327945 0 0 -1
165 55 1 0.5897 -9.282445858591217 0.41274424492349016 18.60977006071408 1 0 -1
629 210 1 0.5897 -8.655757453875708 3.2740727971532824 16.627208909874614 1 0 0
603 201 1 0.5897 -6.397134197623959 4.311366436784596 19.18218989434411 1 0 0
630 210 1 0.5897 -8.120766061397994 1.8963348552285613 16.299566208414195 1 0 0
80 27 1 0.5897 -0.4945323469037426 0.5656919622627642 19.055658360162727 0 0 -1
508 170 2 -1.1794 0.7287903386973307 0.9109983809647233 14.545933699311098 0 0 0
580 194 2 -1.1794 -2.3360075729078424 2.45679855176547 14.841105959313174 0 0 0
593 198 1 0.5897 -7.356173866958235 0.6662759765255405 14.57384171608411 1 0 0
289 97 2 -1.1794 -2.6670521364140924 9.730407888738949 2.394647701791366 1 0 0
255 85 1 0.5897 -2.2154882766717243 8.824502346181333 4.044540857167707 1 0 0
146 49 1 0.5897 -1.35911675006017 6.450849327378275 2.0845079911161535 1 0 0
147 49 1 0.5897 -0.9696306383780828 7.431902706964894 0.9994451807071252 1 0 0
332 111 1 0.5897 -2.437379501282808 9.208265219529427 0.7469264120109043 1 0 0
145 49 2 -1.1794 -0.5986677933842826 6.8576681490544615 1.6693716694944416 1 0 0
112 38 2 -1.1794 -3.431418971155588 6.20919005445854 2.5578144541128216 1 0 0
291 97 1 0.5897 -3.549561304357003 10.063707378018682 2.556869005042312 1 0 0
290 97 1 0.5897 -2.1092658525740764 10.5079576323374 2.4153727168532466 1 0 0
224 75 1 0.5897 -0.5537779004927206 11.258022715077036 3.8893328748690585 0 0 0
9 3 1 0.5897 -0.6089337272347333 6.056584141286666 4.525688237714012 0 0 0
48 16 1 0.5897 2.0627934605974723 5.5737152282453195 3.0077470845874723 0 0 0
200 67 1 0.5897 0.2676205090192152 8.201776801328188 2.3377121498981457 0 0 0
188 63 1 0.5897 0.7731598601039718 10.035187162818495 1.1562222736724488 0 0 0
240 80 1 0.5897 2.9107721707351013 7.479072577592994 1.0925963428448153 0 0 0
114 38 1 0.5897 -3.5363879814428283 5.5658597396391665 1.8569624604496893 1 0 0
238 80 2 -1.1794 3.326463198440437 8.061636682265595 1.7281609957714865 0 0 0
199 67 2 -1.1794 0.8887999691974384 8.851054822634701 2.667426525605175 0 0 0
239 80 1 0.5897 3.537698984375729 8.85024078118525 1.2285753458875621 0 0 0
113 38 1 0.5897 -3.561383464149323 5.7094407327147545 3.3636794943427355 1 0 0
245 82 1 0.5897 0.802389652624985 9.61085061718944 4.3283866593657585 0 0 0
220 74 2 -1.1794 3.7257623343660935 10.71119528636353 3.7610667548828616 0 0 0
201 67 1 0.5897 1.7489352542729577 8.4957830069102 2.4434597240645344 0 0 0
82 28 2 -1.1794 2.1254563196049174 6.330504701386179 0.0003293938262309611 0 0 0
696 232 1 0.5897 4.457172053706429 10.98050566696303 0.26329854669502156 0 0 1
222 74 1 0.5897 3.090889968379823 11.206544587809997 3.243568070782938 0 0 0
187 63 2 -1.1794 1.0159904544422078 10.336518336176477 0.2808483228453761 0 0 0
694 232 2 -1.1794 3.767330237990806 10.3173036074462 0.28419514313222344 0 0 1
189 63 1 0.5897 1.9178983570041552 10.64315762097554 0.37421033781965185 0 0 0
602 201 1 0.5897 -0.48117833705228996 5.544146333200346 0.431966852187876 1 0 1
221 74 1 0.5897 4.366907360737651 10.401023572807272 3.1216408224760848 0 0 0
174 58 1 0.5897 3.5570010207668528 9.07939141396538 4.752900848870503 0 0 0
191 64 1 0.5897 0.32592704856096333 9.4749581746303 8.903937176940653 0 0 0
254 85 1 0.5897 -1.9043785536516422 7.858655384199135 5.167938320395747 1 0 0
109 37 2 -1.1794 -4.452547711332986 6.291087515627713 7.187170967323596 1 0 0
111 37 1 0.5897 -5.301163679781256 6.730852702830313 7.134985646009289 1 0 0
293 98 1 0.5897 -4.204847241074016 10.501383998399787 7.1607336314584575 1 0 0
244 82 2 -1.1794 0.7020282271875584 10.123200496769748 5.130569548196365 0 0 0
172 58 2 -1.1794 3.788273455157407 8.41638740440164 5.403358083267919 0 0 0
301 101 2 -1.1794 -2.3771263990739917 10.790387442847896 6.804459886375664 1 0 0
246 82 1 0.5897 0.6254144361765954 9.469053376933653 5.825060302962791 0 0 0
294 98 1 0.5897 -5.325573429600944 9.918549611474473 7.9949162338575235 1 0 0
292 98 2 -1.1794 -5.154960621183145 10.38650838333718 7.1776074860884025 1 0 0
64 22 2 -1.1794 2.4355875402107436 6.814287059829045 8.131242246220664 0 0 0
7 3 2 -1.1794 -0.5454222709324679 6.674859711544691 5.253535373318326 0 0 0
202 68 2 -1.1794 0.3249475401225892 8.647732687784641 7.395278036231312 0 0 0
203 68 1 0.5897 -0.5034577918519334 8.243686895661352 7.653444132948182 0 0 0
204 68 1 0.5897 0.9628965653889923 7.935362355745125 7.437369520555499 0 0 0
11 4 1 0.5897 2.30757024047511 5.604232030268699 5.262710858611496 0 0 0
235 79 2 -1.1794 -2.238681266324631 7.691970227186195 8.246256611068084 0 0 0
236 79 1 0.5897 -3.0235757913366594 7.2790768816102505 7.886266341019508 0 0 0
237 79 1 0.5897 -2.5699360408343135 8.422512039112762 8.768424036037736 0 0 0
302 101 1 0.5897 -2.113853564024241 10.05444752231537 6.252017684700333 1 0 0
173 58 1 0.5897 3.1307682230772436 7.730019683733696 5.290582284110534 0 0 0
837 279 1 0.5897 -6.214932558119447 8.322666445597735 8.971558627743711 1 0 0
110 37 1 0.5897 -4.271586384161862 6.011509934098931 6.289867296390515 1 0 0
8 3 1 0.5897 -0.4399283643742109 6.12314374061679 6.028522420709519 0 0 0
588 196 1 0.5897 -1.3450611617599102 6.392983497994994 9.245897994989477 0 0 0
65 22 1 0.5897 2.596536603586208 7.568374039927167 8.698287396018092 0 0 0
835 279 2 -1.1794 -5.643400249530286 8.959922569481689 9.399812248441956 1 0 0
303 101 1 0.5897 -1.5524657355361846 11.19132820556202 7.079017024795203 1 0 0
253 85 2 -1.1794 -2.3369922298663575 8.69260185651756 4.984702090734658 1 0 0
10 4 2 -1.1794 2.145063607654051 6.481134467298845 4.915160030011835 0 0 0
12 4 1 0.5897 1.1944583110856595 6.584383488218717 4.959070483817162 0 0 0
257 86 1 0.5897 -4.146905128759871 8.710319738252206 4.88625576434959 1 0 0
586 196 2 -1.1794 -0.7130835116619849 5.888222076463211 9.757800792534095 0 0 0
836 279 1 0.5897 -4.922902804535752 8.437463312045802 9.752192849392422 1 0 0
618 206 1 0.5897 -6.556079885345594 5.7885589215849835 11.199775190926733 1 0 0
809 270 1 0.5897 -7.319938258766 10.61064250748483 12.758770535992344 1 0 0
742 248 2 -1.1794 0.4442905431304993 7.715477774280971 11.423263310567298 0 0 0
794 265 1 0.5897 -5.241965160614684 10.809680919365102 12.121361043760693 1 0 0
724 242 2 -1.1794 0.6383015026394707 10.746894472255264 13.411338614909042 0 0 0
693 231 1 0.5897 -2.672087905816378 9.886594097147446 10.795571656296504 0 0 0
649 217 2 -1.1794 -3.783576538181021 6.915822344977443 10.90775844038748 1 0 0
650 217 1 0.5897 -3.3166095122101713 7.575831831771979 11.420066808345346 1 0 0
651 217 1 0.5897 -4.617483350714332 6.803590988131403 11.364004509717544 1 0 0
795 265 1 0.5897 -5.688415596525198 9.943453570624023 10.962954604816062 1 0 0
744 248 1 0.5897 -0.023601478386312547 7.0374256832268784 10.935976080082987 0 0 0
793 265 2 -1.1794 -5.814972815518937 10.074892469544261 11.902514546001344 1 0 0
513 171 1 0.5897 -4.026106462216626 5.995808097133569 14.270631698008065 0 0 0
759 253 1 0.5897 -5.629655009918027 8.96412838657038 13.366882328776507 1 0 0
703 235 2 -1.1794 -1.9979033630655554 8.531594918148935 12.062650316637278 0 0 0
704 235 1 0.5897 -1.1803099501622811 8.058967261027997 11.90644234181714 0 0 0
705 235 1 0.5897 -1.8454686622704566 9.01229928076019 12.876143356939036 0 0 0
743 248 1 0.5897 0.49056792537767535 8.456443474063773 10.819154722349563 0 0 0
616 206 2 -1.1794 -6.237603057595341 6.346309491459643 11.90940846137129 1 0 0
617 206 1 0.5897 -6.869729797440738 7.0637760998557075 11.952792691974226 1 0 0
750 250 1 0.5897 -3.008974316021387 10.765245659631612 13.992554603488538 0 0 0
192 64 1 0.5897 0.7458102725913949 10.679624696769876 9.71879847762546 0 0 0
691 231 2 -1.1794 -2.6075344920256827 10.162107690532181 9.881243727300818 0 0 0
663 221 1 0.5897 -6.606283301468836 5.614428166723768 13.418130901311176 1 0 0
726 242 1 0.5897 -0.1926741411135371 11.062295921206461 13.056029602662793 0 0 0
692 231 1 0.5897 -1.6796405004609722 10.360513847326736 9.755384136319151 0 0 0
190 64 2 -1.1794 0.15344419982269208 9.92788971458667 9.729257519058923 0 0 0
748 250 2 -1.1794 -2.2772155961681175 10.286481798811057 14.381839310325807 0 0 0
757 253 2 -1.1794 -5.689715162055505 8.585893031615102 14.244041904056637 1 0 0
514 172 2 -1.1794 -0.9693951618340577 6.232964889425822 14.41241717435783 0 0 0
570 190 1 0.5897 -0.4571452449407687 6.60153657463903 17.4425398008266 0 0 0
695 232 1 0.5897 -2.6569103753839816 10.152887894792167 18.62664189873623 0 0 0
741 247 1 0.5897 -5.660444560942423 9.118057264876477 17.92396446085587 0 0 0
516 172 1 0.5897 -0.4305701625235878 7.007400898811478 14.573833964504322 0 0 0
740 247 1 0.5897 -5.955141498521906 7.817034625611434 17.20837493643052 0 0 0
568 190 2 -1.1794 -1.1989674705925282 7.023123273651598 17.876308646249047 0 0 0
614 205 1 0.5897 -7.005836079833195 5.816986236686803 17.287877241152202 1 0 0
797 266 1 0.5897 -6.90648476547476 10.7008325172898 16.878643326808092 1 0 0
805 269 2 -1.1794 -5.375063372382792 10.936806040165164 15.894773508844745 1 0 0
569 190 1 0.5897 -1.486363140382828 6.38769158349084 18.531844039836702 0 0 0
615 205 1 0.5897 -6.963269485236317 6.147829022048383 15.811359686466051 1 0 0
749 250 1 0.5897 -2.6262604105833782 9.941356169182301 15.203481615767096 0 0 0
333 111 1 0.5897 -8.326670594417056 9.50520142994912 18.563564915409614 1 0 -1
613 205 2 -1.1794 -7.151156612812885 6.53148286852633 16.667817409685554 1 0 0
796 266 2 -1.1794 -7.745267729804381 10.365703527538875 17.19535106411757 1 0 0
706 236 2 -1.1794 -2.748571233539244 9.211098623699 16.880763281881663 0 0 0
707 236 1 0.5897 -3.6169133077481064 8.903200928601755 17.140280533012522 0 0 0
708 236 1 0.5897 -2.2128933236780037 8.418537092254777 16.847478795514228 0 0 0
739 247 2 -1.1794 -5.243553078004497 8.315867995683389 17.609559968572956 0 0 0
758 253 1 0.5897 -5.499949066174231 9.315675956787267 14.833537765870709 1 0 0
798 266 1 0.5897 -8.121503929564252 9.910173599334206 16.44232065417561 1 0 0
762 254 1 0.5897 -7.597317437311801 8.545367970471027 14.629150252505644 1 0 0
511 171 2 -1.1794 -3.77190794053421 6.713710503048944 14.850369981720876 0 0 0
515 172 1 0.5897 -1.8703187934336807 6.551556622914575 14.467997719212915 0 0 0
83 28 1 0.5897 -4.515848632819718 7.233592118351355 18.769313290131638 0 0 -1
84 28 1 0.5897 -4.0273368354478 5.814542166084051 18.570859067389424 0 0 -1
676 226 2 -1.1794 0.2609857334431984 8.647777883336596 15.121161296613499 0 0 0
807 269 1 0.5897 -4.665597662165866 11.357943998695454 16.380031907824502 1 0 0
512 171 1 0.5897 -4.458508549381325 7.3704828924208075 14.73428113277726 0 0 0
677 226 1 0.5897 0.27331283526234085 9.083566761795238 15.973218892471715 0 0 0
731 244 1 0.5897 -1.1954692181394453 11.378601773710619 15.268140853858277 0 0 0
331 111 2 -1.1794 -8.599540119252405 8.843163561416953 19.198640066585728 1 0 -1
678 226 1 0.5897 0.04316937164605328 9.342280375223657 14.499574985513421 0 0 0
281 94 1 0.5897 -3.5673621588107123 13.276362853523455 3.4493974273049934 1 0 0
280 94 2 -1.1794 -3.5250150326759093 13.87838557883733 2.7065229397445134 1 0 0
500 167 1 0.5897 -1.985605081145723 15.950397399087919 0.5421167951522587 1 0 0
282 94 1 0.5897 -2.5915515695187077 14.060322639183768 2.5980557882086246 1 0 0
369 123 1 0.5897 0.741903085303143 16.878671764399897 3.6460133367235286 0 0 0
313 105 2 -1.1794 -1.0761111625694273 14.816161386805245 1.377271647521247 1 0 0
315 105 1 0.5897 -0.6825536247766233 14.09983975249874 0.8791536925918626 1 0 0
421 141 2 -1.1794 -2.508560054555274 16.525052446909058 4.709003947356317 1 0 0
499 167 2 -1.1794 -2.6780729097955303 16.54751833862172 0.2590081416208943 1 0 0
252 84 1 0.5897 2.7022054615103146 14.376731915080688 0.7501634384026403 0 0 0
180 60 1 0.5897 1.81511075080744 13.699040212288592 4.209154784195479 0 0 0
223 75 2 -1.1794 -0.9367640183660177 11.817086355589481 3.2133574317792664 0 0 0
314 105 1 0.5897 -0.4095316623276499 15.055073313936159 2.0212894984601135 1 0 0
368 123 1 0.5897 1.7620145125852202 16.118801592252517 2.8252407368566423 0 0 0
215 72 1 0.5897 1.9174516718371883 12.483520051764248 1.6241842800300645 0 0 0
214 72 2 -1.1794 1.79794804085246 12.18929783474007 2.5270744106007257 0 0 0
367 123 2 -1.1794 0.8323043465438733 16.34439018189438 2.85706513382467 0 0 0
216 72 1 0.5897 0.9110895996095101 11.829747125434457 2.54687308885426 0 0 0
406 136 2 -1.1794 3.4684016262805475 15.509987396359495 1.9199425100940841 0 0 0
408 136 1 0.5897 3.8111020746916724 16.24915143973405 1.4176656898959057 0 0 0
407 136 1 0.5897 4.233283623887058 15.149454710045072 2.368511662865517 0 0 0
225 75 1 0.5897 -1.2203863433328968 12.601460051758156 3.682874982802956 0 0 0
423 141 1 0.5897 -2.6002111751161925 16.928125388968585 3.845729548214558 1 0 0
250 84 2 -1.1794 2.4738858051621753 13.665355741537867 0.15190087977875866 0 0 0
175 59 2 -1.1794 -1.034927988971484 14.18981947150587 4.670507490570929 0 0 0
176 59 1 0.5897 -1.5078335148350552 15.015494507326904 4.77443767138115 0 0 0
177 59 1 0.5897 -0.11090643360830965 14.439349953959718 4.681856047790765 0 0 0
269 90 1 0.5897 -3.6412341836195026 12.861227982487932 0.9756791368336022 1 0 0
268 90 2 -1.1794 -3.3645218102086796 12.395280267544841 0.18675946503830737 1 0 0
404 135 1 0.5897 -1.8472682371095934 15.804010692201754 7.729437754353286 0 0 0
425 142 1 0.5897 -4.166521836288494 16.12020708583269 4.8605754553536835 1 0 0
372 124 1 0.5897 -0.03166475420886883 16.690003353233987 6.360392883006444 0 0 0
327 109 1 0.5897 -4.026706227063821 12.9644020350976 5.612243070534397 1 0 0
325 109 2 -1.1794 -3.7570472968106525 12.396180125656457 4.890793197283651 1 0 0
211 71 2 -1.1794 -0.5752816038588962 12.686808320356871 7.347072883803976 0 0 0
279 93 1 0.5897 -5.506937073738198 14.176810275167131 7.001189603122436 1 0 0
213 71 1 0.5897 -0.7756697272546451 13.181505199804976 6.552562630430791 0 0 0
212 71 1 0.5897 -0.8579807431642754 13.256673125103779 8.062215926024047 0 0 0
179 60 1 0.5897 1.8959561002782657 13.319705225431047 5.672407834251155 0 0 0
232 78 2 -1.1794 1.845396576632547 14.860420551335025 8.447605049133383 0 0 0
405 135 1 0.5897 -2.810544899121987 16.209432174608516 8.824585269453902 0 0 0
234 78 1 0.5897 1.149392415424387 14.973930516052713 7.80037374355016 0 0 0
370 124 2 -1.1794 -0.27016208411544307 16.17453755454717 7.130770480434276 0 0 0
227 76 1 0.5897 1.3260953814358878 12.30054714775261 7.140539657336043 0 0 0
277 93 2 -1.1794 -4.597816797346129 13.900440049447882 6.8855355978073325 1 0 0
278 93 1 0.5897 -4.07988787438655 14.647957242587731 7.184041676939014 1 0 0
341 114 1 0.5897 2.8214275594626343 15.567165423759167 5.17803565630575 0 0 0
226 76 2 -1.1794 2.1053277534943735 11.974711444611318 6.6901851953114395 0 0 0
403 135 2 -1.1794 -2.7006261309042503 15.587757942573726 8.105191644037077 0 0 0
265 89 2 -1.1794 -3.8694606799061595 12.45031432048368 9.228134467610067 1 0 0
267 89 1 0.5897 -3.83232562976592 12.610714838894465 8.285284565819314 1 0 0
340 114 2 -1.1794 3.379964353691947 16.344430690192585 5.174305387831126 0 0 0
371 124 1 0.5897 -0.06536633984295115 16.74329370547447 7.872838126930954 0 0 0
178 60 2 -1.1794 1.727837224897966 14.061091447212405 5.090841731731196 0 0 0
756 252 1 0.5897 -1.8815596654332518 14.34106023799627 9.333091247019977 0 0 0
266 89 1 0.5897 -3.395216071279439 11.627950208030612 9.350560538420774 1 0 0
233 78 1 0.5897 2.653832843528077 14.871789373180155 7.935290113371491 0 0 0
326 109 1 0.5897 -3.031934297500932 11.883104728327918 5.247471092291749 1 0 0
690 230 1 0.5897 1.3832893329254166 12.911578770384667 9.538638784556623 0 0 0
228 76 1 0.5897 1.767327982551259 11.354884611513246 6.043912457817632 0 0 0
774 258 1 0.5897 -5.80370764139276 12.383220881755754 9.446175167655706 1 0 0
1003 335 2 -1.1794 -5.967899060797169 16.6155981214962 9.699826516315706 1 0 0
1005 335 1 0.5897 -5.276748694201372 15.973858716824314 9.863309998954527 1 0 0
725 242 1 0.5897 0.9034262541751632 11.421377250425515 14.03654215216342 0 0 0
718 240 2 -1.1794 -1.3597710108505665 12.099329879761523 11.91559808674423 0 0 0
688 230 2 -1.1794 1.8641590840383069 12.19557231796474 9.953721381324748 0 0 0
720 240 1 0.5897 -0.9514437662220168 12.781408404851105 12.448649703958862 0 0 0
728 243 1 0.5897 -3.1817498004167657 11.83658548440803 12.301721267120627 0 0 0
871 291 2 -1.1794 -2.1614402934554535 16.2582228678238 12.15254082393019 0 0 0
727 243 2 -1.1794 -4.0039825726790355 11.879766553580064 12.789807050168399 0 0 0
784 262 2 -1.1794 -6.53165838280389 14.240957815055454 11.898201389176197 1 0 0
729 243 1 0.5897 -4.05365938896467 12.785028422822412 13.096631869787656 0 0 0
911 304 1 0.5897 -0.18973986610609828 16.12405336128143 11.977046786983513 0 0 0
910 304 2 -1.1794 0.42892777634966794 15.860372661320415 11.295982840455475 0 0 0
912 304 1 0.5897 1.0358679554833632 15.267722387115276 11.739378081362162 0 0 0
846 282 1 0.5897 0.5516237498398135 17.058457513586113 14.223079652196242 0 0 0
719 240 1 0.5897 -1.4586873723979301 12.497598840983562 11.050911389800266 0 0 0
786 262 1 0.5897 -6.427668281594724 14.0609097536196 12.832473680901353 1 0 0
817 273 2 -1.1794 -4.0986180293465 14.819373168935636 10.666296414120094 1 0 0
818 273 1 0.5897 -4.835482660868886 14.650390571889428 11.253310733341005 1 0 0
819 273 1 0.5897 -3.92197904978551 13.97414388077318 10.25338506126415 1 0 0
873 291 1 0.5897 -2.640641142262018 15.553962434358903 11.716066481948758 0 0 0
754 252 2 -1.1794 -1.2064193174938467 13.855753951127491 9.807331969395984 0 0 0
917 306 1 0.5897 -2.4482989717057624 16.918145167651915 13.727208948330231 0 0 0
872 291 1 0.5897 -2.514911961346878 17.061559288270484 11.770593805594247 0 0 0
831 277 1 0.5897 -7.1336071920824615 12.309548365192512 13.945471985958283 1 0 0
682 228 2 -1.1794 -0.6124151785551835 14.040572288163995 13.945576114707917 0 0 0
755 252 1 0.5897 -0.7026243980981688 14.529426670746139 10.263940208147812 0 0 0
680 227 1 0.5897 -2.472284966946047 14.077718318090144 13.963237192386796 0 0 0
926 309 1 0.5897 -4.891206933117541 15.267426674165963 14.23627694152097 1 0 0
679 227 2 -1.1794 -3.394900480871045 14.288182576539864 14.107233322868133 0 0 0
684 228 1 0.5897 -0.30600450792752554 14.904654061834002 14.220496613358756 0 0 0
829 277 2 -1.1794 -6.4195886982631105 12.821216760586735 14.32566136111697 1 0 0
962 321 1 0.5897 -5.971895517267347 16.79333582449532 12.886735580022489 1 0 0
925 309 2 -1.1794 -5.640763418384549 15.847122343189564 14.371736618026247 1 0 0
730 244 2 -1.1794 -0.8536648807296014 11.978906540719922 15.93064806480032 0 0 0
875 292 1 0.5897 -2.801322315947848 16.791870457855783 16.060232498966283 0 0 0
717 239 1 0.5897 -2.6836272559580463 12.37709429607364 16.833087664876825 0 0 0
783 261 1 0.5897 -8.056888107441939 14.571648202832247 16.958113755963293 1 0 0
732 244 1 0.5897 -0.10070962390553095 11.520785819210403 16.30403548519315 0 0 0
681 227 1 0.5897 -3.589369702183723 13.933379906765817 14.974622658707604 0 0 0
357 119 1 0.5897 -5.601337507986035 17.062230019668284 18.98513793328667 0 0 -1
874 292 2 -1.1794 -2.951253827160288 16.280762805900743 16.85544398861836 0 0 0
715 239 2 -1.1794 -3.4315837278148953 12.967723758919838 16.743843346369975 0 0 0
716 239 1 0.5897 -3.6301916369200864 13.240475030031638 17.639503324016964 0 0 0
501 167 1 0.5897 -8.680568151300017 17.083963589019774 18.713753174576468 1 0 -1
907 303 2 -1.1794 -5.433554344778772 15.554599906932284 18.14447807484517 0 0 0
251 84 1 0.5897 -4.622662527160309 14.127690298431018 18.90864856956772 0 0 -1
876 292 1 0.5897 -2.1885409896807255 15.705844975526494 16.918607705367275 0 0 0
736 246 2 -1.1794 -0.989019975808251 14.642556414823488 18.038374211095835 0 0 0
909 303 1 0.5897 -4.732881819551585 15.808296623106422 17.543799154812113 0 0 0
781 261 2 -1.1794 -7.300648288950068 14.011546911531532 16.783163865869838 1 0 0
782 261 1 0.5897 -7.1961017234308855 13.493264706513562 17.581021389200078 1 0 0
927 309 1 0.5897 -5.288140699889695 16.581953103589033 14.873522784231994 1 0 0
908 303 1 0.5897 -6.088608549710034 15.13597601197548 17.586063520301483 0 0 0
830 277 1 0.5897 -6.821126683738626 13.283959885774758 15.061010170553885 1 0 0
683 228 1 0.5897 -0.6251360700365947 13.523119090282613 14.750665462020761 0 0 0
185 62 1 0.5897 -1.1111158572865776 13.324608160735876 19.17942634824492 0 0 -1
806 269 1 0.5897 -5.736660120691887 11.6327253678626 15.346029038626412 1 0 0