LAMMPS (30 Jul 2021)
  using 32 OpenMP thread(s) per MPI task
package omp 0
using multi-threaded neighbor list subroutines
echo both

include		in.partitions
variable        pid world 0
include		in.temp
variable	temperature equal 250.0
variable	tempDamp equal 100.0
include		in.pressure
variable        pressure equal 4000
variable        pressureDamp equal 1000.0 # This is 1 ps
include		in.seed
variable        seed world 745823

units		real
atom_style	full
include		in.box
read_data       iceV.data
Reading data file ...
  triclinic box = (-3.3947780 0.0048050000 -0.13785900) to (15.004777 22.575194 19.367857) with tilt (0.0000000 -6.7926110 0.0000000)
  1 by 1 by 1 MPI processor grid
  reading atoms ...
  1008 atoms
  scanning bonds ...
  2 = max bonds/atom
  scanning angles ...
  1 = max angles/atom
  reading bonds ...
  672 bonds
  reading angles ...
  336 angles
Finding 1-2 1-3 1-4 neighbors ...
  special bond factors lj:    0        0        0       
  special bond factors coul:  0        0        0       
     2 = max # of 1-2 neighbors
     1 = max # of 1-3 neighbors
     1 = max # of 1-4 neighbors
     2 = max # of special neighbors
  special bonds CPU = 0.000 seconds
  read_data CPU = 0.031 seconds
include 	in.setup
variable	out_freq equal 500
variable	out_freq2 equal 500

timestep	2.0

neigh_modify    delay 7 every 1

include		in.tip4p
# This is TIP4P/Ice

# create groups ###
group ox type 2
336 atoms in group ox
group hy type 1
672 atoms in group hy

# set charges - beside manually ###
set group ox charge -1.1794
Setting atom values ...
  336 settings made for charge
set group hy charge 0.5897
Setting atom values ...
  672 settings made for charge

# ### TIP3P Potential Parameters ###
pair_style lj/cut/tip4p/long 2 1 1 1 0.1577 8.5
pair_coeff 1 1*2 0.000 0.000
pair_coeff 2 2 0.21084 3.1668
bond_style  harmonic
bond_coeff  1 450 0.9572
angle_style harmonic
angle_coeff 1 55 104.52
kspace_style pppm/tip4p 1.0e-5
pair_modify tail yes

thermo          ${out_freq}
thermo          500
thermo_style 	custom step temp pe etotal epair emol press lx ly lz xy xz yz vol pxx pyy pzz pxy pxz pyz

restart 	${out_freq} restart.lmp.${pid} restart2.lmp.${pid}
restart 	500 restart.lmp.${pid} restart2.lmp.${pid}
restart 	500 restart.lmp.0 restart2.lmp.${pid}
restart 	500 restart.lmp.0 restart2.lmp.0


include         in.dump
dump            myDump all atom ${out_freq2} dump.water.${pid}
dump            myDump all atom 500 dump.water.${pid}
dump            myDump all atom 500 dump.water.0
dump            myDump2 all dcd ${out_freq2} dump.dcd
dump            myDump2 all dcd 500 dump.dcd
dump_modify     myDump append yes
dump_modify     myDump2 append yes


timer           timeout 00:55:00 every 1000
New timer settings: style=normal  mode=nosync  timeout=00:55:00

fix 		1 all shake 1e-6 200 0 b 1 a 1
       0 = # of size 2 clusters
       0 = # of size 3 clusters
       0 = # of size 4 clusters
     336 = # of frozen angles
  find clusters CPU = 0.000 seconds
fix             2 all nph tri ${pressure} ${pressure} ${pressureDamp}
fix             2 all nph tri 4000 ${pressure} ${pressureDamp}
fix             2 all nph tri 4000 4000 ${pressureDamp}
fix             2 all nph tri 4000 4000 1000
fix             3 all temp/csvr ${temperature} ${temperature} ${tempDamp} ${seed}
fix             3 all temp/csvr 250 ${temperature} ${tempDamp} ${seed}
fix             3 all temp/csvr 250 250 ${tempDamp} ${seed}
fix             3 all temp/csvr 250 250 100 ${seed}
fix             3 all temp/csvr 250 250 100 745823
velocity 	all create ${temperature} ${seed} dist gaussian
velocity 	all create 250 ${seed} dist gaussian
velocity 	all create 250 745823 dist gaussian

run             500000
PPPM initialization ...
  extracting TIP4P info from pair style
  using 12-bit tables for long-range coulomb (../kspace.cpp:340)
  G vector (1/distance) = 0.3786717
  grid = 24 27 36
  stencil order = 5
  estimated absolute RMS force accuracy = 0.0025036634
  estimated relative force accuracy = 7.5397079e-06
  using double precision FFTW3
  3d grid and FFT values/proc = 50490 23328
Last active /omp style is kspace_style pppm/tip4p/omp
Neighbor list info ...
  update every 1 steps, delay 7 steps, check yes
  max neighbors/atom: 2000, page size: 100000
  master list distance cutoff = 10.8154
  ghost atom cutoff = 10.8154
  binsize = 5.4077, bins = 5 5 4
  1 neighbor lists, perpetual/occasional/extra = 1 0 0
  (1) pair lj/cut/tip4p/long/omp, perpetual
      attributes: half, newton on, omp
      pair build: half/bin/newton/tri/omp
      stencil: half/bin/3d/tri
      bin: standard
Per MPI rank memory allocation (min/avg/max) = 41.61 | 41.61 | 41.61 Mbytes
Step Temp PotEng TotEng E_pair E_mol Press Lx Ly Lz Xy Xz Yz Volume Pxx Pyy Pzz Pxy Pxz Pyz 
       0          250   -5066.8341   -4566.8032   -5066.8341            0   -4117.8896    18.399555    22.570389    19.505716            0    -6.792611            0    8100.4335   -2807.1366    351.39328   -9897.9254   -707.22757    -1050.075   -3136.0424 
     500    252.83786   -4840.7652   -4335.0582   -4840.7652            0    4101.8123    18.040226    23.179008    19.365805  -0.18355896   -6.6299282   0.17196777    8097.8993    4295.9189    5116.8322    2892.6858    416.71631   -156.51073   -222.60417 
    1000    248.92059   -4837.4156   -4339.5436   -4837.4156            0    5518.3153    18.117261    22.629522    19.606068  0.045202904   -6.5126071 -0.055178724     8038.193    5317.2742    6131.2237    5106.4481   -593.91509    20.381619   -380.97104 
    1500     257.3343   -4861.4487   -4346.7483   -4861.4487            0    4984.4481    17.827312     23.19942     19.44347  -0.21776097   -6.5502608   0.24584613    8041.4943     5040.833    5160.7489    4751.7625    11.626946    752.25816    732.83745 
    2000    249.86372   -4838.1432   -4338.3849   -4838.1432            0    3179.6721    18.277907    22.997793     19.44513 -0.074562994   -6.7758008  0.010612606    8173.7901    1330.4568    4077.5646     4130.995   -99.260062    12.259609    776.01627 
    2500    252.96084    -4822.841   -4316.8881    -4822.841            0    2109.1195    18.341325    23.088615    19.376716  -0.29433076   -6.2856077  0.071322599      8205.57    2351.9124    1045.5045    2929.9417     272.3503    182.41391    438.92979 
    3000    241.63944   -4829.9509   -4346.6422   -4829.9509            0    3018.2986    18.100159    23.043823    19.583492 -0.025257886   -6.7500524   0.10563689    8168.2131      2254.75    3843.0981    2957.0476    361.13774    1276.1078    2296.3451 
    3500    244.00544   -4845.2292   -4357.1882   -4845.2292            0    4193.6313    17.990639    23.007255    19.580018  -0.21228561   -6.2623195  0.094967886    8104.4672    6525.3693    3166.4614    2889.0631    1312.0474   -510.95046     427.9634 
    4000    239.28176   -4856.2303   -4377.6372   -4856.2303            0     4635.844    18.086436    23.079506    19.368195  0.074111784   -6.7118702  0.081285185    8084.7886    6203.5859    3116.0116    4587.9344   -275.34693     68.11027   -654.80706 
    4500    252.52044   -4853.2919   -4348.2198   -4853.2919            0    3822.1801    18.150583    22.776162    19.502107  -0.13490161   -6.5248222   0.18836945    8062.1832    2033.4904    4551.4116    4881.6385    1007.6875   -109.23581   -438.70153 
    5000    249.26686   -4832.4097   -4333.8451   -4832.4097            0    3667.5137    17.896292    23.339674    19.374707 -0.027123829   -6.4494502 0.0055357025    8092.6913    4244.6864    1701.6335    5056.2213   -550.85716   -583.54291   -103.82045 
    5500    245.53377   -4859.5089    -4368.411   -4859.5089            0    3254.8491     18.29197    22.626357    19.635648  -0.24428629   -6.9334855     0.252719    8126.8147    1495.7762    4403.4706    3865.3005    484.85778    92.356391   -482.41922 
    6000    248.70343   -4819.1137   -4321.6761   -4819.1137            0    4451.0102    18.072432    23.184651    19.350809 -0.022467624   -6.3669057  -0.07815418    8108.0477    5393.8896    2813.2387    5145.9023    29.985059   -422.79846    209.40455 
    6500    243.03768   -4845.4451   -4359.3397   -4845.4451            0    4010.5213    18.416114    22.715284    19.381384  -0.56716744   -7.0140253    0.2753328    8107.7614    3217.0044    3671.1951    5143.3644    1296.6339    675.58748   -1322.3459 
    7000    250.64194   -4839.4121   -4338.0972   -4839.4121            0    4485.7017      18.1122    23.086158    19.294514   0.26772889    -6.398389 -0.081728717    8067.8296    4179.0703    4485.1032    4792.9315   -1323.8791   -431.86586    332.28473 
    7500    239.98863   -4834.1733   -4354.1664   -4834.1733            0    4799.3284    18.044737    22.906079    19.502447  -0.16804205   -6.5171376   0.13310591    8061.0277    4893.7331    4759.8559    4744.3962    799.29954    604.72198      1288.03 
    8000    246.93636   -4827.2004   -4333.2972   -4827.2004            0    3709.0952    17.989147    23.118925    19.531169  -0.16947484   -6.5063649  -0.11338064    8122.8126    2722.9669    4308.1815     4096.137   -300.53092    293.05642   -473.33459 
    8500    257.34542   -4845.6886    -4330.966   -4845.6886            0    3734.4652    18.100938    22.892117    19.536951  -0.38285981   -6.3775017  0.047895387    8095.5024    3682.8933    4451.2797    3069.2226     89.51501    255.50144    1148.5379 
    9000       244.29   -4790.4839   -4301.8738   -4790.4839            0      4988.82    18.153044    23.005105    19.373128   0.15668319    -6.714772   0.23388972    8090.4641      6417.83    5109.3689     3439.261   -1239.5408    1464.8125   -2520.6575 
    9500    258.24661   -4820.2282   -4303.7031   -4820.2282            0    3600.3406    18.319499    22.694004    19.530341  -0.17423641   -6.6298172  0.070460026    8119.5982    2584.5516    3083.0211    5133.4491    654.39323   -300.68083   -412.23233 
   10000     258.1733   -4835.9846   -4319.6061   -4835.9846            0    1843.8898    18.050157    23.491846    19.293469  -0.26273656    -6.668495  -0.19133746    8181.0386    2854.3649    253.16612    2424.1383    240.38222   -346.67186    950.91056 
   10500    250.58231   -4799.4991   -4298.3035   -4799.4991            0    3209.3477    18.387627    22.788083    19.540684 -0.050178195   -6.6859562   0.24031349    8187.9131    2229.8761    3460.3031    3937.8639   -859.32292    -849.6076   -1488.7114 
   11000    251.04832   -4846.9256   -4344.7979   -4846.9256            0    2679.8368     18.06255    23.198026    19.408336  -0.14090299    -6.540823   0.11343853    8132.3936    1450.1272    3349.1608    3240.2224    406.10739   -66.611785    1487.0279 
   11500    248.20862   -4857.2017   -4360.7538   -4857.2017            0    4717.1568    18.084791    22.796001    19.591488  -0.35106682   -6.7707036  -0.11465261    8076.8052    4176.8494    5078.7662    4895.8547    1902.2356    439.51996    1321.3721 
   12000    263.18396   -4817.8275   -4291.4271   -4817.8275            0    4711.1839    18.053228    22.994934     19.49891 -0.055270414   -6.5015537  0.084519787    8094.6369    6364.9979    3937.7056    3830.8483     1541.473    305.33936   -1209.0608 
   12500    256.03541   -4838.9381   -4326.8356   -4838.9381            0    3179.5942    18.158579    23.100281    19.394917   0.14249775   -6.8384797   0.30030329     8135.552     3991.216    3050.3662    2497.2004   -1478.6551    402.21543   -1641.8964 
   13000    256.42907   -4810.8719    -4297.982   -4810.8719            0    4681.3269     18.23139    22.872143    19.526763   -0.1957972   -6.6344883  0.034201311    8142.4832    5938.3925    3699.0594    4406.5288   -458.67605   -756.38798    87.573273 
   13500    242.03983   -4841.1213   -4357.0117   -4841.1213            0    4208.2534    17.973783    23.179717    19.358335  -0.18814473   -6.3952791 -0.075812271     8065.209    3425.1878    4957.4114     4242.161    376.56429   -286.80181    484.21033 
   14000    253.84844   -4848.5852    -4340.857   -4848.5852            0     3737.038    18.245527    22.754218    19.600498  -0.29787256   -6.8129002  0.050962012    8137.3961     2892.729    4872.0369     3446.348    1025.4902    123.12887    385.00492 
   14500    239.03341   -4840.6629   -4362.5666   -4840.6629            0    4530.9843    18.056965    23.202532    19.354146  0.083903849   -6.4389313 -0.0048142743    8108.7545    5767.5674    3596.6434    4228.7419   -849.18119   -807.06113   -224.78232 
   15000    250.01719   -4834.3761   -4334.3109   -4834.3761            0    3293.4322    18.172911    22.813063    19.606887  -0.19288021   -6.7347358   0.42470065    8128.6186    2078.5133    4152.7445    3649.0388     34.49761    1871.1667   -2092.6534 
   15500    249.01271   -4827.9211   -4329.8649   -4827.9211            0    4264.9334    18.021873    23.121428       19.492 -0.0042217663   -6.4929279 -0.084716487    8122.1496    4308.6636    4159.7403    4326.3962    729.52384    455.58156   -125.11075 
   16000    240.33742   -4806.9728   -4326.2682   -4806.9728            0    5046.4583    18.248797    22.911908    19.368515  -0.45304185   -6.5807627   0.05769521    8098.2621    6160.6312    5087.2849    3891.4587   -60.439336    531.84252   -50.807414 
   16500    253.48813   -4830.2699   -4323.2623   -4830.2699            0    4157.0975    18.055391    23.132321    19.384082   0.31110062   -6.5109022  0.013834294    8096.0159    3350.9873    3694.3974    5425.9077   -631.36776    -94.55307   -265.33162 
   17000        251.8   -4840.8844   -4337.2533   -4840.8844            0    3181.9959    18.150526    22.780219    19.707322  -0.31687668   -6.6914034   0.33335035    8148.4444     5474.819    3418.0512    653.11753   -382.63998    339.68429   -1774.0126 
   17500    252.57721   -4824.1489   -4318.9632   -4824.1489            0    3439.5339    18.108633    23.098531    19.508976   0.13921468   -6.5171128 -0.058248371    8160.2692    3824.4723    2874.9583    3619.1711    68.022715   -689.97618    2273.2678 
   18000    250.85686     -4864.02   -4362.2753     -4864.02            0    2137.1546    18.232933     23.01239    19.463783  -0.66347901   -6.8216465   0.39770322    8166.6796    1025.2399    3446.8841    1939.3396    1441.7043    1147.3246    1664.9677 
   18500    249.30015   -4850.3591    -4351.728   -4850.3591            0    4304.2579    18.060238    23.043355    19.421275 -0.014643213   -6.3290726  -0.17877441    8082.5225    2929.9538    4549.2756    5433.5443    483.97698   -548.38846    941.98114 
   19000    254.40036   -4841.7909   -4332.9587   -4841.7909            0    5488.9548    18.118235    22.995304    19.336739  -0.33122516   -6.7745426   0.32998562    8056.3491    5308.5523    4464.0588    6694.2533    712.95666   -302.60359    238.04178 
   19500    252.13796   -4835.5538   -4331.2467   -4835.5538            0    5402.9988    18.047105     22.88543    19.511808   0.10544926   -6.6530624  -0.10917527     8058.684    5683.6043    5513.0675    5012.3247   -42.265318    13.572505    2608.5714 
   20000    258.07439    -4858.083   -4341.9023    -4858.083            0    3711.2999    17.997735    23.096163    19.485656   -0.2805292   -6.3516185   0.20622607    8099.7708    3609.8387    3523.9487    4000.1123    -140.5699   -314.63482    -160.1933 
   20500    256.71178   -4839.5886   -4326.1333   -4839.5886            0    3607.3639    18.292258    22.863318    19.474726  0.040676325   -6.9321214    0.0989058    8144.7532    2858.1909    4073.6391    3890.2616   -912.28578    839.56322    1144.1105 
   21000    237.10068   -4821.7826   -4347.5519   -4821.7826            0    3643.2879     18.09167    23.309493    19.325242  -0.47052908   -5.9318979  0.030494532    8149.6027    2943.9846    3355.0655    4630.8136    2568.6874    305.68471    1534.5618 
   21500    244.82382    -4858.685   -4369.0071    -4858.685            0    3835.8295    18.186907    22.825986    19.548121 -0.055755358   -6.8202966  0.043236331    8115.0914    2821.3712     4606.183    4079.9344   -775.74946    1128.4994    -755.2274 
   22000    247.90584   -4830.4871   -4334.6448   -4830.4871            0    3922.2871    18.028597     23.20614    19.456396 -0.095078899   -6.3815578   0.36627704    8140.0533    5786.3975    2820.1984    3160.2655    -200.2982    481.28686   -2857.1247 
   22500    240.79701   -4830.8247    -4349.201   -4830.8247            0    3481.9258    18.246392    22.825196    19.564154  -0.13217978   -6.4090007 -0.039083234    8148.0295    2764.2356    4424.8855    3256.6563    909.58759     -655.854    399.60522 
   23000    250.52402   -4866.2014   -4365.1224   -4866.2014            0    3451.2416    18.145257    23.100563    19.380464  -0.29762725   -6.8267653  -0.10269056    8123.6246     2740.173    2892.4721    4721.0795   -18.128465    -16.30333    1061.1968 
   23500    245.91153   -4826.2402   -4334.3867   -4826.2402            0    4600.3414    18.147395    22.880473    19.505497 -0.069893551   -6.1120879   0.27350759    8099.0911    4535.7498    5157.0503     4108.224   -1046.4298   -77.672107   -90.135452 
   24000    257.60913   -4802.6724   -4287.4224   -4802.6724            0    6159.5511    18.081355     22.93078    19.509195  0.035244095   -6.6789203   0.15458154    8088.8941    4992.5103    6608.1564    6877.9867   -355.23478     805.1148   -1809.5546 
   24500    236.77528   -4819.7436   -4346.1638   -4819.7436            0    4602.6954    18.090432     22.98262    19.497583  -0.17868416   -6.6507562   0.27357581    8106.4232    6917.2902    4138.3758      2752.42    564.15322    -909.9311    953.10301 
   25000    256.19313   -4810.9746   -4298.5567   -4810.9746            0    4493.3965    18.195804    22.913126     19.37919 -0.059353961    -6.440118  -0.35096491    8079.6254    4226.3834    4385.5143    4868.2918    426.09739   -405.82827     2710.317 
   25500    258.29059   -4855.6593   -4339.0462   -4855.6593            0    4262.2152    18.195425    23.060609    19.291734  -0.27045711   -6.6134255   0.19217776    8094.7648    2388.3744    4477.3663    5920.9049    317.36295    271.80617   -464.24663 
   26000    254.21327   -4822.4564   -4313.9985   -4822.4564            0    5647.9752    18.021734    22.955077     19.53657   0.23304253   -6.5954373   0.17175725    8082.0895    5430.7334    5646.4666    5866.7256   -1572.0165    21.620872   -149.09441 
   26500    261.23124   -4864.5026   -4342.0078   -4864.5026            0    4779.5369     17.99553    22.773809    19.696748  -0.52028006   -6.3464675  0.032189039    8072.2546    4261.9229    5056.4434    5020.2444    1539.3954    347.50439    1072.8982 
   27000    260.82416    -4826.453   -4304.7724    -4826.453            0    4237.7779    18.168493    23.160229    19.326668 -0.016149536    -6.681784 -0.068290999    8132.4002    4139.4873    3937.0556    4636.7908   -578.28198   -109.84255    136.72043 
   27500    252.02132   -4825.7738      -4321.7   -4825.7738            0    5143.1567    18.195708    22.946863    19.353971 -0.092631069   -6.4896207   0.31094652    8080.9491    4817.9928    4440.1621    6171.3153    -67.19467    293.78398   -250.44231 
   28000    247.60755   -4846.3849   -4351.1392   -4846.3849            0    3993.5639    18.100601    22.917455    19.495515 -0.045089112   -6.5374424  0.010631847    8087.1238    5031.2941    4337.3072    2612.0904    918.45977   -478.59787    1771.8123 
   28500    254.16033   -4809.0809   -4300.7288   -4809.0809            0    3423.9347    17.889912    22.950553    19.750015  -0.33813551   -6.3265822  0.083676313     8109.028    3581.5215    3498.1307    3192.1518    1682.0133    -76.52027    143.83171 
   29000    255.34158   -4841.7717    -4331.057   -4841.7717            0    6072.0755    18.090689    22.793013    19.484162   0.10903596   -6.6981686   0.17642518    8034.1251    6968.6578    6077.6895    5169.8791    -631.4993   -391.68229     83.98493 
   29500    243.76371   -4830.1892   -4342.6317   -4830.1892            0    4860.8311    18.194786    23.058237    19.225013  -0.35443807    -6.505302    0.3053052     8065.656    2473.7117    5828.6703    6280.1112    -636.6334    175.23911    6.5173911 
   30000    257.70645   -4817.3014   -4301.8566   -4817.3014            0    3795.4868    18.279166    22.831857    19.461816  0.064566542   -6.7747124  -0.39959557    8122.3367    4836.0333    3361.0005    3189.4265   -1496.7343    97.190393    1700.0182 
   30500     246.6021   -4833.8741   -4340.6395   -4833.8741            0    3691.2532    18.154152    22.968072    19.477185  -0.26080019   -6.5926457   0.35720092    8121.3216    3485.4897    3533.0346    4055.2352   -112.42694    60.963534   -1110.4028 
   31000    251.94533   -4808.3459   -4304.4241   -4808.3459            0    3533.5739    18.048777    23.149912    19.486274    0.4533868   -6.6579047 -0.018055359     8141.903    5063.8286    2583.5492    2953.3438   -2268.9425    18.971305   -1765.6449 
   31500    250.01807   -4826.4494   -4326.3823   -4826.4494            0    4193.0231    18.211336    22.949957    19.375028  -0.52293621   -6.5432667   0.15176805    8097.7807    3948.6802     3967.235     4663.154    694.85493   -563.27339    1378.2922 
   32000    258.80559   -4841.8909   -4324.2477   -4841.8909            0      4536.59     18.23603    22.930086     19.39595  -0.16576926   -6.6965383 0.0060661833    8110.4893    2205.7196    5496.7396    5907.3107    74.713167    414.99294    1278.1579 
   32500    246.66173   -4850.4642   -4357.1103   -4850.4642            0    1969.1599    18.072454    23.090446    19.516418 -0.048533546   -6.4043942   0.28335243    8144.2212    2017.3233    1744.2655    2145.8908   -588.96338   -711.45907   -361.98563 
   33000    249.93458   -4837.2728   -4337.3727   -4837.2728            0    2623.5529    18.209721    22.872235    19.564425 -0.071116811   -6.7135167   0.13684253    8148.5245    2454.7118    2699.6689    2716.2782   -57.841032   -328.76252    734.44694 
   33500    248.80422   -4835.2691   -4337.6299   -4835.2691            0    4159.7955     17.99074    23.214248     19.37352  -0.19340948   -6.3432513  -0.17158348    8091.1859    5562.8223    3795.3831    3121.1811   -387.55053    173.56036     1534.898 
   34000    247.07922    -4856.727    -4362.538    -4856.727            0    4042.0205    18.277246    22.704494    19.480344  0.048340464   -6.4156298   0.19425249    8083.8677    4612.9563    3888.1534    3624.9516    -763.3807   -801.23321   -519.25692 
   34500    253.89443   -4876.8231   -4369.0029   -4876.8231            0     4495.311    17.997859    23.023704    19.409971  -0.14148778   -6.6972512   0.22106193     8043.053     3709.342    5960.0094    3816.5815    924.91231    354.16211    567.39634 
   35000    246.94547    -4857.094   -4363.1725    -4857.094            0    4911.7965    18.040567    22.700465    19.641676  -0.11917781   -6.2899741 -0.050802731    8043.8413    6423.2938     5484.691    2827.4048     926.8378   -786.49639    787.22272 
   35500    262.83793   -4872.6808   -4346.9725   -4872.6808            0    3409.9043    18.082767     23.16333    19.357498  -0.20370967   -6.8579355 0.0067375715    8108.0256    3866.5637     3159.689    3203.4603   -402.34165    777.68704    898.34716 
   36000    241.62328   -4837.3457   -4354.0693   -4837.3457            0    4931.9364    18.224757    22.855528    19.350474  0.033312578   -6.2832555   0.32423564    8060.1776    3868.9902    5365.5554    5561.2635   -739.32813   -619.14729   -2567.0409 
   36500    260.40227   -4830.7384   -4309.9017   -4830.7384            0    5104.5082    18.017115    23.094851    19.408297  -0.13204576   -6.5614489   0.10004484    8075.8426     4613.746    5569.1959    5130.5828   -147.95443    965.48612   -1423.4334 
   37000     244.0843   -4822.0535   -4333.8548   -4822.0535            0    5483.9203    18.111585    22.761741     19.59605  -0.21027571   -6.7901029   0.20006522    8078.4954    6123.9619    5544.4867    4783.3122   -722.42256    35.370791   -948.38971 
   37500    247.02589   -4834.0564   -4339.9741   -4834.0564            0      4538.25    18.039837    23.208002    19.332598 -0.063601937   -6.0630737 -0.049071882    8093.9514    3097.5795    4245.2937    6271.8766   -180.64462    149.10424    1218.7897 
   38000    254.54459   -4845.5152   -4336.3946   -4845.5152            0    4152.0523    18.227547    22.937493    19.408276  -0.18798504   -6.9358187   0.21110762    8114.4886    3924.5415    2529.7675    6001.8479    601.75118   -446.48654   -252.20929 
   38500    248.97649   -4837.5323   -4339.5486   -4837.5323            0    3781.9433    18.139787    23.037608    19.430264  0.075833841   -6.3397483  0.089350927    8119.8549    5589.7715    2568.5187    3187.5396   -235.69234   -846.78686    579.96941 
   39000    251.66558   -4846.0292    -4342.667   -4846.0292            0    4610.8601    18.102622    22.941438    19.418383  -0.28708085   -6.5483076  0.023266185     8064.458    5754.0491    5377.3407    2701.1903   -109.86127    405.56281   -266.61249 
   39500    250.24078   -4833.5777   -4333.0653   -4833.5777            0    5574.0156    18.210899    22.787101    19.447922 -0.090743876   -6.9175539  0.043950103    8070.3739    4958.7411    6257.1788    5506.1269   -242.58964     1343.696    37.292065 
   40000    252.07512    -4833.955   -4329.7736    -4833.955            0    3180.5873     18.06017    23.163696    19.375647  -0.14667468   -6.3189356   0.33479145    8105.6134      2814.49    2935.3136    3791.9582   -208.23663   -230.76279   -1206.0727 
   40500     251.1203   -4869.2309   -4366.9592   -4869.2309            0    4249.9342    18.212934    22.581711    19.650341 -0.066791352   -6.8419234 -0.044862724    8081.7766    4409.4184    5937.9865    2402.3976   -438.22235    816.76678    1064.0418 
   41000    244.70368    -4816.446   -4327.0084    -4816.446            0    4053.3927    17.958146    23.517063    19.251127  -0.39429382   -6.4370954   0.14279185    8130.1911    4404.3375    2786.5787    4969.2618    590.26272   -324.24901   -1272.6644 
   41500    260.44698    -4854.398   -4333.4719    -4854.398            0    4546.8868    18.284709    22.692996    19.483152  0.018807043   -6.6782811  0.091428513    8084.2386    3112.1616    5926.8647     4601.634   -1561.3893    1406.6915     676.1206 
   42000    260.64387   -4849.4256   -4328.1057   -4849.4256            0    5619.4999    17.875747    23.169493    19.346766  -0.13585022   -6.5072389   0.13485586    8012.8887    6553.4231     4321.119    5983.9577   -96.699816   -994.70934     1099.839 
   42500    241.03377   -4813.7092   -4331.6119   -4813.7092            0    5073.9328    18.197605    22.578839      19.7091 -0.082801629   -6.2313166 -0.081131449    8098.0907    6514.7973     4959.257     3747.744    316.76055   -1126.5514     1081.287 
   43000    257.89196   -4834.2153   -4318.3995   -4834.2153            0    3302.2382    17.987325    23.278775    19.350156   -0.2348911   -6.8939461    0.2797751    8102.3534    5794.0946    2307.3294    1805.2906    833.97849   -684.68624   -1162.8981 
   43500    244.99341    -4830.259    -4340.242    -4830.259            0    4003.4881     18.11657    22.862079    19.562364   0.10142197   -6.2770896   0.02457177    8102.3879    4891.7719    3739.8927    3378.7996    242.09004   -606.11999    1311.2353 
   44000    250.12403   -4867.2793   -4367.0003   -4867.2793            0    3488.6879    18.205987    22.956035    19.398329  -0.66639575   -6.6209016   0.06986224    8107.2847    1536.8001    4375.9835    4553.2801     1136.322    716.92771   -544.45279 
   44500    247.15074   -4827.6185   -4333.2864   -4827.6185            0    4883.7429    18.124156    23.068822    19.357107 -0.0041807531   -6.6996521  0.080099794     8093.263    3692.2095    5120.5819    5838.4373   -425.54643    616.42312    864.74083 
   45000    251.29197   -4867.1163   -4364.5013   -4867.1163            0     3209.672    18.251035    22.731482    19.521269  -0.26449915     -6.16836    0.3846171    8098.8487    1519.0385    5036.8068    3073.1708   -457.68931   -1045.5974   -1384.1201 
   45500    236.51667   -4862.0344   -4388.9719   -4862.0344            0    3345.4558    18.077404     23.15811    19.398022 -0.015443838   -7.0516276  0.093438152    8120.7595    3993.3861    3735.7915    2307.1898   -485.22651    584.30186    250.93308 
   46000    242.71833   -4838.1589   -4352.6923   -4838.1589            0     4474.917    18.139938    22.817604    19.585646  -0.27460626   -6.2373473  0.043077599    8106.6931     5532.251    4653.0968    3239.4031     283.4283   -387.17243   -934.60181 
   46500    239.30803   -4829.4363   -4350.7907   -4829.4363            0    3711.0439    18.102365    23.223623     19.35587 -0.071590581   -7.1332881  -0.12085358    8137.2562    3362.9403    4271.2955    3498.8958   -709.42012    1588.4629   -420.24657 
   47000    254.61228   -4845.8469   -4336.5909   -4845.8469            0    2467.3139      18.3065    22.728386    19.623924  -0.22586176   -6.3389522   0.33093599    8165.0672    2981.7835    3653.0396    767.11849    181.20326   -358.91437   -634.09555 
   47500    254.83437   -4835.6527   -4325.9525   -4835.6527            0    4437.2687    18.050119    23.078106    19.425447  0.061349307   -6.5656123  0.048535836    8091.9141    5253.0123    3636.1501    4422.6437   -183.67893   -704.82379    913.71745 
   48000    249.82781   -4854.7444   -4355.0579   -4854.7444            0    4909.6983    18.193173    22.731923    19.537679  -0.62671012   -6.7703103   0.10265917    8080.1157    3631.6294    6092.0513    5005.4142    1748.3287    276.08157    672.10297 
   48500     261.5269    -4840.931   -4317.8449    -4840.931            0    3847.0301    17.956182    23.170087    19.480225   0.07362669   -6.1979338 -0.055905671    8104.6753    3794.8534    3598.4445    4147.7924   -305.41525   -391.43847    144.09993 
   49000    269.97991   -4859.3476   -4319.3544   -4859.3476            0    3344.7115    18.284925    22.867059    19.499453  -0.12230825   -7.1582668   0.29303031    8153.1591    4399.5374    1522.2596    4112.3376   -563.84282   -49.091889   -3269.2671 
   49500    258.74943   -4782.1663   -4264.6354   -4782.1663            0    4232.0585    18.116502    23.183167    19.372056  0.068157236   -6.1106458  0.016004328    8136.2227    3280.8411    3227.8141    6187.5204    134.13504   -680.80799    3402.0269 
   50000    245.16857   -4853.1821   -4362.8147   -4853.1821            0    3734.6859    18.123266    22.827949    19.570951  -0.50486883   -6.6581406  0.013724716    8096.8352    3111.3979    5083.4045    3009.2552    630.78164    459.41295   -1435.8832 
   50500    247.29743   -4835.5291   -4340.9037   -4835.5291            0    3715.3839    18.091248    23.009165    19.515392 -0.013145526   -6.6859222  0.023421905    8123.5652     3884.429    3186.1296    4075.5931   -484.49848   -268.95162    1273.1825 
   51000    272.89823   -4816.3604   -4270.5302   -4816.3604            0    3139.9987      18.2837    22.945247    19.425665  -0.27877641   -6.6384777   0.24678207    8149.5329    2427.3304    2728.9976    4263.6682   -576.92884    73.962081   -1163.4386 
   51500    243.90465   -4847.2169   -4359.3774   -4847.2169            0    3493.2115     18.18073    23.038501    19.370244  0.073109761   -6.7464123  0.041673098    8113.3577    3268.5761    3264.0269    3947.0314    -1188.912   -445.78462    49.295599 
   52000     243.7349   -4845.2155   -4357.7156   -4845.2155            0    5125.2953    18.131056    22.857006    19.420958  -0.16410187   -6.4048494    0.1327335    8048.4654    4339.2498    5670.1367    5366.4994    711.05919    -296.8719   -425.65966 
   52500    252.58724   -4799.4352   -4294.2295   -4799.4352            0     5906.914     17.95571    23.044048    19.418347  -0.38745231   -6.7672016 -0.051774777    8034.7728    5063.3896    5974.6108    6682.7416    898.29626    609.55289    -458.8636 
   53000    242.01369    -4852.734   -4368.6768    -4852.734            0    5330.7176    18.048106    22.809017    19.582151 -0.062934673   -6.3476277   0.04144281    8061.1797    6730.8859    4326.9438    4934.3231   -97.007848    316.49972   -769.44579 
   53500    245.33605   -4836.0553   -4345.3529   -4836.0553            0    4721.0656    18.112504    23.052848     19.38468  -0.20442218   -6.7036662   0.23974693    8093.9727    5894.7877    3916.5676    4351.8415    -133.7746   -813.49021    320.69745 
   54000    256.10496   -4815.9447   -4303.7031   -4815.9447            0    4547.1906    18.473646    22.712696     19.35802 -0.043290439   -6.5114462  -0.20051598    8122.3599    3294.9896    5016.8889    5329.6933     472.5556    308.60224    846.06725 
   54500    241.97992    -4865.123   -4381.1333    -4865.123            0    5594.3253    18.012479    22.973601    19.376891  -0.28022275   -6.4994802   0.13012358    8018.3805    6366.0879    4825.9906    5590.8972   -532.18341   -1295.2017   -950.76515 
   55000    252.12462   -4818.9419   -4314.6615   -4818.9419            0     5447.181    17.951524    23.043012    19.518845 -0.042247044   -6.7807227   0.18401356    8074.1103    5333.4799    5143.7474    5864.3157   -935.17274   -790.70509    361.40853 
   55500     242.7769   -4846.4108   -4360.8271   -4846.4108            0    5127.6042    18.118433    22.707924    19.620736  -0.25467968   -6.2627157 -0.047972963    8072.5988    4630.4883     5737.195    5015.1291   -488.24995    86.854801   -52.737203 
   56000    267.19371   -4827.1076   -4292.6872   -4827.1076            0    4813.5023    18.142591    23.191676    19.274572  -0.19514272   -6.8197777  0.077756273    8109.9129     5384.468    3427.1578    5628.8812     438.0365    34.278574    2096.1947 
   56500    261.69395   -4822.5019   -4299.0817   -4822.5019            0    6670.4553    18.229084    22.636774     19.49651 -0.019636721   -6.3968622   0.17983898    8045.1892    6109.3644    7123.8641    6778.1375   -1106.2555   -597.17004   -567.18864 
   57000    245.18435   -4857.4589     -4367.06   -4857.4589            0     4330.137    17.870983    23.331064    19.421959  -0.12547486   -6.4297378   0.21717003    8097.9674     5550.793    2830.2266    4609.3913   -136.95816    44.620906    689.85952 
   57500    256.40646   -4839.9693   -4327.1247   -4839.9693            0    4619.7473    18.179438    22.869183    19.503343  -0.29853297   -6.7266863   0.02886436    8108.4934    3034.3053    5438.8283    5386.1084    467.62646    228.61661   -8.0459006 
   58000    255.09065   -4849.4563   -4339.2434   -4849.4563            0    2152.6191    18.182028    23.039875    19.461373  0.080521772   -6.1481186   0.03361535    8152.5961    910.25547    2862.7954    2684.8064    408.27085    -764.1656    708.29111 
   58500    242.84269   -4841.8569   -4356.1415   -4841.8569            0    5348.2016    18.168017    22.967121    19.339552  -0.27969055    -7.032488   0.22808791    8069.7575    4820.1788     4699.242    6525.1839    762.40445    18.237618    294.15524 
   59000    250.28001   -4836.2553   -4335.6643   -4836.2553            0     4367.478    18.151253    22.904073    19.461836 -0.040879307   -6.3963638 -0.067340864    8091.0176     3803.062    3981.5615    5317.8104   -1257.8425    136.22263   -475.00147 
   59500    254.63894   -4827.0057   -4317.6964   -4827.0057            0    3834.8626    18.051203    23.063518    19.517517  -0.34442938   -6.6302897   0.22401539    8125.6154    3344.1429    3315.5997    4844.8451    289.85281   -1042.3581    -218.8022 
   60000    247.73824   -4835.6173   -4340.1102   -4835.6173            0    3205.8129    18.169812    22.895005    19.491638   0.13791185   -6.6946783  0.088646284    8108.4811    2651.8154     2545.458    4420.1653    -783.3867    -599.4545   -1508.1626 
   60500    236.55731   -4839.8915   -4366.7476   -4839.8915            0    5696.9269     18.16483    23.000128    19.365336  -0.36260343    -6.391255   0.12443495    8090.7099    5396.4994    5741.6443     5952.637    687.16945    315.81126   -627.36558 
   61000    255.82449   -4821.6207   -4309.9401   -4821.6207            0     2934.291    18.112255    23.165483    19.368444  -0.25234676   -6.7470699 -0.083267757    8126.5952    3728.5252    1255.8676    3818.4801   -462.24492   -1053.1249    437.03172 
   61500    252.41901   -4851.5538   -4346.6846   -4851.5538            0    5839.0597    18.095108    22.675593    19.575573 -0.041259755   -6.1555258  0.041849992    8032.1963    6018.2049    6561.9741    4937.0003   -1105.0216    -593.2287    786.97296 
   62000    259.99901   -4808.7403   -4288.7101   -4808.7403            0    3006.9619    18.146988    23.093584    19.466695 -0.054216669   -6.7062098   0.27972051    8158.0827    4621.1509    3300.9761    1098.7588    452.20108    386.85203   -807.36665 
   62500    249.29434   -4821.9446   -4323.3252   -4821.9446            0     2156.394    18.301522    22.806442     19.61806  -0.26872076   -6.7112967   0.18800912    8188.4331    2480.7314    3143.0335    845.41716     540.9764    1089.8578    283.44042 
   63000    257.68525   -4822.9663   -4307.5639   -4822.9663            0    4685.1027    18.091773    23.305412    19.277243  -0.14907615   -6.5318521  -0.25086509    8127.9841    4952.5686     3807.682    5295.0574    203.77194    650.73898    1556.1629 
   63500    247.97126   -4842.7517   -4346.7785   -4842.7517            0    4990.0036     18.18947    22.865214    19.421171  -0.34389758   -6.5476419  0.057113487    8077.3841    4625.8181    5522.8653    4821.3275    159.75799   -302.23549   -1301.4617 
   64000    246.78747     -4828.36   -4334.7545     -4828.36            0    3854.1184    18.035825    23.067956    19.487157   0.10037178   -6.7082134    0.2675203    8107.6242    5505.6512    3544.4108    2512.2933    -665.5358    840.36656   -1421.3905 
   64500    243.88964   -4829.4204    -4341.611   -4829.4204            0     5080.603     17.99602    22.964949    19.473901  -0.34797566   -6.1935455   0.25173152    8048.1286    6509.4564    4025.8537    4706.4989   -444.23219   -1675.9938   -897.95081 
   65000    244.21786   -4849.2474   -4360.7815   -4849.2474            0    3227.7635    18.204942    22.902635    19.482725  -0.13411984   -6.8760888  -0.23078181    8123.1496    2819.6517    3156.8064    3706.8324    669.53709     243.9759     1676.774 
   65500    253.51418   -4852.3537    -4345.294   -4852.3537            0    3614.3608    18.205681    23.005666    19.338712  -0.22277564   -6.5074019   0.27634788    8099.7071    1125.5228    4665.0485    5052.5112    1531.7332   -194.97332   -286.55278 
   66000    258.92876   -4821.2581   -4303.3686   -4821.2581            0    2320.1073    18.346471    22.864066    19.474667   0.35376343   -6.7846194   0.29875732    8169.1346    3134.8612    1279.4973    2545.9635   -1207.4434   -1220.2944   -1913.7359 
   66500    259.71008   -4820.3739   -4300.9216   -4820.3739            0    3370.5116    18.114449    23.124353    19.503695  -0.29490559   -6.5850384  0.043433101    8169.8032      4209.86    3534.1477     2367.527    846.81175    581.63729    623.76392 
   67000    238.99389   -4827.2995   -4349.2822   -4827.2995            0     5650.977    18.057982    22.859269    19.518556  -0.25838134   -6.5124804 -0.066186424     8057.109    6925.1638    4793.3552    5234.4121    713.25143   -232.06442    217.63889 
   67500    243.83547   -4844.9915   -4357.2905   -4844.9915            0    3293.4386    18.047052    23.072476    19.470367  0.080713532   -6.8138298    0.1254558    8107.2694     5142.443    2956.0425    1781.8303   -522.18413    534.42508    -569.9569 
   68000    257.04867   -4841.8722   -4327.7431   -4841.8722            0    3415.7479    18.295481    22.860638    19.426514 -0.076009372   -6.2757516   0.32660124    8125.0692    3376.5866    3846.8796    3023.7775     1219.065    72.853753   -138.90938 
   68500    254.05745   -4849.8549   -4341.7086   -4849.8549            0    4309.9994    18.138235    22.990903    19.378406  -0.11264032   -6.8850731 -0.084827712    8081.0744    4717.8596    4130.7905    4081.3482   -892.50723   -489.90595   -634.68094 
   69000    252.24649   -4877.4851    -4372.961   -4877.4851            0    3614.3524    18.014512    22.821008    19.672579  -0.31016639   -6.3712935   0.15324752    8087.5806    4238.9913     3685.947    2918.1189    1561.0161   -771.84392   -1198.7637 
   69500    237.42794   -4847.3826   -4372.4974   -4847.3826            0    3859.4858    17.941491    22.976173    19.656836   0.16244647   -6.6298429 -0.011996268    8103.0748    3159.1007    4413.5135     4005.843     21.01414   -133.75161    1024.0776 
   70000    256.65624   -4839.0312    -4325.687   -4839.0312            0    3640.3871    18.250355    22.996515    19.407832  -0.25733212   -7.0151625   0.26351553    8145.3616     2804.864    3221.1025    4895.1948   -611.65298    302.26493   -994.45073 
   70500    247.45304   -4848.6739   -4353.7372   -4848.6739            0    4507.4878    18.144824    23.014248    19.414006 -0.044282962   -6.2412922  0.046314445    8107.0851    5320.4102    4664.0073    3538.0461    350.57698   -34.402793    330.95068 
   71000    252.15522   -4832.0765   -4327.7349   -4832.0765            0    6474.7303    18.210003    22.892596    19.315115  -0.51039467   -7.0483605 -0.012022348    8051.9737    5176.9235    7117.6894     7129.578    1951.3285    907.35546    1934.6355 
   71500    253.16281    -4840.769   -4334.4121    -4840.769            0    5367.5381    18.061757     22.95316     19.44065 -0.013794718   -6.4009437 -0.021951335    8059.5959    3375.0001    6904.6019    5823.0123   -1345.3298    979.04335    968.51375 
   72000    255.80053   -4788.2457   -4276.6131   -4788.2457            0    4798.3954    18.136415    22.956166    19.574199  -0.17534903   -6.5265579   0.42701751     8149.572    4867.1414    4734.8859     4793.159   -1362.4263   -891.35644   -1247.9745 
   72500    249.88496   -4861.8491   -4362.0483   -4861.8491            0    2984.5051    18.035721     23.16818    19.496602   0.02995466   -6.7906073   0.12065175    8146.7492    4444.6182    2922.3324    1586.5646   -588.38322    315.04722   -45.224436 
   73000    247.57002   -4872.4729   -4377.3023   -4872.4729            0    4360.5421    18.243383    22.733438    19.443435  -0.21693447   -6.3983045   0.14373657    8063.8696    3941.2598    4867.2371    4273.1293   -1024.0922   -98.238462    -1756.384 
   73500    254.22709   -4850.3142   -4341.8286   -4850.3142            0    3297.3404    18.066276    23.369107     19.25419 -0.022012362   -6.9669142   0.13801697    8128.9787     3996.269    2510.1044    3385.6478   -174.03868    1045.9914   -680.89739 
   74000    232.87903   -4836.6231   -4370.8363   -4836.6231            0    4172.6615    18.383358     22.60456    19.502426  -0.21560826   -6.3864771  0.071915587    8104.1885    2880.0855    5732.8136    3905.0853    185.54852   -792.84738   -707.76453 
   74500    264.21216   -4841.0186   -4312.5616   -4841.0186            0    3866.2459    18.016937    23.252377    19.360975  -0.10167837   -6.5552072 -0.0074586397    8111.0211    3434.3799    3016.4886    5147.8691    1403.5417   -135.44057    69.715469 
   75000    246.95583   -4852.3361   -4358.3939   -4852.3361            0    5147.1522     18.13692    22.760657    19.581197  -0.16870927   -6.7320241    0.2348908    8083.2792    4671.9514    5321.2396    5448.2657    360.33593    381.58528   -133.42872 
   75500    245.77545   -4869.8888   -4378.3075   -4869.8888            0    5480.0273    18.011983    23.017105     19.34432  0.004861831   -5.9790843 -0.084135944    8019.8398    7777.7551    3806.7128     4855.614     1080.974   -2456.7732    2532.7725 
   76000    263.29627    -4852.386    -4325.761    -4852.386            0    4641.6366    18.236963    22.861513    19.406134  -0.28456394   -6.8251574  0.059209381    8090.8939     3256.064     4620.685    6048.1607    1075.0522    162.16227    474.49188 
   76500    227.19707   -4859.4999   -4405.0777   -4859.4999            0    4286.0366    18.149143    22.921018    19.368654 0.0044153752   -6.4750432   0.21246156    8057.2987    4659.5009    4222.0146    3976.5943    168.94506    -461.6918    401.65873 
   77000    233.32746   -4850.8201   -4384.1363   -4850.8201            0    4036.7492    18.051543    23.213638    19.332456 -0.090048984   -6.6723089   0.17061743    8101.1105     5345.554    3779.8783    2984.8154   -312.87693    729.85279   -694.49868 
   77500    248.92583   -4829.5796   -4331.6972   -4829.5796            0    4833.9718    18.245524    22.730017     19.61524  -0.35408719    -6.516805  -0.10154018    8134.8533    5709.4646    4316.2512    4476.1995    127.47454   -1410.0177   -57.566929 
   78000    267.71127   -4824.0164   -4288.5608   -4824.0164            0    5508.0404    17.967494    23.044748    19.461213  -0.12883993   -6.5920471  0.021180559    8058.0392      7223.14    5470.5334    3830.4477    1755.2621    527.43431    653.84584 
   78500    248.07647   -4861.0878   -4364.9042   -4861.0878            0    5077.0051    18.250472    22.449261    19.692013   -0.2285373   -6.7208638   0.40668289     8068.007    4467.2816    6371.0567    4392.6769    121.46757     36.01403   -2500.6242 
   79000    243.48662   -4839.9498   -4352.9464   -4839.9498            0    3342.5487    18.081623    23.325524    19.250359 -0.029166492   -6.5417409  -0.10458464    8119.0955    3788.5771    2858.9113    3380.1576    543.38305   -82.855162    797.83788 
   79500    265.26982   -4852.2151   -4321.6427   -4852.2151            0    4275.8708    18.333345    22.766559    19.426138  -0.36135899   -6.6772849   0.16024645    8108.2211    3662.5452    4555.9343     4609.133    528.24942   -283.03628    768.62824 
   80000     260.2806   -4834.6845   -4314.0912   -4834.6845            0     5941.548     18.00094    23.149151    19.381368   0.11480123    -6.672003  0.019140265    8076.3415    7591.5163    4096.4337    6136.6941     -802.467    92.981047    -722.2936 
   80500    251.32562   -4838.0113    -4335.329   -4838.0113            0     4675.442    18.071858     22.70378    19.639625  -0.43554399   -6.7282705   0.17476631    8058.1284     5335.131    5656.3951    3034.7999    1645.6644    788.98235   -68.084608 
   81000    254.20462   -4838.3636    -4329.923   -4838.3636            0    4033.7622    18.102607     23.05723    19.480436 -0.0031745288   -6.5706639  -0.02603829    8131.0555    4982.8301    4104.6008    3013.8556   -395.19952    402.75208     549.2623 
   81500    251.33749   -4850.6156   -4347.9096   -4850.6156            0    3391.3619    18.168736    22.989838      19.4445  -0.24506568    -6.630318   0.17939694    8121.8957    2993.9052    3760.4811    3419.6994    390.43026   -313.88193    480.42795 
   82000    244.15645   -4855.7082   -4367.3652   -4855.7082            0    2707.2781     18.37966    22.987961    19.238002   0.15066823   -6.5349001   0.10877247    8128.2655    2334.1612    2967.3479     2820.325    -44.51493   -712.14066    2477.5348 
   82500     243.8377   -4786.4611   -4298.7556   -4786.4611            0    4261.9218     18.19582    23.148282    19.362553  -0.41436005    -6.952264   0.11441912    8155.5454    3402.5333    4422.7231     4960.509    126.41244    922.67953    -1239.057 
   83000    246.34681   -4810.6294   -4317.9053   -4810.6294            0     3790.918    18.159201    22.785801    19.695954  0.085787932   -6.4906758 -0.017160794    8149.6331    4488.1188     3439.124    3445.5111   -2156.4461    317.96618   -1165.2663 
   83500    246.62497   -4863.3949   -4370.1145   -4863.3949            0    3202.9614    17.966661    23.395738    19.326721   -0.3771477   -6.6066402   0.43129676    8123.8571    2249.8616    3006.4349    4352.5876   -988.60747   -10.490262   -2610.1163 
   84000    261.41384   -4826.9448   -4304.0848   -4826.9448            0    3506.2259    18.304986     22.73628     19.47122   0.10585265   -6.6914183 -0.068659694    8103.6742    3286.9135    4199.8175    3031.9468   -351.81594   -492.33427    1038.7205 
   84500    248.90781   -4824.4018   -4326.5555   -4824.4018            0    5770.5157    18.067336    23.190774     19.27095  -0.44522484   -6.5974911   0.24341548    8074.4412     5865.804    5255.9204    6189.8227    308.70762    458.42351    -473.5124 
   85000    246.73603   -4849.5721   -4356.0696   -4849.5721            0     3713.505    18.277497    22.646019    19.516564   0.10205738   -6.6471564   -0.2512737    8078.1503    2241.5093    5099.9301    3799.0755    295.62617   -942.67071    1457.3395 
   85500    264.26773   -4826.2387   -4297.6706   -4826.2387            0    3270.2709    18.112062    23.199871    19.449244  -0.32733376   -6.6147352   0.44880646    8172.5235     2934.488    2996.1812    3880.1435    590.08362   -143.01792   -1961.6008 
   86000    243.27241   -4838.0808    -4351.506   -4838.0808            0    3037.9749     18.22605    22.769124    19.612454    0.1437162   -6.6510471  -0.13989524    8138.9958    3636.4529     3050.543    2426.9287   -81.612467    313.89806    529.95721 
   86500    242.74451   -4832.0688   -4346.5498   -4832.0688            0    2797.2076    18.087603        23.18    19.477873   -0.5266812   -6.5246572   0.20534766       8166.5    3359.2995    2635.2954     2397.028    1865.7396   -260.05272    1333.6043 
   87000     245.6005   -4842.6689   -4351.4376   -4842.6689            0    1615.9218    18.240534    22.968095    19.543177   0.16642902   -6.5841227  0.047957803    8187.6203    1532.2633    1866.3052    1449.1968   -647.16282   -464.66608    -202.0111 
   87500    249.56206   -4819.8459   -4320.6909   -4819.8459            0    4994.9224    18.227407    22.898761    19.408612  -0.17925801   -6.4814577   0.24624994    8100.8638    6397.3344    3653.2244    4934.2085    -1304.804   -58.107434    84.221646 
   88000    253.13093   -4829.6101   -4323.3169   -4829.6101            0    5646.2269    17.848891     23.17838    19.505852   -0.2582687   -6.6885261  -0.27888839    8069.7344    6677.3725    5764.5799    4496.7284    1446.3496   -22.990404    2272.2128 
   88500    249.33726   -4838.4082   -4339.7029   -4838.4082            0    4442.6682    18.209564    22.703158    19.588086 -0.064589782   -6.6420909   0.14100706     8098.001    2521.6888    5261.2583    5545.0576   -131.45041     831.7165   -262.35916 
   89000    243.14089   -4866.6151   -4380.3033   -4866.6151            0    2282.7575    17.983839    23.411575    19.268982  -0.10146986   -6.3323362   0.16094453    8112.8196    2649.8607    2470.3444    1728.0675    442.17409   -309.94917   -272.76975 
   89500     255.1755   -4874.6861   -4364.3035   -4874.6861            0    2627.5577    18.350051    22.701099    19.545909  -0.21401416   -6.9598818   0.12592436    8142.1674    1785.5173    3444.5756    2652.5801   -54.987769    677.96233   -934.64183 
   90000    241.13375   -4833.3639   -4351.0666   -4833.3639            0    3814.1689     18.01122     23.25536    19.337026  -0.19657507   -6.2453224   0.13059073    8099.4569    5971.5041    3236.5345     2234.468   -512.75516    734.39836   -1699.9629 
   90500    245.23687   -4848.6621    -4358.158   -4848.6621            0    2723.1488    18.366256    22.694612    19.569251 -0.093844825   -7.0115753  0.059743204    8156.7585    2653.6058    2648.5267    2867.3138   -857.23876    1157.0315   -208.25849 
   91000    244.49786   -4846.8298   -4357.8039   -4846.8298            0    3481.1227    18.034081    23.111288    19.475038  -0.19262852   -6.4632712   0.10138883    8117.0172    3220.0183    2754.0546    4469.2953    1038.8234   -248.06495      1566.37 
   91500    250.63226   -4858.7065    -4357.411   -4858.7065            0    3605.1392    18.138197    23.017894    19.432216  -0.18555006   -6.6983506   0.11767179    8113.0101    4104.5554    2841.9383    3868.9239    84.482656    322.10198   -69.041368 
   92000    264.02585   -4875.9521   -4347.8678   -4875.9521            0    4730.4637    18.245613    22.708638     19.42161  -0.10862714   -6.7876143   0.13163472    8047.0144    4434.8907    4753.7647    5002.7357   -172.40075   -180.12943   -314.94376 
   92500    240.73634   -4846.0481   -4364.5457   -4846.0481            0    3810.6689    18.070619    23.266411    19.284678 -0.087946536   -6.4374544  0.089299195    8108.0201    2183.6599     4025.092    5223.2547    -659.0283    417.82263    221.87927 
   93000    266.05495   -4847.0381   -4314.8954   -4847.0381            0    2648.0239     18.31102    22.758745    19.665046  -0.16233337   -6.9675531   0.22061984    8195.1295    2497.7348    2983.2254    2463.1117   -198.78261    752.53116    1860.9641 
   93500    242.46747   -4855.6799    -4370.715   -4855.6799            0    4886.7278    17.958343    23.169308    19.419003  -0.12443324   -6.2463729 0.0021138194    8079.9052    6808.1869     2879.512    4972.4844   -107.79368   -1186.4161    482.91017 
   94000    248.39274    -4825.132   -4328.3158    -4825.132            0    4397.6271    18.389777    22.437992    19.597055  -0.52284863   -6.7699217   0.08468193     8086.326    2746.2718     5515.032    4931.5774    2230.9992   -533.10257    2476.1795 
   94500    233.34591   -4847.0122   -4380.2916   -4847.0122            0      4567.54    18.059516     23.16005    19.269354  0.064914265   -6.6846719   0.13761392    8059.5866    3370.5067    4261.6687    6070.4446   -1248.3448    1211.7437   -1677.1111 
   95000    241.36569    -4860.554   -4377.7928    -4860.554            0    2717.0775    18.145261    22.960414    19.554165  -0.19068807   -6.3733083   0.22417371    8146.7092    2172.3905    4318.6127    1660.2292    227.88063    895.67148    164.65791 
   95500     249.7562   -4813.4698   -4313.9265   -4813.4698            0    2242.9007    18.113518    23.066407    19.606329  -0.13191593   -6.7772365   -0.1115873    8191.7943    2796.3332    2360.3095    1572.0594   -13.163196    106.72592     1238.987 
   96000    256.76661   -4845.2647   -4331.6997   -4845.2647            0    3502.7476    18.143231    22.987852    19.485008  -0.15400169   -6.4031935   0.10916534    8126.6883    3708.3996    4259.4262    2540.4171   -608.23306    385.33926   -388.26584 
   96500    252.08262   -4829.7166   -4325.5202   -4829.7166            0    4184.1521    18.362733    22.825047     19.38485 -0.049563237   -6.6888727   0.15224921    8124.7769    4234.6528    4291.4324    4026.3711    191.61567    558.87559   -253.29632 
   97000    247.97115   -4836.0837   -4340.1108   -4836.0837            0    5137.9853    17.936408    23.106368    19.459185  -0.19257462   -6.5351589   0.19446011    8064.7666    6584.9936    4323.2314    4505.7309   -709.52844   -238.12033   -776.09662 
   97500    250.18842   -4836.3379   -4335.9301   -4836.3379            0    3609.7856     18.02932     22.98789      19.6101   0.12994754   -6.5203479   0.14281278    8127.5241    4877.9939    3065.0868     2886.276   -1214.6876    -898.5078   -1808.0931 
   98000    251.75158    -4846.479   -4342.9448    -4846.479            0    2220.6568    18.198577    23.090914    19.457443  -0.43460233    -6.797341  0.061162845    8176.4412    1922.1161    1910.3651    2829.4891    855.31892    694.99365    1327.9982 
   98500    240.89754   -4842.3019    -4360.477   -4842.3019            0     4292.377    18.341308    22.909512    19.319496 -0.085146628    -6.583187  -0.13527917    8117.8672    1966.2887      5501.48    5409.3624   -505.94373   -295.57891    630.53836 
   99000    243.36381   -4835.7196   -4348.9619   -4835.7196            0    5160.2575    18.182964    22.985644    19.249549  -0.16739182   -6.7505955   0.23743488    8045.2939    4444.2836    5661.6804    5374.8086    389.55696    603.96919    393.65555 
   99500    268.76699   -4826.2402    -4288.673   -4826.2402            0    4462.4677    18.090261    22.912036    19.515782 -0.041712216    -6.525243  0.031546645    8088.9933    4952.0056    5045.8103    3389.5871   -227.60802    196.22675   -118.78936 
  100000      258.115   -4856.7489    -4340.487   -4856.7489            0    3872.4487     17.93704    22.841151    19.786671 -0.099808206   -6.5303485   0.17257672    8106.6512    5291.9754    4156.2651    2169.1054    752.87347    351.39812    345.96481 
  100500     250.0128   -4816.4611   -4316.4046   -4816.4611            0    3810.2396    18.165442    23.117981    19.368361  -0.10111205   -6.8243078   0.16371354    8133.7113    3080.6344    3581.2203    4768.8641     1323.364    1113.4978    395.15036 
  101000    239.29494    -4857.006   -4378.3865    -4857.006            0    4661.9169    18.247635    22.837428    19.376693 -0.047985296   -6.4072413  0.054302345     8074.831    3848.8398    5550.2315    4586.6795   -1083.2679   -1416.7204    352.31658 
  101500    259.49708   -4840.3813   -4321.3551   -4840.3813            0    5415.8386    18.069197    23.220859    19.198314  -0.45680343   -6.7574032  -0.11634713    8055.2721    6480.0246    5186.6925    4580.7987    974.75169    635.18348    944.08625 
  102000     251.6191   -4837.0532   -4333.7839   -4837.0532            0    4442.8784    18.228851    22.780979    19.518111 -0.013587132   -6.6885045  0.076126342    8105.3071     4961.978    4822.7697    3543.8874   -494.91055   -369.54765    49.748186 
  102500    250.95145   -4875.5751   -4373.6412   -4875.5751            0    3596.8888    17.893449    23.216127    19.425054 -0.040949005    -6.319166   0.31971866    8069.4894    3905.1937    2646.0682    4239.4044   -459.61204    -351.7493   -658.85168 
  103000    254.81653   -4831.3149   -4321.6504   -4831.3149            0    4594.7336    18.269085    22.670254    19.524672   -0.0194197   -6.9690582   0.16718788     8086.432    5792.3464    4748.1472    3243.7073     196.8413     1158.067    28.772326 
  103500    269.40728   -4866.4704   -4327.6225   -4866.4704            0    2947.8229    18.086704    23.151975    19.395589   -0.3168422   -6.3080751  0.016596971    8121.7657    2774.9599    2394.6688    3673.8399    350.43398    604.33326     73.28592 
  104000    247.02098   -4812.8058   -4318.7334   -4812.8058            0    3935.3903    18.177437    22.913835    19.441745 -0.082056895    -6.794059  0.014979169    8097.7748    3416.5659     5031.256    3358.3489   -1024.2134    866.26777    -277.5598 
  104500    246.63384   -4838.8675   -4345.5693   -4838.8675            0     2770.697    18.212266    22.915195    19.510301   -0.1478271   -6.4238235   0.38653801    8142.3823    3976.3673     2526.756    1808.9678   -578.61927   -815.57175    222.69231 
  105000    251.70082   -4797.6345   -4294.2018   -4797.6345            0    2818.3177    18.078357    23.208299    19.461598 -0.075270922   -6.3726315   -0.1734205    8165.4622    3116.0102    2399.4696    2939.4733    -561.7919    -721.5568   -197.20996 
  105500    265.24775   -4824.1388   -4293.6106   -4824.1388            0     5773.623    18.139468    22.810006     19.50351   -0.1948741   -6.7589751   0.24161983    8069.7992    5275.4691    6561.5829     5483.817    979.08336    307.64019    1158.2657 
  106000    247.53379   -4855.0198   -4359.9216   -4855.0198            0    2631.5879    18.027872    23.160585    19.450069   0.24220549    -6.172657   0.11499376    8121.1053    3589.3267    651.53724    3653.8999    -698.1831   -823.39038    818.89668 
  106500     244.1274   -4821.8878   -4333.6028   -4821.8878            0    3347.6621    18.239447    22.783907    19.578283  -0.29740908    -6.920254  0.036489225    8136.0659    2980.6908    4164.6627    2897.6329    257.16609    764.01182    407.14377 
  107000    249.17825   -4829.2297   -4330.8424   -4829.2297            0     3569.621    18.072328    23.229429    19.361752 -0.066284388   -6.3656362 -0.060424836    8128.2545    4385.8364    2688.1648    3634.8619   -1887.4772    -611.3228    -829.8323 
  107500    257.03183   -4830.6645   -4316.5691   -4830.6645            0    4491.9971    18.319525    22.628381    19.561862  -0.26893831   -6.7910547   0.26705576    8109.1972     1223.334    6336.4895    5916.1677    600.44508    499.08651   -487.00346 
  108000    261.67653   -4844.9294    -4321.544   -4844.9294            0    3648.4583    18.069788    23.191984    19.330036  0.050735225   -6.6867276   0.11684869    8100.7199    4850.8778    2816.3328    3278.1643   -1573.2236   -543.76055    -338.3528 
  108500    261.70906   -4857.1866   -4333.7362   -4857.1866            0    2823.5928    18.349416    22.816304     19.40686  -0.26544734   -6.4713178   0.06487671    8124.9895     852.6163    3244.1006    4374.0615    1878.1049   -755.34459    844.36478 
  109000    253.20071   -4853.0193   -4346.5866   -4853.0193            0     3934.313     18.20546    22.990979    19.311121  -0.15134422   -6.8247126 -0.022777523    8082.8888    4158.6683    3233.6612    4410.6095    1262.6719   -1154.3262    1508.4509 
  109500    250.75342   -4820.0631   -4318.5253   -4820.0631            0    3651.9673     18.21077    22.871996    19.439828  -0.13665358   -6.1388567   0.28987388    8097.0122    1515.9302    5291.1798    4148.7919    1696.9969    547.57136    262.03629 
  110000    256.60475   -4826.0929   -4312.8517   -4826.0929            0    3693.5956    18.111213    23.049685    19.505327 -0.0036963625   -7.1407998    0.1856032    8142.6498    4185.6953    3157.5873    3737.5042   -1050.2023    1000.7089   -579.00237 
  110500    251.61946   -4849.6379   -4346.3679   -4849.6379            0    3088.3978    18.074925    22.981404    19.551952  -0.20873896   -6.0787927 -0.029793532    8121.6299    3951.4709    2067.5629    3246.1597    1169.8177   -1411.0802    1124.2573 
  111000    264.19375   -4831.8512   -4303.4311   -4831.8512            0    4733.7897     18.19746     23.16946    19.310035  -0.29107263   -6.8916238   0.12422538    8141.5998     3430.099     3832.463    6938.8072    973.09132    351.40272    1376.9932 
  111500    259.48892   -4841.9062   -4322.8964   -4841.9062            0    4196.3856    18.174024     22.88566    19.471291 -0.039959892    -6.381798    0.1014125    8098.5878     5196.454    3946.4643    3446.2385   -976.36565   -73.955984    436.32434 
  112000    251.39365   -4834.8118   -4331.9934   -4834.8118            0    4455.8664    18.146722    23.056863    19.374418   0.04412909   -6.6825075   0.26803877     8106.382    5017.2353    3919.4276    4430.9362   -165.09708    307.55034   -2917.0398 
  112500    253.37077    -4868.032   -4361.2591    -4868.032            0    5365.1616    18.107969    22.896726     19.45117  -0.23792653   -6.8870317  -0.07222608    8064.7115    5719.8559    4801.4756    5574.1534    475.03486    606.44617   -113.00994 
  113000    257.74931    -4868.484   -4352.9535    -4868.484            0    4623.1017    18.097025    22.920392    19.491211  -0.29300175   -6.4151779  0.091922615     8084.777    5306.2938    4507.5069    4055.5043   -34.282874   -1033.1632     518.2066 
  113500    261.38032   -4868.6863   -4345.8933   -4868.6863            0    4088.0482    18.156684    22.936603    19.442272 -0.0041838564   -7.2416962  0.039642963    8096.7859    2659.1645    4655.5797    4949.4004   -131.44377    325.89435    876.77809 
  114000    250.44699   -4825.5061   -4324.5812   -4825.5061            0    2881.3439    18.120045    23.099781    19.505443  -0.10703139   -6.1333547   0.25714374    8164.3752    3249.3301    3016.2516    2378.4499   -222.84844   -52.625359   -2049.3651 
  114500    255.49189   -4827.7253   -4316.7099   -4827.7253            0    2691.5132    18.230906    23.073734    19.398696 -0.041124363   -6.9950632 -0.024622387    8160.1599    3283.8029    1836.4897    2954.2471    339.97557    140.45612    1832.6105 
  115000    251.42811   -4847.9687   -4345.0814   -4847.9687            0     2755.782    18.099419    23.004544     19.52257   -0.1367461   -6.1377203   0.27668026    8128.5906    2061.2469    3029.7054    3176.3939   -507.24361   -464.17299   -743.08368 
  115500    242.18661   -4835.8749   -4351.4718   -4835.8749            0    4204.7103    18.225461    22.854015    19.472839 -0.023173169   -6.7534376    0.2035018    8110.9237    3241.6855    4887.3226    4485.1229   -389.64998    -48.78878   -1339.7626 
  116000    235.77355   -4841.2823    -4369.706   -4841.2823            0    5146.0721    18.133911    22.958497    19.411582  -0.22139388   -6.5513291  -0.04244766    8081.5723    5510.1694    4556.2846    5371.7622    954.96732   -412.68553    1337.2307 
  116500    248.54811   -4839.7921   -4342.6652   -4839.7921            0    3284.5242     17.99343    23.027159    19.567409  -0.44670333   -6.3645877    0.2480287    8107.5126    1820.9743    4592.8049    3439.7933    1014.7463    1306.0291    564.28598 
  117000    243.80256   -4863.7261   -4376.0908   -4863.7261            0    3785.7915    18.165838    22.981628    19.440307  0.046717128   -6.9308107   0.10510987    8115.9498    5453.6727    2845.0842    3058.6177    -1657.343   -133.31656   -1781.4701 
  117500    255.16294   -4837.7948   -4327.4374   -4837.7948            0    4777.3437    18.117223     22.97251    19.523415  -0.25940552   -6.2385651   0.15205908    8125.6081    4793.8277    3928.4604    5609.7431      -206.21   -285.80152   -1382.2904 
  118000    242.44502    -4846.192    -4361.272    -4846.192            0    4188.9611    18.111297    22.986537    19.423998 -0.013197218   -7.1293218  -0.16196773    8086.5213    3049.5661    4899.1225    4618.1948    1320.9996    600.22911    644.32588 
  118500    247.12537   -4850.6853   -4356.4041   -4850.6853            0    4474.1804    17.997519    22.988685    19.556751  -0.38426217   -6.2145378  0.019908192    8091.3965    5129.6148    5294.7959    2998.1305    519.12755     105.7343   -1259.3576 
  119000    234.13776   -4834.0062   -4365.7018   -4834.0062            0    4185.7179    18.115519    22.895045    19.551698  0.075625972   -6.6844655   0.11423094    8109.1766    4544.1564    3733.5072    4279.4901   -644.10679   -282.97372   -890.65551 
  119500    246.49608   -4862.9806    -4369.958   -4862.9806            0     1818.304    18.193368    23.289896    19.337456   -0.3064698   -6.7589247    0.4345084    8193.6987    2073.5942    1247.5184    2133.7995   -1194.7906    418.11807   -1532.6748 
  120000    251.34755   -4840.1625   -4337.4364   -4840.1625            0    5106.5167    18.194105    22.951614    19.369193 -0.045587145   -6.2477594 -0.048482789    8088.2664     5470.943    4105.8558    5742.7512    143.30367   -933.64774    2120.4738 
  120500    252.44749   -4822.6059   -4317.6797   -4822.6059            0    3684.4406    18.102434    22.973514    19.536297  -0.30163619   -7.0948124  0.013142924    8124.6872    2015.9407    4189.5963    4847.7847    908.93512    1007.1829    -54.12216 
  121000    235.69234   -4835.5891   -4364.1753   -4835.5891            0    3158.5056    18.040092    23.094473    19.503839 3.5098182e-05   -6.1221637   0.12207692    8125.8146    2067.6868    4053.8217    3354.0085    78.547332    15.456209   -673.67446 
  121500    247.17105    -4839.366   -4344.9933    -4839.366            0     5350.816    18.257572     22.84703     19.37566 -0.034919699   -6.9407829   0.25776149    8082.1943    6431.7918    4464.1542    5156.5019   -525.88232   -211.98316   -1212.6653 
  122000     251.4653   -4802.7356   -4299.7739   -4802.7356            0    6082.1501    18.073765    23.087234    19.317691   -0.1379976   -6.2052434  -0.18899205    8060.7556    6317.2726    5397.4448    6531.7329    162.05115    -1686.748   -1538.3399 
  122500    259.08485   -4789.8338   -4271.6321   -4789.8338            0    4051.6899    18.087322    23.043675    19.530413  -0.28892829   -6.5010273  0.041863418    8140.2441    3769.0699    4890.7736    3495.2261    501.92263    812.55314   -201.44454 
  123000    258.43266   -4860.9593    -4344.062   -4860.9593            0    3546.4658    18.103769    22.949996    19.503442  0.016728831   -6.8352194   0.12174948     8103.318    3766.1044    4664.9549    2208.3382   -11.819523    343.59605    793.77933 
  123500    237.49238   -4808.9237   -4333.9096   -4808.9237            0    4604.4306    18.183273     23.04791    19.285257  -0.10903229   -6.1703308   0.27503591    8082.1898    4143.0317    4680.4354    4989.8248    -597.6325    161.03347    -172.4347 
  124000    254.94951   -4829.5423   -4319.6117   -4829.5423            0    4398.6151    18.227411    22.846644    19.346741 -0.090890688   -6.9228771 -0.045970868    8056.6631    2102.8516    4968.7923    6124.2012    322.33752     708.8722    1710.4675 
  124500    267.03552   -4855.8616   -4321.7575   -4855.8616            0     3546.354    17.972065    23.132159    19.506137   -0.3326397   -6.2924192   0.12389581    8109.3384    3229.8217    3153.8535    4255.3867    470.17117    -818.9088   -268.04201 
  125000    261.70235   -4822.2621   -4298.8251   -4822.2621            0     3675.441    18.141815    22.873354     19.59579  0.095249312   -6.6244333   0.13206811    8131.5505     3526.583    2911.8207    4587.9194    432.28177   -604.53787    21.559127 
  125500     255.8294   -4857.7073   -4346.0168   -4857.7073            0    2726.4849     18.13962    23.017536     19.44096   -0.1788223   -6.6802538   0.23273724    8117.1717    3254.7695    2351.1444     2573.541   -1302.4149   -58.533874    601.32556 
  126000    246.84519   -4843.0961   -4349.3752   -4843.0961            0    4408.2122    18.095405    23.063689    19.374352  0.036705595   -6.2120135  -0.12093599    8085.8235    4235.6092    3870.1442    5118.8832   -406.57478   -534.89783   -529.40675 
  126500    249.89158   -4884.9386   -4385.1246   -4884.9386            0    3936.3277    18.136398    22.896132    19.480695  -0.49605545   -7.0840849   0.12693773    8089.4241    3704.2182    3980.4655    4124.2995     827.7796    777.87556    35.757545 
  127000    248.74082   -4848.3051   -4350.7927   -4848.3051            0    4347.8119    18.004192    23.104331    19.459665   0.11462024   -6.3145232 -0.041272018    8094.7304    6259.8185    2814.2891    3969.3282   -1930.7984   -1022.3703    672.70058 
  127500      241.202    -4825.216   -4342.7822    -4825.216            0    5303.8137    18.245818    22.705902    19.495464  -0.36640469   -6.6526702   0.39029487     8076.732    5247.3968    5217.6168    5446.4274    160.95966   -158.03344    270.26083 
  128000    244.66433   -4842.0875   -4352.7286   -4842.0875            0    4073.7175    18.032176    23.159499    19.375229   0.26792284   -6.7341553 -0.051886874    8091.4089    5189.2736    2983.8729    4048.0061   -1761.2892    -267.8543   -373.66434 
  128500     249.7842   -4858.4338   -4358.8346   -4858.4338            0    3180.3073    18.219658    22.763511    19.599852  -0.36712886   -6.3464985  0.099824422    8128.9091    2174.2448    3896.8473    3469.8298   -865.94433    -129.1864   -443.05665 
  129000    247.91414   -4791.7719    -4295.913   -4791.7719            0    4080.8237     18.11355    23.090874    19.449772  0.055033739   -6.7908405  0.074005845    8135.0172    5660.5157    3393.6304    3188.3249   -1354.8234    -129.8208  -0.34377807 
  129500    244.16011   -4824.0452   -4335.6949   -4824.0452            0    5949.8734    17.952709    22.848947    19.510811  -0.19389127   -6.2536304    0.2760357    8003.3446    4834.1808     7758.732    5256.7075    1213.6697    750.17552   -779.97819 
  130000    252.64166   -4880.2321   -4374.9175   -4880.2321            0    2806.3354    18.161243    22.895265    19.504871  0.022218684   -6.6466912 -0.0076092936    8110.2513    3647.6553    2061.3122    2710.0387    475.59434    25.043798    568.53442 
  130500    257.42654   -4820.2843   -4305.3994   -4820.2843            0     4515.445    18.208941    23.097479    19.279143  -0.22870587   -6.7431666  0.085505482    8108.4341    2582.8797    4966.5064    5996.9488   -299.91057    154.39673   -1176.5398 
  131000    239.74377   -4849.5836   -4370.0664   -4849.5836            0     4093.641    18.256062    22.691606    19.488835  -0.21856643   -6.2431281 -0.036105608    8073.4325    5167.3126     4462.639    2650.9714    693.91176   -485.51575    403.53329 
  131500    253.09844   -4864.7988   -4358.5707   -4864.7988            0    3744.8432    18.067952    23.163676    19.391097  -0.11656291   -6.9228181   0.19169219    8115.5655    2201.0687    3342.8303    5690.6306    386.49089    634.90886   -466.78795 
  132000     265.7525   -4842.7462   -4311.2084   -4842.7462            0    2938.6823    18.280209    22.734933    19.588633  -0.19359472   -6.1124643   0.30774276    8141.0227    655.61998    4475.8807    3684.5463      231.692   -668.16255    -1922.179 
  132500    256.06061   -4822.9209    -4310.768   -4822.9209            0    4427.1247    18.042126    23.272034    19.325489 -0.036657433   -6.4905622 -0.086841241    8114.3279    4737.5459    2948.6776    5595.1504    218.05462   -782.90638    1579.9774 
  133000     252.5899   -4821.2131   -4316.0021   -4821.2131            0    2773.5109     18.21543    22.947303    19.495225  -0.29637433   -6.6596698   0.11997496    8148.9066    2072.1572    3006.8874    3241.4882    753.40523   -720.02191   -275.25919 
  133500    251.97529   -4822.6829   -4318.7012   -4822.6829            0    4406.9876      18.1561    22.941116    19.418657   0.16066519   -6.1452777  -0.02538562    8088.2827    2716.9113    4797.0007    5707.0508   -72.323013   -635.67982    366.49801 
  134000    241.49058   -4849.2908   -4366.2798   -4849.2908            0    4516.5854    18.064433    23.111314    19.340576   -0.2484636   -6.7841284   0.31564139    8074.5508    4109.0796    4208.8662    5231.8103    1244.0176    542.30712    -298.9523 
  134500    252.60305   -4822.0498   -4316.8125   -4822.0498            0    4624.7361    18.179924    22.720216    19.631301  0.097418092   -6.4111201  0.039941917     8108.744    4934.8094    4737.7032    4201.6957   -482.45943   -457.65601    882.82164 
  135000    248.55539   -4849.8825    -4352.741   -4849.8825            0    5585.0704    17.972781    23.167147    19.272473  -0.38006466     -6.54902  0.008150799    8024.6349    5215.7064    5602.8685    5936.6362    362.04703   -153.57938    258.52372 
  135500    255.25173   -4853.6706   -4343.1356   -4853.6706            0     4864.043    18.314955    22.653565    19.439064  0.017938496   -6.8622803   0.19281116    8065.2488    5433.8174    4208.5469    4949.7647   -1187.6559   -210.83354   -1344.3977 
  136000    245.92897   -4808.0396   -4316.1512   -4808.0396            0    4031.4954    18.036919    23.220891    19.345562 -0.050671606   -6.2701905   0.20694955    8102.5661    4861.1929    3180.9303     4052.363   -538.92388   -399.35527   -390.19693 
  136500    245.08463   -4814.2142   -4324.0147   -4814.2142            0    2546.3722    18.200227    22.894587    19.643661  -0.20985589   -6.9129323 -0.033381125    8185.2517    3079.8488    3654.8032    904.46463    236.40462    576.84007    360.02056 
  137000    247.43744   -4853.8153   -4358.9098   -4853.8153            0    1908.2011    18.099233     23.04379    19.621573  -0.14649508   -6.4309401  0.096901248    8183.6661    3993.0019    1221.6083    509.99304    224.80613   -848.30352   -571.86797 
  137500    260.34956   -4845.5509   -4324.8196   -4845.5509            0    3429.5649     18.19154    22.961967    19.413307 -0.093576884   -6.6353068   0.29366739    8109.2014    2414.4672    4693.6504     3180.577   -136.85612    269.21022   -1626.5714 
  138000    257.50839    -4858.388   -4343.3394    -4858.388            0    4488.6443    18.258213    22.819742    19.421905  0.072447623    -6.732498 -0.030153115     8092.092    2706.4993    5352.7824    5406.6513   -1061.3718    799.22027    1705.4914 
  138500    256.79456   -4835.5424   -4321.9215   -4835.5424            0    3754.2547    18.060243    23.092607    19.410606  -0.43315542    -6.126047   0.13380143    8095.3506    2961.3534    4339.4336    3961.9771     1304.518    768.58889    -36.85778 
  139000    239.06386    -4850.909   -4372.7517    -4850.909            0    4051.5355    18.140348    22.901573    19.467564   0.10499813   -6.8130988  0.092933721    8087.6534    2802.7113    4491.1743    4860.7207   -983.70172    636.98434   -2011.9724 
  139500    247.68378   -4855.1127   -4359.7146   -4855.1127            0    1826.1787    18.094093     22.92339    19.646479  -0.44139948     -6.07491   0.21083105    8148.9267    2126.7706    1588.4463     1763.319   -559.77991    -1879.421   -678.05774 
  140000    243.38942   -4801.6987   -4314.8898   -4801.6987            0    3271.1438    18.247429    23.131144    19.410801   0.07102233    -6.720142  -0.12437521    8192.9865    3560.2488    4258.6663    1994.5162    617.90019    612.54055    1377.5024 
  140500    248.47523   -4824.9957   -4328.0145   -4824.9957            0    3367.2205    18.206183    22.914438    19.476248  -0.20128382   -6.5131685   0.18886723    8125.1879    1846.8757    4228.6016    4026.1843    528.98318   -1083.9476    380.32461 
  141000    242.47592   -4834.2646   -4349.2828   -4834.2646            0    3931.3858    18.011897    22.903787    19.500621  0.044520851   -6.4222669   0.19861761    8044.7987    2615.8203    5064.8593    4113.4777   -1192.1919   -1054.5067    1009.1538 
  141500     250.4151   -4803.3671    -4302.506   -4803.3671            0    6119.1119    18.062947    22.960678    19.388925  -0.31807281   -6.6520776 -0.018517411    8041.3143    6757.0827    5412.1406    6188.1125    1936.8253    167.90266    1271.0921 
  142000    250.87804   -4843.2104   -4341.4233   -4843.2104            0    3673.3704     18.14347    22.985469    19.494692  -0.28680955   -6.4180919   -0.1662447    8129.9921     2997.494    2842.6273      5179.99    1072.5464    466.74505    345.49069 
  142500    244.06513   -4830.2132   -4342.0528   -4830.2132            0    3951.4234    18.120096      23.0572    19.478691 -0.00042158391   -6.7523229   0.31268619    8138.1713    4212.5374    3882.9859    3758.7468    102.64744   -89.275701   -1710.5409 
  143000    249.08414   -4848.0156   -4349.8165   -4848.0156            0    3644.4037    18.114002    22.756685    19.625606  -0.15888486   -6.3198396   0.13481438    8089.9617    3720.2476     4307.774    2905.1896    1195.7906    -358.5964    414.74297 
  143500    239.69074   -4827.6364   -4348.2253   -4827.6364            0    4590.4095    18.070489    23.384492     19.14844  -0.21006322   -6.5258301  -0.22668587    8091.5412    3403.6788    3288.1571    7079.3927    989.74575    -434.7205    2361.0875 
  144000    257.43942   -4852.6538   -4337.7432   -4852.6538            0    4762.9901    18.315939    22.723763    19.447453  -0.28983384   -6.7399169   0.19541702     8094.167     4294.332    5042.0638    4952.5744    1265.8942   -434.78865   -372.64458 
  144500     249.3715   -4854.7975   -4356.0237   -4854.7975            0    3617.5957     17.95787    23.340501    19.334085  0.092236682   -6.5458533 0.0095910065    8103.7983    3395.0658    3556.9631    3900.7583    802.82134   -318.42572    619.97018 
  145000    244.37689   -4833.0999   -4344.3159   -4833.0999            0    2329.3095    18.203775    22.749314    19.767072  -0.26157909   -6.7188074   0.13711095    8186.0068    2660.8594    2269.8234    2057.2458    552.35082    1147.5894    -18.62498 
  145500    256.84245   -4851.1441   -4337.4275   -4851.1441            0    4553.3503    18.004977    23.116086    19.366118 -0.070159741    -6.509046 -0.029457701    8060.2671    3855.1231    5116.4924    4688.4355    174.99929    -112.1285    325.56921 
[...]
  350000    254.65495    -4844.424   -4335.0826    -4844.424            0    5085.2322    18.192722    22.904844    19.325306  -0.12259354   -6.5394651 -0.048662107    8052.8835    5384.3142     4293.014    5578.3682   -988.79043   -62.775893   -57.762818 
  350500    246.27753    -4795.797   -4303.2115    -4795.797            0     5431.988    18.174932    23.010032    19.369613  -0.24767649   -6.4342583  -0.13394983    8100.4836    4309.6143    5854.9596    6131.3902    472.12592    368.15153    3274.9444 
  351000    249.45427   -4832.9607   -4334.0214   -4832.9607            0    3694.0477    18.172714    22.957455    19.478245  -0.22533638   -6.9205854   0.20994571    8126.3096    4032.8881     3815.502    3233.7529    452.43142   -388.95462    -1233.745 
  351500    237.19597    -4825.146   -4350.7247    -4825.146            0    3504.3467    17.999625    22.948079    19.647312   0.21240601   -6.2687381   0.13713741    8115.4562    2925.6577    4038.2357    3549.1468   -1159.4981   -947.92769   -360.55099 
  352000    257.44992   -4834.5292   -4319.5976   -4834.5292            0     3822.026    17.971502     23.15955    19.497596  -0.34455254   -6.6628067   0.15864275    8115.1313     5300.737    3590.2729    2575.0682    1665.8532   -241.76198   -396.93493 
  352500    243.98343   -4861.9706   -4373.9736   -4861.9706            0    5368.5186    18.252718    22.757116    19.362404  -0.25181924   -6.7013608  -0.13004382    8042.7401    3838.8526    5649.6943    6617.0091    1486.9183    429.37723     1004.234 
  353000    240.97826   -4813.2579   -4331.2716   -4813.2579            0    5872.5483    18.113263     22.99024    19.271207  -0.11126934   -6.3038261    0.2719444    8025.0754    3577.5902    6821.2686    7218.7861    1077.3692    140.10597    -456.6536 
  353500    238.26375   -4870.4448   -4393.8879   -4870.4448            0    4349.7762    18.195196    22.856072     19.42141 -0.010489402   -6.8751305  0.079748327    8076.7953    5511.4961     4148.594    3389.2386   -2474.7753   -743.68923    526.51352 
  354000    252.52578    -4857.848   -4352.7652    -4857.848            0    3755.8095    17.855929    23.155145    19.611599  -0.31324712   -6.1907616  0.023582908    8108.5452    3396.8772    4086.4404    3784.1109    1182.7436   -396.90436    843.74188 
  354500    250.27507   -4822.3344   -4321.7533   -4822.3344            0    3537.7539    18.205913    22.847524     19.64998   -0.1051471   -6.5971712 -0.0093893746    8173.6062    3569.8931    3635.7974    3407.5712   -395.77955    733.81007    1419.5039 
  355000       250.29   -4827.1445   -4326.5336   -4827.1445            0    3820.4105    18.099333    23.142207    19.429189  -0.13021936   -6.6789674  0.046681241    8138.0814    3427.6565    4058.4623    3975.1127    574.54144     590.8172    2012.9184 
  355500    244.23613   -4835.2983   -4346.7958   -4835.2983            0    5765.8006    18.114099    22.753785    19.492493 -0.019082477   -5.8824558   0.16725928    8034.1103    7161.6461    5771.1484    4364.6073   -664.39771   -2048.8838   -963.12825 
  356000    248.53826    -4834.996   -4337.8888    -4834.996            0    4485.2925    18.175832     22.99669    19.315446 -0.028467545   -6.9744199    0.2543646    8073.5472    4863.0543    4178.6505    4414.1728    213.35089    1543.4255   -403.88453 
  356500    241.29493   -4842.4637    -4359.844   -4842.4637            0    6781.1315    18.049905    22.750006    19.544794  -0.13182288   -6.0916466 -0.024571154    8025.7851    7191.6787    6297.1691    6854.5466    232.34942   -1050.7728    251.90366 
  357000    247.78843   -4816.8771   -4321.2697   -4816.8771            0    5828.5986    18.083441    22.938586    19.487279  -0.21401371   -6.7703762 -0.013314247    8083.4904    6426.4143    5740.1755     5319.206     335.4081    336.59222    875.78776 
  357500    264.69267   -4806.4585   -4277.0404   -4806.4585            0    4020.0962    18.075534    23.113727    19.473582  0.021374974   -6.4159695   0.20966566    8135.9254     5574.774    3171.2686    3314.2459   -392.82756   -189.03908    -1306.154 
  358000    246.81096    -4824.849   -4331.1966    -4824.849            0    4215.4341    18.327864    22.711655    19.513239  -0.15605142   -6.5425455 0.0085144665    8122.5051    4285.2453    4046.4135    4314.6435    636.89946    298.68187   -435.56372 
  358500    257.10729   -4828.6903    -4314.444   -4828.6903            0    4576.9821    18.130409     23.18466    19.268116  -0.28374806   -6.8513975 0.0014238909    8099.3019    3002.9918     3955.559    6772.3955    1950.0068    941.80753    263.40855 
  359000    261.55263   -4872.6646   -4349.5271   -4872.6646            0    4786.6247    18.082856     22.80483    19.548046 -0.033554034    -6.275882 -0.067307756     8061.154    4792.6965    5420.7487    4146.4288    869.56624   -377.75624   -30.116581 
  359500    248.27681   -4814.4091   -4317.8248   -4814.4091            0    5117.5695    18.000027    23.038662    19.533047  -0.27102083   -7.0452643   0.26836719    8100.2874    5589.7784    4227.8163     5535.114    6.6787772    1703.0738   -2238.9011 
  360000    249.18478   -4836.7633   -4338.3629   -4836.7633            0    3657.9077    18.170061    22.906417    19.471145  0.072546382   -6.1712289   0.10687052    8104.1047    2822.3408      4755.67    3395.7125   -65.708776   -30.774137    169.68808 
  360500    257.60217   -4838.2292   -4322.9931   -4838.2292            0     4731.161    18.153298    22.958635    19.398823  -0.23112524   -6.8730411  0.060493815    8084.9436    3538.3478    5391.0237    5264.1115    1.5650992    1195.3857    1035.9386 
  361000    250.11698   -4812.0911   -4311.8263   -4812.0911            0    5643.2949    18.090821    22.823493    19.545085  -0.13706078   -6.4293025  -0.17856984    8070.0816    4851.6218    5713.3708    6364.8921    620.02109   -112.45524    1417.2941 
  361500    245.47537   -4820.2289   -4329.2478   -4820.2289            0    3703.3901    18.089622    23.062376      19.4761 -0.053086372   -6.3109929   0.34253898    8125.2274    6433.8565    2222.8594    2453.4545    347.94177   -1877.8179   -3444.0192 
  362000    243.96144   -4839.5866   -4351.6336   -4839.5866            0    4281.4834    18.040765    23.093254    19.451345 -0.069900323   -6.7679557   0.17378335    8103.8187     5852.012    3453.0801    3539.3581    484.12387    288.42763    407.78073 
  362500    265.58219   -4825.2165   -4294.0193   -4825.2165            0    2548.9279    18.247428    22.773406    19.674615  -0.14796859   -6.2455037   0.10969742    8175.9057    2425.5074    3514.5419    1706.7345   -2639.1104    589.67448   -1857.1796 
  363000    259.23838   -4845.0945   -4326.5857   -4845.0945            0    2542.5864    18.167407    23.309527    19.212178  0.014694877   -6.9349182 -0.079395943    8135.8516    2482.0211    1899.3138    3246.4244    672.73692   -481.17165    1101.3181 
  363500    251.31774   -4798.1653   -4295.4988   -4798.1653            0    6410.8768    18.208021     22.66876    19.527935  -0.15409027   -6.3485867   0.27369885     8060.219    5571.9736    7619.9269    6040.7298    308.60787   -666.09862   -158.67491 
  364000     239.3663   -4822.4762    -4343.714   -4822.4762            0    4567.3836    18.033472      23.1735    19.294304  0.097687853   -6.7470129 -3.9352138e-06    8063.0644    2659.8215    4776.3923    6265.9371   -1426.1344    305.45481     877.3162 
  364500    249.22922   -4818.7141   -4320.2249   -4818.7141            0    4892.7769     18.15061    22.739633    19.581052  -0.18937576   -6.4247294   0.31663789    8081.8487     4986.038    5458.3935    4233.8991   -1233.5025    835.43229    -1264.705 
  365000    253.11433   -4836.2617   -4330.0017   -4836.2617            0    5138.9755    18.048086    22.958858    19.478201  -0.10532517   -6.5518522  0.024340103    8071.0543    5303.9312    6041.4852    4071.5101   -696.84428    1934.6959   -1383.7586 
  365500    260.01403   -4851.8839   -4331.8237   -4851.8839            0    2764.9364    18.193141      23.0575    19.487702  -0.30079956   -6.8822254 -0.0058626977     8174.864    3565.3794    2684.3984    2045.0313    1219.1328    570.05825    739.40502 
  366000      262.846   -4820.3867   -4294.6623   -4820.3867            0    3811.3815    18.116669     23.05965     19.47353 -0.00046683549    -6.209207   0.16382061    8135.3404    4155.1694    4358.7858    2920.1892   -1560.2926    616.65175   -916.75999 
  366500    254.57147    -4849.205   -4340.0306    -4849.205            0    5162.2538    18.284725    22.871158    19.346676  -0.05271809   -7.3295153   0.18185152    8090.6412    3950.6192    3977.5716    7558.5705   -1801.9447    223.27368   -1524.1497 
  367000    250.92321   -4851.0271   -4349.1497   -4851.0271            0    4316.9354    18.105658    22.966663    19.393377  -0.22112846   -6.3967839  -0.13541341     8064.281    3665.9264    3576.2937    5708.5862    1487.1175   -1479.8162    408.08659 
  367500     259.2398    -4827.419   -4308.9073    -4827.419            0    5565.0398    18.105126     22.86348    19.500552  -0.24724136   -6.6554335 -0.0027999363    8072.1793    5018.5647    5838.7359    5837.8189   -271.46029    13.592562    236.06186 
  368000    250.03713   -4814.7862    -4314.681   -4814.7862            0    5055.8437     18.02164    23.110668    19.423892   0.15651311   -6.7630498    0.3151469    8089.8985    6842.1927    4489.7227    3835.6157   -400.03785    1054.9301   -2199.7995 
  368500     248.3469   -4829.6648   -4332.9403   -4829.6648            0    3822.9924    18.159294    22.838118    19.572605 -0.016067412   -6.2924835  0.072136198    8117.2309    4397.5237    3591.9116    3479.5418    1399.7018   -455.11858   -29.867671 
  369000    247.49537   -4838.3135   -4343.2922   -4838.3135            0    2748.4125    18.128172    23.187962    19.382842  -0.33920757   -7.1372949   0.06939723    8147.6816    1971.6518    3221.6672    3051.9185   -136.48381    1921.0479    1672.8265 
  369500     234.4803   -4825.2437   -4356.2541   -4825.2437            0    4953.3272    18.142741    22.924095    19.451006  0.072364654   -6.2658908   0.12705616    8089.7886    3157.6204    5873.9988    5828.3624   -803.65221    469.90069    -1757.031 
  370000    257.38426    -4814.998   -4300.1977    -4814.998            0     3068.784    18.273082    23.170526    19.278803  -0.10518496   -7.1031521   0.31243929    8162.5856    2386.3285     3223.822    3596.2016   -1030.7248    747.89915   -1379.3013 
  370500    240.41182   -4849.4398   -4368.5865   -4849.4398            0    4306.8518    18.172957    22.706092    19.645395  -0.27586764   -6.6053628 -0.055760479    8106.4135    4712.0139    3832.8236    4375.7179    530.56407   -109.74237    393.83968 
  371000    250.65441   -4827.7193   -4326.3795   -4827.7193            0    5576.1159    17.936223    23.083984    19.484235  -0.15146007   -6.3145135   -0.0881956    8067.2426    7753.8032    4785.6107    4188.9339    883.55191    193.11035    837.85146 
  371500    257.77611   -4853.3518   -4337.7677   -4853.3518            0    3762.9186    18.117936    22.818219     19.52091  -0.16686885   -6.9647606   0.29647029    8070.3157    4385.7712    4694.6735     2208.311    317.19013    911.96868   -1250.4778 
  372000    259.03324   -4844.1542   -4326.0558   -4844.1542            0    3809.7771     18.14493    23.047331    19.347558   0.10971479   -6.1506117   0.10893425    8090.9978    3355.9396    3890.9532    4182.4385   -1369.3553   -685.75297   -162.80239 
  372500    244.36238   -4848.8865   -4360.1315   -4848.8865            0     3553.818    18.177107    22.901557    19.543866   -0.3789855   -7.0104488   0.27357902    8135.7998    3223.6558    3709.5633    3728.2348   -70.160999     65.90875   -2647.7804 
  373000    246.95322   -4874.3055   -4380.3685   -4874.3055            0    2537.6649     18.13238    22.940745    19.590882  -0.12960947   -6.5847851 -0.033394871    8149.2252    3782.2071    3109.6983    721.08927   -453.03806    1036.0922    270.45188 
  373500    246.33906   -4827.9941   -4335.2856   -4827.9941            0    3637.3941    18.014826    23.150091     19.49738  -0.32718558   -6.5293095   0.15100966    8131.2821    5551.8919    2490.7134    2869.5769   -278.85848   -175.85092   -900.84409 
  374000     258.9847   -4827.1912   -4309.1898   -4827.1912            0     3990.929    18.337374    22.787731    19.407855   0.14556304   -6.7588781   0.01757978    8109.9049    3183.0395    4470.8727    4318.8747   -1068.0191     831.3497   -1020.7109 
  374500    248.31746   -4810.1689   -4313.5033   -4810.1689            0    4309.7446    18.083717     23.19813    19.288368  -0.46747334   -6.1866594   0.11354687    8091.6327    5274.5275    3139.4766    4515.2296    916.25356   -804.04287    650.59668 
  375000     254.7532   -4835.9062   -4326.3683   -4835.9062            0    3910.4678    18.259735     22.85431    19.438898  0.055463195   -6.7893123  0.031059283    8112.1175    2695.2983    5325.9024    3710.2027   -1376.9632    248.63657   -611.96839 
  375500    251.31239   -4845.1195   -4342.4637   -4845.1195            0    5604.7444    17.832787    23.257166    19.346977   -0.3849282   -6.4487657   0.33351529    8023.9667    6947.7318    4960.1719    4906.3296    931.87575   -559.81094   -540.66765 
  376000    250.02389   -4844.2457   -4344.1671   -4844.2457            0    4974.0245    18.242721    22.679353    19.561748 -0.087696273   -6.7455218  -0.19698987     8093.343    3770.0177    5121.5157    6030.5402    967.29652   -16.849207    1751.3114 
  376500    248.37446   -4801.7835   -4305.0039   -4801.7835            0    1714.4808    18.144609    23.210793      19.4909  -0.41696225   -6.5317714   0.15765299    8208.6075    742.10958    2227.3009     2174.032    51.073341   -39.114536   -2.5654985 
  377000    243.21975   -4870.5488   -4384.0792   -4870.5488            0    6356.6564    18.204092    22.833301    19.289033   0.15378835   -6.4581873 0.0091686011    8017.6699    5875.3343    6083.1763    7111.4588    475.68408   -56.676933   -145.21591 
  377500    247.08789   -4836.8851   -4342.6788   -4836.8851            0    4531.8335    18.233733    23.032704    19.274046  -0.38491443   -6.6284922   0.13626142     8094.563     3579.618    5088.8611    4927.0214    160.65725    62.585578    522.92288 
  378000    246.07603   -4831.3565    -4339.174   -4831.3565            0    3387.7988    17.949425    23.144595    19.530821  0.025222658   -6.2893547   0.02412254    8113.7317    4617.6506    2559.5225    2986.2234   -563.50634    41.116898   -283.24121 
  378500    247.00399   -4875.2504   -4381.2119   -4875.2504            0    3277.4711    18.211876    22.716297    19.683802  -0.28462912   -6.9615146   0.28304413    8143.3143     3830.784    3700.4157    2301.2137   -920.03655    566.90817    -1676.447 
  379000    247.55137   -4839.0626   -4343.9292   -4839.0626            0    1967.0475    18.078574    23.267503    19.367142 -0.035552351   -6.4212078 -0.065371242    8146.6581    2494.6553    1737.4024    1669.0847   -15.812003   -546.29213    1090.9279 
  379500     253.4328   -4863.9587   -4357.0618   -4863.9587            0    2914.6511    18.283917     22.72067    19.629099  -0.17162562    -6.827058   0.23116369    8154.3764    1944.4649    3539.6469    3259.8415   -468.72311    640.20727   -329.08445 
  380000    244.07766   -4862.5104   -4374.3249   -4862.5104            0    4083.8406    17.997687    23.321893    19.275334   0.22337057   -6.5073978   0.13574187    8090.6313    5449.4425    2673.3862    4128.6932   -1408.1581   -290.04852   -1243.4324 
  380500    250.13008   -4825.9898   -4325.6987   -4825.9898            0    3367.1695    18.307561    22.823605    19.483532  -0.34647589   -6.6586966   0.14671589    8141.0879    3484.9266    4550.7605    2065.8214   -657.18034    850.77728   -410.86976 
  381000    237.76897   -4837.6558   -4362.0885   -4837.6558            0    3528.1159    18.128107    23.227806    19.277839  -0.16729055   -6.8044346 -0.098477863     8117.438    800.37291    3810.0496    5973.9253    1290.9847    75.743721     1606.438 
  381500    259.37938   -4820.1477   -4301.3568   -4820.1477            0     3385.474    18.206578    22.750981    19.662157 -0.094626877    -6.202396   0.31152676    8144.4096    4068.6356    3112.4458    2975.3406    10.011424   -34.204254   -718.56875 
  382000    235.92784   -4837.7899   -4365.9051   -4837.7899            0    4130.3449    17.954135    23.102234    19.488213 -0.052077102   -6.7428066   0.19612986    8083.3337    5934.5644    3185.3413    3271.1291    299.27823    778.03992   -945.69894 
  382500    270.06434   -4812.4784   -4272.3164   -4812.4784            0    2430.4474    18.273348    22.862578    19.660184  -0.28542228   -6.5180323 -0.024171269      8213.55    1752.8635    2296.4183    3242.0604    -368.3495   -1236.6028   -95.385135 
  383000    262.29823   -4828.4825   -4303.8537   -4828.4825            0    3182.3929    18.080033    23.174935    19.455397  -0.20602438   -6.7372717  0.027539408    8151.8809    2471.3179    4067.3619    3008.4989    704.11782    1200.1419   -38.064811 
WARNING: Wall time limit reached (../timer.cpp:235)
Loop time of 3302.33 on 32 procs for 383000 steps with 1008 atoms

Performance: 20.041 ns/day, 1.198 hours/ns, 115.979 timesteps/s
3179.8% CPU use with 1 MPI tasks x 32 OpenMP threads

MPI task timing breakdown:
Section |  min time  |  avg time  |  max time  |%varavg| %total
---------------------------------------------------------------
Pair    | 198.4      | 198.4      | 198.4      |   0.0 |  6.01
Bond    | 38.373     | 38.373     | 38.373     |   0.0 |  1.16
Kspace  | 1516.1     | 1516.1     | 1516.1     |   0.0 | 45.91
Neigh   | 11.644     | 11.644     | 11.644     |   0.0 |  0.35
Comm    | 132.9      | 132.9      | 132.9      |   0.0 |  4.02
Output  | 2.5887     | 2.5887     | 2.5887     |   0.0 |  0.08
Modify  | 1397       | 1397       | 1397       |   0.0 | 42.30
Other   |            | 5.286      |            |       |  0.16

Nlocal:        1008.00 ave        1008 max        1008 min
Histogram: 1 0 0 0 0 0 0 0 0 0
Nghost:        8359.00 ave        8359 max        8359 min
Histogram: 1 0 0 0 0 0 0 0 0 0
Neighs:        328402.0 ave      328402 max      328402 min
Histogram: 1 0 0 0 0 0 0 0 0 0

Total # of neighbors = 328402
Ave neighs/atom = 325.79563
Ave special neighs/atom = 2.0000000
Neighbor list builds = 14159
Dangerous builds = 0

unfix		3
unfix		2
unfix		1

write_data	data.final.${pid}
write_data	data.final.0
System init for write_data ...
PPPM initialization ...
  extracting TIP4P info from pair style
  using 12-bit tables for long-range coulomb (../kspace.cpp:340)
  G vector (1/distance) = 0.38289887
  grid = 24 30 36
  stencil order = 5
  estimated absolute RMS force accuracy = 0.0019778941
  estimated relative force accuracy = 5.9563693e-06
  using double precision FFTW3
  3d grid and FFT values/proc = 54945 25920
Last active /omp style is kspace_style pppm/tip4p/omp
WARNING: Not all mixed pair coeffs generated from mixing. Use write_data with 'pair ij' option to store all pair coeffs. (../write_data.cpp:312)

write_restart   restart.lmp.${pid}
write_restart   restart.lmp.0
System init for write_restart ...
PPPM initialization ...
  extracting TIP4P info from pair style
  using 12-bit tables for long-range coulomb (../kspace.cpp:340)
  G vector (1/distance) = 0.38289887
  grid = 24 30 36
  stencil order = 5
  estimated absolute RMS force accuracy = 0.0019778941
  estimated relative force accuracy = 5.9563693e-06
  using double precision FFTW3
  3d grid and FFT values/proc = 54945 25920
Last active /omp style is kspace_style pppm/tip4p/omp
Total wall time: 0:55:02
