LAMMPS data file via write_data, version 30 Jul 2021, timestep = 14000000

864 atoms
2 atom types
576 bonds
1 bond types
288 angles
1 angle types

0.573712406581679 17.633859993405473 xlo xhi
1.7672887037735574 21.861889096215215 ylo yhi
0.6999277959932009 21.513268004004967 zlo zhi

Masses

1 1.00794
2 15.9994

Pair Coeffs # lj/cut/tip4p/long/omp

1 0 0
2 0.21084 3.1668

Bond Coeffs # harmonic/omp

1 450 0.9572

Angle Coeffs # harmonic/omp

1 55 104.52

Atoms # full

789 1 1 0.5897 2.569591764889724 5.632997488702754 4.289259977852429 1 0 7
23 1 1 0.5897 3.7550163893952866 2.524713225014601 5.382191319073294 -2 0 1
788 1 1 0.5897 3.3241319144406036 4.737049070096247 3.3301280930711545 1 0 7
98 1 1 0.5897 0.8961637137768308 2.3737030982463785 3.351719238005184 5 -8 6
146 1 1 0.5897 1.3758867805616024 3.8966467439505714 2.0173273618432717 2 0 -6
813 1 1 0.5897 3.347924011048728 4.666094566247233 0.7126994965968787 -2 3 -2
812 1 1 0.5897 3.8899137424749766 3.3392379273962134 1.2002183275996108 -2 3 -2
24 1 1 0.5897 2.358380189506752 2.036851463665052 5.060636750985325 -2 0 1
97 1 2 -1.1794 0.9101232001458528 2.2066695927368456 4.294149507245248 5 -8 6
787 1 2 -1.1794 3.1839851548684073 4.899443936597242 4.263006906371039 1 0 7
811 1 2 -1.1794 3.587157183772323 4.192957280117957 1.5096766813643483 -2 3 -2
182 1 1 0.5897 4.476314788581442 5.584151195890106 5.232662576889325 -4 2 -1
80 1 1 0.5897 4.271212113296948 5.578220814386183 7.21337379346441 0 1 -5
702 1 1 0.5897 2.4961407753092333 3.416504343544722 10.728075729815462 7 1 0
700 1 2 -1.1794 2.899411617026639 2.9635093943270574 9.98750816790811 7 1 0
701 1 1 0.5897 2.3076921273253093 3.129412381682699 9.253609874284743 7 1 0
377 1 1 0.5897 0.6475048078222717 5.392519594780358 7.682957499295992 3 3 2
376 1 2 -1.1794 1.2210149205020007 5.179703555806196 6.946698800606474 3 3 2
378 1 1 0.5897 1.3518374608774117 4.233578854777097 7.010065071359745 3 3 2
81 1 1 0.5897 2.8450985388960666 5.210590913011374 7.564148736593826 0 1 -5
93 1 1 0.5897 2.2239377002339715 2.069131192210393 7.331264090153472 -3 -6 5
79 1 2 -1.1794 3.7286784258958705 5.249592233544236 7.930263395541378 0 1 -5
91 1 2 -1.1794 1.443588042944053 2.5583488926404008 7.5920742599863225 -3 -6 5
510 1 1 0.5897 4.623729157298564 3.4991066206105543 9.95169185208361 5 -1 3
732 1 1 0.5897 3.1195073899997334 6.720077824953694 8.654611461922677 4 1 -3
92 1 1 0.5897 0.7485286298374376 1.9010552574055601 7.626271296310569 -3 -6 5
395 1 1 0.5897 4.321045679436953 5.278667335498679 10.990429947338002 3 1 4
394 1 2 -1.1794 3.9421918230156066 5.939608799017993 11.569990878368737 3 1 4
506 1 1 0.5897 2.5271344689357895 5.64469709258373 15.61453983452861 5 3 -4
275 1 1 0.5897 4.2813989977190925 4.2038427746616485 15.861375757423488 -1 7 -1
810 1 1 0.5897 2.7886222898797457 2.342242864391077 13.339218628664947 5 -1 1
808 1 2 -1.1794 1.9172020540707781 2.0607279342202203 13.060554852697058 5 -1 1
396 1 1 0.5897 4.357166304939504 5.781482385436551 12.417962220825045 3 1 3
490 1 2 -1.1794 1.395084571992682 4.9767781437113925 11.54846670940551 2 4 5
491 1 1 0.5897 2.2094633143057862 5.403603102662591 11.814743652434485 2 4 5
493 1 2 -1.1794 4.4131941022867345 3.7105506057972732 13.396619921830968 -1 -2 0
505 1 2 -1.1794 2.116414031776196 6.15192729420696 14.914319918382136 5 3 -4
495 1 1 0.5897 4.836507164686266 2.9399104614045797 13.77502354239025 -1 -2 0
492 1 1 0.5897 0.8290242363661404 5.0386103908247755 12.317892414615331 2 4 5
507 1 1 0.5897 1.5676660276804304 6.790038296587256 15.370363838628647 5 3 -4
168 1 1 0.5897 0.8745872080376311 1.9035427475191145 14.517624593546664 0 -1 7
842 1 1 0.5897 0.6526598075945301 5.27257627681451 14.304029248037397 0 5 1
3 1 1 0.5897 2.117631309080444 3.0970012986797943 19.15417246243166 3 -2 3
228 1 1 0.5897 2.607285644762172 6.617314782825302 20.050785625064847 3 -1 3
1 1 2 -1.1794 1.4051934444856804 3.6411298732799553 19.489825474747505 3 -2 3
391 1 2 -1.1794 3.3069771332798643 2.3878932173967344 18.1130118852732 4 1 -1
2 1 1 0.5897 1.8014431979727386 4.503011255661765 19.61800820177732 3 -2 3
276 1 1 0.5897 3.4241709062899437 4.047218367599145 17.09938690567516 -1 7 -1
226 1 2 -1.1794 2.9735855734080907 5.785972746817298 19.7491218798938 3 -1 3
274 1 2 -1.1794 3.8688636228649966 4.70509158444689 16.56483145414769 -1 7 -1
138 1 1 0.5897 4.518378637121565 6.454208006116887 16.65775224741268 10 -6 -2
227 1 1 0.5897 3.780640421298212 6.029745420251719 19.295793719608376 3 -1 3
393 1 1 0.5897 4.15285447164921 2.111559655087415 18.465718850570564 4 1 -1
170 1 1 0.5897 2.190312528994255 8.191876025942516 5.152627956692362 -4 5 -2
319 1 2 -1.1794 3.2641540123450725 8.891131587419995 1.1518472030717732 -1 -3 -2
800 1 1 0.5897 4.424738154946414 8.113589267070022 2.3485655933372245 -1 -1 3
217 1 2 -1.1794 4.379012620003036 10.633286395921498 3.8406799314714344 1 -2 -3
149 1 1 0.5897 1.3295155186170722 10.008805234208817 2.7323716576587143 0 -4 1
801 1 1 0.5897 4.580726956383075 7.956004086589296 3.8461700068057088 -1 -1 3
171 1 1 0.5897 1.7428760391621294 8.01643345769925 3.717002076210291 -4 5 -2
408 1 1 0.5897 1.2385069717731882 11.378448306469211 5.409721278720077 -2 -2 4
169 1 2 -1.1794 2.0142374905116354 7.522907527744998 4.490996245731466 -4 5 -2
321 1 1 0.5897 2.942128373750462 9.792452796333825 1.1379071935337672 -1 -3 -2
530 1 1 0.5897 1.6549283290180412 7.557620763459776 1.4055893902043561 -3 1 -5
529 1 2 -1.1794 1.0489761488714777 6.853654425327062 1.1742448200896858 -3 1 -5
218 1 1 0.5897 3.6227161428493173 11.003842829693818 4.295620586323427 1 -2 -3
148 1 2 -1.1794 0.7480802207830902 9.306383708726035 3.0236851120897716 0 -4 1
412 1 2 -1.1794 2.283010564898752 11.424765656787908 1.580274054666439 7 -2 3
219 1 1 0.5897 4.699767389128403 9.948059836944008 4.42712348493292 1 -2 -3
414 1 1 0.5897 1.9354633352026953 11.772781427473616 0.7590276825930112 7 -2 3
731 1 1 0.5897 1.7569753139744217 7.378312686273715 8.607510940610398 4 1 -3
407 1 1 0.5897 0.6823447638084321 11.35309430963546 6.817572599551891 -2 -2 4
561 1 1 0.5897 2.3715232100986343 10.061353200154345 6.6618902284549195 3 1 1
406 1 2 -1.1794 0.7147081692449149 10.84465682219251 6.0071902062144105 -2 -2 4
556 1 2 -1.1794 1.9500609896430074 10.540366613714424 8.931697605637265 0 -1 2
558 1 1 0.5897 1.667061499667718 9.634379291533861 8.807707065243292 0 -1 2
557 1 1 0.5897 2.8787341732470053 10.47343854143934 9.153873320933059 0 -1 2
730 1 2 -1.1794 2.68532861260042 7.568625897541996 8.742474495451713 4 1 -3
466 1 2 -1.1794 4.607463311204109 10.375758624932754 9.865727810377392 3 -2 4
560 1 1 0.5897 2.778458261921205 8.749084878050379 7.297874832453682 3 1 1
559 1 2 -1.1794 2.9573052581383203 9.31326174740055 6.545541396063474 3 1 1
746 1 1 0.5897 3.035994713933566 11.350709434532083 14.930720060352606 5 4 -7
271 1 2 -1.1794 4.239478580530925 8.705574499213842 14.284732512344355 0 1 2
578 1 1 0.5897 2.963846376466648 8.074284620314991 11.145920154335617 5 5 -3
273 1 1 0.5897 3.846123417773183 8.604480735862053 13.417946292829328 0 1 2
745 1 2 -1.1794 2.8315016341404444 10.663144484841226 15.564522358830446 5 4 -7
747 1 1 0.5897 3.2453910481171038 9.87716652535341 15.207867531101567 5 4 -7
156 1 1 0.5897 2.1704971113554365 10.741644038023322 11.445747267367704 7 2 -6
154 1 2 -1.1794 2.004208392031856 11.521486634549401 11.975384033294533 7 2 -6
137 1 1 0.5897 4.324435145646774 7.849482794742123 16.10314804180223 10 -6 -2
496 1 2 -1.1794 0.652113953171102 8.048336182916835 16.198597323055672 1 6 0
577 1 2 -1.1794 2.7698485836036175 8.645593728873973 11.889046938696165 5 5 -3
579 1 1 0.5897 1.9094388341937503 8.358137792298596 12.194552702912427 5 5 -3
591 1 1 0.5897 0.8245312583871387 10.298542178934742 13.933028265740278 0 7 -1
136 1 2 -1.1794 4.705079738798567 7.3747722669345475 16.842086304132017 10 -6 -2
340 1 2 -1.1794 2.146383573159619 10.19165415604296 18.13702076382186 4 2 1
44 1 1 0.5897 4.407555015023607 10.631699726529106 16.53630156049759 2 8 0
180 1 1 0.5897 1.059812301327297 8.473032693428106 18.473460929906757 -9 1 0
341 1 1 0.5897 2.8804349084368566 9.625707466315866 18.376057857457685 4 2 1
178 1 2 -1.1794 0.5880019540649855 7.800070704605883 18.96417556206729 -9 1 0
342 1 1 0.5897 2.2942584658853917 10.399712270064734 17.21446342853527 4 2 1
361 1 2 -1.1794 4.256725033384106 9.036745335577388 19.42481111943512 0 -3 -4
363 1 1 0.5897 4.48662283432021 9.96413474841069 19.366804393747678 0 -3 -4
320 1 1 0.5897 3.4660897704382685 8.694271032723679 21.050448313439226 -1 -3 -3
194 1 1 0.5897 4.5452416605385615 11.590647975184208 20.526274164382144 3 -4 0
444 1 1 0.5897 2.866774264443115 14.92094676850064 2.264546036103148 2 3 -5
442 1 2 -1.1794 2.6667083096045157 14.933048771177958 3.2005556802787165 2 3 -5
221 1 1 0.5897 2.903820941392969 13.49839960799591 4.512561911871467 4 -2 6
443 1 1 0.5897 1.7952028415641266 15.325286070416482 3.254660156528343 2 3 -5
9 1 1 0.5897 4.243629394350453 15.845591845297124 5.208014264981339 1 -2 -1
95 1 1 0.5897 2.313270672372065 16.757057896557235 4.498703701006468 -3 3 0
220 1 2 -1.1794 2.9297533302324505 12.74321813762959 5.100196549916355 4 -2 6
413 1 1 0.5897 3.108776586116023 11.891651577913148 1.7084096047776396 7 -2 3
246 1 1 0.5897 2.7937704473853318 13.51550428224091 9.833096450482891 -6 3 0
795 1 1 0.5897 3.0053753949130404 14.329300304304933 7.27692618466404 -2 2 7
302 1 1 0.5897 0.757624035956698 15.094455929185346 6.709280032957596 -4 3 5
245 1 1 0.5897 1.5181109064416531 14.298787625581081 10.059447989472373 -6 3 0
222 1 1 0.5897 3.093963392583676 13.118030067558143 5.965540586994968 4 -2 6
794 1 1 0.5897 4.3765401023515675 14.14921680214938 7.8929337881236865 -2 2 7
793 1 2 -1.1794 3.563076923844013 13.680506522678094 7.706233702647583 -2 2 7
244 1 2 -1.1794 1.92469705741032 13.44887057802176 10.22874360538351 -6 3 0
301 1 2 -1.1794 1.486535003934367 15.571734744742662 7.105766881464314 -4 3 5
303 1 1 0.5897 1.2164316360007 15.711600861342491 8.013370194254037 -4 3 5
370 1 2 -1.1794 1.2836260320276507 16.220020009398517 9.658471120501112 -1 7 -2
657 1 1 0.5897 0.9125261326123733 12.587543461358456 8.584910767602175 -1 7 -4
371 1 1 0.5897 2.008809996992495 16.71406254556519 10.04095352002154 -1 7 -2
96 1 1 0.5897 2.458615451898444 16.44283242233371 5.972530224165685 -4 3 0
372 1 1 0.5897 0.5994278967017053 16.241333489989934 10.32756307001769 -1 7 -2
17 1 1 0.5897 3.919991808447074 13.813769847598806 13.845755221744588 -3 4 0
736 1 2 -1.1794 4.103574085356993 15.52510965815543 13.121293418755583 5 -1 -1
16 1 2 -1.1794 3.804004090278584 12.872977705819798 13.978940291400109 -3 4 0
738 1 1 0.5897 3.2999940677078867 15.931868899499367 12.797147230904617 5 -1 -1
18 1 1 0.5897 4.328040316303463 12.46647754904082 13.288695578838386 -3 4 0
237 1 1 0.5897 1.240571282724687 15.47055906519571 12.756738683432596 -3 -4 -4
128 1 1 0.5897 1.7302044778880425 13.217240680263567 13.201469236898811 -2 0 -7
235 1 2 -1.1794 1.5913481990739842 16.357415824223946 12.674870091569218 -3 -4 -4
737 1 1 0.5897 4.760493876609061 15.727214067396574 12.45505381394942 5 -1 -1
127 1 2 -1.1794 0.9364086123140621 13.746106927291033 13.282025537642223 -2 0 -7
155 1 1 0.5897 1.9562638640293784 12.236688189111176 11.340972293490308 7 2 -6
51 1 1 0.5897 4.818310234756026 16.737325488315648 14.484052111079109 8 0 -2
864 1 1 0.5897 2.709749569387578 14.920574653510918 17.829228656647 2 -6 2
689 1 1 0.5897 1.1197734779417263 15.926163920941782 19.633449339872598 6 -2 4
195 1 1 0.5897 4.360773445452862 12.420753660439278 19.27366460592941 3 -4 0
633 1 1 0.5897 2.516116716011159 15.10518296383916 21.092110971659963 3 1 3
632 1 1 0.5897 3.9935237749453925 14.937575855612517 20.8072427262636 3 1 3
295 1 2 -1.1794 1.4840419514487089 12.408699265029703 19.849020456345325 4 5 -1
863 1 1 0.5897 1.44244079103095 15.082427540026787 17.01699780543998 2 -6 2
862 1 2 -1.1794 2.00539173592565 15.540808830774143 17.640889927801954 2 -6 2
631 1 2 -1.1794 3.256671335164018 14.52065609988145 21.253884548538004 3 1 3
546 1 1 0.5897 4.4681257676616974 14.34298937708421 18.97306397266257 -4 2 0
296 1 1 0.5897 2.0565400828561406 13.173687297853279 19.79150534055344 4 5 -1
544 1 2 -1.1794 4.0710867621739535 13.836388773593681 18.264547475345093 -4 2 0
545 1 1 0.5897 4.6913032100735546 13.911164443200368 17.53928689647751 -4 2 0
688 1 2 -1.1794 1.1288712871631197 16.03695262385345 20.58418869563995 6 -2 4
297 1 1 0.5897 1.804154150745769 11.817607926099202 19.167546848561027 4 5 -1
671 1 1 0.5897 1.6186493866008638 19.209611834846505 3.397812779782234 11 2 1
725 1 1 0.5897 3.146439479219997 21.082998972932778 3.322255697256642 1 -6 3
724 1 2 -1.1794 3.025224647973304 20.39458769628213 2.6682940893978913 1 -6 3
672 1 1 0.5897 0.8967541878808052 18.574946460638998 2.2281771427545656 11 2 1
94 1 2 -1.1794 2.8548408544435735 16.950093659953957 5.2640200400256205 -4 3 0
726 1 1 0.5897 3.5075464709256483 20.704239448449073 1.9016458075393528 1 -6 3
670 1 2 -1.1794 1.0009960417846848 18.51226325407223 3.1776446749630978 11 2 1
336 1 1 0.5897 3.9915219944822136 18.220997004238754 4.843408577224027 10 -1 7
335 1 1 0.5897 4.14528740870573 19.36210004982742 3.860432150519859 10 -1 7
334 1 2 -1.1794 4.637355325024157 18.83060134508976 4.4862541703988 10 -1 7
22 1 2 -1.1794 3.213430501089671 21.830170481207166 5.367881580219216 -2 -1 1
348 1 1 0.5897 4.141710336319504 17.708512616863562 11.101129457468193 -3 3 -1
367 1 2 -1.1794 3.1610881428873583 19.721612851208754 6.922188650107246 6 3 -1
368 1 1 0.5897 3.2172925609103307 20.171536617578546 7.7652117995523025 6 3 -1
445 1 2 -1.1794 2.579079926168338 20.333639009633906 9.635156306249476 1 -3 -5
537 1 1 0.5897 1.6668569982751824 18.7701594552711 7.168233715229873 6 4 3
447 1 1 0.5897 2.768512366905639 21.257620032756044 9.798391118100126 2 -3 -5
347 1 1 0.5897 3.3078664893481498 18.703904547470145 10.322739144580513 -3 3 -1
668 1 1 0.5897 4.402614241276519 18.2508831518509 7.500435475680045 -6 1 2
446 1 1 0.5897 1.6233890981321102 20.28520967428505 9.610987030895242 1 -3 -5
669 1 1 0.5897 4.350469253829415 17.333682937169463 8.703786026179545 -6 1 3
369 1 1 0.5897 3.3411545126924036 20.402729809438362 6.274165398514195 6 3 -2
535 1 2 -1.1794 0.7935812877379049 18.435295197195998 7.371996985117293 6 4 3
536 1 1 0.5897 0.9033130014005966 17.96661234575268 8.19940095453251 6 4 3
346 1 2 -1.1794 3.548604800704251 17.77793366293998 10.353015657169509 -3 3 -1
663 1 1 0.5897 4.510500596129354 18.636812181315165 13.561643264679578 0 -4 0
662 1 1 0.5897 3.193878832139239 19.07279843463823 12.954687517284194 0 -4 0
761 1 1 0.5897 4.582564704023898 20.600787397748917 14.177526644880508 2 -3 -1
309 1 1 0.5897 0.8384539185830002 17.310258940055142 15.371162528981401 -2 5 -5
762 1 1 0.5897 4.092161051334342 21.08986951333003 15.523733875438559 2 -3 -1
661 1 2 -1.1794 4.136377124264991 19.235279264181692 12.91500583588637 0 -4 0
307 1 2 -1.1794 1.3859345559124727 17.736881460820655 16.030356412061536 -2 5 -5
157 1 2 -1.1794 1.1359854550247541 19.35195773898871 12.63257987015113 0 5 0
159 1 1 0.5897 0.7429315729387199 19.501222513455232 11.772638000050222 0 5 0
809 1 1 0.5897 2.0417490722275833 21.257065957458046 12.754092466925398 5 -2 1
236 1 1 0.5897 0.9427588889617511 16.912904420247727 13.107335352129505 -3 -4 -4
760 1 2 -1.1794 4.674659869681026 21.32175139900471 14.800416238639048 2 -3 -1
626 1 1 0.5897 3.742603434676925 18.771018491323993 20.226855728057103 1 -4 3
100 1 2 -1.1794 2.198107822665044 20.31738926450408 16.987726122776152 7 -7 -5
140 1 1 0.5897 4.2533704337183655 17.867779812818945 18.433149112720393 2 0 -2
125 1 1 0.5897 2.32295324482617 20.019049202209096 18.960653079072813 2 2 5
126 1 1 0.5897 2.030341817081216 19.54924863968506 20.36978227541675 2 2 5
124 1 2 -1.1794 2.641021277852463 20.082850939800664 19.8612253272177 2 2 5
139 1 2 -1.1794 4.58577443281546 17.91512792198487 17.53674842967684 2 0 -2
132 1 1 0.5897 0.7492108070498695 17.84313643975942 21.02558150232953 -3 3 3
102 1 1 0.5897 2.2311516568458853 19.447273951016207 16.59014610962914 7 -7 -5
627 1 1 0.5897 4.43338864702306 18.03539833553304 21.355416302829592 1 -4 3
625 1 2 -1.1794 4.30039131841748 18.01442331340673 20.40771032495844 1 -4 3
483 1 1 0.5897 3.7147761445991065 21.221062845845104 20.563573672616915 -1 1 -1
392 1 1 0.5897 2.923152137619029 21.681965821910566 17.755039766419806 4 0 -1
101 1 1 0.5897 1.5733389845436676 20.80357309361544 16.44958954122416 7 -7 -5
308 1 1 0.5897 1.9059270864041882 17.026702151886294 16.406588494124463 -2 5 -5
130 1 2 -1.1794 0.5876167765708507 18.776007814851873 21.16667573036203 -3 3 3
481 1 2 -1.1794 4.222695743282374 21.846317028786302 21.080623717602297 -1 1 -1
183 1 1 0.5897 5.970011244888167 5.821573499108263 5.165483515821632 -5 2 -1
172 1 2 -1.1794 6.059274884913195 5.495700086440319 1.3516240124892105 1 0 -2
337 1 2 -1.1794 7.498852722652762 5.480158185699095 3.9488287480541384 -4 2 3
570 1 1 0.5897 6.12670236773298 2.421421687922016 2.6100453640271866 3 -2 -1
53 1 1 0.5897 6.835189351573155 3.960888815208435 1.1352902908370086 -7 1 4
569 1 1 0.5897 5.924853147044378 2.04870689300131 4.063449783454585 3 -2 -1
173 1 1 0.5897 5.147320605515369 5.2131469664643415 1.4206629060001332 1 0 -2
174 1 1 0.5897 6.2408450833140074 5.926760048266382 2.186783008585151 1 0 -2
181 1 2 -1.1794 5.212309387008166 5.924520242467254 5.74132298816455 -5 2 -1
338 1 1 0.5897 8.072295070599 4.7150518956942085 3.994335039355007 -4 2 3
52 1 2 -1.1794 7.235480566335729 3.1356469779094653 0.8613863430200261 -7 1 4
448 1 2 -1.1794 6.266523795089417 2.540983437432063 5.770667783730744 3 -3 -4
339 1 1 0.5897 8.092546986495574 6.22882041790698 4.006511724364886 -4 2 3
567 1 1 0.5897 8.780117392449158 3.9679777600866557 1.134153743630335 0 6 -8
201 1 1 0.5897 5.31073183292722 2.046964730335531 8.260606317844559 0 0 -1
771 1 1 0.5897 8.374118522402554 2.866360325913992 9.774030442868781 3 1 1
682 1 2 -1.1794 6.547975891536568 6.582364701035 8.598249597622196 5 -1 -5
516 1 1 0.5897 8.57758333248993 5.105699911679275 6.711269303011551 -2 -1 -2
508 1 2 -1.1794 5.421713621922288 4.026384776180841 9.989991993665281 5 -1 3
265 1 2 -1.1794 8.809196569636175 6.405366513638816 10.488019350422471 -2 1 1
684 1 1 0.5897 7.3333059801521845 6.3236919337174395 9.080617087840858 5 -1 -5
514 1 2 -1.1794 7.884390845832326 4.54855392630118 7.065301171572319 -2 -1 -2
769 1 2 -1.1794 8.548681116530524 2.266337135363367 9.048934234208524 3 1 1
515 1 1 0.5897 8.323427323358409 3.7248720114696194 7.277580021293281 -2 -1 -2
683 1 1 0.5897 6.653443584671584 6.181522038630152 7.735393434907395 5 -1 -5
509 1 1 0.5897 5.400743771309451 4.551915961331209 9.190191112123008 5 -1 3
117 1 1 0.5897 6.966561512573684 3.9613966425053864 10.605206355689349 -6 -5 2
449 1 1 0.5897 6.6911164030172285 3.209519893606022 6.308303264431911 3 -3 -4
116 1 1 0.5897 8.237206805365162 4.690240841436113 10.987599857092345 -6 -5 2
480 1 1 0.5897 6.705871477578561 6.158400216611945 14.160408847132244 -2 4 -2
384 1 1 0.5897 7.992766205911241 2.6091402831487174 12.402511480693494 -9 -3 -2
832 1 2 -1.1794 6.486814108727843 3.184465771032026 15.960378806996484 5 -2 0
833 1 1 0.5897 6.309957994381239 2.2463043602158868 15.890830530526268 5 -2 0
479 1 1 0.5897 7.240733520893532 5.2404060383337345 13.081889418340591 -2 4 -2
783 1 1 0.5897 8.9295634458774 2.837061928003564 14.545998345805298 -7 -1 1
115 1 2 -1.1794 7.766251121713509 3.8679500797430197 11.122920319963063 -6 -5 2
382 1 2 -1.1794 7.948474543357396 2.0259414592612104 13.160304831896875 -9 -3 -2
478 1 2 -1.1794 6.433055561154379 5.642492210982292 13.401670183505088 -2 4 -2
834 1 1 0.5897 7.434002060349813 3.2593892270568228 15.844138625415907 5 -2 0
494 1 1 0.5897 5.1285404315327465 4.329355766502916 13.249539273694985 -1 -2 0
266 1 1 0.5897 8.996370028159962 6.673188555895193 11.387742895184614 -2 1 1
428 1 1 0.5897 8.656937685174732 6.143424557549438 16.192162771443364 -1 0 -2
673 1 2 -1.1794 6.7336615200966445 4.149085496761533 18.513173742336896 -2 0 -5
269 1 1 0.5897 6.527663236064127 6.092366327186437 20.587460406661712 2 1 5
54 1 1 0.5897 7.174438059133647 3.144723801990861 20.719495198501637 -7 1 3
675 1 1 0.5897 7.537543067043729 3.6414143525236735 18.624149630013232 -2 0 -5
674 1 1 0.5897 6.408427539748182 3.8976373230625323 17.648730411125644 -2 0 -5
270 1 1 0.5897 6.535918929286656 5.721100274561245 19.119779940961685 2 1 5
268 1 2 -1.1794 6.7202010868201185 6.444843138819048 19.71857630081423 2 1 5
817 1 2 -1.1794 8.94942842249003 2.5472565087071617 19.24609413524543 5 -1 1
281 1 1 0.5897 8.509731743154264 6.24897399954416 19.52710830786584 -1 -4 0
818 1 1 0.5897 9.010051754594048 2.0122244945512184 20.037509354164218 5 -1 1
517 1 2 -1.1794 7.613863571627341 8.530333537226685 2.679292614843053 1 0 -5
519 1 1 0.5897 7.664518708420321 9.292151752982486 3.2566590873155024 1 0 -5
518 1 1 0.5897 6.7794510736684 8.116667398799045 2.9004263116819247 1 0 -5
409 1 2 -1.1794 8.087860474030034 11.038587174429825 4.132612421981193 6 0 -7
410 1 1 0.5897 7.339852611669029 11.557201937581066 4.428897897763343 6 0 -7
411 1 1 0.5897 8.584383410210561 11.63308100051359 3.5702033946975664 6 0 -7
238 1 2 -1.1794 5.611414347757874 8.693591908308363 5.750425980573404 -7 -5 2
573 1 1 0.5897 7.218040216380818 9.589057675949087 1.489591284322548 1 -3 -1
799 1 2 -1.1794 4.993354966818307 7.725649690236771 3.0137361824471287 -1 -1 3
143 1 1 0.5897 5.2284964553378535 11.506333073535663 2.3949222235862826 -3 3 0
635 1 1 0.5897 8.644695735952324 9.169586668240221 5.656697236921916 -8 4 -2
572 1 1 0.5897 6.719954641551594 10.906856001797665 0.9352529903892746 1 -3 -1
4 1 2 -1.1794 8.67354628449671 8.908428294318101 9.190379987286597 -1 -4 -2
468 1 1 0.5897 4.872464165144836 9.466623361963855 10.005459252265078 3 -2 4
6 1 1 0.5897 8.663650386416599 8.033112983927598 9.577662836615312 -1 -4 -2
263 1 1 0.5897 5.966474797186592 7.60567697620234 9.87917181139822 6 -1 6
821 1 1 0.5897 8.760411819774827 10.252531126173894 10.332541769590776 2 3 7
618 1 1 0.5897 8.756936596186447 10.788807903273177 6.916977743702603 -5 3 3
5 1 1 0.5897 8.58887686344316 8.755435649634109 8.24926826959993 -1 -4 -2
262 1 2 -1.1794 5.45864339433483 7.937927693108474 10.619435849004347 6 -1 6
111 1 1 0.5897 6.225243015162482 11.679037110036194 7.344342851064362 1 0 -6
634 1 2 -1.1794 8.334900770739536 8.82217129856096 6.49312992929136 -8 4 -2
109 1 2 -1.1794 6.510478210956653 11.219637949358003 8.134216066901017 1 0 -6
467 1 1 0.5897 5.167294031293697 10.68196501233337 9.152204997204903 3 -2 4
636 1 1 0.5897 7.3820841835872715 8.902158879406446 6.448122238994767 -8 4 -2
264 1 1 0.5897 5.015177849490013 7.166310117353103 10.971867266873145 6 -1 6
240 1 1 0.5897 4.966336807853626 8.99685290433166 6.389350085478916 -7 -5 2
452 1 1 0.5897 5.128381435016068 11.462405767717318 11.078447915294182 3 -1 4
239 1 1 0.5897 5.677141719096636 7.7511572271450655 5.9045848212373455 -7 -5 2
256 1 2 -1.1794 8.799995590204556 8.009308724954668 12.77926230689797 -4 2 -1
430 1 2 -1.1794 7.443700092475883 10.014218945647373 15.476950000779606 -9 0 -1
26 1 1 0.5897 6.147812574564066 8.99387798107077 11.974406343652847 2 9 9
807 1 1 0.5897 6.277471692033559 7.246703966112327 16.19001482337665 2 -2 -4
272 1 1 0.5897 5.151182736961433 8.938271551210512 14.108890723957812 0 1 2
806 1 1 0.5897 7.36770130774915 8.220894476255687 15.797174529348437 2 -2 -4
258 1 1 0.5897 7.9583409290448595 8.421007673118801 12.975241302528682 -4 2 -1
431 1 1 0.5897 6.6168184159889165 10.349373839668946 15.823681055398305 -9 0 -1
25 1 2 -1.1794 6.570603463313153 9.570732160663008 12.61061605914946 2 9 9
432 1 1 0.5897 7.689365047231948 10.63988687883604 14.795427996032886 -9 0 -1
805 1 2 -1.1794 7.130515253019938 7.294326400363202 15.758351007000957 2 -2 -4
822 1 1 0.5897 8.322588862804054 10.235893100093243 11.781685476452978 2 3 7
734 1 1 0.5897 8.73780835122552 11.629623768187061 12.692544932078413 -3 -1 -5
27 1 1 0.5897 6.255318051449718 10.446483050390098 12.387176576731946 2 9 9
820 1 2 -1.1794 8.78389772183617 10.771688499536683 11.13640627393286 2 3 7
279 1 1 0.5897 7.089219481348346 8.136342148820958 18.922542215326477 -2 -1 0
278 1 1 0.5897 7.154290129129531 9.352964831983869 19.82120848696073 -2 -1 0
571 1 2 -1.1794 7.194501217897767 10.112910317421111 21.502115642383657 1 -3 -2
277 1 2 -1.1794 7.307489490371437 9.068347362940056 18.920214833168252 -2 -1 0
45 1 1 0.5897 5.200333736266174 11.191573977765719 17.698206929538596 2 8 0
43 1 2 -1.1794 5.254818824622823 10.564898832239765 16.97669694979847 2 8 0
188 1 1 0.5897 8.764502935518626 11.338403975333046 17.654823344836224 -7 4 1
741 1 1 0.5897 8.96019732039215 9.201160018470397 18.99796024530183 -1 2 6
193 1 2 -1.1794 4.8638668351923675 11.687930068788765 19.62887402281469 3 -4 0
362 1 1 0.5897 4.893124156553679 8.596056544057866 18.86172680986887 0 -3 -4
189 1 1 0.5897 8.982807519815779 10.387720521048582 16.496994727541725 -7 4 1
707 1 1 0.5897 8.119653642546638 15.90089513998635 3.8156526235480515 -2 -4 -8
705 1 1 0.5897 5.122768468220939 15.124875992792184 3.393836826328266 7 -1 -2
703 1 2 -1.1794 5.544228860022402 14.750301405382576 2.620295349962169 7 -1 -2
729 1 1 0.5897 8.19841326869855 15.328758020155322 0.8150563221227605 -1 0 3
7 1 2 -1.1794 4.902873832628135 15.167027617643853 5.353751496861187 1 -2 -1
704 1 1 0.5897 6.462631895152925 14.65167604641058 2.8715120430386607 7 -1 -2
144 1 1 0.5897 5.272679418705865 12.980675550634606 2.0537247209349934 -3 3 0
142 1 2 -1.1794 5.304830950144413 12.110435789985363 1.6563265666191365 -3 3 0
706 1 2 -1.1794 8.243311945416517 14.991869586989353 3.5424428047871164 -2 -4 -8
285 1 1 0.5897 5.39192316770711 16.593291261191393 2.315424010778674 8 -3 -5
28 1 2 -1.1794 5.953515937848434 12.429899866932532 5.674345155398653 -7 0 6
29 1 1 0.5897 5.862613316898506 13.350113992852055 5.426932521498923 -7 0 6
8 1 1 0.5897 5.627425882793365 15.624133083316131 5.780772480803939 1 -2 -1
62 1 1 0.5897 9.073103067304954 14.100875875627276 5.033761281881626 -2 0 4
728 1 1 0.5897 8.593421884014521 13.867270384405883 0.8105749211142772 -1 0 3
327 1 1 0.5897 7.82859346062783 16.543015284782008 7.172002175729105 0 1 -2
595 1 2 -1.1794 5.93827398331043 14.698443980210934 8.813007026284167 2 -3 2
30 1 1 0.5897 5.091403516507293 12.185634797629806 6.011092197543394 -7 0 6
623 1 1 0.5897 5.999590289201783 15.401784969545119 10.555851079379659 2 -1 -2
134 1 1 0.5897 8.099584213985974 12.173551113819306 10.349357380959715 -1 -4 1
596 1 1 0.5897 6.451861782143624 13.949339692948225 9.115237098403854 3 -3 2
133 1 2 -1.1794 7.785714121546365 13.024917162068018 10.044381857998962 -1 -4 1
597 1 1 0.5897 6.558052602469387 15.227312790612926 8.310568348320782 2 -3 2
135 1 1 0.5897 8.489422048608592 13.634169374059637 10.267701587691953 -1 -4 1
325 1 2 -1.1794 7.064880218137535 16.541154373588014 6.5949360670431645 0 1 -2
110 1 1 0.5897 7.035897333662676 11.863226574930183 8.609608984461705 1 0 -6
624 1 1 0.5897 6.5758827290456106 16.72878561557775 11.001875817140679 2 -1 -2
513 1 1 0.5897 7.746630255844155 13.466316194168645 13.640130487756288 -2 4 -6
223 1 2 -1.1794 8.3837480880133 16.56022611351172 14.182274193147995 3 0 -6
453 1 1 0.5897 6.307916302552029 12.383391537468498 11.307867497090525 3 -1 4
603 1 1 0.5897 5.840405628614474 14.044196878887803 15.647344326151718 2 3 -1
225 1 1 0.5897 7.9889445013948475 15.706842860464876 14.00298032897468 3 0 -6
511 1 2 -1.1794 7.087197326932023 14.15251850035132 13.537342539660987 -2 4 -6
512 1 1 0.5897 7.04291142993401 14.303288721235816 12.593096281395413 -2 4 -6
622 1 2 -1.1794 6.113342259726485 15.956578639995884 11.327570599238506 2 -1 -2
733 1 2 -1.1794 8.71462630639079 11.9158564088275 13.605688873047205 -3 -1 -5
451 1 2 -1.1794 5.607113035218523 11.921812778264382 11.76844597954831 3 -1 4
163 1 2 -1.1794 5.548761106289029 15.345935297117563 19.923009619240627 3 0 -1
165 1 1 0.5897 5.668727676293443 16.258824188899013 20.18490611012669 3 0 -1
553 1 2 -1.1794 7.335564535973712 12.468525550416636 18.680468756041765 -6 -4 6
554 1 1 0.5897 6.650444358149038 12.209243496587764 19.296626522128662 -6 -4 6
400 1 2 -1.1794 8.929580764333425 13.718480292004019 16.379190156441766 -1 -2 0
555 1 1 0.5897 7.0778589680299335 13.34316756128505 18.389154664419408 -6 -4 6
548 1 1 0.5897 8.951938377767135 12.532576545244117 19.63673471631658 5 3 3
778 1 2 -1.1794 7.031643681728241 16.662538027420275 17.0705691202073 -5 -1 -4
727 1 2 -1.1794 8.078088311562407 14.513611524772294 21.14121803400063 -1 0 2
164 1 1 0.5897 6.309923522294335 14.89088184352476 20.28332342561341 3 0 -1
601 1 2 -1.1794 6.193020650664504 14.094188089244552 16.53584769459941 2 3 -1
779 1 1 0.5897 6.522553384206816 15.877134768519415 16.869986883562976 -5 -1 -4
780 1 1 0.5897 7.724474760468441 16.356461960618255 17.655863101953162 -5 -1 -4
401 1 1 0.5897 9.076794021389205 12.775626836655587 16.454161779159094 -1 -2 0
602 1 1 0.5897 7.135118246191074 13.963484820091791 16.427865007332855 2 3 -2
291 1 1 0.5897 8.96790001458321 15.406866695302073 19.334562837478213 -6 -2 -6
290 1 1 0.5897 9.051844616567656 15.113062489447884 17.851793672966373 -6 -2 -6
465 1 1 0.5897 6.481599142375208 20.660689199716153 2.1725562297408243 8 3 1
306 1 1 0.5897 7.486804470627329 17.4872712191866 4.937456923015961 7 -3 -5
261 1 1 0.5897 7.923963419291424 17.423254916571743 1.9205327019838354 -1 -1 8
678 1 1 0.5897 8.27942113888666 20.332874951758058 0.9788303421469956 -4 2 -3
463 1 2 -1.1794 6.52845832557082 20.039272408799683 1.445964151682404 8 3 1
464 1 1 0.5897 6.222666448087313 19.211882854596453 1.8177139356371714 8 3 1
259 1 2 -1.1794 8.568258036285968 17.305383177197818 1.2224760683234974 -1 -1 8
305 1 1 0.5897 8.153360017291618 18.518884977623188 4.0523305259856475 7 -3 -5
304 1 2 -1.1794 7.7919441030469345 17.632582673771854 4.0418896271342515 7 -3 -5
284 1 1 0.5897 5.338128138140196 17.917943724062 3.0464450978024673 8 -3 -5