LAMMPS data file via MDAnalysis

        2592  atoms
        1728  bonds
         864  angles
           0  dihedrals
           0  impropers

           2  atom types
           1  bond types
           1  angle types
           0  dihedral types
           0  improper types

0.000000 23.461000 xlo xhi
0.000000 21.567751 ylo yhi
0.000000 43.452679 zlo zhi
-9.230584 3.822906 5.791944 xy xz yz


Masses

1 1.008000
2 15.999000

Atoms

1 0 2 -1.179400 13.376409 17.820482 4.961904
2 0 1 0.589700 13.706775 18.524261 5.513195
3 0 1 0.589700 12.560946 18.155931 4.612214
4 0 2 -1.179400 -0.121772 4.199297 2.475674
5 0 1 0.589700 -0.681391 3.643616 3.008359
6 0 1 0.589700 -0.640988 4.403966 1.702284
7 0 2 -1.179400 4.738013 1.885986 0.347538
8 0 1 0.589700 7.979713 7.138940 43.533146
9 0 1 0.589700 4.787980 1.871572 1.303293
10 0 2 -1.179400 12.585577 21.816429 4.454158
11 0 1 0.589700 11.989777 21.083530 4.554962
12 0 1 0.589700 13.443626 21.416084 4.420787
13 0 2 -1.179400 19.604986 4.684693 1.702190
14 0 1 0.589700 20.019548 4.929183 2.526819
15 0 1 0.589700 20.324263 4.535971 1.098314
16 0 2 -1.179400 2.486696 0.271149 2.572729
17 0 1 0.589700 2.579989 1.183730 2.316778
18 0 1 0.589700 -5.904809 21.425798 2.115861
19 0 2 -1.179400 1.661023 6.479525 1.675843
20 0 1 0.589700 2.405010 6.036233 2.064958
21 0 1 0.589700 1.452525 5.963792 0.899373
22 0 2 -1.179400 -8.322743 20.562971 4.125286
23 0 1 0.589700 -7.760287 21.076237 3.554034
24 0 1 0.589700 -7.726939 20.061573 4.672101
25 0 2 -1.179400 18.928215 0.911243 5.700416
26 0 1 0.589700 9.606579 22.119646 4.860425
27 0 1 0.589700 19.108171 1.822461 5.491137
28 0 2 -1.179400 2.390134 2.979113 2.285704
29 0 1 0.589700 2.979609 3.722909 2.325245
30 0 1 0.589700 1.526908 3.367786 2.249527
31 0 2 -1.179400 -4.827747 19.674870 3.902378
32 0 1 0.589700 -5.350770 19.352074 4.631135
33 0 1 0.589700 -5.316152 19.431765 3.119762
34 0 2 -1.179400 21.031437 2.447137 3.043871
35 0 1 0.589700 21.341482 1.663774 3.488403
36 0 1 0.589700 20.421574 2.839226 3.660623
37 0 2 -1.179400 -2.794397 18.209925 5.023028
38 0 1 0.589700 -2.483520 18.726593 5.762985
39 0 1 0.589700 -3.537544 18.696579 4.688471
40 0 2 -1.179400 8.013058 3.458926 2.436867
41 0 1 0.589700 7.430536 2.897395 2.937259
42 0 1 0.589700 7.440191 3.965140 1.869840
43 0 2 -1.179400 13.039660 1.710284 0.333770
44 0 1 0.589700 13.057479 0.780580 0.539203
45 0 1 0.589700 13.345972 2.135230 1.132345
46 0 2 -1.179400 -2.916732 21.457081 4.460157
47 0 1 0.589700 -3.460316 20.704546 4.256354
48 0 1 0.589700 -2.040892 21.101856 4.523584
49 0 2 -1.179400 3.913981 5.101120 2.317481
50 0 1 0.589700 4.326356 5.359872 3.138825
51 0 1 0.589700 4.627970 5.032479 1.692971
52 0 2 -1.179400 1.783112 21.527016 3.110832
53 0 1 0.589700 10.646987 0.713586 2.629217
54 0 1 0.589700 2.371921 21.060102 2.526685
55 0 2 -1.179400 9.352033 6.138233 1.203004
56 0 1 0.589700 10.168399 5.674166 1.332739
57 0 1 0.589700 9.009611 5.791215 0.381683
58 0 2 -1.179400 -0.351720 20.111767 4.419333
59 0 1 0.589700 0.361443 20.571075 3.991868
60 0 1 0.589700 0.025831 19.765705 5.225168
61 0 2 -1.179400 3.437600 0.787885 5.596382
62 0 1 0.589700 -5.498483 22.113291 4.694767
63 0 1 0.589700 3.683985 1.707031 5.609059
64 0 2 -1.179400 10.398925 2.363271 1.882396
65 0 1 0.589700 10.994273 3.101876 1.929559
66 0 1 0.589700 9.540800 2.759635 1.817658
67 0 2 -1.179400 3.006769 19.012722 4.514607
68 0 1 0.589700 2.445842 19.012091 5.285569
69 0 1 0.589700 2.489409 18.596069 3.831263
70 0 2 -1.179400 5.710047 2.300598 3.387196
71 0 1 0.589700 5.835864 1.460594 3.819397
72 0 1 0.589700 5.013342 2.717150 3.881489
73 0 2 -1.179400 5.328203 17.777542 5.138481
74 0 1 0.589700 5.664714 18.439043 5.736876
75 0 1 0.589700 4.511420 18.139465 4.820017
76 0 2 -1.179400 15.386296 3.745825 1.880250
77 0 1 0.589700 14.711320 3.289145 2.369518
78 0 1 0.589700 14.957052 4.035652 1.078465
79 0 2 -1.179400 20.876329 1.798230 0.247766
80 0 1 0.589700 20.626492 0.885807 0.351954
81 0 1 0.589700 20.741955 2.182277 1.113025
82 0 2 -1.179400 4.502103 21.427765 4.434443
83 0 1 0.589700 4.094761 20.569618 4.480371
84 0 1 0.589700 5.426607 21.243832 4.346384
85 0 2 -1.179400 11.691936 5.013475 2.001056
86 0 1 0.589700 12.255087 5.236727 2.736888
87 0 1 0.589700 12.271937 4.978707 1.245476
88 0 2 -1.179400 9.576515 21.788605 3.126236
89 0 1 0.589700 18.632757 1.089386 2.827919
90 0 1 0.589700 10.233559 21.383280 2.570740
91 0 2 -1.179400 17.370142 6.212899 1.337072
92 0 1 0.589700 16.947706 5.631671 0.710807
93 0 1 0.589700 18.190514 5.783511 1.540654
94 0 2 -1.179400 7.395560 20.372690 4.218822
95 0 1 0.589700 8.102849 20.589361 3.621282
96 0 1 0.589700 7.802779 19.850014 4.904726
97 0 2 -1.179400 11.421148 1.008516 5.868935
98 0 1 0.589700 11.323800 0.655974 4.985245
99 0 1 0.589700 11.438179 1.952572 5.746265
100 0 2 -1.179400 17.939110 2.540510 1.796306
101 0 1 0.589700 18.496998 3.309414 1.780648
102 0 1 0.589700 17.069447 2.886458 1.943354
103 0 2 -1.179400 11.014358 19.293964 4.438457
104 0 1 0.589700 10.278879 19.283195 5.040780
105 0 1 0.589700 10.646312 19.044996 3.592871
106 0 2 -1.179400 13.241144 2.387138 3.099453
107 0 1 0.589700 13.183854 1.470938 3.353157
108 0 1 0.589700 12.529770 2.808449 3.567607
109 0 2 -1.179400 19.149378 3.522985 5.043351
110 0 1 0.589700 19.452089 4.107331 5.734248
111 0 1 0.589700 18.463009 4.009947 4.602158
112 0 2 -1.179400 -2.821352 11.130364 1.900152
113 0 1 0.589700 -3.553385 10.610788 2.208690
114 0 1 0.589700 -3.153000 11.588891 1.131253
115 0 2 -1.179400 3.079060 8.752617 0.754174
116 0 1 0.589700 2.650335 7.941478 1.005455
117 0 1 0.589700 2.790431 9.386829 1.405666
118 0 2 -1.179400 18.605276 7.252802 4.259238
119 0 1 0.589700 17.949364 6.606277 4.027647
120 0 1 0.589700 19.429970 6.805160 4.125125
121 0 2 -1.179400 16.891096 11.950414 1.698937
122 0 1 0.589700 17.549507 12.314115 2.281248
123 0 1 0.589700 17.309614 11.917711 0.841043
124 0 2 -1.179400 -0.753218 7.419176 2.700441
125 0 1 0.589700 -0.586105 8.349398 2.586490
126 0 1 0.589700 -0.050493 6.989676 2.226484
127 0 2 -1.179400 -0.989696 13.926015 1.129574
128 0 1 0.589700 -0.296215 13.387565 1.491850
129 0 1 0.589700 -1.172543 13.540397 0.274166
130 0 2 -1.179400 20.859016 5.888683 3.906916
131 0 1 0.589700 -2.056609 6.427929 3.342960
132 0 1 0.589700 21.442272 5.582043 4.594823
133 0 2 -1.179400 15.700085 7.928181 5.469495
134 0 1 0.589700 15.530484 7.698369 4.556575
135 0 1 0.589700 16.131578 8.774313 5.423819
136 0 2 -1.179400 -0.346643 10.124136 2.382794
137 0 1 0.589700 0.216070 10.883653 2.286782
138 0 1 0.589700 -1.210886 10.489369 2.514605
139 0 2 -1.179400 1.813253 4.894389 4.629573
140 0 1 0.589700 1.117203 4.636357 5.224000
141 0 1 0.589700 1.487257 4.677967 3.757690
142 0 2 -1.179400 18.486715 9.659894 2.767359
143 0 1 0.589700 18.599590 8.889510 3.318073
144 0 1 0.589700 17.902378 10.220971 3.266109
145 0 2 -1.179400 4.076684 3.456497 5.107634
146 0 1 0.589700 4.503813 4.106720 5.657399
147 0 1 0.589700 3.217152 3.818493 4.940112
148 0 2 -1.179400 4.729289 11.379718 2.486576
149 0 1 0.589700 3.931186 11.015717 2.848153
150 0 1 0.589700 4.472105 11.744081 1.641367
151 0 2 -1.179400 10.109000 8.816135 1.101960
152 0 1 0.589700 10.077682 7.871510 1.217078
153 0 1 0.589700 10.019838 9.166459 1.987424
154 0 2 -1.179400 3.134283 7.375810 4.619873
155 0 1 0.589700 2.604464 6.587879 4.580724
156 0 1 0.589700 4.019270 7.068969 4.478716
157 0 2 -1.179400 1.198063 12.526668 1.919325
158 0 1 0.589700 1.498723 12.922312 2.735129
159 0 1 0.589700 1.962254 12.516292 1.354739
160 0 2 -1.179400 7.550034 7.555971 2.805749
161 0 1 0.589700 7.447309 8.362484 2.307818
162 0 1 0.589700 8.033198 6.979515 2.221330
163 0 2 -1.179400 6.663101 13.702542 1.461528
164 0 1 0.589700 7.407001 13.362351 1.944429
165 0 1 0.589700 6.982589 14.499850 1.050144
166 0 2 -1.179400 5.698030 6.068739 4.203489
167 0 1 0.589700 6.432166 6.453154 3.739215
168 0 1 0.589700 6.091019 5.470891 4.833545
169 0 2 -1.179400 0.176067 7.716239 5.464298
170 0 1 0.589700 0.150991 7.330560 4.589523
171 0 1 0.589700 0.305941 8.646478 5.308518
172 0 2 -1.179400 7.155580 10.158901 1.762157
173 0 1 0.589700 7.725715 10.773881 2.210972
174 0 1 0.589700 6.281703 10.470803 1.953854
175 0 2 -1.179400 9.130215 5.025208 4.444267
176 0 1 0.589700 8.539961 4.950812 5.188749
177 0 1 0.589700 8.662258 4.625399 3.715808
178 0 2 -1.179400 2.631208 9.836011 3.487398
179 0 1 0.589700 2.756106 8.978602 3.883847
180 0 1 0.589700 2.028593 10.280827 4.074570
181 0 2 -1.179400 11.367728 3.475472 4.742945
182 0 1 0.589700 11.718781 4.159070 5.306685
183 0 1 0.589700 10.495675 3.774682 4.524196
184 0 2 -1.179400 12.481194 10.659827 1.800188
185 0 1 0.589700 11.845881 10.299694 2.410318
186 0 1 0.589700 11.978681 11.235558 1.231958
187 0 2 -1.179400 18.299862 8.499576 0.301632
188 0 1 0.589700 18.018179 7.680336 0.697423
189 0 1 0.589700 18.348465 9.110254 1.034332
190 0 2 -1.179400 11.084352 7.100846 4.678102
191 0 1 0.589700 10.282725 6.600510 4.601573
192 0 1 0.589700 11.770416 6.470003 4.497816
193 0 2 -1.179400 8.873958 12.474737 2.337044
194 0 1 0.589700 9.440523 12.534156 3.101449
195 0 1 0.589700 9.463178 12.339413 1.600438
196 0 2 -1.179400 15.460576 7.385035 2.744193
197 0 1 0.589700 15.350644 8.280066 2.437396
198 0 1 0.589700 16.201950 7.055643 2.249888
199 0 2 -1.179400 14.501311 13.228644 1.024770
200 0 1 0.589700 15.296957 12.849245 1.375750
201 0 1 0.589700 14.221420 12.615546 0.349389
202 0 2 -1.179400 13.434206 5.624870 4.082878
203 0 1 0.589700 14.064212 6.208684 3.675818
204 0 1 0.589700 13.931125 5.146528 4.740425
205 0 2 -1.179400 7.978391 8.136079 5.619546
206 0 1 0.589700 7.942889 7.909387 4.690570
207 0 1 0.589700 8.161212 9.070158 5.629274
208 0 2 -1.179400 15.198410 9.743304 1.572773
209 0 1 0.589700 15.900325 10.344567 1.789167
210 0 1 0.589700 14.408130 10.226542 1.776107
211 0 2 -1.179400 16.971695 4.948107 4.124101
212 0 1 0.589700 16.322689 4.795944 4.803783
213 0 1 0.589700 16.531727 4.726871 3.306328
214 0 2 -1.179400 10.788297 9.613782 3.738154
215 0 1 0.589700 11.000382 8.746545 4.069797
216 0 1 0.589700 10.052444 9.894814 4.269677
217 0 2 -1.179400 16.636919 10.507105 4.779281
218 0 1 0.589700 16.763123 11.152445 5.471355
219 0 1 0.589700 15.819879 10.755442 4.365693
220 0 2 -1.179400 -6.400174 18.520926 1.867159
221 0 1 0.589700 -7.077652 18.092564 2.378294
222 0 1 0.589700 -6.859327 19.174940 1.349255
223 0 2 -1.179400 -0.716019 16.509588 0.696158
224 0 1 0.589700 -0.898914 15.575592 0.711146
225 0 1 0.589700 -0.651183 16.754702 1.618762
226 0 2 -1.179400 15.595423 14.352799 4.114278
227 0 1 0.589700 15.044311 13.586058 4.008012
228 0 1 0.589700 16.477129 14.021740 4.013094
229 0 2 -1.179400 13.406851 19.414427 2.270142
230 0 1 0.589700 13.785624 19.817751 3.047988
231 0 1 0.589700 14.120110 19.370562 1.642531
232 0 2 -1.179400 -3.260473 14.986330 2.592646
233 0 1 0.589700 -3.489632 15.810012 2.172259
234 0 1 0.589700 -2.432723 14.744022 2.197648
235 0 2 -1.179400 -4.436277 20.677057 0.815069
236 0 1 0.589700 -1.292890 26.199703 43.562382
237 0 1 0.589700 -3.535661 20.578541 1.092088
238 0 2 -1.179400 -5.321169 13.325314 3.811778
239 0 1 0.589700 -4.624591 13.915850 3.552199
240 0 1 0.589700 -4.942757 12.790152 4.504789
241 0 2 -1.179400 12.575643 15.191935 5.724518
242 0 1 0.589700 12.633967 14.716898 4.897082
243 0 1 0.589700 12.874404 16.070650 5.513748
244 0 2 -1.179400 -3.720340 17.326664 1.353335
245 0 1 0.589700 -3.019011 17.878063 1.678556
246 0 1 0.589700 -4.504545 17.840269 1.496629
247 0 2 -1.179400 -1.979112 12.488694 4.315423
248 0 1 0.589700 -2.709435 12.312790 4.897971
249 0 1 0.589700 -2.323912 12.346539 3.435539
250 0 2 -1.179400 15.364012 16.872355 3.309236
251 0 1 0.589700 15.454346 15.982448 3.636933
252 0 1 0.589700 14.599109 17.212427 3.757405
253 0 2 -1.179400 0.481611 10.637607 5.250131
254 0 1 0.589700 0.653033 11.177376 6.019331
255 0 1 0.589700 -0.246732 11.064373 4.814811
256 0 2 -1.179400 1.547353 18.316961 2.397593
257 0 1 0.589700 0.777702 17.906483 2.771729
258 0 1 0.589700 1.283041 18.577776 1.516677
259 0 2 -1.179400 7.277859 16.279350 0.742147
260 0 1 0.589700 10.091870 23.028227 43.565075
261 0 1 0.589700 7.240150 16.739906 1.579028
262 0 2 -1.179400 -0.261178 14.566729 4.369076
263 0 1 0.589700 -0.880335 13.847013 4.391186
264 0 1 0.589700 0.579167 14.147081 4.243080
265 0 2 -1.179400 -1.650983 19.999336 1.561057
266 0 1 0.589700 -1.102979 20.313370 2.274751
267 0 1 0.589700 -1.062176 19.908119 0.817292
268 0 2 -1.179400 4.637357 14.562634 3.242627
269 0 1 0.589700 4.395239 15.361646 2.783341
270 0 1 0.589700 5.457346 14.302241 2.842735
271 0 2 -1.179400 3.755872 20.572773 1.211318
272 0 1 0.589700 4.508566 20.198563 1.653094
273 0 1 0.589700 3.640905 20.034225 0.430588
274 0 2 -1.179400 2.325790 13.618041 4.286073
275 0 1 0.589700 3.084815 13.961658 3.830484
276 0 1 0.589700 2.669115 12.933418 4.853423
277 0 2 -1.179400 -2.999950 15.534761 5.418640
278 0 1 0.589700 -2.872622 15.224478 4.522911
279 0 1 0.589700 -3.107232 16.476545 5.329732
280 0 2 -1.179400 4.144235 16.912289 1.970753
281 0 1 0.589700 4.803860 17.580719 2.110463
282 0 1 0.589700 3.321985 17.369669 2.085630
283 0 2 -1.179400 6.229019 12.127625 4.598481
284 0 1 0.589700 5.622373 12.185329 5.330886
285 0 1 0.589700 5.703871 11.820797 3.864332
286 0 2 -1.179400 -0.929310 16.973314 3.367261
287 0 1 0.589700 -0.737561 16.165184 3.834681
288 0 1 0.589700 -1.431028 17.490610 3.990366
289 0 2 -1.179400 8.583175 10.986279 5.179526
290 0 1 0.589700 8.816843 11.724217 5.736241
291 0 1 0.589700 7.702733 11.179009 4.886682
292 0 2 -1.179400 9.761967 18.096844 2.249704
293 0 1 0.589700 9.087573 17.931242 2.900306
294 0 1 0.589700 9.360904 18.695147 1.625315
295 0 2 -1.179400 14.916553 15.916363 0.605001
296 0 1 0.589700 14.748707 14.981715 0.671267
297 0 1 0.589700 15.070510 16.194796 1.507010
298 0 2 -1.179400 7.844221 14.390568 4.642402
299 0 1 0.589700 7.357072 13.581762 4.752984
300 0 1 0.589700 8.751418 14.119362 4.648051
301 0 2 -1.179400 5.774185 19.215868 2.180337
302 0 1 0.589700 6.173917 19.410160 3.025694
303 0 1 0.589700 6.449443 19.406628 1.537666
304 0 2 -1.179400 12.889540 14.347879 3.006747
305 0 1 0.589700 12.755966 15.215624 2.636808
306 0 1 0.589700 13.577351 13.967534 2.471877
307 0 2 -1.179400 11.236442 20.883038 0.986947
308 0 1 0.589700 11.877337 20.418995 1.514601
309 0 1 0.589700 10.963492 20.249718 0.327717
310 0 2 -1.179400 10.516131 13.527125 4.461200
311 0 1 0.589700 11.163897 13.892040 3.867557
312 0 1 0.589700 11.011955 12.975416 5.058768
313 0 2 -1.179400 4.969524 15.292969 5.982128
314 0 1 0.589700 5.155298 15.030680 5.081357
315 0 1 0.589700 5.054795 16.241140 5.976059
316 0 2 -1.179400 12.399551 16.729259 2.153703
317 0 1 0.589700 13.069706 17.398617 2.090901
318 0 1 0.589700 11.605024 17.212067 2.340469
319 0 2 -1.179400 14.095788 11.796222 4.083578
320 0 1 0.589700 13.415635 11.688968 4.740384
321 0 1 0.589700 13.634502 11.812753 3.247935
322 0 2 -1.179400 7.445134 16.981598 3.672377
323 0 1 0.589700 7.478362 16.053360 3.882503
324 0 1 0.589700 6.689161 17.305428 4.147402
325 0 2 -1.179400 10.272088 13.333921 10.338482
326 0 1 0.589700 10.284293 13.831450 11.154488
327 0 1 0.589700 9.464192 13.590000 9.911508
328 0 2 -1.179400 11.314798 20.898428 7.564068
329 0 1 0.589700 10.482974 20.584837 7.894289
330 0 1 0.589700 11.096971 21.668955 7.046806
331 0 2 -1.179400 -6.750744 18.863041 5.697156
332 0 1 0.589700 -6.961431 17.957008 5.899744
333 0 1 0.589700 -6.698104 19.290327 6.550882
334 0 2 -1.179400 9.575763 16.777044 10.027868
335 0 1 0.589700 9.005236 16.031172 9.883224
336 0 1 0.589700 10.447906 16.432520 9.892954
337 0 2 -1.179400 7.496606 22.162752 6.972494
338 0 1 0.589700 7.811107 22.365120 7.852072
339 0 1 0.589700 8.252605 22.277079 6.408234
340 0 2 -1.179400 14.105893 17.096109 8.118247
341 0 1 0.589700 14.004509 17.980843 7.779877
342 0 1 0.589700 14.767999 16.704426 7.559020
343 0 2 -1.179400 22.130978 1.980669 6.586360
344 0 1 0.589700 23.010712 1.695499 6.792216
345 0 1 0.589700 21.830067 1.364539 5.923121
346 0 2 -1.179400 12.295286 15.909791 9.629185
347 0 1 0.589700 13.037658 16.182211 9.102427
348 0 1 0.589700 12.665775 15.349997 10.306730
349 0 2 -1.179400 6.920899 17.832310 11.336126
350 0 1 0.589700 6.817622 17.551880 10.427376
351 0 1 0.589700 7.039437 18.775280 11.280987
352 0 2 -1.179400 13.997022 19.596067 6.998498
353 0 1 0.589700 14.547499 20.365627 7.085832
354 0 1 0.589700 13.221600 19.805151 7.505443
355 0 2 -1.179400 15.599526 14.683945 9.550452
356 0 1 0.589700 14.985580 14.544363 10.265275
357 0 1 0.589700 15.154799 14.354173 8.773283
358 0 2 -1.179400 9.070492 19.220264 8.684569
359 0 1 0.589700 9.179744 18.360666 9.080952
360 0 1 0.589700 8.384223 19.630823 9.198479
361 0 2 -1.179400 17.856817 13.199023 10.163896
362 0 1 0.589700 18.021797 13.753339 10.924026
363 0 1 0.589700 17.017406 13.490729 9.833026
364 0 2 -1.179400 -4.327468 20.820814 7.560792
365 0 1 0.589700 -5.117289 20.488888 7.969146
366 0 1 0.589700 -4.629306 21.485456 6.947186
367 0 2 -1.179400 1.188213 18.611660 6.325672
368 0 1 0.589700 1.255629 17.662418 6.353428
369 0 1 0.589700 1.088158 18.870365 7.241281
370 0 2 -1.179400 17.200676 16.884439 9.339006
371 0 1 0.589700 16.537603 16.207064 9.287210
372 0 1 0.589700 -5.446689 16.406942 9.431745
373 0 2 -1.179400 -8.075432 22.145700 7.030235
374 0 1 0.589700 -7.734990 22.394306 7.887675
375 0 1 0.589700 -7.331534 22.208340 6.441844
376 0 2 -1.179400 -1.531040 17.115604 8.225595
377 0 1 0.589700 -1.556565 17.989458 7.846540
378 0 1 0.589700 -0.868261 16.658236 7.720176
379 0 2 -1.179400 6.593945 1.781393 6.304693
380 0 1 0.589700 7.472601 1.542042 6.566624
381 0 1 0.589700 6.312436 1.069668 5.736246
382 0 2 -1.179400 -3.776019 15.786194 9.087170
383 0 1 0.589700 -3.067834 16.314743 8.739577
384 0 1 0.589700 -3.363363 15.213680 9.728056
385 0 2 -1.179400 14.531521 18.162714 10.600314
386 0 1 0.589700 14.394144 17.790916 9.730144
387 0 1 0.589700 14.702766 19.085087 10.438279
388 0 2 -1.179400 -1.677939 19.648512 7.140626
389 0 1 0.589700 -1.166076 20.447989 7.186872
390 0 1 0.589700 -2.568175 19.932133 7.296356
391 0 2 -1.179400 0.073270 14.590926 9.827976
392 0 1 0.589700 -0.651575 14.497488 10.436228
393 0 1 0.589700 -0.271316 14.301460 8.985317
394 0 2 -1.179400 -6.519866 19.498575 8.301445
395 0 1 0.589700 -6.418705 18.567541 8.473383
396 0 1 0.589700 -7.209258 19.775364 8.895286
397 0 2 -1.179400 2.439363 13.538641 10.624448
398 0 1 0.589700 2.587481 14.278931 11.207396
399 0 1 0.589700 1.545543 13.643588 10.327988
400 0 2 -1.179400 3.310350 20.757767 7.798382
401 0 1 0.589700 2.523450 20.397572 8.187851
402 0 1 0.589700 3.000969 21.432545 7.199988
403 0 2 -1.179400 8.650333 18.799236 5.982743
404 0 1 0.589700 8.396538 17.882925 5.942362
405 0 1 0.589700 8.869621 18.945698 6.902177
406 0 2 -1.179400 1.720488 16.934732 9.706176
407 0 1 0.589700 1.139241 16.184471 9.665483
408 0 1 0.589700 2.584512 16.567020 9.579977
409 0 2 -1.179400 0.023558 21.736172 7.018750
410 0 1 0.589700 0.216583 22.094967 7.883615
411 0 1 0.589700 0.747742 22.016003 6.470464
412 0 2 -1.179400 6.256252 17.413305 8.550748
413 0 1 0.589700 6.181315 18.302595 8.217436
414 0 1 0.589700 6.885129 16.996435 7.971068
415 0 2 -1.179400 14.179504 1.872734 6.365065
416 0 1 0.589700 15.019630 1.508351 6.610118
417 0 1 0.589700 13.876230 1.314837 5.652653
418 0 2 -1.179400 4.232611 15.854456 9.519312
419 0 1 0.589700 4.979963 16.407328 9.329783
420 0 1 0.589700 4.511663 15.310268 10.252275
421 0 2 -1.179400 -1.278918 17.549047 10.794517
422 0 1 0.589700 -1.362567 17.335337 9.865588
423 0 1 0.589700 -1.299551 18.500481 10.822451
424 0 2 -1.179400 5.776965 19.878811 7.000658
425 0 1 0.589700 6.343467 20.629013 6.862629
426 0 1 0.589700 4.912011 20.253881 7.094224
427 0 2 -1.179400 7.891036 14.613688 9.728870
428 0 1 0.589700 7.159210 14.502502 10.325439
429 0 1 0.589700 7.497431 14.667607 8.860065
430 0 2 -1.179400 1.115040 19.483820 8.850376
431 0 1 0.589700 1.361215 18.627815 9.187383
432 0 1 0.589700 0.415229 19.770197 9.426901
433 0 2 -1.179400 7.113440 20.509474 10.586736
434 0 1 0.589700 7.596325 21.081013 11.176240
435 0 1 0.589700 6.295869 20.964951 10.435725
436 0 2 -1.179400 17.156101 6.529071 7.502502
437 0 1 0.589700 16.503767 6.057836 8.008931
438 0 1 0.589700 16.674520 6.910569 6.773196
439 0 2 -1.179400 -0.623333 4.462530 5.925159
440 0 1 0.589700 -0.898857 3.583282 6.164179
441 0 1 0.589700 -0.690710 4.960927 6.737870
442 0 2 -1.179400 15.731477 2.753305 9.493402
443 0 1 0.589700 15.179792 1.991992 9.631338
444 0 1 0.589700 16.613621 2.422511 9.591535
445 0 2 -1.179400 13.484200 7.391017 6.843622
446 0 1 0.589700 13.786092 7.479085 7.746487
447 0 1 0.589700 14.247701 7.576837 6.309731
448 0 2 -1.179400 20.287359 3.132953 8.106215
449 0 1 0.589700 20.109690 3.938134 7.628079
450 0 1 0.589700 20.922007 2.674892 7.565714
451 0 2 -1.179400 18.957182 8.956221 6.656124
452 0 1 0.589700 19.849947 8.671238 6.793447
453 0 1 0.589700 18.648891 8.427259 5.923879
454 0 2 -1.179400 18.206232 1.581543 9.168197
455 0 1 0.589700 18.837481 2.213843 8.844943
456 0 1 0.589700 9.612433 22.608894 9.738862
457 0 2 -1.179400 12.633500 3.585372 11.150758
458 0 1 0.589700 12.658492 3.461394 10.202046
459 0 1 0.589700 12.754818 4.521787 11.272467
460 0 2 -1.179400 19.664957 5.481076 7.051173
461 0 1 0.589700 20.291569 6.156149 6.818937
462 0 1 0.589700 18.830807 5.930779 7.059438
463 0 2 -1.179400 12.774970 22.031149 9.579291
464 0 1 0.589700 12.105545 21.843861 10.229198
465 0 1 0.589700 12.373898 21.814419 8.740121
466 0 2 -1.179400 15.126407 5.263475 8.653959
467 0 1 0.589700 15.304019 4.406804 9.030971
468 0 1 0.589700 14.438188 5.623204 9.202535
469 0 2 -1.179400 15.055378 20.744833 10.250029
470 0 1 0.589700 15.440405 21.238813 10.969703
471 0 1 0.589700 14.388171 21.321075 9.896152
472 0 2 -1.179400 1.735965 6.502924 7.394284
473 0 1 0.589700 0.992314 6.171122 7.883423
474 0 1 0.589700 1.357133 6.939109 6.634601
475 0 2 -1.179400 6.885654 4.434217 5.978489
476 0 1 0.589700 6.722270 3.496973 6.009980
477 0 1 0.589700 6.697005 4.739434 6.864865
478 0 2 -1.179400 0.032542 2.628719 9.619745
479 0 1 0.589700 22.958281 1.856086 9.479265
480 0 1 0.589700 0.913159 2.341195 9.421194
481 0 2 -1.179400 -1.993753 7.814838 7.120757
482 0 1 0.589700 -1.551358 8.112863 7.912119
483 0 1 0.589700 -1.302916 7.711337 6.474835
484 0 2 -1.179400 4.610271 2.797925 7.935905
485 0 1 0.589700 4.613477 3.731605 7.748748
486 0 1 0.589700 5.311415 2.445672 7.399298
487 0 2 -1.179400 3.376751 9.191184 6.814428
488 0 1 0.589700 4.200228 8.850242 7.138609
489 0 1 0.589700 3.099753 8.560139 6.154719
490 0 2 -1.179400 2.543974 1.642393 9.091558
491 0 1 0.589700 3.219053 2.134521 8.638521
492 0 1 0.589700 -6.078310 22.681602 9.697868
493 0 2 -1.179400 20.633877 3.479384 10.784149
494 0 1 0.589700 20.500525 3.272543 9.859598
495 0 1 0.589700 20.970951 4.369009 10.781697
496 0 2 -1.179400 4.236427 5.417952 7.380710
497 0 1 0.589700 4.786118 6.189563 7.453630
498 0 1 0.589700 3.372675 5.763029 7.199837
499 0 2 -1.179400 -2.966545 21.935680 9.544056
500 0 1 0.589700 -3.806869 22.135754 9.935786
501 0 1 0.589700 -3.171954 21.647322 8.655787
502 0 2 -1.179400 -0.556140 5.305778 8.583209
503 0 1 0.589700 -0.708996 4.428535 8.921501
504 0 1 0.589700 -1.149068 5.859064 9.080383
505 0 2 -1.179400 -0.975545 20.319017 10.348997
506 0 1 0.589700 -0.731627 20.980232 10.991985
507 0 1 0.589700 -1.793059 20.632065 9.983561
508 0 2 -1.179400 9.360990 6.452119 7.467704
509 0 1 0.589700 8.677970 6.146856 8.054927
510 0 1 0.589700 8.912830 7.005022 6.833842
511 0 2 -1.179400 15.164378 4.453689 6.076519
512 0 1 0.589700 14.817963 3.574367 6.185602
513 0 1 0.589700 15.107036 4.842014 6.948550
514 0 2 -1.179400 7.902582 2.583200 9.649887
515 0 1 0.589700 7.288047 1.859214 9.640257
516 0 1 0.589700 8.749400 2.171086 9.544827
517 0 2 -1.179400 5.643371 7.809183 7.218491
518 0 1 0.589700 6.203083 8.053867 7.950106
519 0 1 0.589700 6.154551 8.006562 6.437749
520 0 2 -1.179400 12.399684 2.954216 8.499403
521 0 1 0.589700 12.317173 3.803257 8.074436
522 0 1 0.589700 13.060335 2.498915 7.989269
523 0 2 -1.179400 11.245903 9.008534 6.647730
524 0 1 0.589700 12.121619 8.732403 6.881655
525 0 1 0.589700 11.003592 8.442453 5.918171
526 0 2 -1.179400 10.326343 1.294614 9.177105
527 0 1 0.589700 11.039845 1.861292 8.910876
528 0 1 0.589700 1.624961 22.281612 9.789646
529 0 2 -1.179400 4.907816 3.449447 10.892541
530 0 1 0.589700 4.999369 3.332640 9.947097
531 0 1 0.589700 4.819045 4.390179 11.009238
532 0 2 -1.179400 11.765706 5.212464 6.972066
533 0 1 0.589700 12.337239 5.965435 6.877239
534 0 1 0.589700 10.913450 5.587302 7.148804
535 0 2 -1.179400 5.154772 22.151619 9.802583
536 0 1 0.589700 4.517722 22.321419 10.489576
537 0 1 0.589700 4.706437 21.580175 9.185706
538 0 2 -1.179400 7.391948 5.134541 8.775827
539 0 1 0.589700 7.680517 4.243949 8.947059
540 0 1 0.589700 6.767795 5.317388 9.471489
541 0 2 -1.179400 13.138993 6.165422 10.477518
542 0 1 0.589700 13.486105 6.841677 11.052593
543 0 1 0.589700 12.458887 6.602942 9.977912
544 0 2 -1.179400 14.217879 13.687437 7.492281
545 0 1 0.589700 13.480585 13.160794 7.774798
546 0 1 0.589700 13.830059 14.417018 7.018638
547 0 2 -1.179400 -4.095142 11.665442 5.748054
548 0 1 0.589700 19.181664 10.731861 5.770814
549 0 1 0.589700 -3.884088 11.888570 6.653781
550 0 2 -1.179400 12.674212 9.641803 9.981197
551 0 1 0.589700 12.057092 8.938972 9.815834
552 0 1 0.589700 13.518843 9.261276 9.780875
553 0 2 -1.179400 10.519349 14.854110 7.594686
554 0 1 0.589700 10.998173 15.074767 8.389979
555 0 1 0.589700 11.124188 15.037467 6.881920
556 0 2 -1.179400 16.918089 10.156483 8.120704
557 0 1 0.589700 16.813591 11.029249 7.753144
558 0 1 0.589700 17.697027 9.814872 7.699242
559 0 2 -1.179400 15.935984 16.256657 6.156293
560 0 1 0.589700 16.761065 15.881228 6.434534
561 0 1 0.589700 15.700633 15.763959 5.372589
562 0 2 -1.179400 15.118420 8.576715 9.359464
563 0 1 0.589700 15.711096 9.059565 8.792676
564 0 1 0.589700 15.658194 7.906921 9.765334
565 0 2 -1.179400 9.341727 10.550334 10.885733
566 0 1 0.589700 9.300207 10.294846 9.964599
567 0 1 0.589700 9.767025 11.400805 10.877064
568 0 2 -1.179400 16.717178 12.671530 7.092273
569 0 1 0.589700 17.274477 13.438478 7.029386
570 0 1 0.589700 15.845900 13.025242 7.207421
571 0 2 -1.179400 18.700726 7.899273 9.786742
572 0 1 0.589700 18.031027 7.627981 10.405663
573 0 1 0.589700 18.350441 7.672268 8.927303
574 0 2 -1.179400 12.119388 12.162706 8.461097
575 0 1 0.589700 12.202971 11.336366 8.928919
576 0 1 0.589700 11.625292 12.719815 9.055054
577 0 2 -1.179400 20.768658 6.345214 10.352077
578 0 1 0.589700 21.288589 6.877839 10.946174
579 0 1 0.589700 20.067625 6.920714 10.071445
580 0 2 -1.179400 -1.663179 13.954899 7.467455
581 0 1 0.589700 -2.361427 13.358481 7.708170
582 0 1 0.589700 -2.042429 14.517715 6.797439
583 0 2 -1.179400 3.670367 11.857882 6.083506
584 0 1 0.589700 3.664302 10.911209 6.185036
585 0 1 0.589700 3.740361 12.192278 6.976920
586 0 2 -1.179400 -2.781133 10.010240 9.686230
587 0 1 0.589700 19.953575 9.399906 9.676233
588 0 1 0.589700 -2.011739 9.455905 9.696372
589 0 2 -1.179400 -5.255990 14.978340 6.959573
590 0 1 0.589700 -4.773142 15.300451 7.716455
591 0 1 0.589700 -4.697272 15.166561 6.210506
592 0 2 -1.179400 1.316486 10.130983 8.448347
593 0 1 0.589700 1.074252 10.847643 7.867782
594 0 1 0.589700 2.130540 9.803437 8.087896
595 0 2 -1.179400 0.511592 16.014359 6.525878
596 0 1 0.589700 1.305852 15.563648 6.782011
597 0 1 0.589700 0.273264 15.622272 5.687584
598 0 2 -1.179400 -0.587895 8.512661 9.302200
599 0 1 0.589700 0.127612 9.002140 8.914431
600 0 1 0.589700 -0.173218 7.925798 9.928466
601 0 2 -1.179400 17.479250 10.512216 10.820882
602 0 1 0.589700 17.318087 10.370931 9.888420
603 0 1 0.589700 17.498638 11.459084 10.918786
604 0 2 -1.179400 0.871354 12.640550 7.144776
605 0 1 0.589700 1.529508 13.307606 6.991946
606 0 1 0.589700 0.049240 13.109787 7.096598
607 0 2 -1.179400 3.010527 7.637858 9.623003
608 0 1 0.589700 2.502627 7.278358 10.345304
609 0 1 0.589700 2.734415 7.140427 8.856107
610 0 2 -1.179400 -3.646849 12.387768 8.295669
611 0 1 0.589700 -3.428100 11.702047 8.921758
612 0 1 0.589700 -4.279294 12.929442 8.754472
613 0 2 -1.179400 5.335882 6.229699 10.411338
614 0 1 0.589700 5.658928 6.886724 11.022177
615 0 1 0.589700 4.463439 6.523897 10.187373
616 0 2 -1.179400 6.352562 13.645391 7.444828
617 0 1 0.589700 5.684154 13.128280 7.879481
618 0 1 0.589700 5.876643 14.344706 7.008688
619 0 2 -1.179400 11.945908 11.640218 5.856864
620 0 1 0.589700 11.824911 10.696686 5.819884
621 0 1 0.589700 12.040749 11.832608 6.789397
622 0 2 -1.179400 4.847326 9.996155 9.699778
623 0 1 0.589700 4.354700 9.197889 9.545301
624 0 1 0.589700 5.752965 9.721702 9.666164
625 0 2 -1.179400 2.617548 14.638762 7.283692
626 0 1 0.589700 2.893311 14.640300 8.199358
627 0 1 0.589700 3.419888 14.735850 6.785489
628 0 2 -1.179400 9.122634 9.957632 8.155739
629 0 1 0.589700 9.024588 10.829778 7.784888
630 0 1 0.589700 9.837484 9.571195 7.663224
631 0 2 -1.179400 8.141932 16.081144 6.934760
632 0 1 0.589700 9.004897 15.794980 7.202520
633 0 1 0.589700 7.942605 15.553489 6.163945
634 0 2 -1.179400 7.158710 8.498479 9.424306
635 0 1 0.589700 7.846561 8.988314 8.988745
636 0 1 0.589700 7.601402 8.013927 10.116001
637 0 2 -1.179400 1.708315 10.948808 11.107958
638 0 1 0.589700 1.718897 10.770331 10.167788
639 0 1 0.589700 2.015336 11.846228 11.183624
640 0 2 -1.179400 8.850286 12.605970 7.412311
641 0 1 0.589700 9.482449 13.294150 7.581785
642 0 1 0.589700 8.011221 13.016906 7.571647
643 0 2 -1.179400 10.950407 7.472291 9.585097
644 0 1 0.589700 10.318311 7.378143 10.291194
645 0 1 0.589700 10.509076 7.133316 8.809952
646 0 2 -1.179400 4.189758 12.314033 8.788837
647 0 1 0.589700 4.389423 11.484901 9.213758
648 0 1 0.589700 3.458423 12.661819 9.285697
649 0 2 -1.179400 6.969577 8.309999 15.571848
650 0 1 0.589700 7.354593 8.749692 16.326284