LAMMPS data file via write_data, version 30 Jul 2021, timestep = 11000000

1296 atoms
2 atom types
864 bonds
1 bond types
432 angles
1 angle types

-10.494072817814613 12.474072817814614 xlo xhi
-9.082057300798349 12.072055300798349 ylo yhi
0.29112832567736646 21.568870674326362 zlo zhi
-9.037602613945255 1.8239211759146723 2.6317360950410515 xy xz yz

Masses

1 1.008
2 15.999

Pair Coeffs # lj/cut/tip4p/long/omp

1 0 0
2 0.21084 3.1668

Bond Coeffs # harmonic/omp

1 450 0.9572

Angle Coeffs # harmonic/omp

1 55 104.52

Atoms # full

282 94 1 0.5897 -10.415701319401201 -4.144967206964932 1.6623997075862202 1 1 0
280 94 2 -1.1794 -9.529001838296116 -4.497056010621902 1.584664023878424 1 1 0
299 100 1 0.5897 -6.4188819886173585 -7.941606856344025 4.21176674185474 1 1 0
163 55 2 -1.1794 -7.090148066114581 -7.943043407659167 1.0632933117315497 1 1 0
164 55 1 0.5897 -6.266610283742549 -8.31798099465863 1.375513991000409 1 1 0
270 90 1 0.5897 -8.4058032746948 -7.370674063875908 2.2099483166039775 1 1 0
269 90 1 0.5897 -9.246029242658885 -6.119851938778499 2.3555219695028113 1 1 0
268 90 2 -1.1794 -9.101492774375151 -6.983763754913626 2.741549218977829 1 1 0
324 108 1 0.5897 -6.979693897532796 -4.399339531526226 3.6181046551897635 1 1 0
73 25 2 -1.1794 -8.278283407022636 -3.7813788901497096 4.784200712658581 1 0 0
298 100 2 -1.1794 -5.807149092356105 -7.205434405340696 4.212859161389493 1 1 0
314 105 1 0.5897 -8.765740192583438 -6.713470955125863 4.517925943488104 1 1 0
323 108 1 0.5897 -6.126970030553339 -5.637702236561774 3.441909207800685 1 1 0
259 87 2 -1.1794 -6.703691373390084 -5.322764939106698 0.41639963726504153 1 1 0
261 87 1 0.5897 -6.608202654312448 -5.018236296016211 1.3189006288016787 1 1 0
315 105 1 0.5897 -8.574410162526604 -5.453644548542604 5.335159722340973 1 1 0
313 105 2 -1.1794 -8.69901677644795 -6.398886448440135 5.419562196089053 1 1 0
300 100 1 0.5897 -4.9431529228846784 -7.611164163109977 4.141239853216076 1 1 0
260 87 1 0.5897 -6.816889883492476 -6.270055363934517 0.49364536280684856 1 1 0
74 25 1 0.5897 -7.97284608767574 -3.1745311731406645 5.458473674159102 1 0 0
275 92 1 0.5897 -10.376962148738928 -7.950794098102968 3.4548429697021152 1 1 0
301 101 2 -1.1794 -7.945074025517245 -2.2626523261472613 1.8669118514050365 1 1 0
281 94 1 0.5897 -8.95781993602344 -3.741012658896037 1.7198943865943124 1 1 0
75 25 1 0.5897 -9.094435557585557 -3.3955697179144906 4.465886837068303 1 0 0
98 33 1 0.5897 -11.781056217065142 0.3924934302462102 4.4395342647939735 1 0 0
84 28 1 0.5897 -7.97549316045299 -0.4992682149797947 4.22909643006812 1 0 0
67 23 2 -1.1794 -10.479465547190534 -2.371830896765454 4.092455141568109 1 0 0
97 33 2 -1.1794 -11.63582443435111 0.6375589627610427 5.353443546249078 1 0 0
83 28 1 0.5897 -9.458257764252576 -0.8021544983281128 4.189217058690733 1 0 0
68 23 1 0.5897 -11.154723577886019 -2.4930272644655105 4.760089743967171 1 0 0
99 33 1 0.5897 -11.457156687041312 1.577428114758403 5.324234477300621 1 0 0
271 91 2 -1.1794 -10.156344783063574 -0.8846085400652139 1.0759503406838395 1 1 0
272 91 1 0.5897 -9.379415345944244 -1.2615689134422494 1.4889585407732526 1 1 0
69 23 1 0.5897 -10.910109159696294 -2.605714409807665 3.270153656799578 1 0 0
44 15 1 0.5897 -9.72978179118058 0.8282843393003869 0.610743197810379 1 0 0
258 86 1 0.5897 -12.311688371180685 -2.7818479594808334 1.3238784845591167 1 1 0
53 18 1 0.5897 -12.218865824978474 0.9261991209852667 2.3421499501389844 1 0 0
59 20 1 0.5897 -13.505377038143482 -0.9250148880047409 3.460469263443009 1 0 0
54 18 1 0.5897 -11.439827747439413 -0.36855012127474396 2.2502667110342345 1 0 0
52 18 2 -1.1794 -12.158719469669974 0.05032416231546577 2.72356017125302 1 0 0
256 86 2 -1.1794 -11.934059932625301 -3.3303810016303137 2.0115524595261225 1 1 0
82 28 2 -1.1794 -8.832406996925656 -0.0785927819137271 4.158569416371774 1 0 0
107 36 1 0.5897 -9.027241886796364 1.571359830944873 3.5133439165183824 1 0 0
322 108 2 -1.1794 -6.310436723166931 -4.7831985376586434 3.0515045663503773 1 1 0
273 91 1 0.5897 -10.318227038883588 -1.4423134670757758 0.31502763586753735 1 1 0
302 101 1 0.5897 -7.4761467712542204 -2.023331885344909 2.6663874760763435 1 1 0
165 55 1 0.5897 -7.395644780637867 -8.557153731155033 0.395655547691916 1 1 0
420 140 1 0.5897 -8.99484328810555 -6.5284702787557425 9.864891582797684 1 0 0
414 138 1 0.5897 -6.682312631925623 -4.943704379718248 7.530494758389047 1 0 0
413 138 1 0.5897 -7.452810970036512 -3.6557781993345984 7.728693963699185 1 0 0
412 138 2 -1.1794 -7.385899953667185 -4.554887433167635 8.050174538387264 1 0 0
350 117 1 0.5897 -6.975421710415926 -4.337333611675001 9.833719114341212 0 0 0
429 143 1 0.5897 -6.259008977411671 -7.162621130965594 8.601334582029954 1 0 0
428 143 1 0.5897 -6.478768496849959 -7.018596960317338 10.09243861595807 1 0 0
427 143 2 -1.1794 -5.813408573054528 -6.916040598503787 9.411871015075482 1 0 0
627 209 1 0.5897 -10.153546962532639 -6.700262681214915 6.3411930139603205 1 1 0
618 206 1 0.5897 -7.721983650815098 -7.441364033437447 6.613293200360939 1 1 0
419 140 1 0.5897 -8.768141513466182 -5.4756740241752055 8.800691079441751 1 0 0
418 140 2 -1.1794 -9.460049621369661 -5.961286129209837 9.249876078149276 1 0 0
616 206 2 -1.1794 -7.294621786763111 -7.955773592455656 7.298217177046303 1 1 0
349 117 2 -1.1794 -6.973177644479027 -4.0782838958886884 10.755280284696086 0 0 0
351 117 1 0.5897 -6.871186616390073 -3.1267697336743616 10.73669035402011 0 0 0
417 139 1 0.5897 -8.749230420985793 0.9611774810656524 5.654482982358371 1 0 0
425 142 1 0.5897 -7.199325907421361 -1.3614953480713803 6.962252344067944 1 0 0
402 134 1 0.5897 -10.715231953877005 -0.3136766190462321 6.578548451757768 1 0 0
527 176 1 0.5897 -11.782899236900146 1.4735798131783113 8.779313763486742 1 0 0
522 174 1 0.5897 -9.80706106852568 2.176480110203343 7.463601361291227 1 0 0
426 142 1 0.5897 -8.687241063010138 -1.6361532955886942 7.013318565867948 1 0 0
526 176 2 -1.1794 -12.5030325593777 1.0267544487926603 9.224376788801838 1 0 0
401 134 1 0.5897 -11.030402284045255 -1.2762234577287206 7.7039431239094 1 0 0
537 179 1 0.5897 -9.361781904821568 -0.12916429153934672 8.588138321721088 1 0 0
536 179 1 0.5897 -9.59650388669948 -0.11105596552068242 10.083816465236504 1 0 0
535 179 2 -1.1794 -8.933279624083882 0.07572519123926469 9.419254511210939 1 0 0
528 176 1 0.5897 -12.073203936370643 0.43175956822880046 9.838856487746513 1 0 0
424 142 2 -1.1794 -7.839247795391148 -2.072654183212241 6.93201346498567 1 0 0
435 145 1 0.5897 -7.515928796159126 -0.938351647243147 9.806701542683895 0 0 0
400 134 2 -1.1794 -10.299826992496955 -0.8807294125506289 7.228368654832207 1 0 0
411 137 1 0.5897 -13.123919946001214 0.39699491762651107 6.265466808067646 1 0 0
633 211 1 0.5897 -5.674972956536262 -6.182351317674591 5.658729614483383 1 1 0
626 209 1 0.5897 -10.345853939912358 -6.632217793526285 7.841476328128856 1 1 0
433 145 2 -1.1794 -6.71632886614188 -1.3514768492108526 10.132650414263196 0 0 0
415 139 2 -1.1794 -8.54482371067298 1.5626300029572633 6.370506533063907 1 0 0
631 211 2 -1.1794 -5.432903774446684 -5.630597020939277 6.402507979712612 1 1 0
410 137 1 0.5897 -13.408794001403034 0.45694236244355224 7.751302286624021 1 0 0
652 218 2 -1.1794 -5.538318916510864 -5.566061572369157 12.64838798096907 0 0 0
788 263 1 0.5897 -4.995306895466792 -4.614781911453189 15.489829504290844 0 0 0
780 260 1 0.5897 -7.4713186062000405 -4.072632705782411 15.158397792038489 0 0 0
779 260 1 0.5897 -7.233996235549805 -3.09893901869465 14.023518448305838 0 0 0
778 260 2 -1.1794 -7.9304405159325615 -3.550326912063791 14.500536917880122 0 0 0
768 256 1 0.5897 -9.475296723312482 -2.7530451117113364 14.754085150792218 0 0 0
654 218 1 0.5897 -5.954496250149633 -5.003258448973778 11.995378046273135 0 0 0
653 218 1 0.5897 -6.265089041142949 -6.032048518686709 13.061880014599316 0 0 0
766 256 2 -1.1794 -10.348777546245849 -2.3630742220883834 14.788655788958765 0 0 0
740 247 1 0.5897 -10.644762008947527 -3.4808775740090905 11.970032248109627 1 0 0
729 243 1 0.5897 -7.930196278984633 -7.092059904663644 11.929996688054052 1 0 0
684 228 1 0.5897 -8.39745604402571 -6.58368611820784 14.234169370960458 0 0 0
682 228 2 -1.1794 -7.684815491639424 -6.941935789982471 13.704935197645588 0 0 0
663 221 1 0.5897 -8.568228780039885 -4.406212929154477 11.693894330520488 0 0 0
662 221 1 0.5897 -8.858483678670765 -4.264997389498799 13.17316527176669 0 0 0
661 221 2 -1.1794 -9.258298656828615 -4.5318636742235245 12.34535880668393 0 0 0
727 243 2 -1.1794 -7.965910087964719 -7.429559538064961 11.034913983666662 1 0 0
758 253 1 0.5897 -9.491695115180033 -5.35985277615146 16.064118641916203 0 0 0
835 279 2 -1.1794 -11.064044322168163 -0.5118009123233769 11.060557244347438 1 0 0
767 256 1 0.5897 -10.94677766974785 -3.1081115036972715 14.729790973743864 0 0 0
896 299 1 0.5897 -7.9801040362363995 2.422416752047848 15.500238435314786 0 0 0
771 257 1 0.5897 -11.629321375635197 2.822164457894699 11.75462942431231 0 0 0
791 264 1 0.5897 -10.55158024644082 -0.6972371695506041 14.06392319298905 0 0 0
770 257 1 0.5897 -11.796123921698008 2.8994195804896172 13.257515614277052 0 0 0
836 279 1 0.5897 -11.180995223247123 -1.4595944808159205 11.1249559880737 1 0 0
790 264 2 -1.1794 -10.652889933313862 0.19185611783895418 13.724101168550458 0 0 0
769 257 2 -1.1794 -12.271759419235945 2.6938204389967435 12.452632041406464 0 0 0
761 254 1 0.5897 -9.308283213162763 1.198892966741262 13.080078201868067 0 0 0
888 296 1 0.5897 -10.294373250945627 3.0644988400991995 15.286063333375298 0 0 0
762 254 1 0.5897 -9.129810131018711 2.23984131938483 11.995236238612868 0 0 0
760 254 2 -1.1794 -8.651010754221499 1.7640748625491867 12.674042393529406 0 0 0
792 264 1 0.5897 -11.33587643717873 0.581037026489696 14.270318837610144 0 0 0
837 279 1 0.5897 -11.081926426760061 -0.2057576532310943 11.967413616655861 1 0 0
865 289 2 -1.1794 -12.58453921847136 1.0919322828690934 15.394344135718244 0 0 0
866 289 1 0.5897 -12.337808709734691 1.676708276927549 16.11085054144025 0 0 0
739 247 2 -1.1794 -11.430470729726817 -3.0826192284904836 11.595414641290615 1 0 0
1089 363 1 0.5897 -6.481982084364678 -4.809466108579457 17.315386087413543 0 0 0
1152 384 1 0.5897 -6.855727536196925 -4.1641166309010185 19.562762095504556 0 0 0
1225 409 2 -1.1794 -8.067867588220992 -3.6481801855457228 20.73757552828193 0 0 0
1227 409 1 0.5897 -8.90063071854686 -3.2734188313964587 20.45064192626891 0 0 0
1109 370 1 0.5897 -8.751152431370507 -3.5525510534499123 17.610089997240593 0 0 0
1219 407 2 -1.1794 -10.30533653101163 -2.159176391678706 20.01275949704433 0 0 0
1108 370 2 -1.1794 -9.312293219853286 -4.327887384916055 17.598974243188984 0 0 0
1129 377 2 -1.1794 -7.671762512602913 -2.1123630020696087 17.615817624805157 0 0 0
1151 384 1 0.5897 -6.045604022600352 -5.434512317898555 19.41610286201286 0 0 0
1150 384 2 -1.1794 -6.154499555894515 -4.559108424453177 19.04455283948337 0 0 0
1248 416 1 0.5897 -5.853448635822151 -1.7272586698432608 20.459430009970294 0 0 0
1097 366 1 0.5897 -8.952937914584847 -5.942032177088532 18.292959402926147 0 0 0
1130 377 1 0.5897 -7.267865219010694 -1.8714711976990293 18.449589949373703 0 0 0
1143 381 1 0.5897 -8.354092328490871 -5.36733890978536 21.24631639382481 0 0 0
1141 381 2 -1.1794 -8.568236641087143 -6.2981696778100495 21.308229109332213 0 0 0
1101 367 1 0.5897 -10.257038885687491 -1.3075614261885322 16.28930984574558 0 0 0
1131 377 1 0.5897 -6.990130492478432 -1.9510384478875924 16.963325383822703 0 0 0
1088 363 1 0.5897 -6.65409282005154 -5.96824032615101 16.3565636340287 0 0 0
1087 363 2 -1.1794 -6.51920805953627 -5.021007564968023 16.382504582636145 0 0 0
1110 370 1 0.5897 -10.201358531614572 -3.9818963910320404 17.677071044522204 0 0 0
1195 399 2 -1.1794 -9.41104500434108 1.8777075114449389 16.36161271730998 0 0 0
1121 374 1 0.5897 -4.817944090779763 -3.576922235148839 18.27608564417371 0 0 0
1221 407 1 0.5897 -10.732364444100359 -2.3434908215623373 19.17608172376648 0 0 0
1217 406 1 0.5897 -11.65378244491496 3.6203374321238044 17.55695172753642 0 0 0
1249 417 2 -1.1794 -11.472907997315819 0.8549519894675885 21.337260616008827 0 0 0
1011 337 1 0.5897 -11.861543068709935 3.927173908592163 20.40793735728239 0 -1 0
1229 410 1 0.5897 -7.7093788936882675 3.6020687905270172 18.447816338422378 0 0 0
1196 399 1 0.5897 -9.572201037154773 0.9358603770715153 16.417199751045143 0 0 0
1246 416 2 -1.1794 -6.265002147177569 -1.167541578089681 19.800857377819728 0 0 0
1250 417 1 0.5897 -11.549295442265814 0.6145769542985402 20.41380360159026 0 0 0
1009 337 2 -1.1794 -11.060861787145171 3.5441566655842145 20.76639391090646 0 -1 0
1260 420 1 0.5897 -9.80030012597802 2.9196349655372664 19.586221670053998 0 0 0
1259 420 1 0.5897 -8.957384163906102 1.6741520911968504 19.413051929616874 0 0 0
1258 420 2 -1.1794 -9.099908890230964 2.5481995780096103 19.049776009284514 0 0 0
1100 367 1 0.5897 -9.092285713243887 -1.0771585214898405 17.228616495028252 0 0 0
1236 412 1 0.5897 -7.795468598532951 -0.32503117095997425 20.164883651525468 0 0 0
1235 412 1 0.5897 -9.273265711241088 -0.6525253118034087 20.13683225970141 0 0 0
1234 412 2 -1.1794 -8.661588926181794 0.08074952721108453 20.202516253828808 0 0 0
1205 402 1 0.5897 -11.861113361408517 1.2653070328649392 18.3014279671721 0 0 0
1197 399 1 0.5897 -9.309452188137236 2.157767369354378 17.2713472948223 0 0 0
1216 406 2 -1.1794 -12.191929800212586 2.830126891925941 17.51102161473803 0 0 0
1206 402 1 0.5897 -11.135160004074828 -0.04783986084649783 18.100601877490565 0 0 0
1099 367 2 -1.1794 -9.92751759668338 -0.7003085540012304 16.95177429100844 0 0 0
1251 417 1 0.5897 -11.26441002606674 1.7890385334870853 21.3254904275285 0 0 0
1218 406 1 0.5897 -13.090921280607468 3.1463858071541377 17.600708790379713 0 0 0
1204 402 2 -1.1794 -11.789491971840807 0.3783700472225817 18.654200046347764 0 0 0
1226 409 1 0.5897 -7.761626588381629 -3.055367128187303 21.423867893578937 0 0 0
40 14 2 -1.1794 -14.873491552270782 3.7290336532160087 2.0124267399206186 1 0 0
177 59 1 0.5897 -13.935806827768733 4.391778001270495 3.4259130641622555 1 0 0
42 14 1 0.5897 -15.334254208488083 4.293638365474806 1.391717942579364 1 0 0
85 29 2 -1.1794 -10.789668040816702 4.771510016062026 1.7753611780357763 1 0 0
55 19 2 -1.1794 -13.032015086131558 6.2170222245133555 1.043851593670399 1 0 0
56 19 1 0.5897 -12.230126032368378 5.851145736701675 1.4172088944332242 1 0 0
66 22 1 0.5897 -13.334426058816732 2.9232528499317816 1.751727779964653 1 0 0
65 22 1 0.5897 -11.867967007923179 3.299246784726705 1.7582634903791574 1 0 0
64 22 2 -1.1794 -12.45610613560045 2.546467957481898 1.6985291915746272 1 0 0
191 64 1 0.5897 -12.50850700544898 6.195402829505802 4.195353914296357 1 0 0
190 64 2 -1.1794 -11.887293685238916 6.9233858959830865 4.212730902587431 1 0 0
183 61 1 0.5897 -12.049243136085904 3.662402391598066 4.572099062501909 1 0 0
181 61 2 -1.1794 -11.212160246414095 3.3247301333224275 4.890758644573631 1 0 0
176 59 1 0.5897 -14.205280750074714 4.55730078657321 4.906591696061398 1 0 0
175 59 2 -1.1794 -13.524817915239456 4.673276257466558 4.243331180780351 1 0 0
108 36 1 0.5897 -9.911777198054512 2.7786534888647303 3.7408892073753766 1 0 0
162 54 1 0.5897 -14.333807526659538 6.769927484307718 2.1688081730369237 1 0 0
45 15 1 0.5897 -9.545776403611205 2.0674461739999668 1.4606134257765713 1 0 0
167 56 1 0.5897 -16.409283147540528 6.236323164839009 3.5181396836037746 1 0 0
43 15 2 -1.1794 -9.559857230871486 1.7683555007126888 0.5513719664106145 1 0 0
192 64 1 0.5897 -11.02655398469489 6.504774396708251 4.201305460318078 1 0 0
206 69 1 0.5897 -14.754176178486265 7.379392520160545 4.585795727247415 1 0 0
291 97 1 0.5897 -15.12377306851187 10.746499177295851 4.492347815392983 1 0 0
207 69 1 0.5897 -14.581720359382551 8.674184305983262 5.350906835254411 1 0 0
160 54 2 -1.1794 -14.969702096639999 7.136454777780541 2.7832977290477277 1 0 0
152 51 1 0.5897 -12.751584514291146 7.915381434070531 0.5623869321453867 1 0 0
205 69 2 -1.1794 -14.675303704068373 7.729499515561718 5.473236466309492 1 0 0
182 61 1 0.5897 -10.96895171072741 3.9179071057878065 5.601538693468997 1 0 0
284 95 1 0.5897 -17.230282461426803 11.567947818342018 4.713585661465944 1 0 0
153 51 1 0.5897 -12.628803032115036 9.172111665915027 1.3973762516716688 1 0 0
151 51 2 -1.1794 -12.672016921357898 8.86655923486603 0.4912091997397645 1 0 0
216 72 1 0.5897 -13.03422631287031 9.770443219413105 3.6763969461740373 1 0 0
215 72 1 0.5897 -12.22567153362206 8.51191497056322 3.443889739217668 1 0 0
174 58 1 0.5897 -16.400214112985992 9.993666840178347 1.6883834292527649 1 0 0
173 58 1 0.5897 -14.915786739835303 10.290717056393634 1.6752668948935197 1 0 0
172 58 2 -1.1794 -15.54309246641948 9.567769925643129 1.674659043136897 1 0 0
161 54 1 0.5897 -15.144987586143174 8.016658199641727 2.4505209679317983 1 0 0
193 65 2 -1.1794 -13.901197441581592 11.806079976018745 1.748828714707762 1 0 0
283 95 2 -1.1794 -16.56676060661917 11.754494493311237 4.049253219775362 1 0 0
285 95 1 0.5897 -16.998952316711744 11.561138514326062 3.2172828888905936 1 0 0
148 50 2 -1.1794 -17.9857845509964 10.812762601782966 1.9127923786833663 1 0 0
150 50 1 0.5897 -18.467436035172543 11.25883538336961 1.2160727865837897 1 0 0
289 97 2 -1.1794 -14.298563318603753 10.397534405730765 4.829294318827918 1 0 0
194 65 1 0.5897 -13.460696790363473 12.012584267421575 2.5732439734205332 1 0 0
57 19 1 0.5897 -13.265205599664313 5.613860017414268 0.33813831070706135 1 0 0
214 72 2 -1.1794 -12.32796522554017 9.413143015630967 3.1380438347640816 1 0 0
290 97 1 0.5897 -14.048757801688518 11.003408613310578 5.52694994845476 1 0 0
532 178 2 -1.1794 -10.882609936881428 4.992158528101962 7.03906013516014 1 0 0
521 174 1 0.5897 -10.62836967414321 3.414387666427098 7.754728597496621 1 0 0
534 178 1 0.5897 -11.746245091039869 5.398050893069094 7.114055355070523 1 0 0
645 215 1 0.5897 -12.356608884190377 6.998757201086937 8.627827364571631 1 0 0
644 215 1 0.5897 -12.593844445599089 7.113512847102113 10.11879792047544 1 0 0
643 215 2 -1.1794 -11.921692462646453 7.2330945526259445 9.447748906526272 1 0 0
510 170 1 0.5897 -13.74895546673978 6.767956135973753 6.666425303428854 1 0 0
508 170 2 -1.1794 -13.298411726416113 6.187064346773825 7.279555929628427 1 0 0
543 181 1 0.5897 -10.497753072589314 6.165065256254351 9.77975849809139 0 0 0
509 170 1 0.5897 -14.002953246193904 5.7506052946676185 7.758578477415398 1 0 0
636 212 1 0.5897 -15.08690607840346 7.687734368383863 9.981524561705644 1 0 0
459 153 1 0.5897 -9.972913930858232 4.092282898434535 10.702134256586737 0 0 0
519 173 1 0.5897 -16.159729096361765 7.465021554100806 6.395127039388834 1 0 0
457 153 2 -1.1794 -10.138440781036811 3.1517430280954404 10.766307137808278 0 0 0
520 174 2 -1.1794 -10.496644302141181 2.509583922739928 8.037899185154163 1 0 0
458 153 1 0.5897 -10.21499381387048 2.8591562273162534 9.858065487537 0 0 0
533 178 1 0.5897 -10.273067602255281 5.7293541819399945 7.004806986902227 1 0 0
566 189 1 0.5897 -13.090722632763176 9.787901731355062 9.863796452470751 0 0 0
518 173 1 0.5897 -16.435528622459614 7.558407681570932 7.880948323874878 1 0 0
565 189 2 -1.1794 -13.085627980829113 10.097969142633714 10.76944639873815 0 0 0
642 214 1 0.5897 -14.741300948829268 12.44479937642346 7.051305703318808 1 0 0
640 214 2 -1.1794 -13.8814100955993 12.026022759752307 7.01321816440258 1 0 0
617 206 1 0.5897 -17.04972648255304 12.745116210785087 7.741056875869139 1 0 0
567 189 1 0.5897 -12.956886133394041 11.043756929075935 10.69840306784603 0 0 0
630 210 1 0.5897 -12.82706166831079 9.267576681462996 7.533889226268148 1 0 0
628 210 2 -1.1794 -13.548313500761868 9.577573793740465 8.081612891911472 1 0 0
629 210 1 0.5897 -13.710089146285503 10.472006571439115 7.781565294617981 1 0 0
634 212 2 -1.1794 -15.522492266636199 8.186358018422373 9.290126426105797 1 0 0
635 212 1 0.5897 -14.819667978355042 8.68750270862707 8.876363129088013 1 0 0
327 109 1 0.5897 -13.439776716760814 13.161164799598021 9.723896064228546 0 -1 0
641 214 1 0.5897 -13.258749153285457 12.750808731090713 7.069239930665455 1 0 0
523 175 2 -1.1794 -11.55253620352956 8.63503389739443 6.380674328049841 1 0 0
525 175 1 0.5897 -11.796695947880464 8.013263005811003 5.695115971130315 1 0 0
874 292 2 -1.1794 -13.244390159499943 4.795035821325396 14.799060732766858 0 0 0
887 296 1 0.5897 -10.060509949668534 4.0115906663340315 14.128184404740804 0 0 0
876 292 1 0.5897 -12.366948642220104 4.4128841742179326 14.781767891745353 0 0 0
945 315 1 0.5897 -14.077621766280583 7.002260092991557 11.955815733026004 1 0 0
848 283 1 0.5897 -13.726284740366758 3.629315188601346 11.953648621233288 1 0 0
900 300 1 0.5897 -14.444231980857003 7.535474531214971 14.221295161282391 0 0 0
899 300 1 0.5897 -13.635130566549584 6.286803351350999 13.942209911678884 0 0 0
898 300 2 -1.1794 -13.749343510325364 7.193826517992717 13.65852915949604 0 0 0
886 296 2 -1.1794 -10.756044134864025 3.608784290449371 14.648115054465586 0 0 0
944 315 1 0.5897 -14.193161578513473 5.746444602331692 11.118420296626017 1 0 0
869 290 1 0.5897 -12.377811568991538 8.150261510312289 13.05859447314465 0 0 0
875 292 1 0.5897 -13.833876070278322 4.04147927347133 14.827670523366555 0 0 0
943 315 2 -1.1794 -14.08464277067251 6.694902869236225 11.04925480943672 1 0 0
671 224 1 0.5897 -13.173751379064917 11.068579709460975 14.125929954494346 0 -1 0
659 220 1 0.5897 -16.91828020078931 10.967624854506285 14.80493447294564 0 -1 0
868 290 2 -1.1794 -11.672774920367916 8.637351006064682 12.632000653814435 0 0 0
660 220 1 0.5897 -15.448558545687163 11.326501157986796 14.749636816823102 0 -1 0
670 224 2 -1.1794 -13.844618103385564 10.543099597950624 14.561966975175624 0 -1 0
956 319 1 0.5897 -16.685189945034466 10.719767505730667 11.986742820175703 1 0 0
877 293 2 -1.1794 -15.310133385324711 9.598799336352231 12.405484213923248 0 0 0
878 293 1 0.5897 -14.828569737417752 9.777479070598867 13.213268059541228 0 0 0
879 293 1 0.5897 -14.668857503606397 9.736437518649913 11.708183872291828 0 0 0
728 243 1 0.5897 -17.183599623251503 12.790154330682673 11.13795123001939 1 -1 0
680 227 1 0.5897 -10.967066582160307 9.516617149591736 15.427546637038898 0 -1 0
683 228 1 0.5897 -16.605027662774756 13.320549694014764 14.032727714112513 0 -1 0
658 220 2 -1.1794 -16.321543044765686 11.71597884836571 14.799103233393243 0 -1 0
672 224 1 0.5897 -13.361388272228417 10.018919841727888 15.200782193382746 0 -1 0
870 290 1 0.5897 -12.117173642712114 9.186997737850136 11.986424255193727 0 0 0
955 319 2 -1.1794 -17.497814654762834 11.077260051845938 11.62879945342212 1 0 0
650 217 1 0.5897 -15.410608516169734 8.644616411805904 16.15692658536272 0 -1 0
993 331 1 0.5897 -16.16784448115625 12.792035781520626 16.234180191987868 0 -1 0
649 217 2 -1.1794 -15.66571135813372 8.082602343009333 15.425288812169589 0 -1 0
847 283 2 -1.1794 -14.498607941745892 4.049495297410676 11.575160600583605 1 0 0
1209 403 1 0.5897 -13.072576952514016 5.826461156355892 16.230684375487417 0 0 0
1018 340 2 -1.1794 -11.607732893606189 7.135676526894153 20.191742160426685 0 -1 0
1019 340 1 0.5897 -12.210090436177008 6.392247207743024 20.166459244812437 0 -1 0
1020 340 1 0.5897 -10.737459490452663 6.741648244467104 20.13169850870102 0 -1 0
1030 344 2 -1.1794 -9.141468040909695 5.927571573101664 19.9759394992977 0 -1 0
1043 348 1 0.5897 -11.932389822474887 8.728536217032778 19.361406787179927 0 -1 0
1032 344 1 0.5897 -8.709165444656886 5.381207391260228 20.632424098212084 0 -1 0
1239 413 1 0.5897 -9.899206643085211 5.166810502346847 17.12626289472001 0 0 0
1237 413 2 -1.1794 -10.57461129737015 5.018462572884873 17.78824413686321 0 0 0
1003 335 2 -1.1794 -13.265945146666356 4.961596933285852 20.07927937351116 0 -1 0
1208 403 1 0.5897 -12.05585131612458 6.061942273061382 17.327458420820705 0 0 0
1207 403 2 -1.1794 -12.857280904058062 6.422529450489886 16.94801934678017 0 0 0
1238 413 1 0.5897 -10.12975064247702 5.1672488539006185 18.622702780683813 0 0 0
990 330 1 0.5897 -14.127007008459598 7.0259301959145635 18.186272505113777 0 -1 0
989 330 1 0.5897 -14.912480765091434 8.293710663810144 18.446020897418343 0 -1 0
1034 345 1 0.5897 -14.470221133874503 7.563420593884038 20.597723816938586 0 -1 0
1035 345 1 0.5897 -14.405951198264084 8.783706105700185 21.4912875294712 0 -1 0
1033 345 2 -1.1794 -14.53091049977846 7.835016065387498 21.513659794703685 0 -1 0
980 327 1 0.5897 -12.531316831689674 8.121917267806479 16.38875997995965 0 -1 0
1117 373 2 -1.1794 -14.091874876379885 10.494517463109174 20.839400917147834 0 -1 0
1044 348 1 0.5897 -12.844074102600494 9.913908108419692 19.59692920454798 0 -1 0
988 330 2 -1.1794 -14.721396481047499 7.432276875818706 18.817049665082916 0 -1 0
1002 334 1 0.5897 -16.167154947409244 10.16626747438327 17.686776485838262 0 -1 0
1013 338 1 0.5897 -10.85907544857393 10.69825127840013 18.402505632469254 0 -1 0
979 327 2 -1.1794 -12.399559004172218 9.069346633891717 16.354853268652352 0 -1 0
1042 348 2 -1.1794 -12.10687339922799 9.62059217559989 19.061387953920548 0 -1 0
1021 341 2 -1.1794 -13.65648188589013 12.02922081337889 17.66583518630515 0 -1 0
1098 366 1 0.5897 -17.27417387248751 13.901397342875297 18.046764110324418 0 -1 0
992 331 1 0.5897 -15.118669374232212 13.042668557393595 17.296484586488763 0 -1 0
1001 334 1 0.5897 -14.710533030974666 10.565176783161464 17.581650783018524 0 -1 0
1000 334 2 -1.1794 -15.288023512814048 9.801856765456906 17.583941823709836 0 -1 0
991 331 2 -1.1794 -15.925537521634187 13.403824551720165 16.929313572579712 0 -1 0
1111 371 2 -1.1794 -16.34023756409592 11.95388051372417 20.07478573877297 0 -1 0
1023 341 1 0.5897 -12.999076154127966 12.199978947194241 16.991251565091606 0 -1 0
981 327 1 0.5897 -12.413757632593928 9.346429286008833 17.27104356795646 0 -1 0
1140 380 1 0.5897 -11.853256480922632 12.430587017853645 20.579712458164163 0 -1 0
1138 380 2 -1.1794 -12.264991787168059 12.939250782335643 19.88105404523705 0 -1 0
1128 376 1 0.5897 -13.865659102449978 13.7302319448015 20.1265324360821 0 -1 0
1022 341 1 0.5897 -13.229720046737322 12.278602797637715 18.485600845922605 0 -1 0
1127 376 1 0.5897 -15.347367595893145 13.423479143629235 20.1753326353507 0 -1 0
1126 376 2 -1.1794 -14.723585297147078 14.149206668537756 20.19480123586124 0 -1 0
1119 373 1 0.5897 -14.886149620696273 10.897264328156696 20.488397411467123 0 -1 0
1142 381 1 0.5897 -17.636437885100293 14.555918523630277 20.399702386565814 0 -1 0
1118 373 1 0.5897 -13.812928057730087 11.084404720322945 21.53971267818984 0 -1 0
1096 366 2 -1.1794 -17.88907128559189 14.32738351989133 18.644026346052357 0 -1 0
1010 337 1 0.5897 -10.789353851104176 4.15387912609175 21.452489872591883 0 -1 0
1005 335 1 0.5897 -13.688927810807202 4.651906154170138 19.278348940478793 0 -1 0
103 35 2 -1.1794 -2.857483381281922 -2.3870270273958916 4.214136466496739 1 0 0
242 81 1 0.5897 -1.0201321854234546 -6.659246293912198 4.602969268031488 0 1 0
311 104 1 0.5897 -2.686540302108443 -7.908660434362876 3.4765828799808713 1 1 0
316 106 2 -1.1794 -1.8126937601580622 -4.463724746972228 1.6889712626572069 1 1 0
243 81 1 0.5897 -0.8249951559111928 -5.422189127670512 5.45341969518222 0 1 0
241 81 2 -1.1794 -0.9349559661175064 -6.371203413837577 5.511893844048877 0 1 0
306 102 1 0.5897 -0.6766482416126607 -7.313855172451761 2.2489892773956885 1 1 0
305 102 1 0.5897 -1.4790967172315739 -6.053684096017086 2.493439193399955 1 1 0
293 98 1 0.5897 -5.006664637025369 -3.7747029347460916 2.3705250079060844 1 1 0
304 102 2 -1.1794 -1.3630919031970397 -6.950142433720586 2.808275799114758 1 1 0
318 106 1 0.5897 -2.693096776290121 -4.09625628831116 1.7670661033935289 1 1 0
310 104 2 -1.1794 -3.3949192130090386 -8.401816485788807 3.8904749997945 1 1 0
89 30 1 0.5897 -4.519797133655396 1.0659529966912942 2.5565739040727298 1 0 0
309 103 1 0.5897 -2.77198954919725 -1.3821487992548347 0.3897794394414036 1 1 0
3 1 1 0.5897 -1.3510959920846748 -3.332596995860026 4.549777272083464 0 0 0
105 35 1 0.5897 -3.254488196557813 -2.5335372153810605 3.355479082433766 1 0 0
95 32 1 0.5897 -5.749173345061391 -0.7820773479834884 3.6108688548233983 1 0 0
26 9 1 0.5897 -4.0456483209772856 0.3675299346074681 4.679878426875009 0 0 0
96 32 1 0.5897 -5.967280887599843 -1.857572687826056 4.6539507070780415 1 0 0
88 30 2 -1.1794 -4.360068598063582 0.1845519591641036 2.893989519808081 1 0 0
104 35 1 0.5897 -3.5580686841381546 -2.5770825361829823 4.838191259882732 1 0 0
90 30 1 0.5897 -3.7183395463059057 -0.19053273758085787 2.2908364373821346 1 0 0
94 32 2 -1.1794 -6.425770339077551 -1.3438374316692743 3.9889410079698018 1 0 0
27 9 1 0.5897 -3.868655483093332 1.6389776278678632 5.482206308465456 0 0 0
25 9 2 -1.1794 -3.9838752174023444 0.6936026861976003 5.577774776168176 0 0 0
303 101 1 0.5897 -7.29833846167738 -2.158409419335622 1.1688654494832722 1 1 0
292 98 2 -1.1794 -4.271632260837479 -3.2793558281524122 2.0090686496505143 1 1 0
294 98 1 0.5897 -4.666323320296052 -2.7148828131834275 1.3442627589270724 1 1 0
317 106 1 0.5897 -1.2296787517934007 -3.7085443641473237 1.7660784958268883 1 1 0
307 103 2 -1.1794 -2.4942376202043306 -0.8088312279315275 1.1041904319080134 1 1 0
201 67 1 0.5897 0.3388312746366058 -8.4927987413051 0.36439586640102534 1 1 0
199 67 2 -1.1794 0.5696245543111846 -7.921525229713768 1.09693214955844 1 1 0
404 135 1 0.5897 -5.156664153855206 -3.841222693456336 5.899814999925307 1 0 0
335 112 1 0.5897 -4.747319413666366 -5.452160397465974 9.422633909013726 0 0 0
336 112 1 0.5897 -3.2742835604740836 -5.103293557495922 9.40302594400604 0 0 0
334 112 2 -1.1794 -4.143854454871439 -4.711931333935141 9.486234470507387 0 0 0
346 116 2 -1.1794 -1.6917226334318833 -5.909701888279831 9.249402929726728 0 0 0
632 211 1 0.5897 -4.589629559864843 -5.977190925980127 6.694110907794239 1 1 0
356 119 1 0.5897 1.1682771920096524 -7.096048507796365 10.111728360583966 0 0 0
359 120 1 0.5897 -4.488276415944493 -3.1239981012021394 8.83859512428622 0 0 0