LAMMPS data file via write_data, version 30 Jul 2021, timestep = 14500000

864 atoms
2 atom types
576 bonds
1 bond types
288 angles
1 angle types

0.00530058321323601 18.20227181679028 xlo xhi
1.097774657029241 22.531403142963903 ylo yhi
0.006466699152234412 22.206729100844072 zlo zhi

Masses

1 1.00794
2 15.9994

Pair Coeffs # lj/cut/tip4p/long/omp

1 0 0
2 0.21084 3.1668

Bond Coeffs # harmonic/omp

1 450 0.9572

Angle Coeffs # harmonic/omp

1 55 104.52

Atoms # full

355 1 2 -1.1794 0.9454772931877933 3.115612987316413 1.4923683376108694 0 -5 4
520 1 2 -1.1794 1.8106677844493793 5.015225703144354 3.2227719118897076 -7 1 -2
816 1 1 0.5897 1.9763811611936133 3.6214187043644794 4.4943700812839 -7 6 -2
521 1 1 0.5897 2.37602153658368 5.633304139575218 2.7595890197831965 -7 1 -2
219 1 1 0.5897 4.517383508729356 2.776774541257924 0.9142126413813138 3 -2 -2
364 1 2 -1.1794 4.095299531881274 6.268837921728756 1.2924075553521115 5 5 2
357 1 1 0.5897 1.6379254696995125 3.0657608106434986 0.8334218933558605 0 -5 4
522 1 1 0.5897 1.4916149768968567 4.424298752788475 2.5407248243410816 -7 1 -2
374 1 1 0.5897 1.3715961419953773 6.191314635465563 4.590637295307611 5 5 0
814 1 2 -1.1794 2.351172652467877 3.0415030909099006 5.157268367835354 -7 6 -2
356 1 1 0.5897 0.6233699023274768 2.2176510096016164 1.5704112604690532 0 -5 4
438 1 1 0.5897 3.9979499700087664 2.6105780887839254 4.419658870838586 -3 2 3
815 1 1 0.5897 1.7593425700572745 2.2895930224150716 5.180605266626082 -7 6 -2
366 1 1 0.5897 3.8863378059582936 6.4377192392240055 0.3737152431756076 5 5 2
253 1 2 -1.1794 4.294507216002586 4.150594344770837 6.555022987817118 0 7 -5
292 1 2 -1.1794 4.4457342901246735 2.9819325182551646 10.569937713515845 0 -3 0
417 1 1 0.5897 1.487013197671044 5.74186905127956 7.036330170675416 -1 -1 -2
174 1 1 0.5897 4.471035692237151 4.677731385893511 9.43750033111448 0 -1 -1
172 1 2 -1.1794 4.0739500655752225 5.37789749707211 8.919546565705174 0 -1 -1
255 1 1 0.5897 3.564005295803938 3.6215087354209405 6.234685807929397 0 7 -5
416 1 1 0.5897 2.159645998979559 5.614866887898018 8.386588349244631 -1 -1 -2
415 1 2 -1.1794 1.3112245503749824 5.526734237119456 7.952306197946077 -1 -1 -2
173 1 1 0.5897 4.190744846092937 5.100122905926713 8.011038927394258 0 -1 -1
570 1 1 0.5897 0.3313368681925048 1.7295241282330882 7.682093513849245 4 -2 2
568 1 2 -1.1794 0.16667043342890847 1.6802585811200457 8.623710730640767 4 -2 2
759 1 1 0.5897 0.4698188119265833 4.081470856439978 11.063085998309013 -2 4 0
372 1 1 0.5897 2.8113202190348257 1.8309739873215531 11.049144915153947 5 8 0
370 1 2 -1.1794 2.001305027767341 1.3759641106563365 11.27950788960086 5 8 0
244 1 2 -1.1794 0.6022095522990298 2.156958388472389 16.16040041476556 -3 4 1
421 1 2 -1.1794 2.230102172371625 4.828312860278801 13.941175763806516 -3 1 8
423 1 1 0.5897 1.6898650212077788 4.482847338680319 13.230559908717565 -3 1 8
757 1 2 -1.1794 0.9608938021783591 3.834942897852751 11.846832020326243 -2 4 0
494 1 1 0.5897 1.0082300606231955 5.524009964500116 15.235493557847965 3 -2 -1
308 1 1 0.5897 3.583100329186909 3.869061921090454 14.346504246770959 1 4 0
758 1 1 0.5897 1.284199491688596 2.9535690204790077 11.660101971747995 -2 4 0
491 1 1 0.5897 3.6470768066188217 6.192942542950056 15.997120413357239 1 4 4
630 1 1 0.5897 2.4862935331252403 6.4105116694038164 11.642041528489228 -4 -5 3
493 1 2 -1.1794 0.6747245520390567 6.27523848375382 15.726008965290903 3 -2 -1
422 1 1 0.5897 2.6373065644964493 5.6126634346255555 13.57352698447773 -3 1 8
490 1 2 -1.1794 4.1803104864485805 5.598878610909302 16.525293959130963 1 4 4
246 1 1 0.5897 1.1251377784979442 2.8317292521806405 16.59331203179983 -3 4 1
307 1 2 -1.1794 4.409349131681714 3.5091690918436096 14.668981828033928 1 4 0
492 1 1 0.5897 4.240499459218384 4.8002224562807125 16.001167694660495 1 4 4
495 1 1 0.5897 0.10232621523194185 5.892691192683008 16.390995543437896 3 -2 -1
847 1 2 -1.1794 2.327703773203752 3.80260603809594 17.76768263026487 4 -1 5
848 1 1 0.5897 2.822015463156553 2.985063767471263 17.826659083066932 4 -1 5
511 1 2 -1.1794 1.6110241753048484 4.678729872784151 20.395957832540958 4 1 -8
512 1 1 0.5897 1.7983220391103178 4.612819555897717 19.45958521356786 4 1 -8
789 1 1 0.5897 2.5542927613532287 3.446448572183885 21.361833299935792 5 -2 4
849 1 1 0.5897 2.937937056977493 4.42391416962715 17.370446745419727 4 -1 5
788 1 1 0.5897 2.9338951842245664 2.0104742190413782 21.654518852195455 5 -2 4
66 1 1 0.5897 0.29977822598113973 5.9600833582214445 20.653042529564974 6 2 -5
787 1 2 -1.1794 2.9900613778292238 2.8963219280945087 22.012720940434992 5 -2 4
513 1 1 0.5897 2.2042200009332595 5.360238363836421 20.711951081222473 4 1 -8
631 1 2 -1.1794 3.7181893837752287 1.2395089760853555 18.134923331492907 2 6 4
273 1 1 0.5897 4.25066599534339 6.3949711186659 20.21769029325722 -2 3 4
633 1 1 0.5897 4.459663638152111 1.7989062331448171 18.366166461428513 2 6 4
365 1 1 0.5897 3.6087312270365337 6.936474587640828 1.7758406384819512 5 5 2
44 1 1 0.5897 0.1981308154794126 10.204987739703848 4.008238014534002 1 4 -1
675 1 1 0.5897 0.4730817564970538 7.947273096133426 3.739638376058729 0 -1 -2
83 1 1 0.5897 3.7699948322123897 10.54138816321346 1.1523808635611588 -5 -1 -7
134 1 1 0.5897 3.264636644360368 8.967429836457974 2.6196618510294507 0 -6 -4
133 1 2 -1.1794 3.069508776134899 8.135091158718975 3.050243059055531 0 -6 -4
135 1 1 0.5897 3.2524886765465304 8.295174431940204 3.9760338079252704 0 -6 -4
82 1 2 -1.1794 3.5857370912504565 10.817237154131062 2.050238515821778 -5 -1 -7
674 1 1 0.5897 0.6763626169100984 8.42582055904168 2.3178713543444505 0 -1 -2
84 1 1 0.5897 2.8343263673458488 11.404898490277573 1.9713243587751426 -5 -1 -7
476 1 1 0.5897 0.10847446025200497 9.505015352343182 0.19410313911296795 5 -1 -3
673 1 2 -1.1794 0.05602951234925772 8.458383388032825 3.04608950900694 0 -1 -2
373 1 2 -1.1794 1.0531690428081915 6.691206357082975 5.342232244637068 5 5 0
654 1 1 0.5897 1.677338000079244 11.671717289093836 5.219717613697424 -2 0 -3
594 1 1 0.5897 0.8438090956085194 11.752265242036337 2.7023438285485435 1 -3 0
475 1 2 -1.1794 0.7739122203040266 8.823395431098177 0.10043527842232099 5 -1 -3
43 1 2 -1.1794 0.2488280047400828 11.09971503097835 4.3444996183712385 1 4 -1
649 1 2 -1.1794 2.631650884061784 10.978645491921297 10.405943836457709 1 -2 2
650 1 1 0.5897 3.3027402121971776 10.715280563598421 11.03561053775788 1 -2 2
201 1 1 0.5897 3.631565853768534 9.444299853221436 8.268418794922972 -2 -1 -2
589 1 2 -1.1794 4.434598037448537 8.333058367033406 9.323476582379474 0 4 1
207 1 1 0.5897 0.8625187688761243 6.551903468286362 9.921429906543247 -3 5 0
200 1 1 0.5897 2.320578661028982 9.997382666930356 7.75153279559473 -2 -1 -2
199 1 2 -1.1794 3.264201766644989 10.157789607845784 7.7467182936200984 -2 -1 -2
645 1 1 0.5897 0.23476717282424664 10.228589410202705 6.218454170358484 10 0 -3
205 1 2 -1.1794 0.7034435121893925 6.5854788494485135 10.864719929729572 -3 5 0
591 1 1 0.5897 4.390310558103215 7.387822254140581 9.17941195178504 0 4 1
653 1 1 0.5897 2.533460947391745 11.615497043287249 6.466979761092561 -2 0 -3
643 1 2 -1.1794 0.5724988460876393 10.050579132065277 7.096192356858609 10 0 -3
447 1 1 0.5897 3.5428704376014055 9.002780840032637 6.250059803194633 4 0 1
651 1 1 0.5897 3.0381299840901903 10.841036611259803 9.55036446958895 1 -2 2
644 1 1 0.5897 0.23000103891296503 9.183694313554431 7.313864788054632 10 0 -3
446 1 1 0.5897 4.31280517853494 7.816785096712429 5.709341648082552 3 0 1
445 1 2 -1.1794 3.4358389415464745 8.198982639123212 5.7415006827172945 3 0 1
206 1 1 0.5897 0.4420322134614281 7.490960996163662 11.031945068485149 -3 5 0
375 1 1 0.5897 1.7969518601540688 7.235199299683686 5.601161088214313 5 5 0
628 1 2 -1.1794 3.2171944484632737 6.800802063754647 12.121253313829675 -4 -5 3
110 1 1 0.5897 1.3985541517074207 11.682833712569952 13.7681611349678 3 -2 -8
508 1 2 -1.1794 3.5677430932962566 9.594965773641258 12.916786246053665 3 -4 2
228 1 1 0.5897 2.1091490746392454 9.076148901968761 16.26741123249346 5 -4 -1
458 1 1 0.5897 2.159290392679069 11.169776391223365 15.629824456834479 1 1 -6
509 1 1 0.5897 3.2224292176010096 8.718274628013614 12.748372917693668 3 -4 2
111 1 1 0.5897 2.8237081366987895 11.276407001116318 13.459111454553632 3 -2 -8
636 1 1 0.5897 0.20441284186638156 9.605477471863816 12.466802131689636 -8 3 -1
510 1 1 0.5897 4.339939174175865 9.447910680966585 13.462937493928044 3 -4 2
226 1 2 -1.1794 2.4987899883492997 8.208916262404745 16.37821146610247 5 -4 -1
634 1 2 -1.1794 0.4508905106956057 9.17081291044386 11.650406625647994 -8 3 -1
457 1 2 -1.1794 1.8887588820276158 10.878416003088516 16.500512206208125 1 1 -6
89 1 1 0.5897 4.107192781676013 8.667360799701912 15.731640898034053 4 0 3
227 1 1 0.5897 1.7596386379006463 7.6039776298564465 16.315736851242786 5 -4 -1
635 1 1 0.5897 1.0969060774541046 9.754819226755663 11.253121657673878 -8 3 -1
629 1 1 0.5897 3.997008719657958 6.507767503289841 11.64986540016095 -4 -5 3
829 1 2 -1.1794 4.348517329560125 10.145902387070159 21.66295879126812 6 1 2
132 1 1 0.5897 3.0245977350408544 8.63973678717582 18.265618381078106 -4 -2 -4
459 1 1 0.5897 2.385665511591332 11.431133049764773 17.10368284671332 1 1 -6
130 1 2 -1.1794 3.052343607900619 9.038105212133608 19.135519518382196 -4 -2 -4
131 1 1 0.5897 2.2668920369296157 9.58374930615402 19.174725708904877 -4 -2 -4
477 1 1 0.5897 0.4188689214365937 8.230817564643289 21.63813470468921 5 -1 -4
830 1 1 0.5897 3.7685495223117154 9.736012183549638 21.021222100002777 6 1 2
272 1 1 0.5897 3.3346258042722106 7.60007485975806 20.19895483859222 -2 3 4
835 1 2 -1.1794 0.2616500778116277 10.447548393627391 19.329893650888135 5 1 2
732 1 1 0.5897 0.2687487517718254 11.336147775848904 21.018674300636526 4 0 -4
271 1 2 -1.1794 3.5791231921875126 6.84335010935977 20.731657349420477 -2 3 4
797 1 1 0.5897 3.9840498407490608 11.488168954982491 18.143048453263226 2 1 -3
730 1 2 -1.1794 0.09171751970620746 11.806412566614114 21.833353197924165 4 0 -4
454 1 2 -1.1794 2.3644335975540276 14.78169673359827 2.072549183140278 4 2 0
456 1 1 0.5897 3.2395142939820993 14.869581772696115 2.4503181626698973 4 2 0
859 1 2 -1.1794 0.7478072266557119 16.417105054337394 3.4751804029318705 -5 -2 1
455 1 1 0.5897 2.2250284398811755 13.83697563204651 2.0072530282987806 4 2 0
593 1 1 0.5897 0.7102234642322756 12.13066866768245 1.2426445571144231 1 -3 0
861 1 1 0.5897 0.5655936148625021 16.95628587351873 2.705596499236839 -5 -2 1
860 1 1 0.5897 1.311764768165325 15.715920179523168 3.1488705372709287 -5 -2 1
444 1 1 0.5897 2.2093554541216656 14.776670133557586 0.023111581835167396 4 4 -3
592 1 2 -1.1794 1.2805187831818965 12.239381783122859 2.0036452749737004 1 -3 0
827 1 1 0.5897 1.383821335579792 12.057815321368476 9.80427721768801 1 2 3
277 1 2 -1.1794 2.625143027882491 14.445610407416417 8.332386754821913 0 -1 -1
279 1 1 0.5897 1.921175559091812 13.878915606240037 8.647861272500432 0 -1 -1
164 1 1 0.5897 0.8527581975263572 13.314080739232896 6.131640783332434 -2 2 -5
708 1 1 0.5897 4.174354210612131 13.474918021154034 8.373011269531201 0 -4 -8
163 1 2 -1.1794 0.20371001633437738 13.637048353061235 6.756643972860439 -2 2 -5
182 1 1 0.5897 1.2333456506872122 16.204181459162974 10.125277108903905 -4 0 -2
165 1 1 0.5897 0.17209025189734384 12.965749720485073 7.438221300278513 -2 2 -5
278 1 1 0.5897 2.781469335236252 15.057248960116935 9.051857812823606 0 -1 -1
300 1 1 0.5897 3.4106314762602676 14.803165993909188 6.600466154927153 -2 2 -1
183 1 1 0.5897 1.978060124927734 16.96741852750425 9.050727217985857 -5 0 -2
828 1 1 0.5897 0.6624000066308854 13.340242112633966 10.160211881520869 1 2 3
826 1 2 -1.1794 0.6819791214503852 12.63824419661215 9.509832535669322 1 2 3
181 1 2 -1.1794 2.0821811985306558 16.600391037928294 9.928580974835656 -5 0 -2
298 1 2 -1.1794 3.7077082461613853 14.495018584776446 5.744315286681315 -2 2 -1
247 1 2 -1.1794 0.17007603516924988 14.840510091273092 10.999399532503267 -1 -1 -6
652 1 2 -1.1794 2.3345929372759557 12.165930029232838 5.709578463612055 -2 0 -3
528 1 1 0.5897 4.428418818771016 17.108071867305917 6.356293709011969 -2 -4 2
419 1 1 0.5897 0.06851402114869833 17.11423852249147 7.277581946981908 -5 0 5
299 1 1 0.5897 3.2956213533698224 13.637203799980176 5.641780101705348 -2 2 -1
34 1 2 -1.1794 2.738794293173524 16.757273332438793 14.093529385896067 -6 2 -2
204 1 1 0.5897 3.558598075796696 13.542764462772704 14.28979001439983 -5 -2 1
202 1 2 -1.1794 4.355711715570929 14.071619680317195 14.322933401883736 -5 -2 1
35 1 1 0.5897 1.9338382466804664 16.37717536157939 13.741718974322742 -6 2 -2
203 1 1 0.5897 4.051305168751436 14.971913865872432 14.208981692073607 -5 -2 1
805 1 2 -1.1794 0.08533200485076439 16.273385070533898 13.328073503821825 6 0 -5
36 1 1 0.5897 2.511191351437674 17.01742693380228 14.986122175944077 -6 2 -2
109 1 2 -1.1794 2.308720245510187 11.922375622364118 13.942525271616601 3 -2 -8
248 1 1 0.5897 0.07535324915997564 15.22434518620498 11.871107282580441 -1 -1 -6
443 1 1 0.5897 1.5116053820707902 13.77520833731272 21.327824608943924 4 4 -4
442 1 2 -1.1794 2.1802143516044907 14.460127291207632 21.32053013406943 4 4 -4
748 1 2 -1.1794 2.9045918975614526 16.247954056999344 19.35576569001319 4 10 1
798 1 1 0.5897 3.7239807806269645 12.704445765634047 19.0060733245493 2 1 -3
803 1 1 0.5897 3.5469644611723665 13.226781703823335 21.025936562166752 1 1 -8
749 1 1 0.5897 2.7464220224643388 15.56033561414814 20.002556711479937 4 10 1
425 1 1 0.5897 0.8524928975335663 15.857373159814317 16.81932781060118 7 -4 -1
796 1 2 -1.1794 3.5238254784743153 12.327417796832076 18.149354414219417 2 1 -3
500 1 1 0.5897 1.5406315667135526 17.115436093971294 20.09918315882779 -1 -2 -2
26 1 1 0.5897 0.34482558933872043 11.821135211065627 17.241616685532044 -4 4 5
804 1 1 0.5897 4.303621232219423 11.918552346941391 21.11409974059898 1 1 -8
702 1 1 0.5897 4.498138787173549 13.565654016704396 17.32645159429732 5 -1 -1
750 1 1 0.5897 3.722266829930407 16.65846199181277 19.637010767068084 4 10 1
501 1 1 0.5897 0.051908492827012806 17.00924909617452 19.84574834688269 -1 -2 -2
424 1 2 -1.1794 0.1986882777100616 15.182136261654554 17.0003505678717 7 -4 -1
802 1 2 -1.1794 4.338693501337876 12.787842326534554 20.714991602453768 1 1 -8
27 1 1 0.5897 0.040977610345203024 13.28859852563615 17.456087493045924 -4 4 5
587 1 1 0.5897 2.34924303864465 16.879280398840628 17.540509245345472 -3 -1 4
18 1 1 0.5897 3.111920454761845 19.096580767856313 2.66636761010338 -1 2 1
93 1 1 0.5897 0.021490544897286717 21.798706167414686 3.2040198291171826 -1 -4 -1
92 1 1 0.5897 0.8843670216776366 21.16931118284759 2.1311358945588554 -1 -4 -1
17 1 1 0.5897 3.5723603564157127 18.871644330161242 4.090855238135475 -1 2 1
24 1 1 0.5897 1.2946077458549408 18.847420750316545 0.7741058658451249 -4 2 2
23 1 1 0.5897 2.7520651990522196 19.230884148921696 0.6308127874568168 -4 2 2
22 1 2 -1.1794 1.993605961376798 19.339744025715643 1.2044540118494569 -4 2 2
91 1 2 -1.1794 0.1897161373942217 21.814733234582988 2.261884219229439 -1 -4 -1
16 1 2 -1.1794 3.8735979733785983 19.187271073048997 3.2389039941581577 -1 2 1
360 1 1 0.5897 3.0833441737410783 20.492743408244653 8.198884661833175 0 -3 -2
4 1 2 -1.1794 1.6057404373197361 20.863828150344244 9.465337516192843 -4 0 -1
358 1 2 -1.1794 3.8738934888040064 20.619051428491048 7.674236027148235 0 -3 -2
418 1 2 -1.1794 0.4699196734252007 17.729895853252998 7.8907927015042345 -5 0 5
5 1 1 0.5897 0.9975357648782719 21.536528697700106 9.159159025142346 -4 0 -1
538 1 2 -1.1794 0.21341544987774497 19.490146956701775 5.845298524184072 0 0 1
344 1 1 0.5897 0.3956880302168874 21.33523892075487 5.941896462082839 -6 -2 0
6 1 1 0.5897 1.0455022938839382 20.195092781446686 9.859181886995568 -4 0 -1
126 1 1 0.5897 3.331853403100351 19.354138298923246 6.3582716392535295 0 3 4
371 1 1 0.5897 1.9074841702331202 22.13257243986245 10.609401385748491 5 7 0
539 1 1 0.5897 0.15382242181467995 18.829680997792153 6.535555788372272 0 0 1
125 1 1 0.5897 2.0984907303880753 18.73756944753568 5.73343438916419 0 3 4
124 1 2 -1.1794 3.047574776855777 18.63173936519642 5.798356060030052 0 3 4
343 1 2 -1.1794 0.4376018201316359 22.238598633169396 5.628172292835574 -6 -2 0
303 1 1 0.5897 3.807386269234397 20.637618445452087 16.34717855940874 2 5 4
754 1 2 -1.1794 3.3025783716017827 18.293932447446906 11.885518284154127 -6 -3 -5
440 1 1 0.5897 2.240771417673111 19.87740209072176 12.442172347023414 -2 4 -6
441 1 1 0.5897 1.7753108614900972 21.317812144951905 12.461512372644027 -2 4 -6
439 1 2 -1.1794 1.6872615454621593 20.487551386947597 12.929584367134535 -2 4 -6
268 1 2 -1.1794 2.2534745824438427 21.162336562098254 15.629250970179463 6 7 6
504 1 1 0.5897 0.2750090725795745 19.368214192117883 12.674212717244632 -3 -2 3
269 1 1 0.5897 1.9935336677469118 20.78586096600635 14.788485913040326 6 7 6
270 1 1 0.5897 1.6832354714861466 21.923380498119897 15.737989821602229 6 7 6
756 1 1 0.5897 3.1633492711529905 17.7302553856888 11.12453846092123 -6 -3 -5
479 1 1 0.5897 1.009455833933552 19.991392199720284 16.29475068929815 -2 3 -7
755 1 1 0.5897 3.1408220548115438 17.72521779768297 12.638229092676765 -6 -3 -5
532 1 2 -1.1794 3.87703208585047 19.79166552369202 21.370560873869827 -6 -3 -3
632 1 1 0.5897 4.115162717061334 21.909472372513374 17.71609316705943 2 5 4
462 1 1 0.5897 0.8370043833881169 22.308829457131974 20.65113231056745 2 2 0
149 1 1 0.5897 3.2051722019244524 21.201930178427112 20.763645506508496 -7 0 6
499 1 2 -1.1794 0.691750315625063 17.380734884147675 20.453033555112164 -1 -2 -2
478 1 2 -1.1794 0.33024492706235364 19.46352365500746 16.714521379088584 -2 3 -7
148 1 2 -1.1794 2.588924469996077 21.88917009184906 20.51042766170896 -7 0 6
150 1 1 0.5897 2.825206252586943 22.102684955330012 19.607780992990115 -7 0 6
533 1 1 0.5897 4.259088853195938 19.155243935951823 20.766258990696688 -6 -3 -3
588 1 1 0.5897 1.4934385856063117 17.991205381041805 16.972198354538317 -3 -1 4
586 1 2 -1.1794 1.9977133219209393 17.218556978586143 16.717403474097473 -3 -1 4
434 1 1 0.5897 0.175217008488585 17.30684818278223 21.966071814211396 -2 3 -2
218 1 1 0.5897 5.976923737421585 3.0345582910977535 1.2225796289903033 3 -2 -2
808 1 2 -1.1794 6.49590520067809 4.57185609629035 4.367133673927695 5 -2 -2
436 1 2 -1.1794 4.882660926712796 2.348954515353415 4.164668257707899 -3 2 3
810 1 1 0.5897 5.91554501801203 3.817486327643434 4.468576299645446 5 -2 -2
217 1 2 -1.1794 5.217504341845178 2.533460948437048 1.519863625070639 3 -2 -2
116 1 1 0.5897 8.691879339324393 1.5782702255856196 3.1007735085838695 -3 -8 0
554 1 1 0.5897 7.310018612079441 4.757424963030509 0.8959577287748589 -5 -3 3
353 1 1 0.5897 6.728122566374263 5.288458784386422 2.825210474530973 2 3 -4
553 1 2 -1.1794 7.591327919272905 3.9678626085312794 0.43373451657009615 -5 -3 3
555 1 1 0.5897 8.020897172612456 3.4372532251987473 1.1046729876481924 -5 -3 3
115 1 2 -1.1794 8.888531512451491 2.313584518950923 2.5203777783055226 -3 -8 0
809 1 1 0.5897 6.935554321190617 4.6519438389930965 5.2136016570879065 5 -2 -2
437 1 1 0.5897 4.909527517098225 2.4849018748139984 3.217578967865311 -3 2 3
71 1 1 0.5897 5.808522991792909 6.020619182628403 5.279593092378684 2 -1 -4
352 1 2 -1.1794 6.7503330430621435 5.892864856920733 2.083331368413205 2 3 -4
354 1 1 0.5897 5.848229679463231 5.9141167933400345 1.7639962866933672 2 3 -4
197 1 1 0.5897 8.161446124253155 5.138949415229086 9.40454631466087 -4 4 -1
196 1 2 -1.1794 7.39749238431402 4.596993337304976 9.207483217524867 -4 4 -1
293 1 1 0.5897 4.914701956504988 2.4805879044902284 9.90291426642334 0 -3 0
468 1 1 0.5897 7.650794331485418 4.829974728594644 7.276877785695084 2 -4 5
198 1 1 0.5897 7.665018572821663 3.7093980000323303 9.445769460635429 -4 4 -1
179 1 1 0.5897 8.696542181238337 1.4947729239178396 9.609445917344939 -8 3 -1
466 1 2 -1.1794 8.085632434120576 4.765570565507381 6.42661399339606 2 -4 5
430 1 2 -1.1794 5.382206521479624 1.9218319893142595 8.093062473286091 -7 -4 -1
467 1 1 0.5897 8.590817559647762 3.9540926585779705 6.476288496167229 2 -4 5
431 1 1 0.5897 6.217901720782742 1.6935404638201463 8.500094633952925 -7 -4 -1
178 1 2 -1.1794 7.8405951154804585 1.9230560240008219 9.62134550132138 -8 3 -1
180 1 1 0.5897 7.463451297508885 1.6820159581944987 10.467466634347213 -8 3 -1
638 1 1 0.5897 6.421205974941284 5.971140633025486 10.332979569377654 -6 -3 9
254 1 1 0.5897 4.861810851463587 3.527008659836534 7.008333872568205 0 7 -5
858 1 1 0.5897 9.078317056575974 2.0204897209660917 5.999692085830834 1 2 -6
637 1 2 -1.1794 5.965022564161297 6.331808428864201 11.093242195299876 -6 -3 9
309 1 1 0.5897 5.069475047444747 3.84144290832063 14.06068585208296 1 4 0
747 1 1 0.5897 8.344644795822132 5.384384457088185 15.137676393697264 -3 1 -7
746 1 1 0.5897 8.321166930520803 3.899936343205972 15.433779022820652 -3 1 -7
413 1 1 0.5897 6.098592192764515 4.735848501430217 12.115961964952318 0 -4 1
414 1 1 0.5897 7.30489818059338 3.9208563947728785 12.531227800944851 0 -4 1
696 1 1 0.5897 5.142603487677338 1.7218125483745936 14.490075001224108 4 -1 -2
745 1 2 -1.1794 8.698127348039758 4.547011583906633 14.837595902803681 -3 1 -7
572 1 1 0.5897 6.685249024282628 2.214922773370864 15.78810422184746 5 -1 -5
412 1 2 -1.1794 6.348241543499623 3.926847667446952 12.562506529696854 0 -4 1
571 1 2 -1.1794 7.307061173395933 2.5604674962072895 16.428544939394005 5 -1 -5
573 1 1 0.5897 8.005337492915924 1.9066545668425579 16.4620126210454 5 -1 -5
294 1 1 0.5897 5.064671945578069 3.0521677869292043 11.296689713801523 0 -3 0
383 1 1 0.5897 5.459946075764165 4.654416500425096 19.215409512355944 -8 -2 -2
384 1 1 0.5897 5.052753949476148 5.648756175421231 18.148941676117566 -8 -2 -2
725 1 1 0.5897 6.329904428763782 2.6424614149245844 18.019753918527055 2 -1 1
382 1 2 -1.1794 5.286577429787061 5.585226872616362 19.07496394947429 -8 -2 -2
225 1 1 0.5897 8.942208024514906 4.866754987072374 21.32718723179407 2 2 -8
726 1 1 0.5897 6.351983621028304 2.2895113286130915 19.491733069436787 2 -1 1
724 1 2 -1.1794 5.804733446653159 2.6935765425529974 18.818364121977822 2 -1 1
530 1 1 0.5897 5.498826763819256 10.959956352942248 2.9221012878788253 -5 0 -3
46 1 2 -1.1794 8.446165485164064 8.303516626750792 5.044432215795955 5 -3 -2
482 1 1 0.5897 7.326230231794829 8.650110567647046 0.9206323329252675 -2 3 -3
483 1 1 0.5897 7.007064923064172 7.771283063275111 2.111249988220496 -2 3 -3
481 1 2 -1.1794 7.269913594795376 8.66114128967184 1.8760864514143587 -2 3 -3
612 1 1 0.5897 5.984079610786755 11.545634690862373 5.099540717766763 3 9 2
531 1 1 0.5897 6.743900862351306 10.103512284103573 3.01224488152845 -5 0 -3
529 1 2 -1.1794 6.287988997063742 10.824424133633043 3.446556238490496 -5 0 -3
72 1 1 0.5897 6.479449689219243 7.317351263627274 4.8794207150709115 2 -1 -4
70 1 2 -1.1794 5.893461850435856 6.939174927044035 5.534998079141623 2 -1 -4
47 1 1 0.5897 8.295625286210756 9.111033334189457 5.535818338684515 5 -3 -2
242 1 1 0.5897 6.294414087697146 8.508259157892772 8.524658199728009 1 -2 -1
834 1 1 0.5897 7.25958352488737 11.042648239012914 6.503376606438924 1 -2 1
590 1 1 0.5897 4.731547378333729 8.424164822509425 10.22885292313809 0 4 1
833 1 1 0.5897 7.737779568725189 9.82998850130957 7.2731427207419115 1 -2 1
393 1 1 0.5897 8.45953557862928 9.469268775247604 10.55947635020538 8 -2 2
243 1 1 0.5897 6.628107205437737 7.815701927432262 7.220494184787905 1 -2 -1
832 1 2 -1.1794 8.048756971876989 10.545711436187831 6.718877936028313 1 -2 1
241 1 2 -1.1794 6.970282003188263 8.45115514843899 7.849266287986674 1 -2 -1
811 1 2 -1.1794 5.725041661999068 11.460408270500805 10.696258051362767 -4 7 -4
48 1 1 0.5897 9.030926138752198 7.789328663847358 5.601074785432661 5 -3 -2
639 1 1 0.5897 6.32263606163877 7.214235302326773 11.191349877861246 -6 -3 9
88 1 2 -1.1794 4.958349386804681 8.992911921002202 15.438836558132982 4 0 3
188 1 1 0.5897 6.2573596388707635 6.959942080743077 15.112275934452285 -3 7 3
8 1 1 0.5897 6.918873353661813 8.979408031534039 12.395701520848078 1 1 -3
523 1 2 -1.1794 7.2087304646965675 11.61473659649485 15.34075858023672 5 -1 1
524 1 1 0.5897 7.5799451589708475 10.838452756002036 14.921522183163235 5 -1 1
453 1 1 0.5897 7.600788487971803 8.608443621014963 14.10243726407107 -3 -1 4
451 1 2 -1.1794 8.051583878610474 9.291548099760147 13.60612293125099 -3 -1 4
187 1 2 -1.1794 7.208912437729437 7.0343415345718 15.184330546594323 -3 7 3
7 1 2 -1.1794 6.408940639173901 8.920625599377805 11.587803501479968 1 1 -3
452 1 1 0.5897 8.96483739977253 9.006135041330857 13.579973169618269 -3 -1 4
189 1 1 0.5897 7.35144458091139 7.501463110808192 16.00753476272595 -3 7 3
90 1 1 0.5897 5.216292932199049 9.626386774570214 16.10844303480097 4 0 3
9 1 1 0.5897 6.139624618525395 9.821358702610121 11.40793862138831 1 1 -3
80 1 1 0.5897 7.470396338154119 9.3874326671728 21.393834490442803 1 3 -6
778 1 2 -1.1794 7.7692863686380385 7.114536638357756 19.367595655387156 -1 1 -4
260 1 1 0.5897 8.877626448133057 10.139021711279765 18.25981549253476 0 -2 4
274 1 2 -1.1794 8.22885625893062 8.569717728614862 17.23015207825487 0 2 -7
658 1 2 -1.1794 5.766093774091178 10.481351409133792 17.57217636554309 1 -2 1
276 1 1 0.5897 7.9729802667005645 8.144202213638408 18.04846808541853 0 2 -7
79 1 2 -1.1794 6.857327564967194 8.65549483348896 21.461624059055758 1 3 -6
831 1 1 0.5897 5.132183764597531 9.596297911433966 21.663712058060987 6 1 2
81 1 1 0.5897 7.132162008277429 8.04788062979473 20.775003303344192 1 3 -6
659 1 1 0.5897 6.337582866676795 9.78819897575866 17.9025858293808 1 -2 1
820 1 2 -1.1794 9.014665448533025 10.619280284561423 21.589829225893762 3 3 3
780 1 1 0.5897 8.377181604759935 6.557558088942867 19.85381932870812 -1 1 -4
779 1 1 0.5897 6.978203540049867 6.583504730972887 19.275919135415542 -1 1 -4
660 1 1 0.5897 6.33080939812595 11.009211433557635 17.0076773520156 1 -2 1
261 1 1 0.5897 8.54106128438919 11.543344910165505 18.714085721717026 0 -2 4
259 1 2 -1.1794 9.038023401099476 10.765020470762824 18.96591511114048 0 -2 4
275 1 1 0.5897 9.078821550740116 8.185488706874578 17.0154244404784 0 2 -7
822 1 1 0.5897 8.862940142430274 10.655350462976964 20.64543825581932 3 3 3
686 1 1 0.5897 7.751904557721948 15.33893280547935 3.3165921760577595 7 -9 -5
862 1 2 -1.1794 7.60499550843217 13.002165519059687 2.7579993334826707 1 2 4
685 1 2 -1.1794 8.310833318597696 15.790170682614745 3.949173205337829 7 -9 -5
864 1 1 0.5897 8.526828125078891 12.821619192918162 2.941877110356541 1 2 4
403 1 2 -1.1794 5.093185730430765 14.896878927838783 3.379432420751703 7 -4 2
285 1 1 0.5897 8.076576923923371 13.086010356403111 1.0332472827905705 3 -3 -2
230 1 1 0.5897 5.25778500161661 16.41834761668956 2.47173513001328 -1 3 6
404 1 1 0.5897 5.602781736364317 14.117357324798137 3.1584054293141457 7 -4 2
687 1 1 0.5897 7.842272841135445 15.714372374766672 4.780367877826578 7 -9 -5
405 1 1 0.5897 4.775044812561356 14.73190731050163 4.2669851985957665 7 -4 2
863 1 1 0.5897 7.1478170557128005 12.201250509334306 3.014323127283814 1 2 4
618 1 1 0.5897 6.501228686238854 17.14206071935158 0.5538129139296724 -4 4 1
229 1 2 -1.1794 5.2765854571373545 17.098695563267746 1.798716340032334 -1 3 6
283 1 2 -1.1794 8.3150431418517 13.171848486515767 0.11023361562960177 3 -3 -2
317 1 1 0.5897 6.750524027586227 14.086929817061455 8.931238886166327 -5 -5 2
212 1 1 0.5897 7.444997688417241 15.044689281593232 7.162762205562244 6 2 1
213 1 1 0.5897 6.143694800933836 15.38820711011105 6.469575953519719 6 2 1
335 1 1 0.5897 9.076786719737044 15.331507727641748 8.226586853364788 -1 1 5
464 1 1 0.5897 6.58491796555794 16.690875945178387 9.647989285645863 4 4 -2
318 1 1 0.5897 7.884227286866395 14.0897056285803 9.934465633447285 -5 -5 3
316 1 2 -1.1794 7.601002428897207 14.487508768789628 9.111232761714879 -5 -5 3
706 1 2 -1.1794 4.993043134321275 13.00178255754593 8.521615686900489 0 -4 -8
707 1 1 0.5897 5.143110097708343 12.520411866960881 7.708010003689769 0 -4 -8
611 1 1 0.5897 6.3716842748754035 12.784675930401367 5.878189272501911 3 9 2
211 1 2 -1.1794 6.965764615885394 14.914072716997268 6.344534013913076 6 2 1
812 1 1 0.5897 5.412500313159024 11.971371895029716 9.949613956439753 -4 7 -4
465 1 1 0.5897 5.624240002134272 17.084912407619036 8.546360884267884 4 4 -2
526 1 2 -1.1794 5.239457816037093 17.029266759323306 6.858529470474708 -2 -4 2
610 1 2 -1.1794 5.882497388679713 11.965427292373844 5.95372527907075 3 9 2
463 1 2 -1.1794 5.768240555021037 17.16422553893609 9.489321195560454 4 4 -2
525 1 1 0.5897 7.8757809376465575 12.291547747389034 15.226083392515996 5 -1 1
646 1 2 -1.1794 6.254108625203479 12.823953490342998 12.933119942043497 -2 2 1
648 1 1 0.5897 6.632144306014467 12.43093515125277 13.71976243931675 -2 2 1
315 1 1 0.5897 7.60072323587974 13.332923863212313 12.135821144715633 1 -1 0
647 1 1 0.5897 5.573759054945563 13.41164161467847 13.261689417335178 -2 2 1
76 1 2 -1.1794 8.258595586085729 16.34760642602011 11.494940776654147 -7 -3 -6
78 1 1 0.5897 7.414608702207733 16.682433367724045 11.797887330793252 -7 -3 -6
314 1 1 0.5897 8.255286581574524 14.675180765752163 11.887293632637336 1 -1 0
77 1 1 0.5897 8.882263585482955 16.627395292743152 12.164971369073296 -7 -3 -6
701 1 1 0.5897 4.952150606351463 14.233570024015087 16.046015502498584 5 -1 -1
313 1 2 -1.1794 8.376960788512559 13.736134928782667 11.747143658466229 1 -1 0
813 1 1 0.5897 5.673051274252578 12.063067743992612 11.438110428340604 -4 7 -4
667 1 2 -1.1794 6.618790816870202 14.462348421154186 20.67572174483124 -7 -6 -2
146 1 1 0.5897 7.177643307429206 13.65655740491738 18.973900242049144 -2 3 -6
801 1 1 0.5897 6.9873077345031005 16.63842935279606 17.370375789236608 0 3 -3
799 1 2 -1.1794 6.057050658156581 16.846593632520786 17.283874345964385 0 3 -3
448 1 2 -1.1794 8.510081879752708 15.71935266621167 17.72033989625414 4 -1 -8
284 1 1 0.5897 8.785893399139164 12.363444134717058 22.108093870279706 3 -3 -3
450 1 1 0.5897 8.01815389182822 14.903250028632618 17.629960477730787 4 -1 -8