LAMMPS data file via write_data, version 30 Jul 2021, timestep = 3500000

972 atoms
2 atom types
648 bonds
1 bond types
324 angles
1 angle types

-0.08944284790961277 20.089443847906743 xlo xhi
-0.17521235744180608 20.17521335744794 ylo yhi
0.017607668103831742 20.68239033189241 zlo zhi

Masses

1 1.008
2 15.999

Pair Coeffs # lj/cut/tip4p/long/omp

1 0 0
2 0.21084 3.1668

Bond Coeffs # harmonic/omp

1 450 0.9572

Angle Coeffs # harmonic/omp

1 55 104.52

Atoms # full

5 2 1 0.5897 4.165973996738053 0.13850604388150156 3.054669520339652 0 0 0
10 4 2 -1.1794 1.117572085449716 3.9994364071912036 4.108874200774946 0 0 0
31 11 2 -1.1794 0.8624599246740223 1.9849046318343202 2.1439568544140495 0 0 0
33 11 1 0.5897 1.538497343898713 2.2008965466573907 1.5016310942978133 0 0 0
273 91 1 0.5897 7.354013989400265 -0.00189133974382516 2.1988835314809583 0 1 0
12 4 1 0.5897 2.061303150849142 4.093342460069656 4.238723612710109 0 0 0
11 4 1 0.5897 1.0213349766171445 3.171846357580723 3.6375330871305347 0 0 0
3 1 1 0.5897 3.426021681523524 2.6258919855038916 0.16505467660269638 0 0 0
18 6 1 0.5897 4.256318215248894 2.96054726546521 3.2554027241478174 0 0 0
4 2 2 -1.1794 4.186470327348001 0.9047248403130217 3.6280821825797656 0 0 0
16 6 2 -1.1794 4.120028801428752 3.8682122534029384 3.5271793525951987 0 0 0
6 2 1 0.5897 4.843497337890218 0.6910919694240989 4.290608987012732 0 0 0
23 8 1 0.5897 2.6556873535017034 0.8675226914670469 4.618198713095957 0 0 0
34 12 2 -1.1794 5.2333055651795135 2.4788146672231375 0.6278249479818837 0 0 0
48 16 1 0.5897 7.031273401838801 3.950057962734072 4.691091607997649 0 0 0
53 18 1 0.5897 9.462304346279149 4.263902398311498 3.5183782373830925 0 0 0
17 6 1 0.5897 4.254530155561232 4.380391820671627 2.729828146816642 0 0 0
46 16 2 -1.1794 7.728986490899137 4.044544154207277 4.042603269990278 0 0 0
47 16 1 0.5897 7.665893704033017 3.254721019231071 3.505461498126954 0 0 0
67 23 2 -1.1794 7.680994498536953 1.8536877539090781 2.288243905839264 0 0 0
68 23 1 0.5897 8.240904766764432 2.105208007162009 1.5537416451062693 0 0 0
69 23 1 0.5897 6.791468654935778 2.036811330057016 1.9857027166818846 0 0 0
32 11 1 0.5897 0.03923614453457261 2.2125450578953916 1.7117877229202316 0 0 0
37 13 2 -1.1794 9.176851269370355 2.6350774678917888 0.1980481515746824 0 0 0
29 10 1 0.5897 6.921662127904139 0.31280680910149244 5.06804185258906 0 0 0
102 34 1 0.5897 0.21822446514710792 0.8513879079106723 4.646790959851158 1 0 0
9 3 1 0.5897 4.968631874298841 4.364311701585423 5.006824780054763 0 0 0
58 20 2 -1.1794 8.752579773230186 0.7946207581438582 5.101344367972122 0 0 0
236 79 1 0.5897 0.7446975823231038 0.1740321320818622 2.012200554238216 0 1 0
35 12 1 0.5897 5.5269921591069675 1.6617383664510745 0.2247517453521688 0 0 0
325 109 2 -1.1794 2.921014953716477 2.7969757543820513 7.044630926898792 0 0 0
326 109 1 0.5897 2.6240236412322653 2.195958990343745 6.361361927391094 0 0 0
327 109 1 0.5897 3.864003808915337 2.6440362074041603 7.105495226165397 0 0 0
335 112 1 0.5897 1.0798086282805497 2.9646089994024307 9.906311246120486 0 0 0
355 119 2 -1.1794 1.1726924509790861 1.4935357942398266 8.779035154066515 0 0 0
361 121 2 -1.1794 9.501318824293701 2.734925371767556 6.940931803651612 0 0 0
356 119 1 0.5897 1.8563172634187994 1.8740032083111826 8.227492419052362 0 0 0
7 3 2 -1.1794 5.620180364858803 4.571693041487096 5.6766880685773655 0 0 0
359 120 1 0.5897 6.168461895015037 2.1900049664506804 7.7672259318548065 0 0 0
358 120 2 -1.1794 5.534283880319528 2.1894301131896157 7.050235168073643 0 0 0
24 8 1 0.5897 2.196544450705469 -0.009357589874754269 5.7636672951523185 0 0 0
330 110 1 0.5897 4.075138430549601 0.4121490856108422 9.698020932426402 0 0 0
360 120 1 0.5897 5.7552737974744925 1.4134982116111978 6.535047153401204 0 0 0
27 9 1 0.5897 2.243473111942727 4.604311386276044 6.392239920236173 0 0 0
8 3 1 0.5897 5.566474669208005 3.8445666181979723 6.296925342898973 0 0 0
391 131 2 -1.1794 7.619985739187778 2.0279003401375784 8.736114862692698 0 0 0
392 131 1 0.5897 8.293791795985605 2.4166421999224794 8.178316087136686 0 0 0
393 131 1 0.5897 7.531899135768896 1.13008629344291 8.415934795924892 0 0 0
362 121 1 0.5897 9.43895506034862 3.675375228751378 6.773499893572379 0 0 0
60 20 1 0.5897 8.997419403527363 -0.007801430383034297 5.562304175531594 0 0 0
342 114 1 0.5897 3.9516301565055745 4.395124047323323 10.056900937653422 0 0 0
59 20 1 0.5897 8.895228193447052 1.4921124792182177 5.741221065326698 0 0 0
328 110 2 -1.1794 3.8058686382118165 1.1022255394654135 10.304313586933816 0 0 0
357 119 1 0.5897 0.3629351439738802 1.632528604087509 8.287856878315052 0 0 0
371 124 1 0.5897 8.133936043735101 2.9358401982708497 10.261072573504057 0 0 0
22 8 2 -1.1794 2.0808957352954143 0.8615178356222244 5.383547254326986 0 0 0
28 10 2 -1.1794 6.044543581596056 0.05449771871774978 5.351301823147553 0 0 0
334 112 2 -1.1794 1.0604333707312215 3.8216886317765115 10.332129417403188 0 0 0
341 114 1 0.5897 3.922503357929547 2.90701358646337 10.334090181655412 0 0 0
649 217 2 -1.1794 2.5135265698352884 2.71918216833185 14.096181736563823 0 0 0
650 217 1 0.5897 2.1675341004462063 2.182782060924233 13.382878026688697 0 0 0
350 117 1 0.5897 2.278401982111256 4.625241027733928 13.724837883246122 0 0 0
346 116 2 -1.1794 1.620307480667087 1.0099826711853406 12.044750817309392 0 0 0
651 217 1 0.5897 1.9439136608178695 2.524886218188412 14.840512078191567 0 0 0
332 111 1 0.5897 5.052834224730873 4.105130071131226 11.768491284466224 0 0 0
329 110 1 0.5897 4.366140440819139 0.9802541797831874 11.070765802482994 0 0 0
354 118 1 0.5897 5.638606211079305 1.273175219275453 13.067397655022544 0 0 0
684 228 1 0.5897 5.611525778401706 3.194391280066109 13.590881941007412 0 0 0
340 114 2 -1.1794 3.7591770833400266 3.7566815979483237 10.743622051485008 0 0 0
683 228 1 0.5897 4.4809493693807205 2.4956280035272798 14.315808133118843 0 0 0
331 111 2 -1.1794 5.899358082242021 4.236304569021125 12.195659937883212 0 0 0
352 118 2 -1.1794 5.596936153915851 0.7431565849369502 12.271415649750885 0 0 0
347 116 1 0.5897 0.6961387375687595 1.1429080535180949 11.83362908517495 0 0 0
686 229 1 0.5897 8.804176869709313 2.2660754438334294 14.411746264096745 0 0 0
405 135 1 0.5897 0.08677563805465446 4.501493521847249 11.855809853477353 1 0 0
372 124 1 0.5897 7.492967047417365 3.830601796105997 11.300588234011414 0 0 0
353 118 1 0.5897 6.470196675872429 0.8188794827220106 11.886719115525867 0 0 0
348 116 1 0.5897 2.0774384461185487 1.139968139436168 11.213871181022059 0 0 0
384 128 1 0.5897 9.084472768603716 0.5987252778036586 11.010320841084281 0 0 0
685 229 2 -1.1794 9.14616473391937 2.6897680954064027 13.62449185130354 0 0 0
383 128 1 0.5897 8.540211147193965 1.4129705703642 12.164763307119697 0 0 0
682 228 2 -1.1794 5.435891964293279 2.5438299965631366 14.270735545135834 0 0 0
382 128 2 -1.1794 8.289217669242678 0.7504893040794435 11.52102076059327 0 0 0
717 239 1 0.5897 7.034684002781914 2.4086036666966155 15.22396640620862 0 0 0
336 112 1 0.5897 1.9651135892027205 3.9745492504667554 10.605097715214104 0 0 0
386 129 1 0.5897 8.826672426645704 4.510513718852466 13.507919716477316 0 0 0
370 124 2 -1.1794 8.240331629725874 3.77730018785873 10.70487285873568 0 0 0
665 222 1 0.5897 2.9064924742301574 3.957847094719143 17.293715984976426 0 0 0
653 218 1 0.5897 3.447221539262701 0.9467040949207985 17.581915835422393 0 0 0
664 222 2 -1.1794 3.851158778504871 3.908600591817363 17.147035550492724 0 0 0
716 239 1 0.5897 7.206655264559347 1.0960845009655535 15.958696875116754 0 0 0
671 224 1 0.5897 2.101328646452155 1.8216997129410384 19.246045339677558 0 0 0
670 224 2 -1.1794 1.9070216451039894 1.02139633074754 18.758104441662557 0 0 0
666 222 1 0.5897 4.022245807096358 2.979212775940026 16.994581847829448 0 0 0
655 219 2 -1.1794 5.54372335777898 4.521272891056235 19.270498626300974 0 0 0
652 218 2 -1.1794 4.374622716139893 1.0570585117329019 17.37198822249931 0 0 0
657 219 1 0.5897 6.4539596526849365 4.3072159137866945 19.065598602268647 0 0 0
706 236 2 -1.1794 8.731803268434408 0.6445020151689672 19.085934856914836 0 0 0
884 295 1 0.5897 0.8669337567842231 0.15586162112543772 15.95728445541754 0 1 0
681 227 1 0.5897 0.6449688887608577 2.7084635132387676 16.160512106642553 0 0 0
672 224 1 0.5897 0.9671640501354923 0.887580529765488 18.88097824234318 0 0 0
677 226 1 0.5897 5.396164785052082 0.7349127604563587 18.753995829935768 0 0 0
38 13 1 0.5897 9.118190402518783 1.826153543824896 20.354371369329215 0 0 -1
708 236 1 0.5897 7.784492902291516 0.7394489996709908 18.9863443557908 0 0 0
659 220 1 0.5897 0.34260528964823883 4.131093667769694 17.75345184131374 0 0 0
676 226 2 -1.1794 5.984729587162207 0.5569707821661595 19.48758707006147 0 0 0
654 218 1 0.5897 4.560555781172512 0.3662793197200075 16.735949361929354 0 0 0
715 239 2 -1.1794 7.654074310000309 1.9201720598439103 15.766254388759013 0 0 0
2 1 1 0.5897 2.4215679608235825 3.7353423507435597 20.60107359414833 0 0 -1
658 220 2 -1.1794 1.1022069002074493 4.154789509540502 17.171456974026068 0 0 0
694 232 2 -1.1794 7.833113426216898 3.9585379296109586 17.783474281530278 0 0 0
695 232 1 0.5897 7.869958575879126 3.126500910393379 17.311603461968893 0 0 0
656 219 1 0.5897 5.042998986309055 4.1703980479286695 18.5340072500285 0 0 0
710 237 1 0.5897 9.227142669057834 4.2133788942643156 20.207618921596126 0 0 0
702 234 1 0.5897 9.777403177884851 3.856962011061648 17.789472533757976 0 0 0
679 227 2 -1.1794 0.24816125225443852 1.987015774594869 15.672269954283367 0 0 0
696 232 1 0.5897 7.650321765036953 4.610420078028915 17.106783716410316 0 0 0
707 236 1 0.5897 8.839045008185964 -0.13852000503249684 19.62597335412087 0 0 0
36 12 1 0.5897 5.368807228793201 3.142447618687863 20.61621497390977 0 0 -1
1 1 2 -1.1794 2.5193127883004576 2.783716358339516 20.56659512569468 0 0 -1
14 5 1 0.5897 3.9450235662628392 5.677036301764493 0.9865952903149714 0 0 0
109 37 2 -1.1794 2.209990075031748 9.507364322490979 0.3237432784677981 0 0 0
113 38 1 0.5897 4.523448522731012 7.886867013374847 3.882198038463862 0 0 0
674 225 1 0.5897 1.9692849479135695 5.568624047971875 1.0867045983822348 0 0 1
139 47 2 -1.1794 0.30758652257356084 8.945651229810649 2.2553550444118797 0 0 0
55 19 2 -1.1794 7.526627498857813 5.803305289586 1.6455745282952752 0 0 0
13 5 2 -1.1794 4.611073718969404 5.758349529361851 1.669244966734874 0 0 0
175 59 2 -1.1794 7.596000098122562 8.826006192624119 1.868113205815923 0 0 0
20 7 1 0.5897 0.7394825463086575 5.284100230164026 2.7897632001292942 0 0 0
112 38 2 -1.1794 3.828209096240734 8.038546649502667 3.2419601388625217 0 0 0
711 237 1 0.5897 8.60462563495949 5.44185742307995 0.17169467894810203 0 0 1
114 38 1 0.5897 3.0233907399812288 7.794664733449068 3.699229331866925 0 0 0
176 59 1 0.5897 7.549678716941501 7.874130348762948 1.777864406793691 0 0 0
166 56 2 -1.1794 8.503505062201153 7.691829865852307 4.834508020746656 0 0 0
673 225 2 -1.1794 2.414207178897959 5.333777531208257 0.2723904897447298 0 0 1
177 59 1 0.5897 8.239427702749602 9.098124684976417 1.213726030522263 0 0 0
15 5 1 0.5897 4.300453629525962 6.474326358793364 2.2234926377004833 0 0 0
110 37 1 0.5897 1.7275683502291126 9.289242169044586 1.1211663413178679 0 0 0
143 48 1 0.5897 5.600822894984693 8.948645548422167 1.1941268593014311 0 0 0
19 7 2 -1.1794 0.6447721216371292 6.099092153421502 2.2966815869415442 0 0 0
56 19 1 0.5897 6.6856364034655815 5.591420110994294 1.2404192069784694 0 0 0
141 47 1 0.5897 0.7179023493750557 8.175610915242391 2.64904665018168 0 0 0
140 47 1 0.5897 0.40947579072775714 9.634305282460629 2.9123586117928064 0 0 0
142 48 2 -1.1794 5.013119595274999 9.127124252392717 0.45996410397235465 0 0 0
57 19 1 0.5897 7.513704320318585 5.338646890518684 2.4823032432915486 0 0 0
136 46 2 -1.1794 5.71959496309141 7.4824451385821655 4.94134016604217 0 0 0
149 50 1 0.5897 9.76591519216398 8.17811164252483 3.565716635580227 0 0 0
132 44 1 0.5897 0.568635496029509 7.299688217836604 4.677366453419041 0 0 0
111 37 1 0.5897 3.131062485015767 9.461325706459714 0.5802759336671592 0 0 0
138 46 1 0.5897 6.644706341977599 7.686941305265456 4.8046386546656805 0 0 0
130 44 2 -1.1794 1.5092664138963368 7.461629984265918 4.750279250356937 0 0 0
137 46 1 0.5897 5.710321405965455 6.552437599988618 5.167989739506061 0 0 0
62 21 1 0.5897 8.706416684495405 5.498406325967803 7.213538896284776 0 0 0
25 9 2 -1.1794 2.1479860510595468 5.550555164674181 6.5012518876659495 0 0 0
339 113 1 0.5897 3.8812242455979225 5.50045254100374 7.874483354738738 0 0 0
338 113 1 0.5897 5.259950644453201 5.63040965103577 8.48628487331888 0 0 0
344 115 1 0.5897 0.6779787639959263 5.029198783359776 9.173514589559577 0 0 0
168 56 1 0.5897 8.673238707290293 8.335176612843371 5.5226553924435 0 0 0
433 145 2 -1.1794 2.30988700492536 9.195622015268713 7.215477423615507 0 0 0
500 167 1 0.5897 7.261800576177403 9.044262775990237 9.802832513251541 0 0 0
463 155 2 -1.1794 0.5654317178394958 8.45086761835872 9.18064003540151 0 0 0
345 115 1 0.5897 0.4438315390110037 6.524528590753923 9.136696256481251 0 0 0
435 145 1 0.5897 1.8162261804982018 8.876106578744247 6.46018960524176 0 0 0
464 155 1 0.5897 1.1888134340625287 8.660133820638595 8.485043073220924 0 0 0
468 156 1 0.5897 4.085294826840117 8.865351500957027 6.951107081172395 0 0 0
343 115 2 -1.1794 0.20157852165623774 5.709319494221502 8.697303261403592 0 0 0
337 113 2 -1.1794 4.332682007194914 5.56867534766484 8.715762066581258 0 0 0
26 9 1 0.5897 1.4447040634072315 5.648416666289201 7.143194189412301 0 0 0
466 156 2 -1.1794 5.034232943873449 8.84209243971914 7.074655590147909 0 0 0
61 21 2 -1.1794 9.194169153656443 5.467108354707151 6.390538857522295 0 0 0
437 146 1 0.5897 3.8917061434316205 7.182993641814151 9.562518451551203 0 0 0
499 167 2 -1.1794 7.225099407181972 8.369205835130366 9.125197683739929 0 0 0
470 157 1 0.5897 8.250141908220703 9.019763992384089 7.582560636783059 0 0 0
467 156 1 0.5897 5.348079280755308 8.230793319127729 6.408323735210619 0 0 0
501 167 1 0.5897 6.4559772320881486 8.595648118771267 8.60227960179312 0 0 0
380 127 1 0.5897 7.484154624455996 6.4580155805684685 8.876328852306024 0 0 0
381 127 1 0.5897 7.572592049073322 5.032548927274611 9.378706280377804 0 0 0
379 127 2 -1.1794 7.333964673763587 5.550857117105545 8.610175684120456 0 0 0
471 157 1 0.5897 9.630042905306608 9.521301960068936 7.213299191331486 0 0 0
469 157 2 -1.1794 8.738095318758553 9.441322995326281 6.875170541032161 0 0 0
167 56 1 0.5897 8.7399556521309 6.851697515302682 5.227692084829601 0 0 0
131 44 1 0.5897 1.8327956763716298 6.75143726055954 5.304538167246822 0 0 0
436 146 2 -1.1794 3.799467215243152 7.760277969391344 10.320459053002626 0 0 0
443 148 1 0.5897 0.8725398239276089 9.951171550224043 10.099528479681616 0 0 0
438 146 1 0.5897 3.8165282470541917 8.64392429615935 9.952729308995453 0 0 0
705 235 1 0.5897 7.598574069562714 5.519878160558929 15.171072829272378 0 0 0
668 223 1 0.5897 0.9347936783868827 6.142464577573105 14.655346794265228 0 0 0
351 117 1 0.5897 3.1040183631851708 5.884577444146565 13.881745571277124 0 0 0
333 111 1 0.5897 6.003221038042161 5.18707205688101 12.235759366446521 0 0 0
387 129 1 0.5897 8.698571901817058 5.966955932782432 13.11503774078652 0 0 0
456 152 1 0.5897 1.847217424141871 6.713088780749799 12.379988730381205 0 0 0
759 253 1 0.5897 2.088329508541116 8.588584103853947 13.293938965574274 0 0 0
791 264 1 0.5897 6.11788927861756 8.95186239914309 14.582818214377681 0 0 0
454 152 2 -1.1794 1.488797269884252 7.421001121400481 11.844550302530148 0 0 0
455 152 1 0.5897 2.1311133567940868 7.541682045606928 11.145173164159157 0 0 0
349 117 2 -1.1794 2.2703896296846637 5.563943741163153 13.537413394960998 0 0 0
491 164 1 0.5897 8.863351055823186 7.486102432947214 11.176396122931639 0 0 0
462 154 1 0.5897 5.016216153755038 7.169715392229301 11.613839140165648 0 0 0
792 264 1 0.5897 4.626149978780734 8.95573187369227 14.324413880637003 0 0 0
794 265 1 0.5897 8.73618928608439 8.573651937384042 13.212016028060065 0 0 0
461 154 1 0.5897 5.520637500735861 7.451964918641088 13.013036731078875 0 0 0
492 164 1 0.5897 7.447100353468341 7.234685323126977 11.648734383084058 0 0 0
790 264 2 -1.1794 5.468036276884258 9.126279895402327 13.902008508323908 0 0 0
789 263 1 0.5897 1.4099738965612125 8.835081354935959 15.33109674124853 0 0 0
490 164 2 -1.1794 8.35625205612867 7.234752177113593 11.948337213661153 0 0 0
460 154 2 -1.1794 5.643806637745733 6.863219146004473 12.268409087864741 0 0 0
757 253 2 -1.1794 2.566089157693755 8.957393306706326 14.036867992003419 0 0 0
793 265 2 -1.1794 9.207210837638677 8.894480272033688 13.981052001247132 0 0 0
385 129 2 -1.1794 8.877971313774665 5.397799203374518 13.863424716585595 0 0 0
667 223 2 -1.1794 0.492925216483469 6.216344921857444 15.501222038672392 0 0 0
824 275 1 0.5897 7.927909080155377 8.794511199097858 15.187030177103042 0 0 0
661 221 2 -1.1794 4.423743383258176 5.897577937940381 15.248402706182622 0 0 0
758 253 1 0.5897 2.430389199687244 9.902216185398068 13.96441357380776 0 0 0
795 265 1 0.5897 9.180450832597316 9.8478062506065 13.898547186295556 0 0 0
761 254 1 0.5897 4.229637606962382 8.874486545448152 17.134295679870718 0 0 0
858 286 1 0.5897 0.3433093943264744 7.347619774683043 18.546115985794714 1 0 0
815 272 1 0.5897 8.799989397251847 6.342372292924265 18.902929006504845 0 0 0
663 221 1 0.5897 4.206383944610569 6.675103392215102 15.76273016582441 0 0 0
816 272 1 0.5897 8.690578519620699 7.846896904861859 19.0317917704174 0 0 0
787 263 2 -1.1794 0.7751754851960025 8.796119615734568 16.046474186858262 0 0 0
780 260 1 0.5897 2.826323312838177 7.553468274749453 18.317082427234464 0 0 0
778 260 2 -1.1794 2.292813982158107 7.4378381934760265 19.103359550600576 0 0 0
779 260 1 0.5897 2.276099205021582 8.303579250886502 19.511466779261195 0 0 0
704 235 1 0.5897 6.1802710802915755 5.82609240952802 15.603250668711826 0 0 0
760 254 2 -1.1794 4.096356343209116 7.927543464884144 17.090674427501078 0 0 0
675 225 1 0.5897 2.1930967616689627 6.040452849452272 20.330536449330122 0 0 0
825 275 1 0.5897 7.347813883402729 7.747963804323163 16.11453498347172 0 0 0
762 254 1 0.5897 4.716606692487518 7.568401215726694 17.725098841869997 0 0 0
823 275 2 -1.1794 7.208740123402643 8.641270141359593 15.799881058504829 0 0 0
814 272 2 -1.1794 8.607780229933923 7.133295961377882 18.39920799102779 0 0 0
785 262 1 0.5897 5.538707075859876 6.414261691898194 19.33743091718182 0 0 0
784 262 2 -1.1794 5.852652388010587 7.292390036982115 19.121337972523264 0 0 0
786 262 1 0.5897 6.731531021805158 7.152969458659812 18.768563177010112 0 0 0
703 235 2 -1.1794 7.0717148946728825 5.73651333125245 15.940313415840071 0 0 0
788 263 1 0.5897 1.0036993260221514 9.534929068021524 16.610546735251692 0 0 0
144 48 1 0.5897 5.3550039288528 8.592369594511991 20.408231130591258 0 0 -1
709 237 2 -1.1794 9.225972026615034 5.169525870653052 20.161180091944473 0 0 0
145 49 2 -1.1794 9.22430287354236 9.307788661253657 20.214515145590525 0 0 -1
662 221 1 0.5897 4.338659793293786 5.170343280807532 15.86499877912328 0 0 0
660 220 1 0.5897 0.9733872936169037 4.940913761818351 16.64067401866831 0 0 0
669 223 1 0.5897 0.8200392334392955 7.035983263738125 15.872073009609954 0 0 0
120 40 1 0.5897 0.9211266728730096 11.83744168523842 3.66974934652998 0 0 0
245 82 1 0.5897 5.376817412863815 14.178198225228423 4.6833011026505025 0 0 0
129 43 1 0.5897 0.6800047871940514 14.120657359726849 1.93476931935073 0 0 0
285 95 1 0.5897 7.710828960209777 14.42505397819691 2.245634727312807 0 0 0
164 55 1 0.5897 6.318923092091257 12.74014237051111 1.658886581029329 0 0 0
121 41 2 -1.1794 4.699288117602 12.910283185786788 1.7181000028040498 0 0 0
783 261 1 0.5897 1.7956834251763796 12.600087318093623 0.7401290135673931 0 0 1
123 41 1 0.5897 3.9362777215312716 12.960791089885408 1.1423053692064054 0 0 0
240 80 1 0.5897 2.665525853664928 14.257249488825895 4.653491855483011 0 0 0
127 43 2 -1.1794 0.6222984883767252 13.167415797826813 1.8689344936784817 0 0 0
119 40 1 0.5897 2.1145063230001435 10.909311707576204 3.7502224864999407 0 0 0
118 40 2 -1.1794 1.1897645406156867 10.97569561840185 3.9883851202902854 0 0 0
122 41 1 0.5897 4.506557572710678 12.181872986845864 2.30849011871584 0 0 0
276 92 1 0.5897 9.058611203629495 14.219538904158702 4.116133085534405 0 0 0
154 52 2 -1.1794 7.774886699068457 10.840360795063644 3.8377307033797927 0 0 0
222 74 1 0.5897 4.519759080826322 14.257193889489011 2.7910276895045993 0 0 0
124 42 2 -1.1794 3.9300238452331184 11.019194313674038 3.5241156410789816 0 0 0
220 74 2 -1.1794 4.279083693927706 14.831221973025757 3.518237704831788 0 0 0
156 52 1 0.5897 8.724170014939071 10.962051630401312 3.8574170136800054 0 0 0
165 55 1 0.5897 7.256872567301402 12.062933807139457 2.6354448654110953 0 0 0
125 42 1 0.5897 4.332240785923011 11.062481709023624 4.391621978941664 0 0 0
163 55 2 -1.1794 7.245967732536648 12.650768733529258 1.8800661064373465 0 0 0
819 273 1 0.5897 8.387352418657771 12.309608185132689 0.27188073450728767 0 0 1
126 42 1 0.5897 3.884569890925022 10.083521980614139 3.3270749630862384 0 0 0
275 92 1 0.5897 7.819585752006746 14.190771299028107 4.98563299545195 0 0 0
155 52 1 0.5897 7.649666086839083 10.000713526172632 3.3954358461556864 0 0 0
274 92 2 -1.1794 8.775717031891663 14.20272685138076 5.030403098434456 0 0 0
317 106 1 0.5897 0.1860673912869687 13.788052428163724 5.061481091745898 1 0 0
781 261 2 -1.1794 2.5234793691001496 12.373231926107987 0.16122983306308275 0 0 1
782 261 1 0.5897 2.5091457145208964 11.416924095945717 0.12108678646221449 0 0 1
133 45 2 -1.1794 2.8336311062355315 12.009390090644448 6.965012571688047 0 0 0
134 45 1 0.5897 2.134718226136261 12.23063133619475 7.580492283331549 0 0 0
135 45 1 0.5897 3.641966076131174 12.198125650548045 7.441706525821614 0 0 0
239 80 1 0.5897 2.407227447516606 13.186127817340166 5.691743576633055 0 0 0
451 151 2 -1.1794 0.7322895859177027 12.451068491749963 8.799666642341075 0 0 0
115 39 2 -1.1794 5.617612120053623 11.159874116136265 5.760634009117965 0 0 0
445 149 2 -1.1794 4.992796058407573 12.473175765775817 8.615499325237282 0 0 0
446 149 1 0.5897 4.5868064764106515 13.09728454773608 9.21710943745702 0 0 0
246 82 1 0.5897 5.660173733125526 12.9139964063968 5.466638880932506 0 0 0
573 191 1 0.5897 0.6941719156979124 14.519318252967137 9.113978811784234 0 0 0
171 57 1 0.5897 8.98301519996848 11.420594996906129 6.631557453755991 0 0 0
453 151 1 0.5897 0.8734492264924247 11.927223882594621 9.588276232254971 0 0 0
450 150 1 0.5897 4.160708819336624 11.065112380054533 9.571754623957048 0 0 0
169 57 2 -1.1794 9.111248440780217 12.29182184630265 7.00688731667684 0 0 0
447 149 1 0.5897 5.933476581305572 12.617116136475559 8.719108664984859 0 0 0
117 39 1 0.5897 5.40900076056611 10.439279059483964 6.3552014724308705 0 0 0
487 163 2 -1.1794 7.57329140552724 12.552287279347674 9.273238049846398 0 0 0
489 163 1 0.5897 7.71909776334667 13.497706638241123 9.309343764920737 0 0 0
488 163 1 0.5897 7.977378522197034 12.27839321049292 8.449881060913324 0 0 0
170 57 1 0.5897 9.04717192931565 12.886862316557645 6.259838866223313 0 0 0
448 150 2 -1.1794 3.9228756221319037 10.482078122936711 10.292703696998293 0 0 0
116 39 1 0.5897 6.459990199586105 10.917440343280324 5.376023632711531 0 0 0
244 82 2 -1.1794 5.967618197104552 13.811846877687662 5.3413411150948535 0 0 0
575 192 1 0.5897 5.41370818846374 14.925857691480148 6.915768192950621 0 0 0
434 145 1 0.5897 2.4850012719452987 10.115369228061494 7.016176231285861 0 0 0
543 181 1 0.5897 2.3558783165657418 15.034009861643982 6.59273343520614 0 0 0
238 80 2 -1.1794 1.9733591208318515 13.88190397910876 5.197828252713475 0 0 0
457 153 2 -1.1794 2.3615007433886923 11.95332989449677 13.807061197914003 0 0 0
458 153 1 0.5897 1.627629115859216 12.015576657137352 14.41846943489805 0 0 0
459 153 1 0.5897 3.1249873397540284 12.216850640205733 14.320813790684959 0 0 0
562 188 2 -1.1794 2.1379055758535426 14.190686468933203 12.138170562752126 0 0 0
563 188 1 0.5897 2.1635272202651037 13.444272177556268 12.736925983163273 0 0 0
600 200 1 0.5897 9.40708390996476 14.784696616829773 12.582209447141917 0 0 0
493 165 2 -1.1794 9.39421763287148 11.646639338822013 13.743701110601231 0 0 0
811 271 2 -1.1794 7.161469607920191 12.804581773758825 15.162664532680711 0 0 0
544 182 2 -1.1794 4.251514739821475 14.517073108964999 10.466707169187714 0 0 0
478 160 2 -1.1794 7.585976288294482 10.61514004814209 11.0536120719664 0 0 0
449 150 1 0.5897 4.347343324765395 10.864642074163068 11.060635059696436 0 0 0
444 148 1 0.5897 2.1055342934009076 10.310355793960175 10.901245362703563 0 0 0
479 160 1 0.5897 8.463225593060924 10.51324128374012 11.422808495627793 0 0 0
599 200 1 0.5897 9.470712408835404 13.284174435842614 12.773603236373548 0 0 0
441 147 1 0.5897 5.0671643351242315 10.958926781554691 12.963454334250681 0 0 0
570 190 1 0.5897 6.996611827572067 14.092171012063025 11.66179365007332 0 0 0
494 165 1 0.5897 8.609522596275793 12.113462136017645 14.031151654953561 0 0 0
442 148 2 -1.1794 1.216492835784728 10.606808683472051 10.706271019056192 0 0 0
569 190 1 0.5897 6.006256633378306 13.272196421056295 12.46111212044245 0 0 0
440 147 1 0.5897 6.1086975223037205 11.178183597961453 11.886850517638386 0 0 0
598 200 2 -1.1794 9.396999164698844 13.958738072041564 12.098463483598522 0 0 0
568 190 2 -1.1794 6.249127686451362 14.174683137453595 12.254013109271243 0 0 0
439 147 2 -1.1794 5.321368833675434 11.566298317908696 12.26866947090261 0 0 0
545 182 1 0.5897 3.529631375429499 14.22204687254895 11.021801341247937 0 0 0
642 214 1 0.5897 0.3533704691916112 14.053542715525161 12.268777742693963 1 0 0
564 188 1 0.5897 2.3385309032004375 14.947382265784862 12.68902336995652 0 0 0
769 257 2 -1.1794 4.423322845058925 12.71115126007136 15.51089456483322 0 0 0
546 182 1 0.5897 5.0190436623605414 14.493216595318547 11.038204935487142 0 0 0
480 160 1 0.5897 7.660554143203286 11.362859826219927 10.46060013397733 0 0 0
770 257 1 0.5897 5.353593181211564 12.676864685394577 15.28784715210625 0 0 0
768 256 1 0.5897 1.15677947616174 11.704024351620596 17.18567075003678 0 0 0
869 290 1 0.5897 3.29712720066012 14.70490093251541 17.469717844942295 0 0 0
888 296 1 0.5897 2.185619279179356 13.550335617256772 19.49614456179031 0 0 0
766 256 2 -1.1794 1.4103304965944168 11.033606162143288 17.82013344351737 0 0 0
810 270 1 0.5897 9.68916892142634 11.04158582843708 17.436285762621008 0 0 0
804 268 1 0.5897 7.588188038626368 10.046138577310174 17.000391995848783 0 0 0
772 258 2 -1.1794 4.04443827776013 10.663348236870672 17.493137831953906 0 0 0
773 258 1 0.5897 3.2215978943605843 10.858522695281668 17.94162950091777 0 0 0
965 322 1 0.5897 0.4067647879219848 14.322903491676108 18.81542185547516 1 0 0
765 255 1 0.5897 5.778868915830826 10.723605799211178 20.118961603686838 0 0 0
802 268 2 -1.1794 7.742630320335297 10.947645069446795 17.28286406169926 0 0 0
774 258 1 0.5897 4.128548924241685 11.353343240301742 16.835028305505393 0 0 0
813 271 1 0.5897 7.386186708395618 12.233429682803713 15.897209698253532 0 0 0
870 290 1 0.5897 4.810069364368589 14.719454846958364 17.523908259823497 0 0 0
764 255 1 0.5897 5.111562652865468 11.243854834362832 18.863603766653412 0 0 0
893 298 1 0.5897 6.87455877002859 14.310318370700529 18.509014495254995 0 0 0
777 259 1 0.5897 0.6676733334277127 13.74016271113892 15.919932031694062 0 0 0
894 298 1 0.5897 5.941617991629669 13.349036438772917 19.214467359938354 0 0 0
886 296 2 -1.1794 2.109788502728168 14.360914199432564 18.9926302318298 0 0 0
818 273 1 0.5897 8.899811545173975 12.878996673516774 19.630889071938924 0 0 0
924 308 1 0.5897 9.63637048538959 14.483940492190996 18.22900164732794 0 0 0
922 308 2 -1.1794 8.828818977783806 14.44388957549021 18.74140069466741 0 0 0
763 255 2 -1.1794 5.882393624784081 11.366810307504393 19.417663303115777 0 0 0
767 256 1 0.5897 0.7152322678481158 11.05073920785071 18.478018341755945 0 0 0
803 268 1 0.5897 7.287549089255101 11.017506299351327 18.122017055155162 0 0 0
892 298 2 -1.1794 5.9622981305332114 14.20042355075389 18.777381983040385 0 0 0
887 296 1 0.5897 2.2334459513423135 15.056936124293234 19.638024151322593 0 0 0
868 290 2 -1.1794 4.0714428281437325 14.910046031689332 16.94565096551592 0 0 0
146 49 1 0.5897 9.175314843964484 10.24034292140801 20.004009264758754 0 0 -1
771 257 1 0.5897 4.305724534763116 13.569292877845623 15.918454456077644 0 0 0
817 273 2 -1.1794 8.99360406523332 12.129016271650844 20.218291468108948 0 0 0
775 259 2 -1.1794 0.6721924261201963 12.823300944962252 15.644784428723343 0 0 0
812 271 1 0.5897 7.07821693978879 13.675055985567464 15.552122376347803 0 0 0
248 83 1 0.5897 1.5232988812079955 16.595828385286723 2.8679502091548668 0 0 0
284 95 1 0.5897 7.981415984379311 15.832278383456556 2.73406928582634 0 0 0
233 78 1 0.5897 4.542621865223232 18.014198117345458 2.910034934369615 0 0 0
251 84 1 0.5897 6.166613046755503 15.852820578392146 1.069365026768073 0 0 0
254 85 1 0.5897 8.979799219115087 15.806810226021737 0.8086273319808931 0 0 0
890 297 1 0.5897 1.7019496224028532 19.246027201704088 0.3557779590633805 0 0 1
249 83 1 0.5897 1.9197492261649987 16.042415068604832 1.515763683226672 0 0 0
230 77 1 0.5897 3.8809903168825497 19.124061116572783 0.6966011157186799 0 0 0
234 78 1 0.5897 3.428313983963781 17.878312599462085 3.9258098274981417 0 0 0
232 78 2 -1.1794 4.3555152927026 17.683846344859788 3.788704528714538 0 0 0
229 77 2 -1.1794 4.38282900020382 19.310292309801483 1.4901162650136597 0 0 0
226 76 2 -1.1794 1.6139165050072468 18.12043221575128 3.6908995392693673 0 0 0
227 76 1 0.5897 1.3177871921191247 18.713161662041855 3.0000723208409776 0 0 0
264 88 1 0.5897 9.193579910980146 17.398810574562816 4.1635937165174965 0 0 0
262 88 2 -1.1794 8.320575925477259 17.41126127659541 3.771148836364111 0 0 0
231 77 1 0.5897 5.293799741505122 19.336974626907306 1.1972946577923689 0 0 0
263 88 1 0.5897 7.724939787699737 17.264686696646507 4.505983134557876 0 0 0