LAMMPS (30 Jul 2021)
  using 1 OpenMP thread(s) per MPI task
package omp 0
using multi-threaded neighbor list subroutines
echo both

include		in.partitions
variable        pid world 0
include		in.temp
variable        temperature equal 266.20
variable	tempDamp equal 100.0
include		in.pressure
variable        pressure equal 8750.0
variable        pressureDamp equal 1000.0 # This is 1 ps
include		in.seed
variable        seed world 745823

units		real
atom_style	full
read_restart	restart.lmp.${pid}
read_restart	restart.lmp.0
Reading restart file ...
  restart file = 30 Jul 2021, LAMMPS = 30 Jul 2021
  restoring atom style full from restart
  orthogonal box = (-0.13131328 -0.17863655 -0.10467508) to (24.861314 24.908638 22.914675)
  4 by 4 by 4 MPI processor grid
  restoring pair style lj/cut/tip4p/long/omp from restart
  restoring bond style harmonic/omp from restart
  restoring angle style harmonic/omp from restart
  1920 atoms
  1280 bonds
  640 angles
Finding 1-2 1-3 1-4 neighbors ...
  special bond factors lj:    0        0        0       
  special bond factors coul:  0        0        0       
     2 = max # of 1-2 neighbors
     1 = max # of 1-3 neighbors
     1 = max # of 1-4 neighbors
     2 = max # of special neighbors
  special bonds CPU = 1.590 seconds
  read_restart CPU = 2.011 seconds
include 	in.setup
variable	out_freq equal 1000
variable	out_freq2 equal 10000
variable	out_freq3 equal 1000

timestep	2.0

neigh_modify    delay 7 every 1

include		in.tip4p
# This is TIP4P/Ice

# create groups ###
group ox type 2
640 atoms in group ox
group hy type 1
1280 atoms in group hy

# set charges - beside manually ###
set group ox charge -1.1794
Setting atom values ...
  640 settings made for charge
set group hy charge 0.5897
Setting atom values ...
  1280 settings made for charge

# ### TIP3P Potential Parameters ###
pair_style lj/cut/tip4p/long/omp 2 1 1 1 0.1577 8.5
pair_coeff 1 1*2 0.000 0.000
pair_coeff 2 2 0.21084 3.1668
bond_style  harmonic
bond_coeff  1 450 0.9572
angle_style harmonic
angle_coeff 1 55 104.52
kspace_style pppm/tip4p/omp 1.0e-5
pair_modify tail yes

thermo          ${out_freq}
thermo          1000
thermo_style    custom step temp pe etotal epair emol press lx ly lz vol pxx pyy pzz pxy pxz pyz enthalpy

restart 	${out_freq3} restart.lmp.${pid} restart2.lmp.${pid}
restart 	1000 restart.lmp.${pid} restart2.lmp.${pid}
restart 	1000 restart.lmp.0 restart2.lmp.${pid}
restart 	1000 restart.lmp.0 restart2.lmp.0


include         in.dump
dump            myDump all atom ${out_freq2} dump.water.${pid}
dump            myDump all atom 10000 dump.water.${pid}
dump            myDump all atom 10000 dump.water.0
dump            myDump2 all dcd ${out_freq2} dump.dcd
dump            myDump2 all dcd 10000 dump.dcd
dump_modify     myDump append yes
dump_modify     myDump2 append yes


variable natoms 	equal  "count(all)"                        # NUMBER ATOMS
variable H      	equal  "enthalpy/v_natoms"                 # ENTHALPY-per-atom
variable Vol      	equal  "vol/v_natoms"                 # volume-per-atom
fix AVG all 		ave/time ${out_freq} 1 ${out_freq} v_Vol v_H file vol_enthalpy.dat
fix AVG all 		ave/time 1000 1 ${out_freq} v_Vol v_H file vol_enthalpy.dat
fix AVG all 		ave/time 1000 1 1000 v_Vol v_H file vol_enthalpy.dat




fix 		1 all shake 1e-6 200 0 b 1 a 1
       0 = # of size 2 clusters
       0 = # of size 3 clusters
       0 = # of size 4 clusters
     640 = # of frozen angles
  find clusters CPU = 0.017 seconds
fix             2 all nph aniso ${pressure} ${pressure} ${pressureDamp}
fix             2 all nph aniso 8750 ${pressure} ${pressureDamp}
fix             2 all nph aniso 8750 8750 ${pressureDamp}
fix             2 all nph aniso 8750 8750 1000
fix             3 all temp/csvr ${temperature} ${temperature} ${tempDamp} ${seed}
fix             3 all temp/csvr 266.2 ${temperature} ${tempDamp} ${seed}
fix             3 all temp/csvr 266.2 266.2 ${tempDamp} ${seed}
fix             3 all temp/csvr 266.2 266.2 100 ${seed}
fix             3 all temp/csvr 266.2 266.2 100 745823


run             250000
PPPM initialization ...
  extracting TIP4P info from pair style
  using 12-bit tables for long-range coulomb (../kspace.cpp:340)
  G vector (1/distance) = 0.37415451
  grid = 30 30 30
  stencil order = 5
  estimated absolute RMS force accuracy = 0.0033082026
  estimated relative force accuracy = 9.9625539e-06
  using double precision FFTW3
  3d grid and FFT values/proc = 3600 512
Last active /omp style is kspace_style pppm/tip4p/omp
Neighbor list info ...
  update every 1 steps, delay 7 steps, check yes
  max neighbors/atom: 2000, page size: 100000
  master list distance cutoff = 10.8154
  ghost atom cutoff = 10.8154
  binsize = 5.4077, bins = 5 5 5
  1 neighbor lists, perpetual/occasional/extra = 1 0 0
  (1) pair lj/cut/tip4p/long/omp, perpetual
      attributes: half, newton on, omp
      pair build: half/bin/newton/omp
      stencil: half/bin/3d
      bin: standard
Per MPI rank memory allocation (min/avg/max) = 9.329 | 9.337 | 9.341 Mbytes
Step Temp PotEng TotEng E_pair E_mol Press Lx Ly Lz Volume Pxx Pyy Pzz Pxy Pxz Pyz Enthalpy 
 5250000    274.21756   -9088.3733    -8042.931   -9088.3733            0     7104.343    24.992628    25.087274     23.01935    14433.061    6919.9456    6355.8277    8037.2557   -424.97829   -1700.8346   -933.07357   -6547.5279 
 5251000    261.16895   -9073.3541   -8077.6589   -9073.3541            0    7472.5515    24.972504     25.15253    22.947891    14414.067    7321.6232    6754.6455    8341.3856    785.90443    431.02232   -941.18624   -6506.8211 
 5252000    263.01825   -9069.4366   -8066.6911   -9069.4366            0    7944.3503    24.789958     25.02354    23.201657    14392.742    8941.1453    7917.9033    6974.0022    26.205447    305.08019    402.57641   -6399.1452 
 5253000    265.27039    -9074.682   -8063.3503    -9074.682            0    8184.5673    24.968956    25.059711    22.984266    14381.596    8025.5744    8015.5667    8512.5608      47.7469   -362.65558    75.464336   -6346.7124 
 5254000    266.94897   -9111.0992    -8093.368   -9111.0992            0    8461.9793    24.801071    24.985889    23.137867        14338    11017.441     7190.959    7177.5374    31.155983    535.98639    519.69927   -6323.9257 
 5255000    262.56206   -9048.4381   -8047.4318   -9048.4381            0    8906.2085    25.009181    25.061419    22.929281    14371.284     9145.906    7939.9861    9632.7335   -817.46916    373.76481    15.565821   -6180.7757 
 5256000    264.68198   -9028.8653   -8019.7769   -9028.8653            0    8189.1837    24.899069    25.093575    23.054402    14404.544    9284.7122    6722.6869    8560.1519   -767.10538    303.88875   -858.89346   -6299.4301 
 5257000    266.19078   -9105.2674   -8090.4268   -9105.2674            0    8380.5237    24.860241    25.071779    23.012077    14343.208    9206.2086    7353.7824    8581.5802   -193.74175   -441.89442    495.71782   -6337.3806 
 5258000    264.57959   -9086.3101    -8077.612   -9086.3101            0    8864.2875    24.810473    25.065992    23.041189    14329.295    9517.4966    7801.5908    9273.7751     382.3388    129.17848   -362.08085   -6225.1703 
 5259000    273.38053   -9066.7371   -8024.4858   -9066.7371            0    8680.8634    24.970387    25.064015    22.947444    14361.845    8482.5785    8134.7193    9425.2924   -162.76596    962.39421    615.32903   -6206.2549 
 5260000     269.4952   -9064.7164   -8037.2778   -9064.7164            0    9250.8398    24.806817    25.082913    22.991473     14305.92    10268.598    8586.0436    8897.8775   -701.17862    152.44505   -223.57959   -6107.2088 
 5261000    268.67808   -9091.2186   -8066.8953   -9091.2186            0    9215.6657     24.86245    24.924623    23.136904    14337.643    9095.4569    10021.229     8530.311   -114.40325    64.232314    175.11234   -6139.9012 
 5262000    270.06474   -9057.3524   -8027.7424   -9057.3524            0    8251.3885    24.975869    24.976967    23.081437    14398.696    7561.4557     8225.197    8967.5129     338.9568    -652.9018     1303.152   -6295.0317 
 5263000    265.66774   -9053.3524   -8040.5059   -9053.3524            0     7769.734    25.058707    25.002739     23.01692    14420.936    5572.1938    9291.7593    8445.2489   -495.00361    421.07392    -358.9697   -6406.4177 
 5264000    254.77632   -9081.2105    -8109.887   -9081.2105            0    8617.9174    25.057854    24.895037     23.01215    14355.352    8071.0167    8223.9997    9558.7356    15.531742    114.90463   -672.89927   -6305.6563 
 5265000    272.53278   -9097.2411   -8058.2218   -9097.2411            0    7780.0938    25.012093    24.885688    23.107217    14382.929    6581.1804    9624.6562    7134.4446   -1117.1982    261.82237   -84.751032   -6426.2673 
 5266000    267.93787   -9069.1612   -8047.6598   -9069.1612            0    8032.1859    25.137106    24.937718     22.95284    14388.264    6522.8549    8398.8704    9174.8325    312.89651    1220.9941     1576.005   -6362.2014 
 5267000     263.9219   -9062.5082   -8056.3175   -9062.5082            0    9438.1181    25.069235    24.877064    22.984121    14334.023    8481.4282    10258.744    9574.1817   -498.36704    338.63415    84.751045    -6083.307 
 5268000    258.15768    -9089.826   -8105.6112    -9089.826            0     7942.732    25.009289    24.864549    23.101693    14365.665    7192.6264    8550.1475    8085.4221    492.45667    496.02028   -99.092976   -6441.5414 
 5269000    269.42994   -9092.0752   -8064.8854   -9092.0752            0    9986.6257    25.005145    24.999051    22.748583    14220.251    8753.2041    9982.5277    11224.145   -411.88046   -333.93404    823.83973   -5993.7814 
 5270000    252.22858   -9048.6955   -8087.0852   -9048.6955            0    9181.9474    24.896237    25.007613     23.00295    14321.532    9331.0756    9433.2263    8781.5404    1795.0907    594.32148   -747.50681    -6169.299 
 5271000    264.73794   -9091.1256   -8081.8238   -9091.1256            0     9049.408    24.787536    24.950614    23.190478    14342.482    10689.095    9577.4156    6881.7139    131.81667    408.45173    305.10338   -6188.9557 
 5272000    267.89758   -9050.9735   -8029.6258   -9050.9735            0    8830.7521    25.023054    25.075104    22.906591    14372.871    8114.6817    8807.1332    9570.4416   -78.027408   -313.57817   -283.70752   -6178.5802 
 5273000      265.439   -9119.1947   -8107.2202   -9119.1947            0    8365.8642    24.976947    24.962306    22.999018    14339.478    9092.6134    7350.4348    8654.5445   -754.60698   -747.70123   -457.54373   -6357.6956 
 5274000    277.16307   -9042.4124   -7985.7404   -9042.4124            0      8206.39    25.027535    24.856241    23.146455    14399.189    6964.5621    9576.6884    8077.9194    861.80235   -867.60142    3.8335893   -6262.4198 
 5275000    266.58853   -9074.2039   -8057.8469   -9074.2039            0    8047.6512    25.078016    24.999703    22.912462    14364.806    7352.6674    8262.4302     8527.856   -503.50051    223.95743   -246.68631   -6371.8964 
 5276000    267.52105   -9048.4965   -8028.5842   -9048.4965            0    8726.8142     24.99124    24.934771    23.056407     14367.62    8089.7551    9684.9994     8405.688    1106.8203    33.968095    298.47777   -6199.9938 
 5277000    266.64495   -9076.7447   -8060.1725   -9076.7447            0    8183.6797    24.957995    24.904995    23.140409    14383.587    8110.2656    8647.4918    7793.2816   -220.42887   -1480.2472    478.66015   -6343.4832 
 5278000    268.13131   -9110.7673   -8088.5284   -9110.7673            0    7686.5759    25.079569    25.019705    22.955272    14404.053    6256.1082    8043.3483    8760.2714   -1170.2113   -75.274211    -683.7115   -6473.8222 
 5279000    257.45047   -9080.5446    -8099.026   -9080.5446            0    7303.0739    25.093487    24.957743    23.018155    14415.736    7405.9811    7814.6308    6688.6099    576.17597    223.58829   -189.31529    -6563.637 
 5280000    265.65271   -9060.0367   -8047.2475   -9060.0367            0    7176.2829    24.991658    24.956482    23.118449    14419.066    7110.6625    7532.7133    6885.4729   -322.97081      465.722    462.26258   -6538.1664 
 5281000    270.62258   -9052.5175   -8020.7808   -9052.5175            0    7382.4226     24.93854    24.932394    23.240824    14450.621    8064.7113    7534.5368    6548.0198    653.93931   -645.80516   -448.31777   -6464.9537 
 5282000    273.19371   -9077.8294   -8036.2904   -9077.8294            0    8280.8444    24.999683    25.110755    22.888221    14368.331    9041.1061    7178.0298    8623.3972   -337.38292   -283.16788   -709.58534   -6301.0612 
 5283000    271.48487   -9088.3055   -8053.2814   -9088.3055            0    8717.7618    24.797792    25.097297    23.094365    14372.953    8677.9396    8035.0199     9440.326    1315.3236    434.15237   -336.09168   -6225.9097 
 5284000    262.98051   -9115.9208   -8113.3191   -9115.9208            0    7214.8176    24.964669    25.068156     22.99412    14390.139    7695.5285    6577.8664    7371.0577    285.79397    261.03107   -843.39485   -6599.1784 
 5285000    255.80978   -9104.5207   -8129.2571   -9104.5207            0    8731.5483    24.919931    24.914902    23.113693    14350.775    8775.5689    8045.9581     9373.118     -16.8244   -338.05959    762.23086   -6301.8197 
 5286000    265.10625   -9097.4138   -8086.7078   -9097.4138            0    8000.3435    25.042555    24.997246    22.914113    14344.118    8452.3026    7253.1288    8295.5989    248.73562   -1106.4131    823.19249    -6413.082 
 5287000    267.95262    -9092.594   -8071.0364    -9092.594            0    8298.5043    24.868668    25.001516    23.111809    14369.869    8244.7936    8406.1068    8244.6126    55.691249   -491.59412    870.32288   -6331.9205 
 5288000    277.82033    -9103.728   -8044.5502    -9103.728            0    8753.0673    25.037205    25.028833    22.858656    14324.423    8794.6039    8182.1934    9282.4045     180.9006    598.53685   -235.04464   -6215.9731 
 5289000    265.48265   -9109.8806   -8097.7396   -9109.8806            0    8296.4769    25.017269    24.948719    22.965232    14333.723    7588.5843    8589.9408    8710.9056    655.33291    926.87232   -533.53592   -6363.4222 
 5290000    259.30497    -9069.225   -8080.6362    -9069.225            0    9722.0189    24.913632    24.867865    23.048709    14279.801    9264.2573    10387.872    9513.9271    537.58249   -595.68702   -35.086229   -6055.9649 
 5291000    269.93272    -9143.129   -8114.0224    -9143.129            0    9221.8658    25.023218     24.81894    22.963208    14261.294    8249.9233    11856.792    7558.8819    788.53917   -702.61077    509.53911   -6196.0002 
 5292000    262.20778   -9071.4161   -8071.7604   -9071.4161            0    8602.3887    25.049708    25.061741    22.860223    14351.403    7974.6348    8484.7829    9347.7484    530.72275    660.88963    75.808314   -6271.2762 
 5293000    268.22758   -9067.6157   -8045.0099   -9067.6157            0    8859.1859    24.899034    24.937357    23.102764    14344.878    9602.3723    9138.8813    7836.3042    500.68525   -356.25695   -185.19954   -6191.6209 
 5294000    279.53057   -9128.7161    -8063.018   -9128.7161            0     9722.474    25.012066    24.899183    22.917178    14272.361    9435.2207    9977.6766    9754.5247   -1096.3217     751.2141    886.33285    -6039.307 
 5295000    252.09984   -9084.5792   -8123.4597   -9084.5792            0    9438.0756    25.102698    24.981625    22.832084    14318.141    8426.2419    9117.9831    10770.002   -812.57029   -323.41761    -926.4295   -6152.6442 
 5296000    267.64465   -9019.3435   -7998.9601   -9019.3435            0    9301.1507    24.886977    24.968165    23.110226    14360.282    9209.8548    9563.0301    9130.5673   -321.58331   -771.14646   -168.87949   -6051.0203 
 5297000    264.25928   -9085.8948   -8078.4179   -9085.8948            0    10062.273    24.858935     25.11805    22.895382    14296.059    11082.333    8315.8838    10788.603    -906.0638    1121.3143    199.00286   -5980.5009 
 5298000    259.89757   -9065.9945   -8075.1464   -9065.9945            0    8154.9495    24.795815    25.058135    23.166501    14394.201    9228.6735    7364.5587    7871.6162    -198.9189    1226.6324   -212.78967   -6363.2215 
 5299000    267.93628   -9058.4898   -8036.9945   -9058.4898            0    8752.0969    25.012799    25.041339    22.925006    14359.169     9218.706    8452.4345    8585.1503   -163.22369   -1099.8374   -260.06895    -6204.185 
 5300000    269.32062   -9052.7432   -8025.9701   -9052.7432            0    9936.8725    24.852666     24.85988    23.171242    14315.988    9844.7885    11097.896    8867.9335    601.91173     222.9975   -395.18096   -5951.3102 
 5301000    260.28759   -9049.4521   -8057.1171   -9049.4521            0    8974.3935    25.036916    25.048258    22.914787    14370.576    8143.5654    9033.7562    9745.8589   -1052.0452    458.34182    1040.6321   -6176.2626 
 5302000    261.58747   -9071.0504   -8073.7596   -9071.0504            0    9554.6459    24.965722    25.068781    22.848115    14299.726    10207.796    8544.6252    9911.5162     127.0312    694.58497   -296.09322   -6081.1685 
 5303000    259.42633   -9061.4551   -8072.4036   -9061.4551            0    9024.0081    24.907082     24.91606    23.111936    14342.952    9184.2537    9898.2874    7989.4832     515.9646   -800.79577    189.01519   -6184.7864 
 5304000    266.00632   -9066.6892   -8052.5518   -9066.6892            0    8337.3248    24.981593     25.13137    22.902745    14378.839    8326.7866    7511.8323    9173.3555    495.21495   -1084.6214   -239.13565   -6304.2096 
 5305000    268.88305   -9072.6464   -8047.5415   -9072.6464            0     8725.917     24.95133    25.054493    22.951403    14347.907    8641.2783    8020.2761    9516.1967   -156.78256    151.33255   -1355.6355   -6221.6477 
 5306000    268.18229   -9057.0462    -8034.613   -9057.0462            0    8092.4977    24.897562    25.008807     23.10926    14389.173    8781.6725    7120.0643    8375.7564   -401.99059   -205.79074   -512.19069   -6336.3916 
 5307000    265.44249   -9083.2018   -8071.2139   -9083.2018            0    8125.8666    24.922797    25.116358    22.975843    14382.186    8519.3243    6920.8831    8937.3925   -601.33811   -356.80333    815.89689    -6366.818 
 5308000    268.47928    -9104.317   -8080.7516    -9104.317            0     9227.272    24.759498    25.069361    23.054872     14310.27    10110.921    8540.2707    9030.6249   -154.34899    972.77342   -376.80538   -6155.0143 
 5309000    268.97435   -9076.5846   -8051.1317   -9076.5846            0    9240.2288    24.800779    25.045554    23.035777    14308.655    10548.091    8111.1211    9061.4743    942.50286    -1226.579    84.729608   -6122.9079 
 5310000    270.63793   -9150.2814   -8118.4862   -9150.2814            0     9211.726    24.829418    25.022556    22.977347    14275.722    9277.4233    9418.2346    8939.5201    546.07163    456.32264    554.42938   -6200.6346 
 5311000    259.51129   -9080.9457   -8091.5703   -9080.9457            0    9265.4708    24.890631    24.998211    23.043483    14338.145    9047.4065    10501.985    8247.0214   -429.84919    -419.9299    125.75301   -6154.0942 
 5312000    269.22467   -9087.6681   -8061.2608   -9087.6681            0    9266.0183      24.8849    25.131598     22.87241    14304.344    9736.2696    7947.1241    10114.661    474.31681    -287.2652    1708.6036    -6128.238 
 5313000    275.47658   -9054.7281   -8004.4857   -9054.7281            0    8970.3017    24.807316    25.128181    23.012871    14345.366    9984.8493    8072.4595    8853.5964    174.70315   -360.39879   -704.89048   -6127.7869 
 5314000    272.17977   -9088.6424   -8050.9689   -9088.6424            0    9239.3119    24.759615    25.029035    23.092452    14310.607    10937.836    8074.7982    8705.3016    277.41843    49.747203   -837.81285   -6122.6736 
 5315000    261.54977   -9114.1867   -8117.0397   -9114.1867            0     8617.577    24.901736    25.093126    22.975669    14356.632     9307.551    7451.0937    9094.0863   -867.46194   -936.23448    464.26272   -6312.7194 
 5316000    275.15556    -9050.621   -8001.6025    -9050.621            0    7701.8733     24.78476    25.055257    23.199218    14406.448    9959.4439    6296.5974    6849.5787    144.41857   -890.41528   -866.12497   -6383.4137 
 5317000    266.46809   -9135.3529    -8119.455   -9135.3529            0     8078.158    24.952113    25.024171    22.951347    14330.957    8081.3291    8783.9219    7369.2229    189.06337   -969.84337   -1047.7049   -6431.1013 
 5318000    270.26417    -9120.909   -8090.5388    -9120.909            0    9276.1991    24.938628    24.952344    22.942709    14276.726    9331.5474    9750.9273    8746.1225    -520.9331   -1005.6579    620.37167   -6159.1284 
 5319000    258.82316   -9096.4291   -8109.6772   -9096.4291            0    8530.8669    24.951352    24.979156    23.014153    14343.886    9321.9707    8778.1342    7492.4959   -1159.4685   -1317.1559    726.90244   -6325.0977 
 5320000    266.01357   -9116.0453   -8101.8803   -9116.0453            0    8608.4439     24.93611    24.990301    23.047713    14362.434    7890.9434     8876.162    9058.2262   -345.83405    316.91307    525.66357   -6298.7439 
 5321000    257.92045   -9039.0767   -8055.7664   -9039.0767            0    7439.5498    25.025793    24.997766    23.038954    14412.914    7957.0026    6562.3648    7799.2819    515.80081    162.95027    572.23854   -6491.9911 
 5322000    268.45078   -9046.6021   -8023.1453   -9046.6021            0    8222.4614    25.048525    24.985741    22.984407    14384.928    7430.0719    8969.1986    8268.1136   -145.37193    827.49449    1403.8431   -6298.1599 
 5323000    247.38934   -9079.5787   -8136.4177   -9079.5787            0    9318.6603    24.951781    24.919921    23.013196    14309.523    7575.0751    10624.962    9755.9439    55.193982    232.49549    160.33744   -6191.7092 
 5324000    278.08589   -9097.3488   -8037.1586   -9097.3488            0    9255.7168     24.96581    24.938968    22.975074    14304.776    10465.365    8313.8377    8987.9473   -590.27449   -398.00038   -248.17807   -6106.2264 
 5325000    273.92232    -9053.359   -8009.0422    -9053.359            0    8992.2643    24.881309    24.966457    23.061781    14325.935    8386.1872    9961.9635    8628.6421   -110.17538   -362.23081    879.97702   -6130.2968 
 5326000    272.34254   -9089.7698   -8051.4758   -9089.7698            0    9362.1511    24.899265    24.963976    22.954383    14268.092    9755.5383    9378.4592    8952.4557    191.26292    171.73105    1086.2662    -6103.348 
 5327000    263.54934   -9112.8279   -8108.0577   -9112.8279            0    9071.5799    24.860562    24.975229    23.038554    14304.597    8492.4028    9568.7681    9153.5689   -193.45149    114.28478   -133.61123   -6215.5639 
 5328000    273.70108   -9070.7419   -8027.2685   -9070.7419            0    8079.4489    24.945745     25.01073    23.076718    14397.825     8645.052    8291.9482    7301.3465   -475.45859   -824.47553   -808.83684    -6330.766 
 5329000    267.22814   -9103.6296   -8084.8341   -9103.6296            0    8572.9068    25.005343    25.070681    22.864941    14334.054     8278.794    8520.1804    8919.7461    53.032231    571.24345    671.49736   -6292.6896 
 5330000    265.71634   -9084.4184   -8071.3865   -9084.4184            0    8074.9184    24.863252    24.959928    23.208485    14402.837     8023.192    9450.6595    6750.9038    269.77575   -384.75717    400.20981    -6375.245 
 5331000    274.80945   -9078.5804   -8030.8815   -9078.5804            0    7913.2542    24.931067    25.032102     23.02041    14366.509    8677.6781    8128.4725    6933.6119    647.13798   -540.63462    612.35605   -6372.8902 
 5332000    265.16272    -9088.656   -8077.7348    -9088.656            0    7920.3188    25.087518    25.094019    22.875511    14401.201    6654.5824    7828.4001    9277.9739    125.07045   -1136.4729   -515.31629    -6414.256 
 5333000    261.57286   -9122.1874   -8124.9524   -9122.1874            0    8675.6442    24.875208    24.958943    23.062738    14318.707     8169.053    8940.0154    8917.8641    1.7365962    439.79039   -452.94683   -6313.2727 
 5334000    266.28114   -9037.2365   -8022.0514   -9037.2365            0    8602.3088    24.950477    24.975154    23.073039     14377.78    8625.2145    8041.6949     9140.017    183.19685   -607.12711   -615.32681   -6218.2748 
 5335000    261.68456   -9069.4606   -8071.7998   -9069.4606            0    9308.3941    25.087497    24.981628    22.904638    14354.943    7659.6733    9561.1014    10704.408     380.1224   -672.79118   -369.73915   -6123.0677 
 5336000     274.9157   -9098.8477   -8050.7437   -9098.8477            0    8181.6078    24.939856    24.934015    23.110712    14371.413    7040.7465     9239.143    8264.9337     504.8025    257.58747    809.78522   -6335.9415 
 5337000    263.58798    -9067.244   -8062.3264    -9067.244            0    10668.048    24.968079     24.97698     22.90109    14281.743    10079.747    11787.536    10136.861   -618.30535   -1312.3235    -988.2336   -5840.3366 
 5338000     263.5222   -9008.9263   -8004.2595   -9008.9263            0    10696.817    24.926286    24.924792    23.003671    14291.778    11288.792    10512.233    10289.425    72.338705   -2539.9854    603.50721   -5774.7121 
 5339000    258.99151   -9105.5995   -8118.2058   -9105.5995            0    10340.146    24.889625    24.938949     22.96976    14257.815    10507.163     9646.469    10866.806   -169.18013   -576.29729    1569.5366   -5968.1213 
 5340000    277.67844   -9106.4161   -8047.7793   -9106.4161            0    9707.2866    24.932629    25.027238    22.846363    14256.013    9354.4292    9197.0754    10570.355    -153.5217    7.4017334    235.04441   -6029.5439 
 5341000    255.05657   -9073.2634   -8100.8714   -9073.2634            0    9644.5461    24.862923     24.87086    23.101102     14284.85    9731.3254    9890.0894    9312.2233    111.98155    142.74475   -720.81957   -6091.6243 
 5342000    267.97801   -9070.9846   -8049.3302   -9070.9846            0    9791.8671    24.855147    25.018395    22.984756    14292.746    11076.452     9097.131    9202.0185   -49.722913    855.80897   -957.32677   -6008.2641 
 5343000     270.8326   -9081.0188   -8048.4814   -9081.0188            0    9008.8878     24.92294    24.995683    23.047217     14357.63    8514.6924    10156.457    8355.5143   -1131.1879    959.14913   -263.06434   -6162.0986 
 5344000    260.57568   -9066.4266   -8072.9933   -9066.4266            0     8571.614    25.038363    25.083774    22.885646    14373.482    8106.3522    8332.3129    9276.1768   -209.12319    1702.6489   -851.53027   -6276.1902 
 5345000    261.58188   -9130.7605    -8133.491   -9130.7605            0    9139.8979    24.960031    24.966819    22.957333     14306.38    9339.5973    8667.9533    9412.1431   -658.16818   -818.07932    128.24093   -6226.5072 
 5346000    268.87334   -9077.6643   -8052.5965   -9077.6643            0    9281.0831    24.786965    24.937924    23.159397    14315.644    9836.0892    9719.2532    8287.9069   -1312.8952    104.01874     75.46515   -6114.9014 
 5347000    269.33126   -9085.0092   -8058.1956   -9085.0092            0    7943.9528    25.053643    25.102199    22.901014    14402.483    8336.5926    6337.3605    9157.9053   -381.98079   -91.638465    1820.2676   -6389.6045 
 5348000    258.01047   -9114.9193   -8131.2657   -9114.9193            0    7929.0228    24.897701    25.029322    23.041322     14358.72      7176.45    9085.3319    7525.2866   -757.71066   -654.65876   -284.23259   -6470.8712 
 5349000    272.66164   -9101.0016   -8061.4911   -9101.0016            0    7394.9753    24.860507    24.935017    23.275474      14428.4    9386.1232     7043.515    5755.2877    185.01167   -27.243033     106.7756   -6505.4151 
 5350000    258.57197   -9088.5988   -8102.8045   -9088.5988            0    8197.2706    25.048104    25.052685    22.869666    14351.224    7373.0429    7750.7483    9468.0207    303.32984    861.89708    126.89329   -6387.1331 
 5351000    262.10644     -9081.58   -8082.3107     -9081.58            0    9935.9032     24.94287    24.864599    23.030114    14283.149    9559.0291    10088.981      10159.7    43.645378     779.2645       25.947   -6012.6116 
 5352000    274.15919   -9075.1638   -8029.9439   -9075.1638            0    8633.6268    24.943528    24.953576    23.053174    14348.992    9398.3736    8707.8865    7794.6204   -411.04245   -274.39404    -263.0261   -6223.2251 
 5353000    265.90202    -9068.908   -8055.1683    -9068.908            0    7969.9605    24.996827    25.091285    22.950055    14394.332    7054.6033    8048.2536    8807.0246    640.79505    884.25173    56.023626   -6382.0618 
 5354000    269.80243   -9107.8175   -8079.2076   -9107.8175            0    7108.4588    24.913414    25.053864    23.101095    14419.179    6950.1716    7858.2073    6516.9975   -646.61664    568.02974   -68.511613   -6584.3774 
 5355000    263.43421   -9054.0291   -8049.6977   -9054.0291            0    6998.3982    25.071914    24.976313    23.050437    14434.275    6962.0984    7421.4855    6611.6108    584.30805   -552.80443    557.32579   -6576.4712 
 5356000    269.10742   -9118.6952    -8092.735   -9118.6952            0    9517.2662    25.108454    24.943034    22.832599    14299.623    7274.0858    9502.1666    11775.546    233.84788   -582.21473    811.76283   -6107.9535 
 5357000    267.13001   -9077.7356   -8059.3142   -9077.7356            0    8872.1611    24.957722     24.92234    23.033682    14327.061    9189.8362    8836.8779    8589.7692   -727.48564    -158.2579    593.79979   -6205.5161 
 5358000    268.64191   -9086.1301   -8061.9446   -9086.1301            0    10630.433    24.951792    24.856542    22.975148    14249.538    10448.438    10707.133    10735.727   -731.29754   -191.53902    65.356461   -5852.7824 
 5359000    257.07067   -9059.1385   -8079.0679   -9059.1385            0    8984.2932    25.057531    24.940347    22.932005    14331.208    8147.8035    9489.0903    9315.9858    531.02968   -342.76246    1205.6868    -6201.297 
 5360000    271.14851   -9122.6593   -8088.9176   -9122.6593            0    8605.4531    24.931837    24.933757     23.07126    14342.119    9346.7983    8575.9984    7893.5627   -502.94392   -674.79863    202.96371   -6288.9572 
 5361000     269.7126   -9086.8414   -8058.5739   -9086.8414            0    9146.4104    24.941574    25.117224     22.89373    14342.077    8965.6678    8529.9241    9943.6394    711.12372    276.26431    98.979478   -6145.4697 
 5362000    271.30348    -9088.179   -8053.8464    -9088.179            0    8061.7659    24.889228    25.041821    23.059275    14372.191    8464.0229    7933.9604    7787.3143   -593.68772   -118.86661   -1487.9793   -6364.0708 
 5363000    269.57488   -9100.2548   -8072.5125   -9100.2548            0    7466.0403    24.930658    24.997946    23.112878    14404.297    7649.3041    7455.7382    7293.0785    542.86368    342.10498   -1249.7502   -6504.1072 
 5364000    276.56378   -9054.8132   -8000.4259   -9054.8132            0     8390.413    25.026856    25.166467    22.816557    14370.724    7867.6339    7318.4479    9985.1573    93.900967    1104.0377   -68.868969   -6241.9441 
 5365000    277.26148   -9066.5723   -8009.5251   -9066.5723            0    8546.6301    24.942215    25.009312    23.025473    14363.005    8904.7478    8396.4682    8338.6743     44.28301    747.86517    204.85446   -6219.2651 
 5366000    256.97077   -9063.3732   -8083.6834   -9063.3732            0    9214.4469    24.901191    24.888421    23.113692    14324.741     9025.998    9481.2032    9136.1397    15.378054   -252.83798    375.06675    -6158.678 
 5367000    255.92267   -9095.3138   -8119.6199   -9095.3138            0    8801.6959    25.032142     24.94309    22.947673    14328.045    8334.3417    9015.6301    9055.1159   -476.11816     318.2464   -645.23706   -6280.4189 
 5368000    266.99647   -9140.2524   -8122.3401   -9140.2524            0    8475.2777    24.989453    25.076005    22.844797    14315.364    7608.5058    8757.0174    9060.3098     1287.402    368.46197    220.35027   -6352.9149 
 5369000    262.81295   -9066.2576   -8064.2948   -9066.2576            0    9539.2075    24.845582     24.85869      23.1738    14312.802    9806.1207    10279.369    8532.1331   -160.63133   -703.63759     122.8273   -6073.1041 
 5370000    261.67148     -9079.25    -8081.639     -9079.25            0    8852.9858    24.922498    25.015876    23.000978    14340.147    8690.8782    8433.6235    9434.4556   -929.06898    422.10275    364.76774    -6230.158 
 5371000    266.51977   -9099.3408   -8083.2459   -9099.3408            0    8581.3449    24.894156    24.985526    23.123044    14382.385    9178.5899    8786.0234    7779.4213   -568.34089    8.5237811   -690.66151   -6283.2888 
 5372000    260.58791   -9042.8352   -8049.3552   -9042.8352            0    7981.4238    25.062538    25.047579    22.953993    14409.504    7113.3749    7776.3092    9054.5872   -23.795654   -27.597392   -277.60157   -6372.0763 
 5373000    261.35863   -9106.4648   -8110.0465   -9106.4648            0    7424.0652    25.026826    24.970532    23.040992     14399.08    6875.1294    8352.0302    7045.0362   -358.71116    462.30104   -303.37164    -6551.024 
 5374000    265.17163   -9046.3014   -8035.3462   -9046.3014            0    8488.7768    24.988063    24.918416     23.09989    14383.445    9522.6126    8785.2428     7158.475    288.21504   -490.68994    -273.3768   -6254.6742 
 5375000    280.97714    -9075.772    -8004.559    -9075.772            0    10304.836    25.023726    24.883872    22.902632    14261.176    8575.4544    12152.883    10186.171    436.76544    -100.6336   -1299.2783   -5861.3115 
 5376000    270.21508    -9097.601   -8067.4179    -9097.601            0    9443.0857    24.949782    24.883066    23.027931    14296.363    9768.5065    9887.7089    8673.0416    24.142575   -234.57022   -213.28645   -6098.5554 
 5377000    268.74455   -9052.7675   -8028.1907   -9052.7675            0    11086.089    24.965037    24.957311    22.813892    14214.428    10344.557    11110.662    11803.048   -533.39535   -1113.3449   -48.489241   -5730.0129 
 5378000    266.43478   -9092.9264   -8077.1556   -9092.9264            0    9863.5869    24.925618    24.942041    22.975888    14284.013    9637.1168    9618.0024    10335.642   -467.06249    1667.0348    461.31487    -6022.396 
 5379000    272.72898   -9071.7651   -8031.9979   -9071.7651            0      9448.56    24.987471    24.872139    22.996239    14291.975    8910.4685    9932.5581    9502.6533    570.30841    635.71897   -610.67991   -6062.5986 
 5380000     261.3242    -9096.669    -8100.382    -9096.669            0    8647.6653    24.957924    24.963909     23.01263    14337.959    8319.8538    8374.5074    9248.6348   -900.00676     -177.029    27.023722    -6292.117 
 5381000    261.82776   -9103.7024   -8105.4956   -9103.7024            0    8989.9565    24.927982    24.990097    22.950133    14296.847    9500.8238    8956.0409    8513.0048   -156.77902    164.63003   -300.60243    -6231.046 
 5382000     262.9664   -9076.5496   -8074.0017   -9076.5496            0    7628.4869    24.877203    25.053119    23.127609    14414.317    8280.4396    7214.6267    7390.3945   -12.272493   -351.60008   -641.19843   -6470.3562 
 5383000    262.16273   -9080.7939   -8081.3101   -9080.7939            0    8553.8663    24.970874    25.007693    23.018726    14374.365    8859.9183     8450.298    8351.3826   -274.74563    254.57439    608.73372   -6288.1172 
 5384000     264.7527   -9137.8973   -8128.5392   -9137.8973            0    7153.0006     25.08667    24.958554     23.02811    14418.521     6846.386    7248.0485    7364.5673    599.63889    657.84736    1322.9573   -6624.4109 
 5385000    263.85669   -9137.3074   -8131.3653   -9137.3074            0    7696.7223     25.14444    24.884588     22.94814    14358.859     6690.425    8002.4994    8397.2426    762.11463   -645.07344   -57.396369   -6519.6006 
 5386000    261.37343   -9063.9558   -8067.4811   -9063.9558            0    8712.2545    24.979611    24.953386    23.036417    14359.194    7995.2736    9001.5612    9139.9286    317.57548   -886.71898    823.09057    -6243.012 
 5387000    253.90075   -9064.8377   -8096.8522   -9064.8377            0    8435.5336    24.956138    24.960355    23.074291      14373.3    8266.4284    9187.9019    7852.2706   -491.66194    -1629.028   -15.723531    -6328.597 
 5388000    264.10156   -9075.3842   -8068.5086   -9075.3842            0    8963.1978    24.968998    25.053184    22.943996    14352.683    8393.7559    8761.3087    9734.5286   -491.87446   -1850.1441    123.70657   -6192.3395 
 5389000    259.94286   -9109.6908   -8118.6701   -9109.6908            0    8578.6739    24.850705    24.985476    23.086533    14334.583    9445.4175    8605.2841    7685.3202    293.94715    57.427235   -1136.3014   -6325.2538 
 5390000    259.76288   -9061.4515   -8071.1169   -9061.4515            0    8720.6086    24.978537    24.996933    23.039562    14385.599    8456.5802    8570.7703    9134.4754   -84.087019   -810.46958   -210.89072   -6241.5402 
 5391000    270.71518   -9147.6362   -8115.5465   -9147.6362            0    6251.5122    24.939901      25.1371    23.032845    14439.678    6746.9803    6266.0434    5741.5131   -446.98547    47.592404    1064.3299   -6799.0538 
 5392000     256.9727   -9088.0218   -8108.3247   -9088.0218            0    7549.7926    24.903008    25.037405     23.08014    14390.622    8671.9907    6778.1951     7199.192   -252.06035    797.53545    250.36906   -6523.8311 
 5393000    262.31888   -9069.0221   -8068.9429   -9069.0221            0    7604.1889    24.921101    25.031772    23.074966     14394.61    8310.3893    7085.7106    7416.4668   -51.559726   -376.87832     1512.953   -6472.5908 
 5394000    257.28193   -9056.6694   -8075.7933   -9056.6694            0    8447.1985    24.837588    25.145843     23.04023    14390.054    10070.037    7335.1904    7936.3679    470.85919    113.18347   -200.62006   -6303.0289 
 5395000    275.81694   -9056.6919   -8005.1519   -9056.6919            0    9785.4218    24.913577    25.041047     22.94326    14313.429    10002.628    9053.9812    10299.656   -244.49629   -495.11551    824.30311   -5962.4776 
 5396000    263.13702   -9087.3077   -8084.1094   -9087.3077            0    9043.5325    24.867454    24.963189    23.057744    14313.578    9535.8544     9410.895     8183.848    36.458914   -804.11164   -909.77728   -6196.2824 
 5397000    261.91813   -9082.5437   -8083.9923   -9082.5437            0    8218.6942    25.106895    24.981513    22.898897    14362.376    6591.3503    7974.9657    10089.767   -258.12523     298.3705    1822.8703   -6362.5004 
 5398000    267.40064   -9139.1873   -8119.7341   -9139.1873            0    8434.9565    24.963752    24.867856    23.075837    14325.364    7464.3988    9690.9422    8149.5286    374.56893    659.76074   -872.65463   -6357.4968 
 5399000    263.83873   -9057.8055    -8051.932   -9057.8055            0    8808.4196    24.985705    24.866391    23.052225    14322.447    7637.5487    10565.334    8222.3761    -132.0041    860.82224    545.74172   -6212.0451 
 5400000    257.93175    -9072.392   -8089.0385    -9072.392            0    9290.8945    25.114516    24.940168    22.846263    14309.991    8203.9251    10096.287    9572.4716    385.24924   -740.79347   -343.14269    -6150.061 
 5401000     268.8862    -9081.661   -8056.5442    -9081.661            0    9807.8765    24.966582    24.954996    22.986478    14321.516    9004.6332    10257.052    10161.945   -566.93858    251.49119   -86.806305   -6008.0257 
 5402000    259.96635    -9091.062   -8099.9517    -9091.062            0    7866.2899    24.986397    25.073179    22.946726    14375.858    7017.6119    8016.3512    8564.9065   -282.18675    601.04521    201.13046   -6450.7279 
 5403000    263.69621   -9076.8969   -8071.5667   -9076.8969            0    6761.5415     24.96411    25.010624    23.167224    14464.872    6772.8818    7270.3641    6241.3786   -842.72033   -286.80483    264.38362   -6645.1835 
 5404000    252.11986   -9070.7368   -8109.5409   -9070.7368            0    8408.1396    25.037998    24.986554    22.952377    14359.312    9050.7955    8049.8811    8123.7422    15.968491     1333.783   -114.65063   -6348.7434 
 5405000    263.71997   -9084.9022   -8079.4814   -9084.9022            0    7536.9197    24.966965    24.998468    23.069553    14398.536    7387.6469    8056.2918    7166.8203   -383.27866    231.46216   -1322.5677   -6496.8197 
 5406000    251.25443   -9129.6588   -8171.7624   -9129.6588            0      8658.81    24.897865    24.878799    23.119529    14320.906    9337.3356    8510.2804    8128.8139   -568.57622    273.96726   -91.745498   -6363.3203 
 5407000    265.67113   -9107.3105    -8094.451   -9107.3105            0     7715.639    25.028014    25.077057    22.935109    14394.738    6007.2943    8186.9333    8952.6893    541.94061   -496.30163    1033.9474   -6474.6877 
 5408000    275.14768    -9117.091   -8068.1025    -9117.091            0    8058.6558    24.969075    25.036005    22.999358    14377.494    7637.1235    7617.2213    8921.6224    187.79508   -34.233046   -721.22637   -6378.3555 
 5409000    270.79188   -9081.9574   -8049.5752   -9081.9574            0    7761.9567    24.957674    24.914085    23.155457    14398.007    7139.7134    9476.8339    6669.3229   -944.23136   -570.10833   -35.424604   -6419.7182 
 5410000     264.5806   -9086.1319     -8077.43   -9086.1319            0    9621.0705    25.007872    24.978457    22.924145    14319.752    8527.3798    8946.0632    11389.768    573.18428   -17.126835   -192.20673   -6068.1763 
 5411000    261.79745   -9114.5806   -8116.4893   -9114.5806            0    10152.048    24.822103    25.049154     22.92633    14254.966    10659.277    8971.0269     10825.84   -1119.3166    428.48398   -998.30881   -6005.9389 
 5412000    270.86229   -9107.5519   -8074.9014   -9107.5519            0    8250.8864    24.899638    25.011429    23.034958    14345.608    8474.0453     8086.297     8192.317    519.57917    1132.1853   -585.07448   -6348.6841 
 5413000     266.9414   -9083.3098   -8065.6075   -9083.3098            0    8279.1572    25.022976    25.065981    22.883288     14352.98    7915.4758    8314.3821    8607.6136     304.8988   -661.53546    462.91071   -6332.5854 
 5414000    259.49083   -9094.4942   -8105.1968   -9094.4942            0    8350.8855    24.966381    24.943824    23.008098    14328.455    9111.1117    7590.1548    8351.3901   -164.40629   -107.54206    45.923915   -6360.1473 
 5415000    267.67446   -9083.4152   -8062.9181   -9083.4152            0    8186.3704    24.978843    24.828592    23.181729    14377.065    7418.9114    9179.5457    7960.6541    810.64508   -88.248922    1374.4076    -6346.443 
 5416000    260.92081   -9039.3958   -8044.6466   -9039.3958            0    9157.3353    25.032818    25.015595    22.923555    14354.978    8153.1845    9573.4875    9745.3339   -485.28044    443.30537   -269.61873   -6127.5344 
 5417000    253.95317   -9108.5826   -8140.3973   -9108.5826            0    8405.8023    24.960911    24.919899    23.060794    14344.353    8539.6465    8399.2419    8278.5184   -379.05661   -477.14516    359.80089   -6381.9231 
 5418000    269.03371   -9037.5657   -8011.8865   -9037.5657            0    9593.2266    25.012068    25.017528    22.911791    14336.826    7997.2034    9531.5483    11250.928    226.20078   -276.09681    426.80201   -6006.0588 
 5419000    267.95478   -9092.9662   -8071.4004   -9092.9662            0    8434.7775    24.933716    25.068378    22.944924    14341.675    7699.7794    8710.3148    8894.2382   -502.09065    204.50414    14.190574    -6307.194 
 5420000    264.18859    -9073.967   -8066.7596    -9073.967            0    9822.7488    24.657543    25.000047    23.193219    14297.221    11453.466    9119.9234    8894.8572    857.88846   -477.61044    367.60975   -6018.6152 
 5421000    264.48503   -9088.0249   -8079.6874   -9088.0249            0    10612.166    24.821778    24.959766    23.032781    14269.862    10632.155     10586.07    10618.272   -409.95949    325.14728   -1006.2806   -5871.1757 
 5422000    260.23487   -9073.2207   -8081.0867   -9073.2207            0     9518.811    24.900885    25.095583    22.859777    14285.126    9995.8344    7851.5056    10709.093   -106.04214    1075.4355   -617.68771   -6097.9956 
 5423000    269.42361   -9082.1985   -8055.0328   -9082.1985            0    10626.237    24.665905    24.961775    23.119663    14234.887    12736.144    9415.5896    9726.9776   -173.60685   -711.18666    578.97002    -5849.013 
 5424000    265.40587   -9103.8468   -8091.9986   -9103.8468            0    8648.3223    24.933766    24.992052    22.997105    14330.553    9193.9175    8500.6694      8250.38   -851.89232     365.3377   -365.65185   -6284.5302 
 5425000    259.40255   -9074.9645   -8086.0037   -9074.9645            0     8034.964    24.876616    24.949052    23.187325    14391.167    7791.6827    8736.8529    7576.3564   -1142.2858    721.21873    1430.3461   -6399.6222 
 5426000    264.60901   -9109.3912    -8100.581   -9109.3912            0     9198.308    24.993565    24.999896    22.837488    14269.697    8577.1522    9247.0283    9770.7434   -846.06144    185.99501    681.74166   -6186.3314 
 5427000    266.52176   -9083.9997   -8067.8972   -9083.9997            0    7155.8365    25.129106    24.915183     23.00448    14403.019    6025.1237    7952.8747    7489.5113   -268.91586    497.46796    460.85551   -6564.7904 
 5428000    252.78862   -9052.1749   -8088.4294   -9052.1749            0     7798.924    25.019643    24.930036    23.084974    14399.035    7756.2175    7512.9797    8127.5748   -534.75862   -211.80165    901.55686   -6450.6931 
 5429000    263.55276   -9103.7629   -8098.9795   -9103.7629            0    7235.8875    25.120043    24.939797     23.04148    14435.228    5197.5588    8706.5954    7803.5082    221.01338    1030.7083    193.48397   -6575.6588 
 5430000    260.45531   -9102.4909   -8109.5165   -9102.4909            0    8025.7061    25.092836     24.95092    22.974933    14384.361    7744.5995    7930.3446    8402.1744   -701.83828    751.83535    665.27375   -6425.8746 
 5431000    262.47684   -9081.5089   -8080.8274   -9081.5089            0    8722.8343    25.008985    24.862979    23.066458    14342.674    8443.4901    8057.5296    9667.4831    734.06491    306.14941   -16.321964   -6256.2443 
 5432000     268.3915   -9060.0517   -8036.8209   -9060.0517            0    8678.0384    24.942517    24.991808    23.046246    14366.076    8972.5993    9067.9696    7993.5464   -155.41963    668.76281   -923.77123   -6218.6462 
 5433000    267.70829   -9102.0135   -8081.3874   -9102.0135            0    8857.6847    24.932834      24.9434    23.058564    14340.344    9580.6846    8254.3842    8737.9854   -1051.9243    867.76673    593.89177   -6228.8982 
 5434000    269.64544   -9086.6669   -8058.6555   -9086.6669            0    10284.565    24.995259    24.935531    22.868746    14253.405    9782.5552    10714.344    10356.796   -452.81949     284.3514    480.96763   -5920.7898 
 5435000    272.03589   -9047.3725   -8010.2476   -9047.3725            0    9852.2199     24.89273    25.028551    22.928948    14285.398     10390.15    10010.507    9156.0033    363.29492   -600.40878   -905.25708    -5957.657 
 5436000    267.41892   -9046.9343   -8027.4114   -9046.9343            0    9666.5309    24.729496    25.002638    23.220928    14357.562    11211.287    9684.0485    8104.2572    671.78883    242.41699    1512.1151   -6003.3335 
 5437000    254.01913   -9107.6236   -8139.1869   -9107.6236            0    7441.5621    24.993329    25.016298    23.037165     14403.77    5613.6664    8142.3773    8568.6426    146.42016   -313.15546    595.31734    -6575.981 
 5438000    276.13562   -9090.9016   -8038.1467   -9090.9016            0    8654.2891    24.966832    25.144091    22.868639    14356.207    8440.6194    8329.8188    9192.4292    -300.5505   -825.48941   -37.860415   -6226.1934 
 5439000    263.19124   -9130.9184   -8127.5133   -9130.9184            0    9037.6183    24.825686      24.9625    23.090564     14309.48    9274.6613    9217.3911    8620.8025    50.918325    435.50724    29.129875    -6241.461 
 5440000    272.24563   -9058.2717   -8020.3472   -9058.2717            0    9788.3282    24.893841    25.082929     22.90788     14303.92    9871.5501    9677.0425     9816.392    -577.7277    660.86736    453.65031   -5978.4237 
 5441000    264.88061   -9066.9875   -8057.1418   -9066.9875            0    9282.9462    25.089577     25.06357    22.762596    14313.903    8232.3417    8819.7584    10796.739   -628.16978    602.87807    439.60871   -6119.2934 
 5442000    273.78797   -9086.6529   -8042.8483   -9086.6529            0    9265.0762     24.94626    24.883112    23.058663    14313.448    9163.7426    9653.4057    8978.0803   -22.245949    364.76496    842.38014   -6108.7918 
 5443000    265.89987   -9078.3266    -8064.595   -9078.3266            0    10150.938    24.853984    24.864669    23.094466    14272.059    10431.839    10704.807     9316.167   -128.43236    309.99084   -1141.2839    -5951.745 
 5444000    269.38204   -9108.9104   -8081.9032   -9108.9104            0    8446.5503    25.024888    25.028887    22.895331    14340.379    8537.9902    7632.9904    9168.6703   -627.68649   -519.30798    696.11502   -6315.3941 
 5445000    267.25912   -9091.3738   -8072.4601   -9091.3738            0     8274.131    24.872497    25.054275    23.001804    14333.859     9355.338    6779.7456    8687.3094    86.103686    423.97735   -373.40131   -6342.7975 
 5446000    264.39337    -9055.282   -8047.2939    -9055.282            0    10006.929    24.837689    25.048496     22.98446    14299.707    9186.5662    10862.583    9971.6379    620.99576    394.96917   -1149.2969   -5960.3832 
 5447000    273.39459   -9116.1967   -8073.8918   -9116.1967            0    7700.7423    24.962573    24.993897    23.048759    14380.397    6486.7853     8544.794    8070.6476   -412.04093    842.52146   -313.05521   -6458.8664 
 5448000    268.30389   -9068.8481   -8045.9513   -9068.8481            0    8762.6661    24.997227    25.046751    22.923715    14352.523    8466.9523    9001.6928    8819.3531    248.89024    52.083921    1180.0738   -6211.7779 
 5449000    269.55012   -9055.7611   -8028.1132   -9055.7611            0    9577.0654    24.864653    24.895216    23.144715    14326.831     10188.64    9973.5598     8568.996    143.28051   -746.72032    1158.8165   -6027.0606 
 5450000    265.28703   -9068.5953   -8057.2002   -9068.5953            0    9604.7783    24.958505    25.000851    22.911383    14296.333     10012.56    8858.7044    9943.0709   -157.50721    268.89877   -386.85994   -6054.6293 
 5451000    281.16564   -9078.6055   -8006.6739   -9078.6055            0    11148.388    24.846131     24.96828    22.908748    14211.789    10377.266    11003.556    12064.341   -122.79218    1075.0825    775.49869   -5696.0105 
 5452000     269.7645   -9108.1867   -8079.7214   -9108.1867            0    9822.4759    24.978956    24.890514    22.963925    14277.569    9650.6497    10119.757    9697.0206   -49.479918    492.14178    966.70674   -6034.4491 
 5453000    259.17062   -9108.2746    -8120.198   -9108.2746            0    8844.3184     24.93702    24.922074    23.050648    14325.569    10040.832    8704.4129    7787.7103   -1209.3126   -645.71425    311.28524     -6272.41 
 5454000    265.14157   -9066.7892   -8055.9486   -9066.7892            0    7441.2731    25.108824    25.000962    22.968516    14418.365    7229.8707    7514.1212    7579.8274    502.65762   -327.15188    195.96129   -6491.2195 
 5455000    255.26903   -9084.0944   -8110.8924   -9084.0944            0     8351.374     24.99783    24.975394     23.00658    14363.713    8534.3234    8481.6067    8038.1919   -150.70993    25.990843    205.89075   -6361.4464 
 5456000    246.16171   -9102.7744   -8164.2937   -9102.7744            0    7956.9761     24.86168    24.887819    23.227933    14372.354    9212.5742    8789.4701    5868.8841     109.3458    795.71997   -871.97598   -6496.4635 
 5457000    260.94087   -9066.6798   -8071.8542   -9066.6798            0    8613.5433    25.011216    25.045474    22.894063    14341.248    7762.0674    8898.8019    9179.7606   -491.28639     267.7944    347.43471   -6270.3111 
 5458000    268.24176   -9082.5263   -8059.8664   -9082.5263            0    9687.4616    24.844241    24.998787     23.03131    14304.191    9849.9148    9403.9933    9808.4767    -146.4888   -233.80391   -1223.4214   -6038.9461 
 5459000      268.116   -9064.9185    -8042.738   -9064.9185            0    8540.0768    24.879705    25.076908    23.067445    14391.919     9856.039    7563.9598    8200.2316     954.7805   -518.67355    -1196.512   -6250.2496 
 5460000    270.41537   -9085.1576   -8054.2109   -9085.1576            0    8707.4848    24.890981    25.146557    22.912431    14341.405    9109.9318      8006.39    9006.1326    823.49333   -1292.0924    316.29632   -6232.9997 
 5461000    271.36724   -9074.2584   -8039.6827   -9074.2584            0    8688.4692    24.905794    25.104884    22.977306    14366.723    8945.1189    8856.0931    8264.1956     89.13321    69.390376   -427.44132   -6219.2405 
 5462000    261.89016   -9085.6212   -8087.1765   -9085.6212            0    8194.5965    24.887592      25.0585    23.048518     14374.11    9173.6169    6861.9605    8548.2121    289.01757     242.8435    358.30156   -6369.3297 
 5463000    255.87034   -9078.9026   -8103.4082   -9078.9026            0    7915.4064    24.927141    25.065418    23.035348    14392.697    7905.2281    7825.7051    8015.2858    105.97199   -459.51758   -783.79786   -6441.9428 
 5464000     270.4938   -9086.6308   -8055.3851   -9086.6308            0    8464.6804    24.899142    25.037357    23.041464    14364.249    8039.7364    8448.2725    8906.0323   -1204.0827   -190.54553    602.77154   -6282.1375 
 5465000    259.56895   -9086.5863   -8096.9911   -9086.5863            0    8432.6419    24.906443    25.027971     23.00851    14342.532    10050.801    7298.3111    7948.8131   -457.55466    153.55223    834.17254   -6333.1259 
 5466000    253.02051   -9081.5761   -8116.9465   -9081.5761            0    7860.3779    25.079823    24.970992    22.966975    14383.483    6742.6238    8548.0633    8290.4465    668.96464   -193.26393    189.78547   -6468.0881 
 5467000    264.18254   -9056.4322   -8049.2479   -9056.4322            0    8744.7802    25.012406    24.912789    23.014792     14341.18    7491.3044    9312.7322     9430.304    609.61971   -201.64635    929.92373   -6220.2649 
 5468000     257.2187    -9043.299    -8062.664    -9043.299            0    9957.7724     24.97397    24.835872    23.044892    14293.601    9974.2622    9963.0846    9935.9704   -230.38195    638.46725   -1344.2868   -5986.8916 
 5469000    264.09193   -9121.8298   -8114.9909   -9121.8298            0     8662.006    24.996865    24.873377     23.04443    14328.023    7821.2585    9096.1106    9068.6489    1052.5791   -418.91859    255.91659   -6304.9823 
 5470000    262.04959   -9086.1531   -8087.1005   -9086.1531            0    7893.2438    25.095596    25.022668    22.887262    14372.256     7362.042    7195.4513     9122.238   -163.48351   -47.035756     825.4366   -6432.6402 
 5471000    257.86401   -9058.7176   -8075.6224   -9058.7176            0    8852.5965    24.926414    24.919801    23.094618    14345.482    8407.4481     8836.078    9314.2634   -513.23462    244.02628    148.31895    -6223.534 
 5472000    266.04161   -9104.1261   -8089.8542   -9104.1261            0    10999.733    24.848952    24.934543    22.938659     14212.73    10621.758    11007.823    11369.619   -429.63115   -256.85215   -433.56669   -5809.8504 
 5473000    264.05201   -9078.1774   -8071.4907   -9078.1774            0    9558.0631    24.939057    25.015352    22.965146    14327.019    8485.1333    9627.3373    10561.719   -471.37505    261.58109    571.75085   -6074.3824 
 5474000    277.34177   -9061.2877   -8003.9344   -9061.2877            0    10355.157    24.833835    25.059664        22.95    14282.417    10316.892    10520.493    10228.086   -1222.1908    192.42674    780.69941   -5847.0131 
 5475000      265.193   -9104.0521   -8093.0154   -9104.0521            0    7904.7564    24.854451    25.052929    23.068519    14364.232    8284.8116    7775.4703    7653.9873    187.32506   -297.03394    1622.0923   -6437.0671 
 5476000    273.70502    -9117.886   -8074.3976    -9117.886            0    9059.3903      24.8357    25.117932    22.961431    14323.832    8681.0488    8770.0744    9727.0476   -59.479468    614.35492    784.65004   -6181.9055 
 5477000    265.95634   -9052.2618   -8038.3149   -9052.2618            0    7631.0881    24.855707    25.190591    22.988242    14393.627    8658.8742    7391.3645    6843.0255    179.80744    1174.4654   -81.739113   -6436.4253 
 5478000    273.43381   -9091.6292   -8049.1749   -9091.6292            0    8209.6492    24.924049    25.059802    23.029311    14383.917    8383.6455    8416.2383     7829.064    80.939698   -982.10501   -137.07055   -6326.9984 
 5479000     263.5682   -9098.6414   -8093.7992   -9098.6414            0    8602.5492     24.82812    25.073245    23.017373     14328.81    8070.9717    9093.5591    8643.1167    293.46525   -501.99468     361.8035   -6296.1159 
 5480000    267.83314   -9075.1062   -8054.0042   -9075.1062            0    7363.1151    24.917428    25.025322    23.093767    14400.504    7786.9077    7757.6106    6544.8269    568.32608    189.19598    -365.3034    -6507.628 
 5481000    280.09242   -9099.9026   -8032.0626   -9099.9026            0    8577.1988    24.845132    25.215931    22.866134    14325.476    9409.4427    6723.8053    9598.3484   -1073.1546    182.20495    177.09984   -6240.0939 
 5482000    264.57517   -9065.7156   -8057.0344   -9065.7156            0    8745.4993    24.843834    25.014015    23.044629    14320.948    10207.706    8111.3115    7917.4801    193.12457   -214.82714    473.93143   -6230.4815 
 5483000    273.58792   -9072.5704   -8029.5285   -9072.5704            0    10171.262    24.803102    24.972633    23.039825    14270.839    11234.544    10372.658    8906.5834   -750.32874   -456.29571    364.32998   -5912.6291 
 5484000    272.80838   -9092.0473   -8051.9773   -9092.0473            0    8599.0911     24.98207    24.989118    22.990663    14352.608    8379.8815    8668.8335    8748.5583   -992.77884   -375.54951    716.27993   -6252.0322 
 5485000    259.22304   -9094.3289   -8106.0525   -9094.3289            0    7122.4296    25.132513    24.989792    22.958701    14419.357    5534.9584    7426.8177    8405.5126   -1260.5291   -694.48691   -904.90222   -6608.2659 
 5486000    276.36831   -9107.8627   -8054.2206   -9107.8627            0    8508.8807    24.983173    24.927052    23.044339     14351.02    8605.9141    8519.4339     8401.294   -440.57501    -371.4919     236.6088   -6273.3553 
 5487000     262.2172   -9083.2211   -8083.5296   -9083.2211            0    8673.0531    24.979477    24.971118    22.996207     14344.24    9520.8084    8425.9625    8072.3885    10.319576   -878.95386    162.91475   -6269.1613 
 5488000    273.12192   -9057.5825   -8016.3172   -9057.5825            0    7695.3833     25.04547    25.003108    23.022228    14416.855    7967.2017    6463.3405    8655.6077    557.12996   -529.84339    -638.3612    -6398.324 
 5489000    267.66548   -9081.7964   -8061.3336   -9081.7964            0    7405.7233     25.10728    25.000267    22.964456    14414.529    6489.9198    7378.7574    8348.4929    816.56706   -223.83823    337.66206    -6504.494 
 5490000    265.78464   -9043.8933    -8030.601   -9043.8933            0    8470.9713    25.049068    24.943281    22.980042    14358.067    8378.9353    9055.9202    7978.0585   -863.33723   -371.68066   -521.41132   -6256.7993 
 5491000    263.49906   -9060.8889   -8056.3103   -9060.8889            0    8808.3525    25.012396    24.904456    23.000759    14327.635    7479.4427    9859.0257    9086.5892   -1143.5865    385.16898    195.16313    -6215.771 
 5492000    275.70148   -9094.0787   -8042.9789   -9094.0787            0    8440.6719     25.00513    24.944218    23.035042    14367.725    7912.0267    8312.8555    9097.1335   -46.335045    -249.2924    426.74599   -6274.3329 
 5493000    259.46205   -9052.6287    -8063.441   -9052.6287            0    8699.5042     25.05105    24.986829    22.941969    14360.441    9339.9396     8237.127     8521.446     154.3887   -969.94037    1253.3473   -6241.4839 
 5494000    261.65735   -9101.6905   -8104.1333   -9101.6905            0     7610.958    24.906187    24.925739    23.175202    14387.284    8020.0828    7967.2769    6845.5141   -414.22245   -66.054129    361.91953   -6507.1733 
 5495000    259.10779    -9037.956   -8050.1189    -9037.956            0      9667.44    24.972716      25.0119    22.895745    14301.027    10950.981    8787.9088    9263.4304   -104.48488   -1550.5927   -200.72606   -6033.8214 
 5496000    258.81783   -9058.4019   -8071.6703   -9058.4019            0    10005.408    24.902334    24.999194    22.940851    14281.558    9924.7068    9387.0808    10704.436   -1151.4401   -1281.6649    706.79855   -5987.7252 
 5497000    277.69807   -9066.2404   -8007.5287   -9066.2404            0    10147.131    24.847702    24.936068    23.016807    14261.306     10922.46    9935.2666    9583.6657   -205.48226    123.79842    546.02492   -5897.0623 
 5498000    256.13271   -9083.1951   -8106.7004   -9083.1951            0    8579.6155    24.808559    25.100359    22.983949     14312.19    9347.8931    8062.8992    8328.0541   -435.82586    230.44764    -481.3758   -6315.8891 
 5499000    251.67686    -9089.453   -8129.9461    -9089.453            0    9720.6021    24.804621    24.971218    23.036169     14268.64      10279.6    9592.3709    9289.8352   -157.65479     568.5717   -986.57542   -6107.1521 
 5500000    282.32715   -9109.4702   -8033.1103   -9109.4702            0    8617.7349     24.88438    25.056954      23.0076    14345.854    9385.3685    7712.1468    8755.6894   -498.80994   -280.42021    210.73636   -6230.1116 
Loop time of 580.354 on 64 procs for 250000 steps with 1920 atoms

Performance: 74.437 ns/day, 0.322 hours/ns, 430.771 timesteps/s
99.1% CPU use with 64 MPI tasks x 1 OpenMP threads

MPI task timing breakdown:
Section |  min time  |  avg time  |  max time  |%varavg| %total
---------------------------------------------------------------
Pair    | 63.321     | 65.784     | 67.702     |  12.9 | 11.34
Bond    | 0.27861    | 0.28667    | 0.29763    |   0.8 |  0.05
Kspace  | 252.35     | 260.56     | 271.1      |  26.6 | 44.90
Neigh   | 6.3059     | 7.1356     | 7.9615     |  17.6 |  1.23
Comm    | 101.17     | 111.64     | 121.17     |  45.6 | 19.24
Output  | 2.1244     | 2.1281     | 2.1343     |   0.1 |  0.37
Modify  | 116.77     | 124.03     | 129.17     |  33.5 | 21.37
Other   |            | 8.79       |            |       |  1.51

Nlocal:        30.0000 ave          33 max          27 min
Histogram: 2 9 0 13 0 19 10 0 6 5
Nghost:        2813.64 ave        2840 max        2784 min
Histogram: 3 4 7 5 9 14 6 5 5 6
Neighs:        10583.2 ave       11849 max        9315 min
Histogram: 2 4 6 9 11 15 6 3 4 4

Total # of neighbors = 677325
Ave neighs/atom = 352.77344
Ave special neighs/atom = 2.0000000
Neighbor list builds = 11698
Dangerous builds = 0

unfix		3
unfix		2
unfix		1

write_data	data.final.${pid}
write_data	data.final.0
System init for write_data ...
PPPM initialization ...
  extracting TIP4P info from pair style
  using 12-bit tables for long-range coulomb (../kspace.cpp:340)
  G vector (1/distance) = 0.37433855
  grid = 30 30 30
  stencil order = 5
  estimated absolute RMS force accuracy = 0.0032852916
  estimated relative force accuracy = 9.893558e-06
  using double precision FFTW3
  3d grid and FFT values/proc = 3600 512
Last active /omp style is kspace_style pppm/tip4p/omp
WARNING: Not all mixed pair coeffs generated from mixing. Use write_data with 'pair ij' option to store all pair coeffs. (../write_data.cpp:312)

write_restart   restart.lmp.${pid}
write_restart   restart.lmp.0
System init for write_restart ...
PPPM initialization ...
  extracting TIP4P info from pair style
  using 12-bit tables for long-range coulomb (../kspace.cpp:340)
  G vector (1/distance) = 0.37433855
  grid = 30 30 30
  stencil order = 5
  estimated absolute RMS force accuracy = 0.0032852916
  estimated relative force accuracy = 9.893558e-06
  using double precision FFTW3
  3d grid and FFT values/proc = 3600 512
Last active /omp style is kspace_style pppm/tip4p/omp
Total wall time: 0:09:43
