LAMMPS data file via write_data, version 30 Jul 2021, timestep = 6000000

864 atoms
2 atom types
576 bonds
1 bond types
288 angles
1 angle types

0.6222720953160952 17.58530030468615 xlo xhi
1.8244856028769103 21.804692197131498 ylo yhi
0.7591705028236699 21.454025297168158 zlo zhi

Masses

1 1.00794
2 15.9994

Pair Coeffs # lj/cut/tip4p/long/omp

1 0 0
2 0.21084 3.1668

Bond Coeffs # harmonic/omp

1 450 0.9572

Angle Coeffs # harmonic/omp

1 55 104.52

Atoms # full

318 1 1 0.5897 6.963530852025147 6.680952368081701 4.8730222070742055 -4 -5 2
623 1 1 0.5897 8.647436505609422 3.3844597930846687 1.7718876125569636 4 2 2
600 1 1 0.5897 3.3584936517982213 3.9521193706454905 2.2963739776472174 2 -7 -2
93 1 1 0.5897 1.4813707989562732 5.00771442964783 3.095881040986128 -1 -4 1
232 1 2 -1.1794 4.239196624301972 4.837174416617978 5.7095942730097144 -2 -2 0
598 1 2 -1.1794 2.5203829868581105 3.53116411586472 2.487835109363072 2 -7 -2
333 1 1 0.5897 6.837487773742433 5.544714684905341 2.7234455560540742 -3 -2 -3
331 1 2 -1.1794 6.665634000967438 5.546307590895518 1.7817673261935005 -3 -2 -3
844 1 2 -1.1794 1.52932480988697 2.7860589229991906 4.874647927676977 -2 0 6
92 1 1 0.5897 1.5284938147813136 6.266855910918073 3.935218661289663 -1 -4 1
788 1 1 0.5897 5.014845648026005 2.4049447456981063 3.9616181418320946 4 0 5
285 1 1 0.5897 5.097600536838233 5.671750181288063 2.43517562467448 6 2 -4
800 1 1 0.5897 5.049182196671389 2.3987901708829438 1.4992246524817912 0 0 4
787 1 2 -1.1794 4.780110395349471 2.3843437398173233 4.889410706089322 4 0 5
284 1 1 0.5897 3.698411383893691 6.2116269884804005 2.2281695743394208 6 2 -4
283 1 2 -1.1794 4.261653228019585 5.799919412095267 2.8835709717723597 6 2 -4
332 1 1 0.5897 6.65013167162006 6.472950881030146 1.5422048989873298 -3 -2 -3
599 1 1 0.5897 2.548802419215619 3.3567341771847508 3.428609672730675 2 -7 -2
622 1 2 -1.1794 8.15029440115107 2.5764353007436136 1.6443181412934136 4 2 2
233 1 1 0.5897 3.8200601180499834 5.173686470563897 4.917522373658364 -2 -2 0
801 1 1 0.5897 6.378431896570473 2.1961267282217785 2.1949844843218393 0 0 4
234 1 1 0.5897 4.401024218492914 3.912704939685116 5.52124078547886 -2 -2 0
512 1 1 0.5897 8.459430841368942 4.564123470949973 5.584080986995558 -2 3 -2
845 1 1 0.5897 1.73175325021307 2.261993590555092 5.649718905725197 -2 0 6
316 1 2 -1.1794 7.079101220598663 5.7758547095181605 4.583646215811459 -4 -5 2
317 1 1 0.5897 6.324067711706694 5.310497689977586 4.943746469164541 -4 -5 1
91 1 2 -1.1794 0.9775053442170103 5.50968131919559 3.7365663495958956 -1 -4 1
624 1 1 0.5897 8.78749912137693 1.8770560047406213 1.78986012474745 4 2 2
799 1 2 -1.1794 5.43482372089606 2.0968664109083006 2.3216717458606557 0 0 4
368 1 1 0.5897 8.022088962261947 2.260825857418562 5.111728926401106 7 5 -1
864 1 1 0.5897 1.3247570939485125 1.9589744412432628 1.8506871134026681 -2 -1 6
846 1 1 0.5897 0.7010721157879366 2.429490522847929 4.553419847902406 -2 0 6
77 1 1 0.5897 8.710468491550415 6.65987115919523 3.702557688308198 -3 -5 -4
511 1 2 -1.1794 9.099124220640979 3.8519975551483356 5.578905114369738 -2 3 -2
375 1 1 0.5897 2.105388771520592 6.8116668272304235 0.7628489481896779 4 3 -1
699 1 1 0.5897 1.7177921845846402 3.120498921873681 10.054728565841154 0 1 -4
277 1 2 -1.1794 5.921329419128562 5.950791255518404 10.656270034202691 1 4 -1
105 1 1 0.5897 7.097884206135109 3.672352034003956 8.241814774435 6 0 5
705 1 1 0.5897 4.899451351551596 4.509735718115822 11.021777446068445 1 -2 -2
103 1 2 -1.1794 6.665549618144066 3.319838928449793 7.463921137007589 6 0 5
826 1 2 -1.1794 4.577804230953362 6.052745395419626 8.195593437544378 0 3 1
661 1 2 -1.1794 2.1516784774284625 6.401590974720321 9.38232356577751 1 -5 0
698 1 1 0.5897 1.1156227484086028 3.238570847409577 8.670698265549849 0 1 -4
703 1 2 -1.1794 4.501812908811857 3.639718508905277 11.057393243198751 1 -2 -2
828 1 1 0.5897 4.471336448457125 5.636112215077304 7.340381518094037 0 3 1
52 1 2 -1.1794 9.005871811639333 2.2141249599818935 10.905958090708335 -2 -3 5
547 1 2 -1.1794 8.16011457588627 4.999831729172354 9.299540990112842 6 0 6
104 1 1 0.5897 5.754105324352784 3.1985447147864243 7.73012527795965 6 0 5
662 1 1 0.5897 1.8792120010899294 5.48395934329993 9.379294879952177 1 -5 0
129 1 1 0.5897 4.19247992068032 3.0918173745052213 9.32202996955293 1 1 -7
127 1 2 -1.1794 4.167474079951566 2.656290841339361 8.46997280236511 1 1 -7
279 1 1 0.5897 6.727003361607384 5.601335728783436 10.275344120236824 1 4 -1
549 1 1 0.5897 8.903564451226396 4.723657000535825 9.835560071304334 6 0 6
39 1 1 0.5897 2.472885246051007 1.869764403149713 7.842190003503251 2 1 0
697 1 2 -1.1794 1.2966289952260832 3.7441440318220094 9.463139094889915 0 1 -4
827 1 1 0.5897 3.684664617775977 6.161914230895327 8.522245881863316 0 3 1
663 1 1 0.5897 2.522526722780677 6.53896063664732 10.254047823994563 1 -5 0
548 1 1 0.5897 8.488839856852 5.747438589105538 8.800207110022642 6 0 6
51 1 1 0.5897 0.793631888620594 6.4772549044755925 6.5365924206076595 7 -4 -2
281 1 1 0.5897 2.6631175309895068 4.738250326943435 6.726173710300246 -4 3 0
282 1 1 0.5897 1.4356920204408352 4.177472214441343 6.039885115669179 -4 3 0
278 1 1 0.5897 5.355994055889832 6.125111926555761 9.903734157738734 1 4 -1
53 1 1 0.5897 8.115891445727026 1.8741511137098468 10.812985357566822 -2 -3 5
280 1 2 -1.1794 1.7066040953291477 4.773191708605034 6.738466130874419 -4 3 0
378 1 1 0.5897 5.466423372965505 2.1161207115572727 14.526186853380555 4 4 4
321 1 1 0.5897 1.5480450051027757 6.177097226539855 12.32385738529226 7 1 1
163 1 2 -1.1794 2.799138063583938 5.243840269176195 15.277808152897807 -6 -1 -1
376 1 2 -1.1794 4.851205755885662 2.656613249953223 14.030533306383072 4 4 4
377 1 1 0.5897 5.363099254350672 3.4205449392665255 13.764702143902344 4 4 4
342 1 1 0.5897 7.81415382535903 4.976686869256735 12.893141708263546 1 7 0
338 1 1 0.5897 5.734427249288429 5.452706340298105 13.59460937226512 -2 2 3
588 1 1 0.5897 8.154302616042852 3.139356245628009 16.09044935712948 1 4 4
263 1 1 0.5897 3.063756705776186 2.670971656759205 13.992106247295434 3 -4 6
343 1 2 -1.1794 8.875446048902653 6.285081987381138 12.14355399190728 -3 1 -1
164 1 1 0.5897 3.539706501787761 5.33825290834572 14.67868232674331 -6 -1 -1
262 1 2 -1.1794 2.15077673797555 2.383827357554141 14.009676276307637 3 -4 6
334 1 2 -1.1794 2.4275212668247725 1.8798056860353265 11.430665379742537 6 0 4
356 1 1 0.5897 3.9397807365409263 6.65813773649032 12.34853278388495 -2 -2 2
335 1 1 0.5897 1.9350778265724282 2.1059683743868467 12.219750095240919 6 0 4
264 1 1 0.5897 1.7247954111068309 2.9761090545007454 14.62938272987408 3 -4 6
337 1 2 -1.1794 4.979085419775971 5.968595675291379 13.876784452605706 -2 2 3
341 1 1 0.5897 7.551092464305584 4.130669499675102 14.120793016568724 1 7 0
165 1 1 0.5897 2.03402068022841 5.478047595509014 14.752404542926143 -6 -1 -1
586 1 2 -1.1794 7.343465178249925 2.8678777989297375 15.660175261688055 1 4 4
340 1 2 -1.1794 7.13641698588708 4.452880399457561 13.320462392484382 1 7 0
587 1 1 0.5897 6.647671431893908 3.222868939351249 16.213490676982214 1 4 4
336 1 1 0.5897 3.1703946570456325 2.4835053770861624 11.430096924678491 6 0 4
319 1 2 -1.1794 0.9609037471954218 5.623766623308818 12.839026212189639 7 1 1
339 1 1 0.5897 5.349183133817541 6.810469171215186 14.142440470898674 -2 2 3
704 1 1 0.5897 5.233318716531063 3.0486339956745843 11.235817015486406 1 -2 -2
175 1 2 -1.1794 7.5397407004522705 2.13759046837724 19.10418070817625 -2 -5 3
438 1 1 0.5897 2.2225118159734327 3.1451475928421644 20.221963478867004 -1 6 0
519 1 1 0.5897 4.391272357594795 2.545314285555088 19.85793329348408 -2 -3 -3
518 1 1 0.5897 4.184927869327888 4.0221316145024755 20.11970225457968 -2 -3 -3
47 1 1 0.5897 3.9991062146846326 6.081400083207378 18.963082247880948 2 -3 0
578 1 1 0.5897 5.703999806881036 5.326131019670251 16.889891918878355 2 2 -2
2 1 1 0.5897 8.025226301196366 5.497140355267609 19.772064607497192 3 -7 3
437 1 1 0.5897 1.3593742886142324 4.164921721816901 20.934085491404353 -1 6 0
176 1 1 0.5897 7.569783847656878 2.9809909465941002 19.555919190721582 -2 -5 3
135 1 1 0.5897 3.960828918859603 3.64958700785716 17.399569825552803 3 -5 -1
579 1 1 0.5897 6.328275279644262 4.560745569884269 18.037284449614916 2 2 -2
517 1 2 -1.1794 4.069136982042443 3.159353621012146 20.517851682282917 -2 -3 -3
70 1 2 -1.1794 1.2120488584472602 6.622948457025725 18.52644749385243 7 3 -5
670 1 2 -1.1794 9.076272951250806 6.590620457076038 17.832940297423455 4 0 -1
577 1 2 -1.1794 5.829996250546317 4.43987089490071 17.228946700964713 2 2 -2
134 1 1 0.5897 2.6575585005440545 3.973562715283368 16.70059598343247 3 -5 -1
46 1 2 -1.1794 4.47686257006427 5.740498586219653 19.719274058737795 2 -3 0
374 1 1 0.5897 3.5195780454363974 6.727538402954648 20.9238090891661 4 3 -2
133 1 2 -1.1794 3.0200470632994127 3.4761368502645844 17.433741578995658 3 -5 -1
3 1 1 0.5897 6.943962801613287 4.976497821436103 20.69501977494067 3 -7 3
48 1 1 0.5897 5.399600164449661 5.83696616979988 19.483588770693657 2 -3 0
1 1 2 -1.1794 7.1528672041185155 5.103070950834377 19.76946031517 3 -7 3
436 1 2 -1.1794 1.3189417814339321 3.452289197484724 20.29625140363259 -1 6 0
71 1 1 0.5897 1.045274694447521 5.78697643670983 18.090967103417874 7 3 -5
326 1 1 0.5897 2.1196621451038187 2.0277921470612377 17.30125573393657 4 0 -1
291 1 1 0.5897 3.373036286248578 6.59307129000625 16.321416346617426 -3 -6 -9
710 1 1 0.5897 7.605967626939271 6.659327796755038 16.643586256835587 -6 -1 -3
64 1 2 -1.1794 0.9086958761021628 9.041699389350985 2.4732092734753772 3 -1 -4
65 1 1 0.5897 1.1284456777090668 9.972836564911141 2.5046366705275203 3 -1 -4
167 1 1 0.5897 3.370667296353098 10.438063081021008 1.4657199423592693 -1 1 3
755 1 1 0.5897 4.697215209727037 9.425755402025107 3.4307292906388422 -2 0 0
405 1 1 0.5897 6.842400025445075 11.674175946090411 2.5528633889242647 8 -4 1
594 1 1 0.5897 5.361147028358094 11.380861596521527 3.925018574067288 0 -1 -3
592 1 2 -1.1794 4.4309500120105625 11.15492672703112 3.9258852475360713 0 -1 -3
756 1 1 0.5897 4.425206318789639 7.94828027746921 3.243134784687037 -2 0 0
754 1 2 -1.1794 5.132257641464028 8.593582820220405 3.2449244608129084 -2 0 0
858 1 1 0.5897 1.8894208778943298 7.745355834111206 4.9010331877393805 5 1 -2
557 1 1 0.5897 6.014737714690855 8.529121370425857 1.5074991547088912 1 1 3
593 1 1 0.5897 4.218646377046642 11.015709111425718 4.848837589652814 0 -1 -3
412 1 2 -1.1794 1.7418668133102042 11.584130313931675 2.5679149083730684 1 -3 1
257 1 1 0.5897 6.308877769091841 8.454044613616382 4.6546856251058655 1 -3 -2
256 1 2 -1.1794 6.961810984494481 8.2830873600158 5.3334794939109464 1 -3 -2
168 1 1 0.5897 3.60892216628079 9.054458199332089 0.8991463632776595 -1 1 3
856 1 2 -1.1794 2.487873759561114 7.822352169050001 4.15790848876421 5 1 -2
261 1 1 0.5897 8.506493634974001 10.326324718343079 3.284489045656197 -3 1 6
414 1 1 0.5897 2.0367246975151434 11.636796235115312 3.4770921123928313 1 -3 1
556 1 2 -1.1794 6.701485760853279 8.21211990336137 0.9208335921269653 1 1 3
90 1 1 0.5897 3.153184871288791 8.987491462871105 5.7907592575969185 7 -2 5
857 1 1 0.5897 1.974162133502301 8.26249638545746 3.4806441338397227 5 1 -2
373 1 2 -1.1794 2.991969547196448 7.139883890623116 0.9129834863180015 4 3 -1
166 1 2 -1.1794 3.9670332900681347 9.942181513936902 0.9046893285595159 -1 1 3
652 1 2 -1.1794 6.27395706893898 11.561060482973998 0.8310852653683061 -3 0 -1
823 1 2 -1.1794 1.2203267689778994 11.692183965638533 5.615793982262497 -2 7 2
403 1 2 -1.1794 7.153894658014751 11.557213712017099 3.450407702991826 8 -4 1
654 1 1 0.5897 5.512930490376316 10.981619493359934 0.8682249393228193 -3 0 -1
849 1 1 0.5897 6.345081056470245 11.393478084509931 8.89944958315677 1 0 5
842 1 1 0.5897 8.770151589695397 10.260853724190362 8.850261416322956 -4 -1 1
215 1 1 0.5897 6.464028235464984 11.484204613129217 6.883544681453635 4 1 1
495 1 1 0.5897 2.310747103580926 8.1705386300621 8.753348535990437 -2 -1 0
494 1 1 0.5897 2.788743047626458 9.359205713543876 7.946691602493311 -2 -1 0
843 1 1 0.5897 8.257994653122193 9.327045906722818 9.926285133485743 -4 -1 1
493 1 2 -1.1794 2.6159913135578456 9.07328980195376 8.843759206890205 -2 -1 0
89 1 1 0.5897 2.7759017794862255 10.442605594758897 5.970623752737378 7 -2 5
657 1 1 0.5897 8.376148883908845 7.377580289753823 7.2793485640458995 0 1 0
742 1 2 -1.1794 1.1770953402188418 11.787674459079257 11.07469523255027 2 -1 0
847 1 2 -1.1794 6.4322558145171245 10.767222044253758 9.618125008444943 1 0 5
634 1 2 -1.1794 8.221199649998564 10.842720831066195 6.660709738781154 -8 2 4
604 1 2 -1.1794 6.304495093949401 8.311670884398037 8.035914180563902 -4 4 0
605 1 1 0.5897 5.665154931666053 7.647569324690229 8.29379518620027 -4 4 0
848 1 1 0.5897 7.209353545189084 11.057030788288454 10.096060655857027 1 0 5
479 1 1 0.5897 3.09752273726813 11.061420708844976 9.058373413433994 1 4 1
606 1 1 0.5897 6.155260726804342 9.036866252815145 8.642635808267023 -4 4 0
258 1 1 0.5897 6.471668233991304 8.32727775202649 6.1545295852495485 1 -3 -2
636 1 1 0.5897 8.314477153224974 10.031147661621365 6.161764276220775 -8 2 4
608 1 1 0.5897 3.724338283409893 9.250620910418752 10.14655395446641 5 2 2
522 1 1 0.5897 6.718944192856101 7.514089322719336 10.921130112876439 -2 0 -1
88 1 2 -1.1794 3.4214081781524963 9.789091395856564 6.239961958321748 7 -2 5
743 1 1 0.5897 0.9594651747917593 11.762840110158722 10.142862465777922 2 -1 0
635 1 1 0.5897 8.731135804712807 11.486613430481684 6.1691169782248645 -8 2 4
609 1 1 0.5897 5.0051960901660815 9.846930456010462 10.690506073626738 5 2 2
841 1 2 -1.1794 9.034578626818838 9.525353824769827 9.402905184479359 -4 -1 1
607 1 2 -1.1794 4.19488162566747 9.416592814971768 10.963459815989694 5 2 2
355 1 2 -1.1794 3.3009763524876745 7.022907751534414 11.736022897496564 -2 -2 2
220 1 2 -1.1794 7.0950147322824355 11.006846801471804 13.714821607323485 2 -3 0
27 1 1 0.5897 3.1637214442961272 11.367202525423446 13.574043358940898 -3 8 7
357 1 1 0.5897 3.584237115725317 7.927747482169109 11.60438552676729 -2 -2 2
136 1 2 -1.1794 6.825157453488962 8.136156806142036 13.941469483502102 3 -8 0
79 1 2 -1.1794 5.0600017993340325 9.487064069530337 15.70267069578272 0 2 -3
123 1 1 0.5897 1.25002042976794 8.123593112589099 14.382223426625751 1 -3 -1
121 1 2 -1.1794 2.156040859292643 8.140183580641615 14.690688302467374 1 -3 -1
520 1 2 -1.1794 7.187047545878468 8.27928369075493 11.25529287235336 -2 0 -1
711 1 1 0.5897 6.715173523203946 7.605278700162056 15.866598466497239 -6 -1 -3
222 1 1 0.5897 7.3853467273395585 11.566438567888815 12.994474327138287 2 -3 0
596 1 1 0.5897 1.2587357484404258 9.889201041923224 11.367260422681962 2 -4 0
137 1 1 0.5897 7.723727880408915 7.954587358747433 14.216960308551679 3 -8 0
521 1 1 0.5897 6.97471595967654 8.301924912069445 12.188410365686876 -2 0 -1
81 1 1 0.5897 4.558444290360326 10.002332514126442 15.0707798609512 0 2 -3
122 1 1 0.5897 2.6155152771587433 8.690408506371611 14.056305925302 1 -3 -1
26 1 1 0.5897 3.6277096245017675 10.243529630237392 12.6717511163789 -3 8 7
344 1 1 0.5897 8.186438245745098 6.8661870089762305 11.821241117940236 -3 1 -1
138 1 1 0.5897 6.642211958595437 9.01203267509657 14.281561030054382 3 -8 0
25 1 2 -1.1794 3.4834774909035455 10.46512835284685 13.591745406473768 -3 8 7
221 1 1 0.5897 6.310922406377606 11.439060383574018 14.053467017191958 2 -3 0
595 1 2 -1.1794 0.8568846945255658 9.02056063103974 11.385191687661516 1 -4 0
185 1 1 0.5897 1.7867375900160039 9.263658962545497 16.217033210575323 2 4 3
773 1 1 0.5897 5.827863282862289 11.657111499025962 17.713558149970133 0 -5 1
736 1 2 -1.1794 8.699753710707867 10.507348803492574 20.484644164837903 1 -2 0
21 1 1 0.5897 5.205987759274316 8.558509674074037 18.80935846493061 0 -3 1
19 1 2 -1.1794 6.049944926618512 8.170087683404098 19.039941636032857 0 -3 1
772 1 2 -1.1794 6.326260043004311 10.840185591853128 17.69063356477143 0 -5 1
391 1 2 -1.1794 3.724811736052906 9.674542411632498 18.703630991745356 5 -3 0
384 1 1 0.5897 1.12887224865058 10.94109185124204 20.606661020160203 -11 -2 -2
738 1 1 0.5897 8.828588859860927 9.751759295972526 19.911250958335337 1 -2 0
774 1 1 0.5897 5.95303621828957 10.311480112137428 18.395944661157458 0 -5 1
393 1 1 0.5897 2.868834486440133 9.420584580153976 18.358478391214696 5 -3 0
615 1 1 0.5897 8.23720483605639 8.729552380330578 17.530772469587397 -4 4 3
289 1 2 -1.1794 3.6029788803187066 7.0594665903199125 17.125089720757337 -3 -6 -9
203 1 1 0.5897 0.9410840868612045 8.130535852544874 19.699493865757283 -7 0 1
20 1 1 0.5897 6.3057712835602215 7.673160777657343 18.26282450044627 0 -3 0
392 1 1 0.5897 3.5796595809613527 9.792491328218246 19.642411495025137 5 -3 0
653 1 1 0.5897 6.981930310316277 11.006646488273816 21.197740200752683 -3 0 -2
184 1 2 -1.1794 1.287274830399647 9.589031074239378 16.96601934945984 2 4 3
230 1 1 0.5897 2.116706365257369 11.641594909966306 16.98537058064167 0 5 1
709 1 2 -1.1794 6.709288380323756 6.991699131022704 16.601293035610944 -6 -1 -3
202 1 2 -1.1794 1.0390617952505956 8.889539265423846 20.27448126852957 -7 0 1
72 1 1 0.5897 2.011516621228255 6.952228660620585 18.115697281484785 7 3 -5
290 1 1 0.5897 3.98188442920469 7.885113789254552 16.82338261870425 -3 -6 -9
614 1 1 0.5897 8.093436807134204 10.233240181573464 17.632258091099068 -4 4 2
558 1 1 0.5897 6.325359917951492 8.294473050812801 20.73930963473564 1 1 2
204 1 1 0.5897 0.8259244330486574 8.55869346742115 21.147108997966257 -7 0 1
737 1 1 0.5897 8.741566648074512 11.263155648153653 19.898725404733163 1 -2 0
116 1 1 0.5897 8.712336672080747 7.976728914932465 21.083046264063427 -5 -4 3
613 1 2 -1.1794 8.724588876164603 9.523427581451042 17.751024487669092 -4 4 3
80 1 1 0.5897 5.28155319474851 10.10797607410484 16.396720222627053 0 2 -3
413 1 1 0.5897 1.5187226846056439 12.485491709172186 2.3353850740049196 1 -3 1
576 1 1 0.5897 2.1902880272094105 14.396546288733836 2.23565814733381 3 -2 1
271 1 2 -1.1794 8.93433285632338 13.460984942813045 5.821264222776674 3 3 3
564 1 1 0.5897 4.274248431727809 12.810628814091043 2.970880010232588 5 1 4
853 1 2 -1.1794 2.598433587758145 14.089411061370221 4.916348162324894 0 4 4
619 1 2 -1.1794 6.3723204235913125 14.410395684237628 5.396758204260412 1 -2 5
855 1 1 0.5897 2.6354688816429896 14.17561487969991 5.868971217962447 0 4 4
775 1 2 -1.1794 7.091783761986304 14.6073748358986 2.2574084776505794 3 -4 0
621 1 1 0.5897 7.237762260877614 14.054404899042176 5.598178899183272 1 -2 5
574 1 2 -1.1794 1.3075049046321536 14.294413542414617 1.8799037904250122 3 -2 1
5 1 1 0.5897 1.6445496680065004 15.777593836364039 5.318086086128471 5 0 1
562 1 2 -1.1794 4.409740441123969 13.636085525776554 2.5054246650752314 5 1 4
563 1 1 0.5897 5.245567440996823 13.964200087272655 2.8371556698267573 5 1 4
575 1 1 0.5897 0.7317832344384234 14.633184595429869 2.5655237604049113 3 -2 1
4 1 2 -1.1794 1.3174015715644882 16.607559568267792 5.665121896337697 5 0 1
776 1 1 0.5897 6.716590704506482 15.487598041338273 2.2844885343372043 3 -4 0
851 1 1 0.5897 3.699005721174514 13.067587984222278 0.806034725617753 -2 -2 -2
404 1 1 0.5897 7.492249999027285 12.416885239770775 3.7009595102441084 8 -4 1
777 1 1 0.5897 6.992009049697778 14.331896488555698 1.3461174260575577 3 -4 0
825 1 1 0.5897 1.401594778806741 12.620342381775774 5.763980822059982 -2 7 2
620 1 1 0.5897 6.45092499560233 15.347616823456015 5.574909290530847 1 -2 5
854 1 1 0.5897 3.46808937305429 14.35509622900273 4.6173409896321385 0 4 4
353 1 1 0.5897 8.874976010743243 14.770448658477369 2.7140814605481562 6 3 1
473 1 1 0.5897 1.6703685130048984 14.226059428636969 7.950902062000349 0 0 -3
214 1 2 -1.1794 5.666157406565483 11.968218910979825 7.097033685086819 4 1 1
472 1 2 -1.1794 2.5621789415477076 14.114413135231045 7.6214331186337985 0 0 -3
457 1 2 -1.1794 4.871274992840418 16.38674893255513 8.914964985716423 -2 0 -1
183 1 1 0.5897 2.63479565393269 14.670554060410238 9.280875415364944 -6 4 -2
474 1 1 0.5897 2.8756248492291743 13.314536485286846 8.043649326160534 0 0 -3
216 1 1 0.5897 5.905584897113606 12.887999679775888 6.982973668712264 4 1 1
32 1 1 0.5897 6.678199300256499 14.194732870410979 9.496523592855272 3 6 -2
181 1 2 -1.1794 2.8402826302277617 14.914821247920356 10.183331576042798 -6 4 -2
131 1 1 0.5897 4.2391112162713025 12.245302915861577 10.978947140445172 -3 2 -2
33 1 1 0.5897 6.0465799429066545 14.91091685434757 8.321687015635643 3 6 -2
31 1 2 -1.1794 6.66921658783964 14.217266990570687 8.539594583385831 3 6 -2
459 1 1 0.5897 4.26241505018245 16.184579000224783 9.625393078627663 -2 0 -1
560 1 1 0.5897 8.880344988764834 12.33926648739566 10.356591045245676 4 0 3
416 1 1 0.5897 8.645463678137228 14.949043514326966 8.16820317270704 -2 -2 2
182 1 1 0.5897 2.10640348839184 15.465669043407246 10.455896730696784 -5 4 -2
478 1 2 -1.1794 3.4468857828321515 11.950368678814392 8.995032495007727 1 4 1
744 1 1 0.5897 2.079014620394868 12.107178323544455 11.102072956282598 2 -1 0
480 1 1 0.5897 4.266028266208542 11.852272041449341 8.509568061157516 1 4 1
766 1 2 -1.1794 6.108031904571185 16.799894204427893 14.94108948905741 -5 -3 1
16 1 2 -1.1794 7.610512973669585 14.59167648191171 13.905998520289076 0 4 2
358 1 2 -1.1794 5.3986319450688045 13.160588804158719 14.343744032409344 3 -2 -2
111 1 1 0.5897 8.960344492415722 16.348281273274925 12.52608773251968 0 -2 -8
243 1 1 0.5897 1.6540391400418921 13.363340783924434 13.6591034518208 -2 -6 4
658 1 2 -1.1794 4.938303935549776 16.257342220258145 12.44726163696363 -2 -2 3
359 1 1 0.5897 4.771546267841811 13.434737812038843 13.674483579966559 3 -2 -2
17 1 1 0.5897 7.364731307921249 14.256625889782493 13.043660295838531 0 4 2
18 1 1 0.5897 8.445403684499368 14.165497394300026 14.100033968002867 0 4 2
349 1 2 -1.1794 2.9774675005660534 15.137294089964232 13.898716439570984 -8 1 -1
360 1 1 0.5897 6.02237444328489 13.884593105671092 14.399125151104295 3 -2 -2
476 1 1 0.5897 6.1902012250745715 15.271006232313166 11.546431651956944 6 -5 -3
241 1 2 -1.1794 1.4996461212508074 12.424472736824187 13.764094782697752 -2 -6 4
231 1 1 0.5897 1.945800493705834 12.363842069557007 15.665821939233878 0 5 1
475 1 2 -1.1794 6.4881762891246835 14.402960360490313 11.274409322517036 6 -5 -3
225 1 1 0.5897 7.823046836154365 13.227365689540774 15.639604129693724 4 -2 -6
224 1 1 0.5897 8.258237003074687 11.885566366525904 15.089708745521857 4 -2 -6
351 1 1 0.5897 3.2327182809444626 15.151909256287883 14.821175420862437 -8 1 -1
350 1 1 0.5897 3.734545370147601 15.49462746978932 13.434540870767018 -8 1 -1
477 1 1 0.5897 5.809098711379912 13.806428951474226 11.589602384808815 6 -5 -3
223 1 2 -1.1794 8.544712361936721 12.598762725651342 15.660311278013658 4 -2 -6
242 1 1 0.5897 1.3537032536337912 12.104191668135883 12.873895382163761 -2 -6 4
768 1 1 0.5897 6.856612357198237 16.20381303778083 14.916304748807846 -5 -3 1
767 1 1 0.5897 5.5143878118771825 16.413034929453797 15.584709454746989 -5 -3 1
30 1 1 0.5897 2.1038963172408316 16.69389541814472 14.309010105191255 -8 1 5
659 1 1 0.5897 5.3053859758656445 16.615400072620723 13.255554908026248 -2 -2 3
130 1 2 -1.1794 3.9250370855449286 12.839236430895342 11.66080204445354 -3 2 -2
132 1 1 0.5897 3.509233543673845 13.5561153686259 11.181759510170355 -3 2 -2
559 1 2 -1.1794 8.504107615268936 12.145327390780428 11.21516003657895 4 0 3
141 1 1 0.5897 3.87317167904358 16.329217033792816 20.348122780521223 -4 -4 1
101 1 1 0.5897 6.090321961685217 14.095021121059604 17.155671662966327 3 -3 -2
139 1 2 -1.1794 4.296208972080098 15.664253795192039 19.804842806802093 -4 -4 1
100 1 2 -1.1794 6.90745387310441 14.470258186300654 16.827369677503356 3 -3 -2
708 1 1 0.5897 8.760569675061653 15.670961876071555 21.183443668290757 -1 -2 -4
665 1 1 0.5897 3.974787985301155 12.850991534086289 17.236406625925838 1 4 2
752 1 1 0.5897 8.665542060495943 12.983680947559014 17.98356742935686 1 1 -1
643 1 2 -1.1794 4.121135446018593 15.772078282292584 16.635713562489187 3 -4 0
666 1 1 0.5897 4.163581668937608 12.94055607131051 18.735866185197985 1 4 2
611 1 1 0.5897 5.804991043554756 14.707863450912676 20.18438954182235 1 0 -4
462 1 1 0.5897 1.289273885157796 16.19100450959013 18.063940228622933 3 4 -3
463 1 2 -1.1794 1.0538189280683543 14.270845109992544 17.864511994153993 10 2 -1
852 1 1 0.5897 2.614954195595499 12.539846021065467 20.585268400118103 -2 -2 -3
751 1 2 -1.1794 8.567480942134573 12.655444325260303 18.87741269967605 1 1 -1
753 1 1 0.5897 7.866511779321985 13.188151007277481 19.25314947581964 1 1 -1
645 1 1 0.5897 4.006870124419427 16.599958152139873 17.102458827206675 3 -4 0
102 1 1 0.5897 7.157020864537959 15.116761879038584 17.487706063753336 3 -3 -2
664 1 2 -1.1794 4.640638918360304 12.998840382854315 17.908028094911487 1 4 2
612 1 1 0.5897 6.067696873460572 13.29597192746615 20.663546054077017 1 0 -4
741 1 1 0.5897 0.6611164533238859 14.436781925875815 20.98770855492623 1 2 3
140 1 1 0.5897 3.8814765977623704 14.841883695185208 20.06560869404482 -4 -4 1
610 1 2 -1.1794 6.510920914116994 14.080504984178628 20.340511558656253 1 0 -4
382 1 2 -1.1794 0.853416658260671 11.84791549369726 20.472182064650575 -11 -2 -2
464 1 1 0.5897 1.4004552250892344 13.476094771372589 17.458909549427673 10 2 -1
644 1 1 0.5897 4.168449506131175 15.11146724824504 17.3268473897393 3 -4 0
850 1 2 -1.1794 3.4303061628086042 13.041346030724696 20.582513947080535 -2 -2 -3
95 1 1 0.5897 1.83722339838832 16.79035720695799 20.46672590003302 -5 -4 -2
229 1 2 -1.1794 2.4875317800700705 12.346803342458037 16.45482514047504 0 5 1
706 1 2 -1.1794 8.718520334121584 16.62480705158199 21.114668259097073 -1 -2 -4
863 1 1 0.5897 1.0416748940835951 20.532450481742764 2.333444567774057 -2 -2 6
245 1 1 0.5897 2.316206695438447 20.009878540285122 4.4627651559612715 -5 2 -2
584 1 1 0.5897 7.14972603799308 20.18633198632257 3.5092562006460164 1 -4 1
367 1 2 -1.1794 7.62270851205441 21.372156631104552 5.068751825951213 7 4 -1
862 1 2 -1.1794 1.319450521988863 21.026515125344368 1.562046086741267 -2 -2 6
583 1 2 -1.1794 7.39032151058062 19.44609959471687 2.9520579773850812 1 -4 1
191 1 1 0.5897 2.9479147924317237 20.19070725710918 1.6037146941464604 4 1 -6
190 1 2 -1.1794 3.751203604253615 19.700238861258377 1.778296740228723 4 1 -6
396 1 1 0.5897 2.7414286102696614 16.860752058928085 2.285091524450725 1 0 5
570 1 1 0.5897 6.008248626366222 18.14743130075319 2.608187811279698 -1 0 0
98 1 1 0.5897 7.187256972234408 19.091923273686326 1.281570008936439 0 -6 7
834 1 1 0.5897 4.796911160427446 19.525968148288456 5.574112411678186 6 -1 1
206 1 1 0.5897 8.726920498415174 20.32499230977146 5.848689662784539 -4 -1 -3
192 1 1 0.5897 4.356024426731397 20.349939409445838 2.1365923653175907 4 1 -6
244 1 2 -1.1794 3.2465548586184503 19.821963241994553 4.587009732514464 -5 2 -2
585 1 1 0.5897 8.324751392851546 19.31700647767792 3.114749483751478 1 -4 1
789 1 1 0.5897 4.0697795368644725 21.725142134710467 4.9430961537811555 4 -1 5
246 1 1 0.5897 3.531955940990343 19.458212278467776 3.748838023468152 -5 2 -2
569 1 1 0.5897 4.776179452240822 17.27394902901924 2.714375645819914 -1 0 0
266 1 1 0.5897 6.29372306923718 17.221038697821662 4.41998274635225 1 -4 -1
265 1 2 -1.1794 6.658336838675513 17.121096793695646 5.299394509925405 1 -4 -1
395 1 1 0.5897 2.418971635713125 17.0698542233106 3.749454421336429 1 0 6
568 1 2 -1.1794 5.7315662535539555 17.23315910256429 2.67076004663404 -1 0 0
267 1 1 0.5897 7.606552601064842 17.133448726050627 5.168890690240787 1 -4 -1
394 1 2 -1.1794 3.152449399946171 16.967325083604397 3.142997684990172 1 0 6
369 1 1 0.5897 6.930121138550546 21.393437565226606 5.729184835354603 7 4 -2
188 1 1 0.5897 0.6367933789347227 17.438466224241033 1.6809376375943457 -2 4 2
458 1 1 0.5897 5.563496812122688 16.9005372366275 9.331065752012867 -2 0 -1
57 1 1 0.5897 8.656508331741833 17.133708502597564 7.825512138539449 -3 -1 -1
56 1 1 0.5897 7.648478655520294 18.036492003711167 8.504408732153014 -3 -1 -1
174 1 1 0.5897 6.494914219923718 21.039252988246005 9.837312215160884 -2 1 -2
504 1 1 0.5897 1.6169351298519032 20.142801523790745 10.921472836256488 -4 0 3
781 1 2 -1.1794 0.9531530780413701 19.059955465084577 8.006183105066997 -2 -2 0
532 1 2 -1.1794 3.9294086040154665 19.797827140984985 9.073752953739028 -6 -3 -3
533 1 1 0.5897 3.821035013957172 19.39340995385981 9.934581656251636 -6 -3 -3
44 1 1 0.5897 6.340702006703381 20.181395995805673 7.492566612762361 4 7 -2
782 1 1 0.5897 0.7592625450730637 19.201974029371698 8.932755039839723 -2 -2 0
38 1 1 0.5897 1.4456767599693572 20.748511815940873 7.68828942694094 2 0 0
832 1 2 -1.1794 5.318343914252991 19.330086211090197 6.3526022841458705 6 -1 1
534 1 1 0.5897 3.656168442608644 19.12096133033444 8.454490502377123 -6 -3 -3
679 1 2 -1.1794 3.3669159433489613 17.626925590134356 7.061138632542911 -8 -5 2
783 1 1 0.5897 1.62623564253942 18.379336895969345 8.003412496420502 -2 -2 0
128 1 1 0.5897 4.075288259035988 21.706758196502314 8.678320446714755 1 0 -7
43 1 2 -1.1794 6.947739399547299 20.715170624556528 8.005294904555843 4 7 -2
681 1 1 0.5897 4.103496093766013 18.176510853525265 6.793380379069604 -8 -5 2
6 1 1 0.5897 1.9916303645658273 16.892115010750672 6.282162101470379 5 0 1
680 1 1 0.5897 3.766359093846776 16.92172837256699 7.5704984141816 -8 -5 2
55 1 2 -1.1794 8.258648695692703 18.002417653950637 7.767644920420569 -3 -1 -1
193 1 2 -1.1794 6.698885946630684 17.862007706661885 10.502041318888205 1 -5 -2
195 1 1 0.5897 7.447076529391205 17.523877015547875 10.994158433807735 1 -5 -2
502 1 2 -1.1794 0.8257120966577886 19.66127437972608 10.67979062737206 -4 0 3
172 1 2 -1.1794 6.42754498368288 21.495154509768135 10.676314076732575 -2 1 -2
45 1 1 0.5897 6.752558604478183 21.615909128795842 7.746700897820304 4 7 -2
37 1 2 -1.1794 1.6738488823496465 21.621018360879525 7.367409623095757 2 0 0
207 1 1 0.5897 9.08147244053579 19.198965362098022 6.796578192263523 -4 -1 -3
833 1 1 0.5897 5.865781076962465 18.588490534471745 6.09443093451339 6 -1 1