LAMMPS data file via write_data, version 30 Jul 2021, timestep = 5750000

864 atoms
2 atom types
576 bonds
1 bond types
288 angles
1 angle types

0.4578424845291931 17.74972991546551 xlo xhi
1.6308092407804633 21.99836855921796 ylo yhi
0.5585667617250536 21.654629038269988 zlo zhi

Masses

1 1.00794
2 15.9994

Pair Coeffs # lj/cut/tip4p/long/omp

1 0 0
2 0.21084 3.1668

Bond Coeffs # harmonic/omp

1 450 0.9572

Angle Coeffs # harmonic/omp

1 55 104.52

Atoms # full

181 1 2 -1.1794 2.4168658966578622 5.77165149927421 3.3125315815682117 -4 2 0
22 1 2 -1.1794 4.519696668770123 6.621492698068172 4.58899888056896 -4 2 2
183 1 1 0.5897 3.22248687745155 6.0513047344604205 3.74730217650488 -4 2 0
182 1 1 0.5897 2.714776823925887 5.243457360480859 2.571907321815664 -3 2 0
35 1 1 0.5897 1.8083705017460643 2.9404868335571948 4.714311030764355 -5 2 -2
36 1 1 0.5897 1.7293182896010382 4.373590440327085 4.232741910781419 -5 2 -2
117 1 1 0.5897 2.2111152531262848 4.080548999940142 1.0268290550200587 0 -2 3
34 1 2 -1.1794 1.2033808463585502 3.6769295393495622 4.625575708600851 -5 2 -2
116 1 1 0.5897 3.3261322028432803 3.078555176843933 1.2381030238900967 0 -2 3
115 1 2 -1.1794 3.1422563748843775 4.017928654256062 1.2396255093943815 0 -2 3
681 1 1 0.5897 0.675457772471342 6.488043771867265 4.120057667003031 -8 -5 1
719 1 1 0.5897 1.8816304024947281 6.13716532470877 9.683941275076581 3 4 1
811 1 2 -1.1794 1.1823840091866722 3.28342055144679 7.946661209048295 -4 4 -3
718 1 2 -1.1794 2.2988318076530287 5.705815562825928 8.938211922960642 3 4 1
407 1 1 0.5897 2.897987128531196 2.9205271116423828 7.668378273485567 -2 -2 3
813 1 1 0.5897 1.3994500101854586 4.142399585415035 8.308984940079393 -4 4 -3
406 1 2 -1.1794 3.81108099049532 2.7762769529155165 7.420025625835699 -2 -2 3
782 1 1 0.5897 3.562405329538925 3.871495087471249 10.935526720043978 -5 -2 2
408 1 1 0.5897 4.184277887503044 2.285501841491105 8.152222077969622 -2 -2 3
783 1 1 0.5897 3.822514224527353 4.831097256589161 9.79385401173361 -5 -2 2
781 1 2 -1.1794 4.262333589708431 4.358477979599437 10.50057939263953 -5 -2 2
812 1 1 0.5897 0.7616103896677553 3.4757963376273975 7.108699614506441 -4 4 -3
720 1 1 0.5897 2.896615090224821 6.3640824604177695 8.58385063087558 3 4 1
353 1 1 0.5897 1.9871920149435844 1.7424917312769401 11.079986348967344 5 3 -2
843 1 1 0.5897 0.9171662250946853 3.9729529028255874 10.83511851654717 -2 2 1
733 1 2 -1.1794 3.140796101770369 3.1582779167028523 16.355902322590747 -1 -2 -4
487 1 2 -1.1794 4.181133407672869 4.62946595070665 13.58238233947741 -1 -5 1
842 1 1 0.5897 1.4591369725125498 3.672424190725807 12.216384996341384 -2 2 1
556 1 2 -1.1794 1.3350412328152417 3.474715244699967 14.12134089812199 2 1 2
735 1 1 0.5897 3.771737156104364 3.7558832995347533 15.954614140765031 -1 -2 -4
489 1 1 0.5897 4.067257287906926 5.367688337533732 14.180975583027116 -1 -5 1
558 1 1 0.5897 2.0286570409517823 3.3657245302429617 14.771949493146884 2 1 2
841 1 2 -1.1794 1.7076361405392457 3.6855885161048785 11.292074280837433 -2 2 1
651 1 1 0.5897 0.6144743288828863 5.074616222823469 13.795087519113066 1 -1 0
488 1 1 0.5897 3.823828706980491 4.938310202352198 12.749800505440907 -1 -5 1
557 1 1 0.5897 0.8747033375846417 2.635464691619636 14.118489802570894 2 1 2
452 1 1 0.5897 0.955526413683986 6.610517119742359 11.8464964243491 0 0 4
594 1 1 0.5897 2.6187889561003956 4.293583060104819 17.80336931408719 -1 -1 -3
833 1 1 0.5897 3.9397544225352115 4.962126806658689 21.04617338150175 5 -2 1
593 1 1 0.5897 3.119994130521655 5.175915061875408 18.926849036602754 -1 -1 -3
371 1 1 0.5897 0.4610039252846045 5.388743668470641 21.516463738012323 3 6 -2
78 1 1 0.5897 3.738182823305603 2.4338286125880932 20.029342721377844 -6 -5 -3
76 1 2 -1.1794 3.2747901451016475 1.9654081996919373 19.33501902799248 -6 -5 -3
592 1 2 -1.1794 2.387281291187291 5.0647556330743 18.320991743077805 -1 -1 -3
60 1 1 0.5897 1.358220908168831 2.8550678779563956 19.623463219895644 4 0 -3
734 1 1 0.5897 3.6433454528667824 2.3635329538670193 16.534967407863313 -1 -2 -4
832 1 2 -1.1794 4.347616989519931 5.3495406544403465 20.271710135020736 5 -2 1
524 1 1 0.5897 0.5814979250361263 4.736463617444823 18.096293622121827 1 0 1
58 1 2 -1.1794 0.48712115015050017 2.624252728008727 19.946184128207957 4 0 -3
447 1 1 0.5897 3.442011313430411 10.111947056217073 3.01696159371685 2 0 -2
446 1 1 0.5897 2.4811089232748076 9.298708801783853 2.1759891406693086 1 0 -2
222 1 1 0.5897 0.5800552165359167 11.292238442961681 5.015805575832722 4 -2 4
178 1 2 -1.1794 2.669585190857273 7.754467116623665 1.4236626774688856 -9 0 0
221 1 1 0.5897 1.1877786922808937 11.33998480854296 3.630063673834044 4 -2 4
648 1 1 0.5897 4.176184759101075 7.9784308942433215 0.63387068310865 -7 -1 -1
445 1 2 -1.1794 2.508826819415547 9.962174437013708 2.8654007106500505 1 0 -2
179 1 1 0.5897 2.051705645608604 7.512999276859367 0.7336264396787661 -9 0 0
799 1 2 -1.1794 2.3509283112393446 8.521975064483525 5.394186844066948 -1 -1 2
800 1 1 0.5897 2.3181442685355016 9.07121124537423 4.610923003236837 -1 -1 2
180 1 1 0.5897 2.6110902568448933 7.040672135527895 2.0587302460226997 -9 0 0
801 1 1 0.5897 2.955224695563886 7.815347961040877 5.166688661682105 -1 -1 2
840 1 1 0.5897 1.5656518403648263 11.67631475536868 0.9268258565735209 -2 -2 -2
42 1 1 0.5897 1.3410978045099315 10.485401967836502 10.338072962058131 -2 1 4
374 1 1 0.5897 2.0162514381830383 11.404548965242947 8.659354249017463 2 5 -1
41 1 1 0.5897 1.6099744090919832 9.56233775720817 9.168635186983929 -2 1 4
451 1 2 -1.1794 1.2560421466369904 7.0573865846063 11.055147378782292 0 0 4
830 1 1 0.5897 1.426758765154918 8.377055959210345 7.153549749048525 4 2 5
40 1 2 -1.1794 2.050431944405087 10.053140051123005 9.862429665933453 -2 1 4
375 1 1 0.5897 2.606337570048984 11.788209642948008 7.3190163723030235 2 5 -1
851 1 1 0.5897 3.9423639383767735 9.520391633770913 10.392047835740705 -7 -1 -2
295 1 2 -1.1794 3.883896399223095 11.367321656661908 6.030516829277561 1 4 0
829 1 2 -1.1794 0.8030521179141206 8.549375367800987 7.858906614371588 4 2 5
850 1 2 -1.1794 4.752251570893368 9.025800013777538 10.517516371757312 -7 -1 -2
453 1 1 0.5897 0.6229697349773141 7.763057053850552 10.922935773126403 0 0 4
297 1 1 0.5897 4.532964245325839 11.667964983789197 6.666591601431685 1 4 0
746 1 1 0.5897 3.369633975262035 7.338934060562638 14.201563010922621 4 2 -7
50 1 1 0.5897 2.745080362332359 7.546202589549765 12.025566189013546 9 1 -1
49 1 2 -1.1794 3.614453227201944 7.498881712759949 12.423283805988953 9 1 -1
214 1 2 -1.1794 2.824853378652398 11.128911621905896 16.07074842512439 -1 1 2
747 1 1 0.5897 2.641803253348136 6.878818149738351 15.446734877673236 4 2 -7
278 1 1 0.5897 3.297487092162455 11.06799513398207 12.792686544340574 0 0 1
97 1 2 -1.1794 0.8476536173680022 9.247932237638576 13.320564193465962 5 -6 6
277 1 2 -1.1794 3.2348258590357895 10.439585472548359 13.51204414443362 0 0 1
279 1 1 0.5897 2.364151693668041 10.053163294388062 13.417971300069897 0 0 1
51 1 1 0.5897 4.152532014015387 8.088307502827416 11.894803191517482 9 1 -1
216 1 1 0.5897 2.99384253492424 11.026059790839078 15.134212452319316 -1 1 2
745 1 2 -1.1794 3.511688633913274 6.917486438675783 15.049183673373335 4 2 -7
215 1 1 0.5897 2.2743101826555674 10.379867943756507 16.29894170049404 -1 1 2
713 1 1 0.5897 4.575927552950158 7.660033108112031 16.319169853505166 -5 0 3
714 1 1 0.5897 4.150466977056597 8.231062918970473 17.655217013451256 -5 0 3
583 1 2 -1.1794 4.631150259464452 11.276719273676783 18.406532747371852 0 -4 1
584 1 1 0.5897 4.128896846985251 11.273816766043822 17.591681747869302 0 -4 1
585 1 1 0.5897 3.972834873976713 11.179309848906653 19.094557052958198 0 -4 1
644 1 1 0.5897 1.1295699395299592 7.487627660812606 19.955222835974496 4 -2 -1
433 1 2 -1.1794 2.2000152306361453 10.698096221511827 20.0335389753063 1 4 -3
434 1 1 0.5897 2.116391028958458 9.792035492323645 19.73634805267421 1 4 -3
435 1 1 0.5897 1.480058483734861 11.159237375650674 19.603143156803306 1 4 -3
318 1 1 0.5897 2.438086424567224 7.042644119020956 18.57676805513375 -4 -3 1
643 1 2 -1.1794 0.7218262801877259 6.909250907892393 20.599794914499213 4 -2 -1
316 1 2 -1.1794 2.4152574879870707 7.9741087351012805 18.796043615850348 -4 -3 1
317 1 1 0.5897 1.8425089571443158 8.362384815738228 18.134659809781667 -4 -3 0
190 1 2 -1.1794 0.9283765125884107 9.363075000435437 17.182157702962474 5 4 -5
191 1 1 0.5897 0.5414025126545394 8.745879693905028 16.56122710419256 5 4 -5
474 1 1 0.5897 2.5809781978019837 14.934282926065748 1.9915495773813274 2 1 -2
470 1 1 0.5897 1.4072065525855955 16.248899453292722 4.360932528728651 3 -4 4
752 1 1 0.5897 3.25977175994341 13.97397861458581 3.6819174273864443 3 2 -2
472 1 2 -1.1794 2.0604292288009374 14.271689770009258 2.445675369694354 2 1 -2
473 1 1 0.5897 1.2793222627677725 14.740270915675664 2.7398459004306837 2 1 -2
420 1 1 0.5897 2.8894018208571697 16.78553846481854 0.6939051457871281 -6 -2 6
296 1 1 0.5897 3.829894244759682 12.07609270850321 5.389456387173358 1 4 0
751 1 2 -1.1794 4.08440003786524 13.892586631307715 4.161077111839171 3 2 -2
418 1 2 -1.1794 3.3494545732067733 15.949028432624601 0.7634212959001385 -6 -2 6
839 1 1 0.5897 1.1877684942785878 12.884002615288013 1.757840117856769 -2 -2 -2
469 1 2 -1.1794 2.2746066827988427 16.445182636797632 4.714945955492201 3 -4 4
303 1 1 0.5897 4.4098992520391915 16.542626936940586 5.009482124608538 -2 3 8
657 1 1 0.5897 0.924208439771528 13.465419138802694 5.437228792821311 -1 4 -2
838 1 2 -1.1794 0.8143963881753913 12.204846200849092 1.196084435247551 -2 -2 -2
471 1 1 0.5897 2.1123001632516756 16.68924502326813 5.626169733631801 3 -4 4
220 1 2 -1.1794 0.8657314974817805 11.90158644715701 4.335129972936821 4 -2 4
753 1 1 0.5897 4.722558374040825 14.359343933285784 3.621516835015241 3 2 -2
255 1 1 0.5897 4.644465442122058 12.339371631263836 3.308277461564187 3 6 -7
618 1 1 0.5897 1.9320685629918637 13.418169392419786 9.349982817036254 -1 3 1
479 1 1 0.5897 3.0712834090494137 16.676284211731677 10.264201968107654 -3 2 -4
373 1 2 -1.1794 1.930426201764164 12.039708350546025 7.948408486177727 2 5 -1
52 1 2 -1.1794 2.7023469993735882 16.52793259541255 7.57942464146224 -5 0 3
818 1 1 0.5897 4.008899809150501 14.628505902365719 9.99220660433826 5 -1 -1
616 1 2 -1.1794 2.2611466899802286 14.097960562511785 9.93812079907467 -1 3 1
500 1 1 0.5897 0.9224810868099328 16.231965126438418 8.131376779926029 -1 -1 -3
617 1 1 0.5897 1.4847002778181284 14.409152868331343 10.403442136884058 -1 3 1
54 1 1 0.5897 2.9883160894255663 15.61501293032416 7.611979076923093 -5 0 3
656 1 1 0.5897 1.0854041769614744 13.419303769242347 6.941813275058534 -2 4 -2
161 1 1 0.5897 4.35816932811714 14.441692967891555 5.9947972791214506 4 6 1
160 1 2 -1.1794 4.579573904280611 14.446724915427938 6.9260240172326615 4 6 1
655 1 2 -1.1794 0.8725201452945717 14.01224141920674 6.221161911585352 -2 4 -2
817 1 2 -1.1794 4.7093502351466245 15.24608657076995 10.20248511418894 5 -1 -1
73 1 2 -1.1794 3.803754341086624 12.66910637597556 11.69731735158727 1 0 2
74 1 1 0.5897 3.142863813378227 13.05693815459695 11.123698538410224 1 0 2
75 1 1 0.5897 3.7496602640709957 13.179565999592873 12.505237435493179 1 0 2
119 1 1 0.5897 2.124795725804231 16.505213951932735 12.315547461090008 5 -4 -2
341 1 1 0.5897 1.588509948024176 12.571841455478191 15.950216287535984 3 3 2
340 1 2 -1.1794 0.6854148017412858 12.888209673795537 15.92659629266685 3 3 2
8 1 1 0.5897 3.078158018466825 14.873554618712976 13.648632764447271 4 -2 -2
7 1 2 -1.1794 3.6758436094913396 14.357909685795565 14.19006149527777 4 -2 -2
678 1 1 0.5897 3.6876409608034537 14.833781965541815 16.269576783696472 0 1 -3
102 1 1 0.5897 0.6494928149984256 16.18668804766068 15.971896659985916 8 -5 -2
342 1 1 0.5897 0.7542558248671288 13.824690640620174 16.112379316732056 3 3 2
126 1 1 0.5897 0.9211368414334338 14.278092996852644 13.033604894383025 2 1 4
118 1 2 -1.1794 1.9891422298905688 15.980848284385452 13.104772324998885 5 -4 -2
125 1 1 0.5897 0.8169138027627307 13.175666398357398 14.065931769704948 2 1 4
9 1 1 0.5897 4.546132662394776 14.69029580745842 13.970186577150011 4 -2 -2
124 1 2 -1.1794 0.787679456563785 13.334410360141089 13.12243894064228 2 1 4
120 1 1 0.5897 2.1839538802532896 16.57866289931384 13.82650508373282 5 -4 -2
419 1 1 0.5897 3.0640944135478194 15.453681590853025 21.091737936679174 -6 -2 5
100 1 2 -1.1794 0.8792491283708799 15.589399372912245 16.68372248610806 8 -5 -2
676 1 2 -1.1794 4.221108115388313 14.478645061957206 16.980575528386694 0 1 -3
88 1 2 -1.1794 2.9610060046014595 14.36813448173524 19.3750790599644 8 -2 3
857 1 1 0.5897 1.8324414128073239 16.64144011082579 18.06709680435989 0 -1 -2
89 1 1 0.5897 3.5398093836233544 14.369527024843826 18.612692009328594 8 -2 3
90 1 1 0.5897 2.2566652100184967 13.763873257121688 19.140554124646638 8 -2 3
234 1 1 0.5897 3.757789977935019 13.052156793125386 20.86887447916606 -2 1 0
232 1 2 -1.1794 4.60328079191373 12.849501071727142 21.26927554333104 -2 1 0
771 1 1 0.5897 2.8813270647897204 18.020859071989356 3.881165611549643 1 -1 0
769 1 2 -1.1794 3.067795582579197 18.830407218937033 3.405677375614444 1 -1 0
57 1 1 0.5897 3.8932980382713738 20.7620002988751 1.1766427979104486 -4 -2 3
576 1 1 0.5897 1.973468657227627 18.66925665813865 1.5534122132905668 1 -1 2
103 1 2 -1.1794 2.2514444905958753 21.137354491050644 4.522305808368399 3 0 6
104 1 1 0.5897 2.341524820518126 20.935090534887756 5.453550542796918 3 0 6
55 1 2 -1.1794 3.2727524383938222 21.371240340961464 1.5766360332948894 -4 -2 3
574 1 2 -1.1794 2.0536578664697 18.257930318769873 0.6927913739231278 1 -1 2
105 1 1 0.5897 2.4221065760745493 20.30651342634166 4.078645462393944 3 0 6
306 1 1 0.5897 1.367497576732453 21.232721737316965 1.3806177933729407 6 -3 -5
770 1 1 0.5897 4.008526354705312 18.964891739843317 3.5204523608983442 1 -1 0
56 1 1 0.5897 3.558889747767284 21.441834538374003 2.4873384427332743 -4 -2 3
304 1 2 -1.1794 0.4809768200417608 20.893624045663174 1.5044137024447157 6 -3 -5
694 1 2 -1.1794 0.9628545832129304 19.395663210842365 9.621786611258972 2 -3 1
170 1 1 0.5897 3.7848739040244963 19.102730480149972 7.576145283468442 -4 3 -2
478 1 2 -1.1794 2.6563325087940695 17.401854333698658 10.730689439626952 -3 2 -4
169 1 2 -1.1794 4.684446151860092 18.797359540631106 7.693422272433631 -4 3 -2
203 1 1 0.5897 1.4616925766575353 19.23592534324299 6.637522105978327 -8 1 2
204 1 1 0.5897 1.656038340100885 19.956052385865775 7.954918267945667 -8 1 2
202 1 2 -1.1794 2.0224430612388264 19.87713042344007 7.074150919256918 -8 1 2
354 1 1 0.5897 1.879273178702117 20.647011489193197 10.70614069276616 5 2 -2
696 1 1 0.5897 1.5824295716194319 18.713196677119477 9.879907899418034 2 -3 1
133 1 2 -1.1794 4.671885905200722 21.72232262127875 9.537587386799034 0 -5 -1
480 1 1 0.5897 3.3814545221668446 17.97861883865704 10.971042942809836 -3 2 -4
53 1 1 0.5897 3.4385337321189122 17.02298657527507 7.938838374168628 -5 0 3
135 1 1 0.5897 4.035283843326986 21.717176742780595 10.252387720230745 0 -5 -1
608 1 1 0.5897 4.509168150301958 20.119110378935517 12.317499279826105 8 1 1
388 1 2 -1.1794 3.16937076213017 18.321172711061777 14.345687690213186 5 5 5
607 1 2 -1.1794 4.747690685265023 20.440668875072966 13.186957909319592 8 1 1
390 1 1 0.5897 2.8199857644118933 18.725185620739786 15.14000302497554 5 5 5
381 1 1 0.5897 1.346608386981162 20.922455134679204 13.65001274964168 8 2 0
389 1 1 0.5897 3.8125056437522535 18.950511948395942 14.019280381950935 5 5 4
352 1 2 -1.1794 2.390717741607358 21.25659171783824 11.238189014723654 5 2 -2
609 1 1 0.5897 4.780276062427731 21.39241433893377 13.090217762831196 8 1 1
642 1 1 0.5897 4.261259455595811 21.579049414802164 18.081603634776883 5 0 -2
377 1 1 0.5897 2.169559830395652 18.677650918255786 17.227596347313273 2 4 2
239 1 1 0.5897 0.729920063056839 19.812142716188603 19.76112133937373 -6 -5 -1
240 1 1 0.5897 2.015313449425296 19.093955161098776 19.409038982281547 -6 -5 -1
641 1 1 0.5897 3.6709118011900115 20.488763221819106 17.212822350606388 5 0 -2
238 1 2 -1.1794 1.6780365199137741 19.93566196416456 19.71569967040287 -6 -5 -1
856 1 2 -1.1794 2.1630142251218327 17.348275365856395 18.621478129768487 0 -1 -2
77 1 1 0.5897 2.779985948931214 21.65341349524723 19.792857940894436 -6 -6 -3
640 1 2 -1.1794 4.417760895337704 21.083988168257385 17.277429330610282 5 0 -2
575 1 1 0.5897 2.04352868831403 18.989340388316393 21.1714459679037 1 -1 1
378 1 1 0.5897 1.6874320041702764 20.096813927479445 17.01441535564367 2 4 2
376 1 2 -1.1794 2.2264367502528315 19.412758643466127 16.61717803404075 2 4 2
858 1 1 0.5897 3.086255057388594 17.135082011421783 18.757145199944162 0 -1 -2
231 1 1 0.5897 7.801252245770144 2.335755821907857 5.04066268466787 2 4 0
86 1 1 0.5897 8.062504064679196 6.076531391019523 2.916462181516912 -2 6 1
85 1 2 -1.1794 8.934537791232495 6.190521958148913 3.294346826689327 -2 6 1
109 1 2 -1.1794 6.275861309439 6.468427384922914 2.4068578538424177 -1 -1 -5
144 1 1 0.5897 6.3720820522311135 3.219790254240018 2.4602501425551906 -1 4 1
111 1 1 0.5897 6.290004559142991 5.6305505348357485 1.9442475303361029 -1 -1 -5
24 1 1 0.5897 5.227184594935737 6.647580241552671 3.9447794938281358 -4 2 2
143 1 1 0.5897 6.459120081605053 3.427664250126446 0.9632045143352936 -1 4 1
142 1 2 -1.1794 6.908468570609005 3.632333992832675 1.7832528332922328 -1 4 1
638 1 1 0.5897 5.140174737918446 3.316720639764921 4.231932925544395 -6 0 5
637 1 2 -1.1794 5.152811210460151 2.510648722474445 3.7158651212563027 -6 0 5
639 1 1 0.5897 5.020315514251689 1.812786821134434 4.357597003175214 -6 0 5
23 1 1 0.5897 4.820933524508076 5.999406692818179 5.251204393442668 -4 2 2
87 1 1 0.5897 8.955274840641694 5.586449873094008 4.036608968487897 -2 6 1
230 1 1 0.5897 8.122135957716118 2.348867229426115 6.520125024938237 2 4 0
16 1 2 -1.1794 8.659164305502182 1.713116225254549 8.064088088862292 -2 4 1
368 1 1 0.5897 7.956170480415232 5.653128693441595 8.390753575704242 6 6 -2
367 1 2 -1.1794 7.024603090032416 5.623723868306804 8.172666643864527 6 6 -2
327 1 1 0.5897 7.26464415970334 2.705652030870506 8.803413958919304 2 -2 -3
325 1 2 -1.1794 6.832727015824941 3.2949490540091952 9.42181782052546 2 -2 -3
134 1 1 0.5897 5.30578766764029 2.0277632053704564 9.785612622598936 0 -4 -1
326 1 1 0.5897 6.842884273308423 4.14793244713378 8.987566978167015 2 -2 -3
369 1 1 0.5897 6.989493820811673 5.838108887084938 7.240435052056966 6 6 -3
229 1 2 -1.1794 7.600041523802747 2.797217175225615 5.854787329677345 2 4 0
300 1 1 0.5897 8.887940362830346 6.369857608642178 9.693733154923951 -4 -2 2
236 1 1 0.5897 7.9192945532758126 3.166512902756046 10.666551871667382 0 -3 -4
291 1 1 0.5897 4.882941581501849 4.028422790337766 6.63102660509082 -7 -2 -6
131 1 1 0.5897 5.537551659665908 6.603345413214686 8.642259065386268 -4 2 2
289 1 2 -1.1794 5.468565705213719 4.43959697143036 5.995251697477558 -7 -2 -6
363 1 1 0.5897 8.644302127262742 4.31350228011252 5.9416837612193145 3 -3 -2
290 1 1 0.5897 6.285220481678837 3.945412156274194 6.066573012900954 -7 -2 -6
235 1 2 -1.1794 8.460603577551174 3.1469598166350625 11.455754550001616 0 -3 -4
602 1 1 0.5897 6.630297938250386 2.8036741724454775 12.517087385813157 1 4 -3
237 1 1 0.5897 8.620981573361187 4.068337267017779 11.659646048442502 0 -3 -4
188 1 1 0.5897 8.685018773416344 6.695010676898082 12.534321840697814 -5 4 1
603 1 1 0.5897 5.531115850420464 3.4601860741766646 13.325005394876479 1 4 -2
601 1 2 -1.1794 5.9747913758207085 2.62270114293147 13.190772655899499 1 4 -2
477 1 1 0.5897 6.106819765326203 5.331389949937048 15.376481451136451 2 -2 -2
854 1 1 0.5897 5.356558807474231 6.502676979310279 12.161602779994952 -1 0 1
252 1 1 0.5897 6.7588202173031275 5.805887065507856 13.495778989869914 3 -3 2
250 1 2 -1.1794 6.94788101732997 6.325662188761242 14.277039211410457 3 -3 2
276 1 1 0.5897 6.285542007918299 1.986560927246104 15.096370094847057 -3 3 -2
853 1 2 -1.1794 6.025326682736909 6.043688192146737 11.653352560654548 -1 0 1
610 1 2 -1.1794 9.072089878941432 4.066262922475107 14.918905081985388 2 2 -1
855 1 1 0.5897 5.5610581891107 5.3071196301916785 11.255667151865168 -1 0 1
274 1 2 -1.1794 6.332607073765561 2.110623831081362 16.044338503891204 -3 3 -2
504 1 1 0.5897 8.645245369602868 6.603919371541232 15.402516867796537 -5 -1 4
475 1 2 -1.1794 5.774847763685869 4.849936459135474 16.134266409837686 2 -2 -2
95 1 1 0.5897 8.831104385997673 2.073690306457712 14.752193878513177 -3 1 -2
476 1 1 0.5897 6.157031565724611 3.9763981163818154 16.04984527077421 2 -2 -2
96 1 1 0.5897 8.82090190898176 1.871832312751876 13.25184196294943 -4 1 -2
731 1 1 0.5897 6.2850980778885495 5.662342908906191 17.580964744704705 2 2 -4
541 1 2 -1.1794 5.615264367532614 2.953975295555355 20.460887816342783 -2 -1 3
542 1 1 0.5897 6.484804925598264 2.6919586381607767 20.15843785201292 -2 -1 3
627 1 1 0.5897 8.876021022147969 2.9401744508180543 20.884436253258464 -2 -3 2
553 1 2 -1.1794 8.648242457207994 2.5475442163072564 17.46753935996323 -5 -5 4
626 1 1 0.5897 7.954431082322147 1.803405463393151 21.272146529251607 -2 -3 2
625 1 2 -1.1794 8.351080231591958 2.2310622150056774 20.51318820507541 -2 -3 2
530 1 1 0.5897 8.56780520058809 5.482202688831476 18.285535669121778 -5 1 -6
554 1 1 0.5897 7.792310584213094 2.479400443564221 17.04449323001926 -5 -5 4
730 1 2 -1.1794 6.675683580989435 6.256431883448699 18.221850263191563 2 2 -4
543 1 1 0.5897 5.499892614392822 3.8410495726229006 20.120226981599533 -2 -1 3
218 1 1 0.5897 7.302623826333694 6.236992903464871 19.851607815101122 3 -1 -4
217 1 2 -1.1794 7.732463466392939 6.0173208186748655 20.678174206858152 3 -1 -4
555 1 1 0.5897 8.457459845063402 2.4994177881511814 18.404298122180876 -5 -5 4
572 1 1 0.5897 9.035716937579982 4.761917166917218 21.272089604244425 3 -3 -3
834 1 1 0.5897 4.819363020073299 6.112695874802085 20.60529404133614 5 -2 1
282 1 1 0.5897 6.602303076191595 9.335946247641642 4.157636157640085 -2 -2 1
281 1 1 0.5897 6.222775212569195 10.372943638912126 3.1220025139884267 -2 -2 1
693 1 1 0.5897 7.519741102166647 11.566462279427236 3.690703703130851 0 -2 4
285 1 1 0.5897 7.761831786492059 8.69278424854414 1.7782804526486873 4 -1 -2
280 1 2 -1.1794 6.90761485805111 9.743160427103152 3.346943854166518 -2 -2 1
283 1 2 -1.1794 8.365132158142302 8.125157894328911 1.2986000026975897 4 -1 -2
253 1 2 -1.1794 4.954959630870743 11.595715590240458 2.7917503521905775 3 6 -7
145 1 2 -1.1794 5.60074812887521 8.966460331742862 5.74400305260544 0 0 -5
284 1 1 0.5897 8.62455345120339 7.458609881003264 1.9347358305839486 4 -1 -2
339 1 1 0.5897 8.604112954536664 11.6575581602404 1.1501123081083255 -4 1 3
147 1 1 0.5897 5.05490485682576 8.180401812190365 5.765208334994156 0 0 -5
110 1 1 0.5897 5.8885761513338375 7.0811922890439725 1.781741626078774 -1 -1 -5
146 1 1 0.5897 4.978801052271594 9.688133319165182 5.651009420047264 0 0 -5
174 1 1 0.5897 5.67212494903683 11.710351015028154 8.564768862241596 3 2 -1
852 1 1 0.5897 5.389421479376787 9.678377215089554 10.808171546445937 -7 -1 -2
624 1 1 0.5897 6.941428847348782 8.645014291916072 8.598228478963847 4 -1 1
398 1 1 0.5897 7.088750196530816 7.241533416607762 10.850065786834136 4 3 -5
792 1 1 0.5897 8.651144925491034 8.008488068680972 6.939627513484292 1 5 -2
622 1 2 -1.1794 7.3649652127389365 8.956912215764348 7.798492896597814 4 -1 1
623 1 1 0.5897 6.6572801000241295 9.006689632671389 7.155881438072122 4 -1 1
121 1 2 -1.1794 6.203380714169095 11.556814042254478 10.438707992579852 1 -2 1
397 1 2 -1.1794 7.908499936265047 7.684148803478264 10.630161673626379 4 3 -5
399 1 1 0.5897 7.842051839328904 8.538309996335045 11.057071223855239 4 3 -5
132 1 1 0.5897 4.833093302576155 7.790327657175064 9.264113337318188 -4 2 2
130 1 2 -1.1794 4.809941216215395 7.20962315466411 8.503537678152988 -4 2 2
113 1 1 0.5897 7.408380366521462 10.807666280308867 12.127202470161276 -4 -3 1
112 1 2 -1.1794 7.744204985483538 9.930486627430628 12.311735069494981 -4 -3 1
251 1 1 0.5897 6.493877895771518 7.155251108807053 14.129030327154245 3 -3 2
424 1 2 -1.1794 5.624220806480563 9.125327686079078 13.8605027864909 8 -3 0
114 1 1 0.5897 7.1953927471357195 9.60899511057773 13.027060987637306 -4 -3 1
613 1 2 -1.1794 6.666263716269023 10.120027448313817 16.248574513737235 -6 0 4
425 1 1 0.5897 5.970817884419991 9.50677221483603 14.667104134880512 8 -3 0
614 1 1 0.5897 7.577012621507809 9.836474054805487 16.328440216046644 -6 0 3
426 1 1 0.5897 4.784966681792689 9.566115598975149 13.72788948024379 8 -4 0
732 1 1 0.5897 6.311812314537596 7.115082183427457 18.006095943812195 2 2 -4
646 1 2 -1.1794 5.097379940790854 7.920667772779025 21.47634725715166 -7 -1 -2
532 1 2 -1.1794 6.310306513188917 10.323394366080265 20.32353374060108 -6 -1 -2
647 1 1 0.5897 5.3524941915638875 8.824501620524249 21.291298045939104 -7 -1 -2
534 1 1 0.5897 6.605782388604752 11.043115110607618 20.88117498357203 -6 -1 -2
615 1 1 0.5897 6.172902525303494 9.495261390413603 16.78009542439632 -6 0 4
212 1 1 0.5897 7.899736660739656 9.514481351434902 19.686759554615428 5 1 2
533 1 1 0.5897 5.74189122180899 10.739620835900412 19.675514207271366 -6 -1 -2
712 1 2 -1.1794 4.923636927254685 8.05393636587372 17.119283128019653 -5 0 3
411 1 1 0.5897 9.068027100492937 9.424550185351208 17.472001401387992 4 2 -6
729 1 1 0.5897 9.027198544059285 10.93054043299532 18.991988882861186 -1 0 0
211 1 2 -1.1794 8.738009789917701 9.272816071569665 19.29288455695764 5 1 2
219 1 1 0.5897 7.851251860665791 6.859129169363847 21.118037462635538 3 -1 -4
15 1 1 0.5897 7.455705380724833 13.849201025744723 4.527885899110036 1 -5 -3
563 1 1 0.5897 5.921953056134076 14.568608145613574 1.406858345780589 3 -1 4
564 1 1 0.5897 6.435763387194726 15.812165362527693 2.1007303624719174 3 -1 4
772 1 2 -1.1794 9.00320614508328 16.21003618965726 2.172893840373505 1 -4 3
14 1 1 0.5897 6.907112098720083 15.244674922079023 4.736652433948768 1 -5 -3
301 1 2 -1.1794 5.210528399811393 16.85627968752177 5.430011663458579 -2 3 8
562 1 2 -1.1794 6.179134348474764 14.904824842074685 2.265371362563041 3 -1 4
13 1 2 -1.1794 7.2217926564181445 14.476018126323387 5.212439168274243 1 -5 -3
254 1 1 0.5897 4.953780948788891 11.913471582196244 1.8888338937945135 3 6 -7
692 1 1 0.5897 7.798104671868921 12.555273243960404 2.578621039089416 0 -2 4
774 1 1 0.5897 8.807331705454978 15.574970811398192 1.4840124146416955 1 -4 3
337 1 2 -1.1794 7.842619983235781 12.116674677121424 0.7957394800570046 -4 1 3
691 1 2 -1.1794 7.95783444754736 12.397959964620616 3.509213584224115 0 -2 4
150 1 1 0.5897 8.828149052413655 16.669150331389506 3.8922808072909527 -4 0 1
207 1 1 0.5897 8.818646419870587 12.632063781657047 8.852943063453653 -4 3 -3
683 1 1 0.5897 7.684632747103733 14.342041545300626 9.349924365705316 4 -1 -4
684 1 1 0.5897 6.393410648545909 15.124846971087944 9.4587792104401 4 -1 -4
205 1 2 -1.1794 8.68271220024362 12.80714523711711 9.784127166402158 -4 3 -3
808 1 2 -1.1794 8.634462788540407 12.695149928972812 6.9771837977925975 4 -3 0
302 1 1 0.5897 5.3457946115582535 16.25804479378298 6.164912177985929 -2 3 8
173 1 1 0.5897 6.750191232139394 11.970000598231719 7.534107273939389 3 2 -1
162 1 1 0.5897 5.31956116183285 13.844088524089322 7.000024268151173 4 6 1
810 1 1 0.5897 8.295288098853236 13.467479481060948 6.5247450503768825 4 -3 0
682 1 2 -1.1794 7.217976368056656 15.0884678048927 8.974014385484137 4 -1 -4
561 1 1 0.5897 8.65918538592997 15.311579824841628 7.62358465645863 5 1 2
172 1 2 -1.1794 5.819968689851581 12.112859430895554 7.708981776988651 3 2 -1
122 1 1 0.5897 7.003097061900045 12.069006059887926 10.318910312243904 1 -2 1
123 1 1 0.5897 5.642498595315728 12.110987690581025 10.981416069717895 1 -2 1
512 1 1 0.5897 7.039303523966712 16.838662724059958 9.327964704575722 -2 2 -4
260 1 1 0.5897 6.190167430786346 14.120267856750637 12.778397606855846 0 -2 7
586 1 2 -1.1794 7.099125025362407 12.677801983690438 13.263029384600907 0 -1 5
630 1 1 0.5897 7.462374037068548 15.608398740606413 15.693419529330185 -2 -3 3
261 1 1 0.5897 6.329510881407526 15.585272951629278 12.423107069563645 0 -2 7
588 1 1 0.5897 8.05286801218487 12.754995971103522 13.288406067686273 0 -1 5
587 1 1 0.5897 6.841489863012804 12.583650513570946 14.180083648544278 0 -1 5
259 1 2 -1.1794 5.681775638620509 14.923327541613453 12.664965081747955 0 -2 7
67 1 2 -1.1794 6.216857156787514 12.777547514045978 15.896508543888636 4 -2 -5
442 1 2 -1.1794 7.69457603056217 16.83214763766844 12.373504545842641 4 3 -3
743 1 1 0.5897 8.66634971192773 16.581490182601392 13.926393152868197 -4 0 2
443 1 1 0.5897 8.383677639285732 16.630621194827796 11.740450628353848 4 3 -3
742 1 2 -1.1794 9.040282229389115 16.498188816515515 14.803584176592981 -4 0 2
69 1 1 0.5897 6.120418153700463 11.840599153993258 16.066979491920332 4 -2 -5
68 1 1 0.5897 5.392513465756648 13.161848786649879 16.194836620592923 4 -2 -5
629 1 1 0.5897 6.360768328150548 16.531213426418333 16.169729276758307 -2 -3 3
819 1 1 0.5897 4.847175144920982 15.14121907459305 11.14389334824461 5 -2 -1
233 1 1 0.5897 5.225533660237098 12.876000011305823 20.542392623431567 -2 1 0
493 1 2 -1.1794 8.709971047448374 16.063519625649135 18.34442705004761 -2 -1 -1
448 1 2 -1.1794 8.713880709359678 14.70190740536182 21.034433351004832 3 -2 -4
365 1 1 0.5897 7.306470277553856 13.194561924971563 18.790308546548008 3 3 1
208 1 2 -1.1794 5.7531733403836105 16.225159853620845 19.77763831411345 0 -3 2
364 1 2 -1.1794 6.416572252441868 13.492720295845736 18.978529998202134 3 3 1
628 1 2 -1.1794 6.809118295059214 15.713330990209164 16.385140012800818 -2 -3 3
494 1 1 0.5897 8.087439204044845 15.857257297729335 17.647172862639895 -2 -1 -1
209 1 1 0.5897 6.187064449576659 15.396212704140519 19.57552146203149 0 -3 2
329 1 1 0.5897 8.112096274149643 13.085313608211449 16.45123495273643 2 5 -1
366 1 1 0.5897 5.882963734143279 13.11026249165001 18.281955173954906 3 3 1
450 1 1 0.5897 8.507803004046679 15.246831588865108 20.274946579199998 3 -2 -4
677 1 1 0.5897 5.094395111175349 14.840038004151493 16.828940735631406 0 1 -3