LAMMPS data file via write_data, version 30 Jul 2021, timestep = 3250000

972 atoms
2 atom types
648 bonds
1 bond types
324 angles
1 angle types

0.05489052484136714 19.945110475157755 xlo xhi
0.016057255645909763 19.983943744356864 ylo yhi
0.036487654128194436 20.66351034587803 zlo zhi

Masses

1 1.008
2 15.999

Pair Coeffs # lj/cut/tip4p/long/omp

1 0 0
2 0.21084 3.1668

Bond Coeffs # harmonic/omp

1 450 0.9572

Angle Coeffs # harmonic/omp

1 55 104.52

Atoms # full

4 2 2 -1.1794 4.361417424063076 1.5493647801304835 3.4102445170395264 0 0 0
5 2 1 0.5897 4.319830284929787 0.8911476959310978 2.7165221750306907 0 0 0
32 11 1 0.5897 0.13134991036307425 2.1184437834973817 1.7167815329415803 0 0 0
10 4 2 -1.1794 1.2441472342857496 4.049390876573078 3.830413034608883 0 0 0
11 4 1 0.5897 1.1081375830821762 3.2930379881455227 3.259728506188313 0 0 0
12 4 1 0.5897 2.1927507732186866 4.177626961790847 3.83693518750193 0 0 0
16 6 2 -1.1794 3.9805582221212163 4.279742285663805 3.736548695125223 0 0 0
18 6 1 0.5897 4.170161631013987 3.3585849301748816 3.558221771736012 0 0 0
23 8 1 0.5897 2.884859223469207 1.0205831252246347 4.349660066429702 0 0 0
31 11 2 -1.1794 1.0171447751281764 2.0752473590737743 2.0770856179636588 0 0 0
33 11 1 0.5897 1.5864514076407943 2.3054391214580985 1.342817432191369 0 0 0
17 6 1 0.5897 4.211845382169543 4.733631089121259 2.926172698458995 0 0 0
22 8 2 -1.1794 2.250986541422901 0.8902691457277584 5.054979457739913 0 0 0
236 79 1 0.5897 1.0843287688246546 0.18511821104308876 2.184672472714873 0 1 0
81 27 1 0.5897 0.12654927388223314 4.57345129301615 5.072958891254004 1 0 0
3 1 1 0.5897 3.790248593788768 2.4013835563199035 0.20635096284707574 0 0 0
342 114 1 0.5897 4.237046741751444 4.598206914762262 9.844254327003723 0 0 0
27 9 1 0.5897 2.647970355706597 4.538952184266824 6.44006392068841 0 0 0
325 109 2 -1.1794 2.894029583492405 2.859100517287759 6.829998063957469 0 0 0
326 109 1 0.5897 2.761129590455571 2.2583477333124202 6.096744018829643 0 0 0
327 109 1 0.5897 3.785318400009383 2.679126158454253 7.12919709726997 0 0 0
330 110 1 0.5897 4.134443888392369 0.5501618477118302 9.463409482469784 0 0 0
355 119 2 -1.1794 1.0588076498036076 2.067194517551564 8.846033248264707 0 0 0
356 119 1 0.5897 1.7275398115297491 2.3191362872371317 8.209173707060835 0 0 0
357 119 1 0.5897 0.22850140537981437 2.272464651731512 8.416195084133436 0 0 0
335 112 1 0.5897 1.0980332909562698 3.4969361740043707 9.982435455063332 0 0 0
341 114 1 0.5897 4.018279390882511 3.1508615170407164 10.230704623530043 0 0 0
328 110 2 -1.1794 4.037763410021478 1.3412363115345765 9.99360155731328 0 0 0
24 8 1 0.5897 2.486457324693163 0.04429061050554899 5.4359535240483385 0 0 0
561 187 1 0.5897 0.8893260713161312 0.27879419251783577 8.817182879108385 0 1 0
102 34 1 0.5897 0.42440358368471104 0.9839598875742259 5.307973755785974 1 0 0
336 112 1 0.5897 2.2055052878715817 4.260926004323514 10.67660521796534 0 0 0
683 228 1 0.5897 4.399514791782468 2.7343782043936105 14.218532737603507 0 0 0
346 116 2 -1.1794 1.9833038924562565 0.898243227058873 11.886418612281826 0 0 0
347 116 1 0.5897 1.0474615575054527 1.007122513954069 11.71711642737504 0 0 0
348 116 1 0.5897 2.402724656009202 1.087939795639055 11.04717950257085 0 0 0
350 117 1 0.5897 2.752850867417045 4.475282532944756 13.565217990543546 0 0 0
649 217 2 -1.1794 2.62947177367822 2.6152147796599765 13.875119907964436 0 0 0
650 217 1 0.5897 2.4807148837826594 1.9643914918550274 13.189165417433102 0 0 0
651 217 1 0.5897 1.9675315363352117 2.420219496539153 14.538497666204513 0 0 0
329 110 1 0.5897 4.635664505491562 1.2113132995254163 10.729714795769315 0 0 0
334 112 2 -1.1794 1.2571627453899752 4.25373698551236 10.546514555160812 0 0 0
340 114 2 -1.1794 3.9645903265680595 4.042587949423903 10.574511359375961 0 0 0
652 218 2 -1.1794 4.083744221783252 1.3932007822442949 16.921862084920495 0 0 0
653 218 1 0.5897 3.277450752236423 1.204955130770994 17.402225797149622 0 0 0
654 218 1 0.5897 4.133475452841234 0.7056812924208082 16.25772382802792 0 0 0
658 220 2 -1.1794 1.3002410818478414 4.236708731379327 17.350446777652483 0 0 0
659 220 1 0.5897 0.6247646393351914 4.329512443585641 18.02229653795001 0 0 0
664 222 2 -1.1794 4.05000592446813 4.1834755799847505 17.389072110666856 0 0 0
665 222 1 0.5897 3.1129254310686494 4.378854519738705 17.38476052251968 0 0 0
666 222 1 0.5897 4.1043667629049185 3.262722053234349 17.13309334714577 0 0 0
670 224 2 -1.1794 2.0393937583350725 0.9655305381401766 18.60851594502363 0 0 0
671 224 1 0.5897 2.314166692880611 1.6164288221460335 19.25432806213987 0 0 0
672 224 1 0.5897 1.0832410470739748 0.9710488817095747 18.654006947672727 0 0 0
681 227 1 0.5897 1.0066747857929488 2.650835335893946 16.49987855168728 0 0 0
679 227 2 -1.1794 0.7719230263393602 2.056970121567482 15.786821581479387 0 0 0
660 220 1 0.5897 1.0184169058368604 4.818876117885694 16.64483438758778 0 0 0
884 295 1 0.5897 0.6194935751050348 0.24042808420405606 15.627097202422481 0 1 0
656 219 1 0.5897 5.004896815657354 4.528687875324967 18.896613265734874 0 0 0
2 1 1 0.5897 2.7324492461881724 3.4485273428228376 20.55660483379607 0 0 -1
1 1 2 -1.1794 2.8582683728568234 2.5032916080173693 20.640101419860894 0 0 -1
674 225 1 0.5897 1.7488223388772657 5.5610461711636034 0.5611954375400624 0 0 1
141 47 1 0.5897 1.0558193505255806 7.931530097250244 2.514009727605121 0 0 0
139 47 2 -1.1794 1.036039610145257 8.84935868493982 2.242960657137036 0 0 0
114 38 1 0.5897 3.387859216696903 7.5927247087706835 3.5877755542454097 0 0 0
15 5 1 0.5897 4.621737338078764 6.552151481508086 1.9051641377276682 0 0 0
14 5 1 0.5897 4.186078998197343 5.656378652883992 0.7651246491507481 0 0 0
20 7 1 0.5897 0.666227568872184 5.2687968020199385 2.5890150895704696 0 0 0
19 7 2 -1.1794 0.4856564109684961 5.99241159156468 1.989011787256026 0 0 0
140 47 1 0.5897 1.2806677111426865 9.337186643789504 3.029348441685761 0 0 0
112 38 2 -1.1794 4.191793732852883 7.85857364579795 3.141333639307478 0 0 0
132 44 1 0.5897 1.0479057735228552 7.438745485306191 4.937719386320462 0 0 0
110 37 1 0.5897 2.1416412707840133 9.106742287613407 0.8229647181397742 0 0 0
13 5 2 -1.1794 4.715767153037583 5.663377612840852 1.5623646775048359 0 0 0
113 38 1 0.5897 4.889188091517461 7.66706909982472 3.768422337360963 0 0 0
111 37 1 0.5897 3.570660331981254 9.126407063070156 0.3233304306532569 0 0 0
130 44 2 -1.1794 1.9976753461431542 7.389638617113361 4.828803559429519 0 0 0
126 42 1 0.5897 4.445470593118906 9.697093368386648 3.3455104722060485 0 0 0
109 37 2 -1.1794 2.669474432295245 9.291867257297838 0.04620614267562573 0 0 0
25 9 2 -1.1794 2.6553952805650645 5.489899861230701 6.5492764374325585 0 0 0
464 155 1 0.5897 1.722117073452155 8.901506893271637 8.297562319646094 0 0 0
337 113 2 -1.1794 4.6939160616090385 5.860073109916503 8.561732300682495 0 0 0
437 146 1 0.5897 4.434792046679644 7.647024775589691 9.511022991851949 0 0 0
468 156 1 0.5897 4.67002466700364 8.962196785548365 7.223523989128969 0 0 0
435 145 1 0.5897 2.457519651902107 8.631654909416314 6.168827557591361 0 0 0
433 145 2 -1.1794 2.8023695519479923 9.077586317036051 6.942412093750178 0 0 0
463 155 2 -1.1794 1.0208899866516878 8.628206406069582 8.889053828858652 0 0 0
345 115 1 0.5897 0.9227787016831428 6.913178974554107 8.722747232991876 0 0 0
339 113 1 0.5897 4.200585367636945 5.640548842226118 7.7713795372650525 0 0 0
343 115 2 -1.1794 0.7818793464898381 5.996783456678198 8.484772008959041 0 0 0
26 9 1 0.5897 1.9893750119940734 5.66017259473875 7.21537560460664 0 0 0
344 115 1 0.5897 0.9481404565316658 5.510755160059926 9.292446959588132 0 0 0
438 146 1 0.5897 4.181064843046114 8.976687159588936 10.18896124063459 0 0 0
131 44 1 0.5897 2.2803260055168084 6.743140015658128 5.475632526027638 0 0 0
443 148 1 0.5897 1.164222343089028 9.814119221835398 10.166756857676162 0 0 0
465 155 1 0.5897 0.21584565050419258 8.784162213092745 8.395216189611183 0 0 0
757 253 2 -1.1794 2.6663995911788563 9.232042765273581 14.094779940073972 0 0 0
668 223 1 0.5897 1.2198152427947 5.6894972070672685 14.764587055497582 0 0 0
349 117 2 -1.1794 2.7712968234303483 5.430654720866197 13.621791127265796 0 0 0
792 264 1 0.5897 4.450988372944368 9.27962117945293 14.454762812418851 0 0 0
351 117 1 0.5897 3.5918355760546854 5.628518912059333 14.073283329824054 0 0 0
454 152 2 -1.1794 2.1703213017726357 7.547256302614048 11.99423493833202 0 0 0
455 152 1 0.5897 2.827316480970824 7.670319510252548 11.309059155711049 0 0 0
456 152 1 0.5897 2.459464449882317 6.766462110383435 12.466472412048171 0 0 0
759 253 1 0.5897 2.5164508266150554 8.686537526297988 13.322663344454766 0 0 0
789 263 1 0.5897 1.4733311825942486 8.779855874480523 15.31437519039734 0 0 0
533 178 1 0.5897 0.34547228418505804 7.614643955902783 11.861743809882027 1 0 0
661 221 2 -1.1794 4.878233432243238 5.911780655745109 15.348045078621391 0 0 0
667 223 2 -1.1794 0.5375096860667619 5.886931441837728 15.406262608573149 0 0 0
436 146 2 -1.1794 4.258721595291555 8.039230230024273 10.366228180781324 0 0 0
787 263 2 -1.1794 0.7877390115857683 8.535739305642673 15.936179599075986 0 0 0
788 263 1 0.5897 0.834200857470966 9.204570844010112 16.619363402525003 0 0 0
858 286 1 0.5897 0.5866587478755306 7.276179512237819 18.58849115340758 1 0 0
779 260 1 0.5897 2.5484173367503464 8.08094932414039 19.376220391669086 0 0 0
780 260 1 0.5897 3.0229073849583643 7.53572281068955 18.046015494185227 0 0 0
675 225 1 0.5897 2.3393937641920957 5.85891095043779 19.826473843648 0 0 0
760 254 2 -1.1794 4.353537833605656 7.988246885230317 16.93969156973913 0 0 0
761 254 1 0.5897 4.309406322115127 8.94328159421538 16.892553714503997 0 0 0
662 221 1 0.5897 4.655260533046242 5.190146108060604 15.936069788024627 0 0 0
778 260 2 -1.1794 2.4617862753103763 7.326981614892517 18.79288620322816 0 0 0
663 221 1 0.5897 4.562867324739484 6.695034253258524 15.79896284057596 0 0 0
669 223 1 0.5897 0.629742260511193 6.824870233451269 15.573735681138354 0 0 0
673 225 2 -1.1794 2.343195170526809 5.206547192703063 20.526928388004375 0 0 0
783 261 1 0.5897 1.8984433942722538 12.147917384574223 0.5416523120337603 0 0 1
118 40 2 -1.1794 1.8482999483401676 10.800091378809064 4.019470772393095 0 0 0
119 40 1 0.5897 2.794717067310455 10.83868875296544 3.8811295976564484 0 0 0
120 40 1 0.5897 1.4864929625513297 11.408044491776508 3.3746943715688387 0 0 0
122 41 1 0.5897 4.868755798129063 11.922123491812425 2.323202925136401 0 0 0
123 41 1 0.5897 4.252889226066821 12.308059101235452 0.995185838339746 0 0 0
124 42 2 -1.1794 4.557486786918002 10.639083894053298 3.473530975990905 0 0 0
240 80 1 0.5897 2.7790286306259557 14.102634591702467 4.381888935280021 0 0 0
127 43 2 -1.1794 0.8502094755841376 12.371901729838363 2.0346883008175385 0 0 0
129 43 1 0.5897 1.0086506682617231 13.284868154240186 2.274815104982502 0 0 0
220 74 2 -1.1794 4.044635921813267 14.65978434225048 3.2283522894750982 0 0 0
222 74 1 0.5897 4.318703968134534 14.217612175989583 2.424866853975638 0 0 0
121 41 2 -1.1794 4.953078788487894 12.546637253358512 1.6027137780298635 0 0 0
238 80 2 -1.1794 2.135081463458246 14.008870701626575 5.083877504232277 0 0 0
317 106 1 0.5897 0.36954908794925245 13.969275747104712 5.026607859961903 1 0 0
133 45 2 -1.1794 2.545226804674037 11.865921956103698 6.841579669285726 0 0 0
134 45 1 0.5897 1.8655499231413253 12.172740052880288 7.441718920435247 0 0 0
135 45 1 0.5897 3.367950513248171 12.110188288164888 7.26556582502218 0 0 0
239 80 1 0.5897 2.3799653595064822 13.196656155976816 5.527249975502902 0 0 0
573 191 1 0.5897 0.9904309045962533 14.594193811782388 9.275379549669108 0 0 0
446 149 1 0.5897 4.451854840128755 13.344309900660889 8.807205409322622 0 0 0
450 150 1 0.5897 4.4837953076269 11.30088152130683 9.41613283637937 0 0 0
451 151 2 -1.1794 0.8297792380661592 12.695430156812298 8.910117387105121 0 0 0
453 151 1 0.5897 0.9888117751577824 12.03237268782139 9.581896957387281 0 0 0
445 149 2 -1.1794 4.742264425690623 12.604253449748994 8.274070198409527 0 0 0
434 145 1 0.5897 2.6199180639906015 10.00424304231256 6.786544180842193 0 0 0
544 182 2 -1.1794 4.365069695543263 14.546558051046674 10.09611631673248 0 0 0
448 150 2 -1.1794 4.146512018461742 10.72832241168619 10.105086325152893 0 0 0
188 63 1 0.5897 0.45819403302644446 10.94427451775065 5.263738516774331 1 0 0
545 182 1 0.5897 3.577167762666985 14.452232458157335 10.63146273543701 0 0 0
449 150 1 0.5897 4.578366468861134 11.033075189268944 10.903119385084027 0 0 0
457 153 2 -1.1794 2.5245890142853784 11.995702610865095 13.583060974260194 0 0 0
458 153 1 0.5897 1.8442313963495809 12.16264910822176 14.235371030486636 0 0 0
459 153 1 0.5897 3.310881821375779 12.402927263332085 13.946678112862692 0 0 0
442 148 2 -1.1794 1.3898141354328961 10.540917554902618 10.74737180317594 0 0 0
758 253 1 0.5897 2.6757189588706716 10.127867457721813 13.757633631098074 0 0 0
562 188 2 -1.1794 2.0817570661252676 14.10947974754603 11.836337401614076 0 0 0
563 188 1 0.5897 2.2963247185881706 13.283394550116855 12.269688078425096 0 0 0
642 214 1 0.5897 0.12047696314897662 14.161188563527293 12.034411184411619 1 0 0
444 148 1 0.5897 2.3308217367690625 10.664530627872924 10.62269821560175 0 0 0
769 257 2 -1.1794 4.5413071653626975 12.865884322201762 15.211125386405138 0 0 0
564 188 1 0.5897 2.2176756845699415 14.776114341095168 12.50964719364377 0 0 0
766 256 2 -1.1794 1.1564468180624483 10.674097950443905 17.54021247096073 0 0 0
767 256 1 0.5897 0.6760652869181117 10.853299483492302 18.348511039704984 0 0 0
768 256 1 0.5897 0.9957590865244544 11.441083098588205 16.990535097680475 0 0 0
772 258 2 -1.1794 3.8140649664504584 10.727402736206104 17.03236909412759 0 0 0
773 258 1 0.5897 2.87676067661863 10.703088759558685 17.225242454859636 0 0 0
774 258 1 0.5897 3.906644477780176 11.420415599534094 16.378619979419245 0 0 0
771 257 1 0.5897 4.300634891649132 13.598050339186983 15.778799846703226 0 0 0
868 290 2 -1.1794 3.9804238093890425 14.572632575416346 17.355755611559413 0 0 0
869 290 1 0.5897 3.2328396324018267 14.310768855824342 17.893184409503906 0 0 0
886 296 2 -1.1794 1.8586460962864346 14.25368526404974 19.033969309194134 0 0 0
888 296 1 0.5897 2.150823754215504 13.435964647376982 19.4367544619713 0 0 0
870 290 1 0.5897 4.744365454076447 14.396265754647766 17.904914680048257 0 0 0
965 322 1 0.5897 0.0641021711289865 14.201739576255923 19.033412777829238 1 0 0
782 261 1 0.5897 2.650989867396347 11.036958212388427 20.46763524880183 0 0 0
781 261 2 -1.1794 2.6135383787451127 11.989696602874789 20.552329814113996 0 0 0
887 296 1 0.5897 2.214255665924308 14.939885135294952 19.598709057652922 0 0 0
775 259 2 -1.1794 0.6689996229210153 12.673864650107326 15.534942956503528 0 0 0
777 259 1 0.5897 0.8212700109513617 13.598418980602439 15.730620994400338 0 0 0
764 255 1 0.5897 4.8751721972104765 10.996965627008576 18.518349519637365 0 0 0
249 83 1 0.5897 1.5898835633749662 15.544351791950724 1.6072532601888072 0 0 0
248 83 1 0.5897 0.965926895374382 15.8155549195461 2.9596412504076075 0 0 0
247 83 2 -1.1794 0.9833318660268102 15.174674515259525 2.2488787814132416 0 0 0
229 77 2 -1.1794 4.566470620365125 19.400643330633407 1.6830781931977703 0 0 0
226 76 2 -1.1794 1.3035173120938939 17.361653096265336 3.7387412943105867 0 0 0
227 76 1 0.5897 1.210290692033095 18.051501902417378 3.0817331165339814 0 0 0
228 76 1 0.5897 0.6870838165414993 17.603662305717933 4.429898828424073 0 0 0
890 297 1 0.5897 2.0242716597203594 18.986937327770455 0.4725209567390457 0 0 1
230 77 1 0.5897 4.134999842882476 19.351418365905744 0.8300791073650109 0 0 0
232 78 2 -1.1794 4.055502394447484 17.552632093250388 3.659674817516526 0 0 0
233 78 1 0.5897 4.237534233049963 18.129862627990377 2.918142929466326 0 0 0
234 78 1 0.5897 3.1091858045313088 17.618111473992897 3.788142949729552 0 0 0
235 79 2 -1.1794 1.0450487818174747 19.22749012819677 1.9435207249510404 0 0 0
221 74 1 0.5897 4.174303645020766 15.590550989249483 3.0462966634701374 0 0 0
219 73 1 0.5897 3.477207506034056 16.051761929170105 0.5178106117866283 0 0 0
237 79 1 0.5897 0.118853474614113 19.065338470550223 1.7640816591047066 0 0 0
217 73 2 -1.1794 2.5661971132890176 16.13620666022043 0.2363041890108626 0 0 0
543 181 1 0.5897 2.4205658399888796 15.3031458728496 6.262777558368451 0 0 0
576 192 1 0.5897 4.345474667900228 15.784031082187061 7.237013065061828 0 0 0
559 187 2 -1.1794 0.8209939984658052 19.303373676522213 8.669714154856603 0 0 0
241 81 2 -1.1794 2.6030212215057946 18.651283521376115 6.638203002818617 0 0 0
242 81 1 0.5897 2.5761593921250223 17.695304749112594 6.678994442453071 0 0 0
243 81 1 0.5897 1.9476369328229903 18.937162926563218 7.2746053001139 0 0 0
541 181 2 -1.1794 2.6286971640189947 15.931739364780123 6.954001344593198 0 0 0
542 181 1 0.5897 2.0182585331273337 15.721972436144457 7.660835773387801 0 0 0
553 185 2 -1.1794 4.59871620331301 18.91202983603116 8.53253334878636 0 0 0
558 186 1 0.5897 4.18655725738763 17.691211422786964 9.77658035778895 0 0 0
555 185 1 0.5897 4.250688394337485 18.80422080792153 7.647397699731261 0 0 0
572 191 1 0.5897 1.051154961921738 15.994038113091495 9.848735148507828 0 0 0
571 191 2 -1.1794 0.8419762861841988 15.512221844636253 9.048535738768864 0 0 0
551 184 1 0.5897 1.0584656532491743 18.198307790506405 10.1319514890833 0 0 0
557 186 1 0.5897 4.203865689795928 16.265215783306637 10.284745658935421 0 0 0
885 295 1 0.5897 1.0746002778534667 19.05455789288812 14.75894547799392 0 0 0
866 289 1 0.5897 3.499689894771294 15.839554629606033 14.0019586272525 0 0 0
879 293 1 0.5897 3.9401410428348806 19.048675139950817 14.749469257300717 0 0 0
867 289 1 0.5897 2.1482019571897797 15.78317522818893 14.681946259766576 0 0 0
550 184 2 -1.1794 1.284880646491085 17.57171304121755 10.8192204370955 0 0 0
552 184 1 0.5897 2.2411472868785847 17.531811984853093 10.802098669651228 0 0 0
565 189 2 -1.1794 2.4228836710133037 18.687142010342022 13.662564090820515 0 0 0
566 189 1 0.5897 2.3032074442941415 17.75070739701063 13.504287748530142 0 0 0
567 189 1 0.5897 2.166791444797062 19.10424563332557 12.839980806263302 0 0 0
865 289 2 -1.1794 2.560162570605865 15.881841680949053 13.82359382705663 0 0 0
556 186 2 -1.1794 3.94563397743265 17.15347474671254 10.530910219610883 0 0 0
896 299 1 0.5897 0.06594952289779286 15.768752937650452 15.455474563720927 0 0 0
877 293 2 -1.1794 4.61909910944172 19.172847514916107 15.412688134416461 0 0 0
883 295 2 -1.1794 0.42186835631694825 19.29576526809616 15.416223318347614 0 0 0
881 294 1 0.5897 2.9563427343655952 17.506093865539867 17.381955932955297 0 0 0
897 299 1 0.5897 0.9610518790745097 16.102473386304858 16.629931084486145 0 0 0
891 297 1 0.5897 2.3627481132608885 19.540205704066068 19.73167561633286 0 0 0
882 294 1 0.5897 3.9714573375017546 16.408664052307515 17.142680869718298 0 0 0
880 294 2 -1.1794 3.892070191303935 17.356991017743752 17.245917510876115 0 0 0
874 292 2 -1.1794 1.1686853501385863 17.645348157988415 17.426154865903538 0 0 0
875 292 1 0.5897 0.6762951183197042 17.88375763721109 18.211614862571622 0 0 0
876 292 1 0.5897 0.8634900502547799 18.257566858627506 16.75661113794078 0 0 0
878 293 1 0.5897 4.424330509674431 18.51617216969305 16.081330315693958 0 0 0
889 297 2 -1.1794 2.6020674741831984 18.848931353764712 20.349017137410193 0 0 0
218 73 1 0.5897 2.474736896057565 17.05734407578037 20.61957419897122 0 0 -1
895 299 2 -1.1794 0.7225689428521862 15.388307250230394 16.038889906689082 0 0 0
873 291 1 0.5897 4.822823157616428 17.762787248711582 18.85199777479855 0 0 0
69 23 1 0.5897 6.667440574408042 2.2024749331401736 1.7505488796109603 0 0 0
53 18 1 0.5897 9.926612872081416 4.009074944578514 4.007687538040697 0 0 0
68 23 1 0.5897 8.180822094634966 2.23014457193289 1.718083836772831 0 0 0
67 23 2 -1.1794 7.440326894104932 1.9308634136893343 2.2456929745789447 0 0 0
46 16 2 -1.1794 8.086640386619775 4.205037747845754 3.8324751441979616 0 0 0
47 16 1 0.5897 7.834216768687198 3.3851297992004024 3.407859652048028 0 0 0
48 16 1 0.5897 7.385158853734094 4.3756177546295545 4.461041471978531 0 0 0
34 12 2 -1.1794 5.444303911436966 2.5277324502479175 0.5390897606753423 0 0 0
29 10 1 0.5897 7.109992960826635 0.8527334633053079 5.014603665440163 0 0 0
37 13 2 -1.1794 9.40212335642721 2.436576017351794 0.35369620415136843 0 0 0
273 91 1 0.5897 7.433036132460619 0.2585658393061163 1.729962056402352 0 1 0
58 20 2 -1.1794 8.803629155067064 0.7222185920665694 4.863325750690507 0 0 0
36 12 1 0.5897 5.575842063467407 3.397404063450838 0.16142792805169132 0 0 0
9 3 1 0.5897 5.189869777377192 4.65631426818912 4.940113087803545 0 0 0
6 2 1 0.5897 5.061448741512471 1.2452319087794228 3.9879380626718257 0 0 0
710 237 1 0.5897 9.27587444698816 4.256957967577281 0.06560825243097668 0 0 1
8 3 1 0.5897 5.878745474365895 3.898819980337376 6.055247839674808 0 0 0
391 131 2 -1.1794 7.715210923872505 2.1081782868089616 9.124698987635115 0 0 0
393 131 1 0.5897 7.557430399382949 1.1640892749704306 9.115668698068072 0 0 0
7 3 2 -1.1794 5.943136199586674 4.696054886608536 5.529427312542633 0 0 0
361 121 2 -1.1794 9.09232153341067 2.6063076133803986 6.896006097299369 0 0 0
392 131 1 0.5897 8.269484476744136 2.2661887905276483 8.36046914028064 0 0 0
362 121 1 0.5897 9.022386122860532 3.515447746011968 6.6047225278182955 0 0 0
358 120 2 -1.1794 5.704731946935581 2.572573188259981 7.272536991642371 0 0 0
359 120 1 0.5897 6.301135189684857 2.372833553555496 7.994104157168791 0 0 0
360 120 1 0.5897 5.825427425287218 1.8513768445743697 6.65483525405304 0 0 0
59 20 1 0.5897 8.935144211088124 1.4714702631502434 5.44433966173453 0 0 0
28 10 2 -1.1794 6.196133137192479 0.8186292549315429 5.297470576683997 0 0 0
352 118 2 -1.1794 5.685382564337934 0.9466144174813326 12.169396182175856 0 0 0
353 118 1 0.5897 6.637007887541077 0.928078360333586 12.067421386079408 0 0 0
354 118 1 0.5897 5.537737610767542 1.4858059882392067 12.946373819428905 0 0 0
684 228 1 0.5897 5.555144034444233 3.5637445620010846 13.700118710953763 0 0 0
372 124 1 0.5897 7.2120505676990625 4.495001820555955 11.427515825364978 0 0 0
685 229 2 -1.1794 9.047782755712694 2.785893209491365 13.820054195281454 0 0 0
382 128 2 -1.1794 8.377509732045807 0.8039848930053988 11.882387219764986 0 0 0
383 128 1 0.5897 8.62528843474039 1.5663763411009708 12.405478760993969 0 0 0
384 128 1 0.5897 9.007578437376722 0.7922954363308145 11.161890684175543 0 0 0
687 229 1 0.5897 9.968788429931678 2.6588417662586084 14.047925726826064 0 0 0
686 229 1 0.5897 8.569867119641776 2.562525944005375 14.618753272240262 0 0 0
386 129 1 0.5897 9.000936929966016 4.67667964336392 13.46573772447804 0 0 0
682 228 2 -1.1794 5.354880032318558 2.7930806952024687 14.231368556899595 0 0 0
331 111 2 -1.1794 5.918205071142799 4.711808764935759 12.417630886615544 0 0 0
377 126 1 0.5897 9.731922045022275 3.885161449826861 10.724734401511585 0 0 0
370 124 2 -1.1794 7.959111173515278 4.36542997994036 10.843226256319058 0 0 0
717 239 1 0.5897 6.610580292533972 2.411044504806741 15.469416891458108 0 0 0
332 111 1 0.5897 5.185298948395412 4.47992225861388 11.847229882263942 0 0 0
371 124 1 0.5897 7.791779864733687 3.5216858234997295 10.42326670006778 0 0 0
702 234 1 0.5897 9.70730273570448 4.1935750425821405 17.713730439155913 0 0 0
38 13 1 0.5897 9.204991327892463 2.105461266081199 20.104538901400435 0 0 -1
677 226 1 0.5897 5.2416051986009995 0.917904843594346 18.384657973706755 0 0 0
657 219 1 0.5897 6.513166279182118 4.450637181964127 19.00227644296774 0 0 0
676 226 2 -1.1794 5.837674974399892 0.6995580786763501 19.101086950279424 0 0 0
35 12 1 0.5897 5.634257138575383 1.9232586147462534 20.448646752960354 0 0 -1
694 232 2 -1.1794 7.917995028428317 4.204777533954133 17.919185995767315 0 0 0
695 232 1 0.5897 7.6320595492870655 3.457006586875951 17.394463888076963 0 0 0
715 239 2 -1.1794 7.3702958966473 2.3188502352603937 16.044404320789287 0 0 0
706 236 2 -1.1794 8.790799977543651 1.084136761433774 18.597303967633792 0 0 0
708 236 1 0.5897 7.833779982406439 1.065592753752218 18.587302762244725 0 0 0
716 239 1 0.5897 7.468359987109558 1.374059865889911 16.162866298897818 0 0 0
655 219 2 -1.1794 5.73097475185542 4.691240960848521 19.49882527239832 0 0 0
707 236 1 0.5897 9.04036244218842 0.3163472209034336 19.111571066151296 0 0 0
696 232 1 0.5897 7.84868955727329 4.953865846650217 17.327312993856726 0 0 0
143 48 1 0.5897 6.05484501300293 9.009915462219128 0.9805405823378892 0 0 0
176 59 1 0.5897 7.292268794645985 7.970993049724556 2.209321117196937 0 0 0
57 19 1 0.5897 7.7870417819677265 5.534807648360818 2.5330354189553987 0 0 0
711 237 1 0.5897 8.638978996372467 5.543581923310334 0.5462081515182148 0 0 1
175 59 2 -1.1794 7.386537564020004 8.923371323756335 2.1903028474883026 0 0 0
55 19 2 -1.1794 7.520177979801112 6.119477040123808 1.8236829206040819 0 0 0
56 19 1 0.5897 6.627497724796242 5.8469982003472465 1.6110752552579124 0 0 0
177 59 1 0.5897 8.118470575587086 9.08022464951192 1.593688987575929 0 0 0
142 48 2 -1.1794 5.407478711335378 8.968824094158988 0.2766437288862996 0 0 0
166 56 2 -1.1794 8.840441911130291 7.41709190744333 4.941828398472078 0 0 0
138 46 1 0.5897 6.981657427962326 7.493340341437627 4.684240828813769 0 0 0
136 46 2 -1.1794 6.057017555548944 7.399353539074584 4.91343164856292 0 0 0
145 49 2 -1.1794 9.364595278325405 9.343423053979372 0.3683260027589463 0 0 0
155 52 1 0.5897 8.123428136026211 9.984549890924768 3.50960504563773 0 0 0
466 156 2 -1.1794 5.622888395104743 8.87804289019096 7.187477341384931 0 0 0
501 167 1 0.5897 6.670205539873739 8.673879095617997 8.643477228318005 0 0 0
380 127 1 0.5897 7.57377471651634 6.812210890687911 8.854800357583557 0 0 0
467 156 1 0.5897 5.7885917084418566 8.362405319429776 6.398247707912841 0 0 0
499 167 2 -1.1794 7.52083097919259 8.491647476029327 9.042885668600773 0 0 0
62 21 1 0.5897 8.557477843026518 5.4692845484418235 7.329336299979729 0 0 0
168 56 1 0.5897 8.881503403055417 8.185253119472765 5.511465194898707 0 0 0
469 157 2 -1.1794 9.128170669508023 9.35002947168201 6.951174851617671 0 0 0
500 167 1 0.5897 7.6271511778986785 9.175900634482515 9.703725991816361 0 0 0
470 157 1 0.5897 8.644508949926351 9.055678429412927 7.722967369856769 0 0 0
167 56 1 0.5897 8.985366554681422 6.674984037783677 5.528780645442132 0 0 0
338 113 1 0.5897 5.602663364614681 5.654169908737946 8.342406463563531 0 0 0
379 127 2 -1.1794 7.470229830182352 5.884441140656382 8.643137617272608 0 0 0
61 21 2 -1.1794 9.225602092863053 5.29262342379418 6.667017220578552 0 0 0
381 127 1 0.5897 7.61192676140994 5.431364594732327 9.474316236491521 0 0 0
137 46 1 0.5897 5.9888326080047225 6.517293689052963 5.278930739851588 0 0 0
791 264 1 0.5897 5.861419116928459 9.320322794929986 15.003500048543527 0 0 0
794 265 1 0.5897 9.163506184194597 9.011368985871762 13.354454334288686 0 0 0
491 164 1 0.5897 9.183757278969484 7.832795080348356 11.146965988978522 0 0 0
462 154 1 0.5897 5.342750884645392 7.610566697151027 11.68297692552766 0 0 0
333 111 1 0.5897 5.807444891492115 5.648298649995523 12.581954876380383 0 0 0
793 265 2 -1.1794 9.350031205400906 9.48888378342216 14.162790933920428 0 0 0
385 129 2 -1.1794 9.191871341219482 5.5608530539609315 13.778850224509396 0 0 0
387 129 1 0.5897 9.057799466305932 6.1205186646977765 13.01399804814461 0 0 0
460 154 2 -1.1794 6.002840566128962 7.390018614674205 12.340172570506981 0 0 0
461 154 1 0.5897 5.824219962846222 7.984725459388479 13.068629454309216 0 0 0
492 164 1 0.5897 7.810173134757577 7.729752918203773 11.775254729459974 0 0 0
490 164 2 -1.1794 8.74246313490843 7.7453686596592455 11.991854055434981 0 0 0
790 264 2 -1.1794 5.366909499989413 9.344890803613989 14.184308167129624 0 0 0
705 235 1 0.5897 8.02825764659888 5.752143760667319 15.238547313182004 0 0 0
824 275 1 0.5897 8.251146541613817 8.984767903718925 15.429592756017744 0 0 0
814 272 2 -1.1794 8.960823751919618 7.38213595262022 18.9946181268253 0 0 0
786 262 1 0.5897 7.142485788397367 7.300061187745215 18.825116012415606 0 0 0
815 272 1 0.5897 9.16729712911337 6.570000707084454 19.457291336267705 0 0 0
825 275 1 0.5897 7.53419522586742 7.834569685848775 16.1041580688024 0 0 0
785 262 1 0.5897 5.983537766757802 6.347832051302629 19.03051112393735 0 0 0
144 48 1 0.5897 5.704950108800691 8.250147486786801 20.345749331321255 0 0 -1
816 272 1 0.5897 9.216124746452852 8.076183598983995 19.6023759732266 0 0 0
823 275 2 -1.1794 7.562905109045895 8.79060289123258 16.0659038902403 0 0 0
784 262 2 -1.1794 6.186807621609628 7.253403127898384 18.79619854555312 0 0 0
703 235 2 -1.1794 7.527195437942994 6.11843970339805 15.967236683272603 0 0 0
709 237 2 -1.1794 9.286293928509355 5.204193649723318 20.55511642503017 0 0 0
704 235 1 0.5897 6.612192010927085 5.9732438702007755 15.726380776817255 0 0 0
762 254 1 0.5897 5.07390091587163 7.810832243759442 17.544561055371585 0 0 0
154 52 2 -1.1794 8.228351125914624 10.776336695055148 4.0371659949508265 0 0 0
819 273 1 0.5897 8.728457695508443 12.52160553178868 0.7699288195167301 0 0 1
156 52 1 0.5897 9.170658037418903 10.944754131113925 4.032465399586718 0 0 0
163 55 2 -1.1794 7.660699178873488 12.803139676349337 2.245341653863746 0 0 0
164 55 1 0.5897 6.760403340368132 12.67727148728769 1.9454330935735302 0 0 0
165 55 1 0.5897 7.855964626181345 12.016864404807393 2.7551479899630014 0 0 0
276 92 1 0.5897 9.250206234927157 14.18492927381059 4.344109056504574 0 0 0
285 95 1 0.5897 7.913111561793058 14.717234983900587 2.1275191665616124 0 0 0
246 82 1 0.5897 5.205034122074726 14.2549928275268 4.375882598895544 0 0 0
275 92 1 0.5897 7.776996045466521 14.057519213393176 4.668968958872458 0 0 0
125 42 1 0.5897 5.132621338185335 10.711035199201863 4.2352970478284195 0 0 0
244 82 2 -1.1794 5.838878238058297 14.127589991059203 5.081756713917543 0 0 0
274 92 2 -1.1794 8.645761823398008 14.02987459502393 5.069951101753355 0 0 0
169 57 2 -1.1794 9.442965330193333 12.131381545876284 6.99791721971686 0 0 0
170 57 1 0.5897 9.325934355814137 12.625111290072047 6.186286773542065 0 0 0