LAMMPS data file via write_data, version 30 Jul 2021, timestep = 15500000

864 atoms
2 atom types
576 bonds
1 bond types
288 angles
1 angle types

0.609491561140457 17.598080838844552 xlo xhi
1.8094318217956467 21.819745978193346 ylo yhi
0.7435782809838543 21.46961751901176 zlo zhi

Masses

1 1.00794
2 15.9994

Pair Coeffs # lj/cut/tip4p/long/omp

1 0 0
2 0.21084 3.1668

Bond Coeffs # harmonic/omp

1 450 0.9572

Angle Coeffs # harmonic/omp

1 55 104.52

Atoms # full

467 1 1 0.5897 2.9135393657530657 5.463759999088804 4.475960454189023 5 -2 4
468 1 1 0.5897 1.8497455707805852 4.685385280616016 3.7314886810026433 5 -2 4
817 1 2 -1.1794 2.776802394636752 4.404548973445754 1.481142655903557 6 -1 2
511 1 2 -1.1794 2.3100821294409415 1.8414293437958733 3.165112074778583 -1 5 -6
165 1 1 0.5897 3.5700923586103586 5.858323807683471 1.1057154830566787 4 0 0
466 1 2 -1.1794 2.4552837276461994 4.623454603055768 4.470176352410768 5 -2 4
818 1 1 0.5897 3.3829735449139875 3.722418058766139 1.7699017826538892 6 -1 2
512 1 1 0.5897 3.0581225296443564 2.4258240029043776 3.2878568580938285 -1 5 -6
377 1 1 0.5897 4.806076823275321 6.416108096979288 2.711670481439282 3 3 2
318 1 1 0.5897 0.7931706004686215 2.0979723837894007 3.9796077552270335 -5 -3 -1
623 1 1 0.5897 0.7579489446649113 6.535319347332826 2.7487603212203315 2 -2 -2
157 1 2 -1.1794 4.574725693699307 3.2386052425789247 3.165014150404125 0 6 1
566 1 1 0.5897 3.6225697684630744 3.732830968171089 7.641125264327301 -2 5 -10
101 1 1 0.5897 1.7953614963987983 3.717472533801374 6.181398762141958 8 -5 -4
255 1 1 0.5897 1.921158231772761 4.6720684704510305 8.442377055243146 7 6 -5
314 1 1 0.5897 3.409903691959078 5.446669915822593 10.281682129677106 3 -1 -2
233 1 1 0.5897 4.1776222007270505 2.834403577214638 11.006503710298963 -1 0 0
254 1 1 0.5897 1.9614309669441956 4.6314817736282485 9.955116708933202 7 6 -5
253 1 2 -1.1794 2.142957991641847 5.201750366403765 9.208134869768042 7 6 -5
288 1 1 0.5897 4.102309566011179 6.234472023513946 8.601113701934043 3 4 -2
565 1 2 -1.1794 4.488984688012465 3.8230276343864005 8.037753018654124 -2 5 -10
100 1 2 -1.1794 1.8833194832093105 3.3011655759662895 7.038764145843438 8 -5 -4
313 1 2 -1.1794 4.055165884244896 5.497486789035265 10.986786924898452 3 -1 -2
102 1 1 0.5897 0.9885730307988837 3.0660276962873736 7.284272738808298 8 -5 -4
300 1 1 0.5897 1.931103532953246 2.2754835085231373 10.831808723835312 -3 -2 2
232 1 2 -1.1794 4.382387530297306 2.2608563622604545 10.26809056824206 -1 0 0
234 1 1 0.5897 4.472030725620579 2.8533132610246397 9.521710901283349 -1 0 0
197 1 1 0.5897 0.9272834023624372 3.932791549847562 14.337811391091911 0 -4 1
326 1 1 0.5897 4.0110655950048 2.6124036042706904 14.114633632125663 1 2 -3
215 1 1 0.5897 3.920112641272822 5.770714037090482 12.871603891474047 -3 2 4
214 1 2 -1.1794 4.092970861133624 5.739968413905634 13.812503574023308 -3 2 4
325 1 2 -1.1794 4.13867776688825 2.9773710658789865 13.239050234580871 1 2 -3
196 1 2 -1.1794 0.7271229583785342 3.0416020521714624 14.051649882101787 0 -4 1
454 1 2 -1.1794 1.4761075076524222 5.637160754094436 14.54298727053961 -3 2 0
327 1 1 0.5897 4.314076788234473 3.9062073400197264 13.389452823883726 1 2 -3
298 1 2 -1.1794 1.7390608484641807 3.1423504759172216 11.189288209353743 -3 -2 2
455 1 1 0.5897 1.1156383494393427 6.317722642774747 15.111343181954556 -3 2 0
216 1 1 0.5897 3.228758092692225 5.811117061234683 14.217713466141458 -3 2 4
456 1 1 0.5897 0.9517791726748306 5.689247629173492 13.74392358039481 -3 2 0
299 1 1 0.5897 1.7876932622451764 3.0267673646014472 12.13818763771258 -3 -2 2
15 1 1 0.5897 4.726845468953491 1.9036310206060176 16.055435510000404 2 -6 -3
462 1 1 0.5897 1.2159409203238594 2.8795636245422775 17.04054155131334 8 3 -2
765 1 1 0.5897 2.5774497568165087 4.938320462549647 18.01507272498726 -5 0 -5
184 1 2 -1.1794 1.2796782566891771 3.3362820587896778 20.284208228774403 -3 10 1
790 1 2 -1.1794 4.703878185226244 2.8435655224476672 20.427522033418786 2 3 -4
182 1 1 0.5897 3.397603489027897 6.809897431863296 18.391992077919056 -4 2 -3
186 1 1 0.5897 1.812821842982929 3.383221496178823 19.490656063737113 -3 10 1
791 1 1 0.5897 4.113369504410144 2.5147682546668917 19.749738833240144 2 3 -4
763 1 2 -1.1794 1.8410420272658374 4.5008939533833665 17.58785659235023 -5 0 -5
764 1 1 0.5897 1.175967110177774 5.183321161192264 17.497891333586743 -5 0 -5
164 1 1 0.5897 3.9704412356541607 6.365501838347102 20.462762271827174 4 0 -1
181 1 2 -1.1794 3.8468164224368366 6.005036345126233 18.649968668337458 -5 2 -3
183 1 1 0.5897 4.299893126782908 5.718385928618012 17.85707054535569 -5 2 -3
185 1 1 0.5897 0.7082674636090616 4.102581489108555 20.23509722931182 -3 10 1
819 1 1 0.5897 2.3713583749792795 4.046682338950813 21.417443370908288 6 -2 1
163 1 2 -1.1794 3.8541696252423363 6.64720319198914 21.37009360234525 4 0 -1
747 1 1 0.5897 2.3976335767651085 7.9338306322185685 3.680300923342243 5 3 -7
59 1 1 0.5897 4.045558925687052 9.672164257675643 4.424738680921537 3 -2 -1
798 1 1 0.5897 1.5970045615145758 11.428995923874517 1.8781232677976711 0 -4 -1
746 1 1 0.5897 1.8868240863145693 8.984140639722668 2.717201984083114 5 3 -7
745 1 2 -1.1794 1.7383810919414158 8.082612919290176 3.002449044806856 5 3 -7
797 1 1 0.5897 3.042435996291598 10.988224590324059 1.9678903585694205 0 -4 -1
436 1 2 -1.1794 2.5867757719966225 10.613922160207236 5.346172033412491 -2 5 4
45 1 1 0.5897 0.8905320443906906 9.425486118158663 5.36697859434814 3 8 0
438 1 1 0.5897 2.8697867373086656 11.310320219291803 4.753667254984717 -2 5 4
796 1 2 -1.1794 2.158439836745611 10.656778646968514 1.8103734701393495 0 -4 -1
760 1 2 -1.1794 3.0556075971736885 7.265951112875267 5.425953512315865 3 -2 -1
58 1 2 -1.1794 4.83834734350232 9.49799253661065 3.9175222694857696 3 -2 -1
761 1 1 0.5897 2.160660332073717 7.193059049578144 5.757426464929451 3 -2 -1
493 1 2 -1.1794 4.851340568822592 11.425989728093409 1.2076559915492093 0 -2 1
686 1 1 0.5897 2.446755514022798 7.690767101404525 8.506098621676855 5 -5 -6
685 1 2 -1.1794 1.9875512824281265 8.382211450605304 8.982735986143263 5 -5 -6
606 1 1 0.5897 3.7183508606367766 11.052379960279744 8.369273662007519 -4 -2 -2
604 1 2 -1.1794 3.9396654940351516 10.294562464632142 7.82810906946596 -4 -2 -2
605 1 1 0.5897 3.5035333219528186 9.55812548554138 8.256568633176373 -4 -2 -2
286 1 2 -1.1794 4.262125479198662 6.987994595485492 8.03295715270222 3 4 -2
687 1 1 0.5897 1.8690081059908479 8.028128974659632 9.8640429145536 5 -5 -6
762 1 1 0.5897 3.6051643962202675 7.229451106577476 6.20875219651044 3 -2 -1
437 1 1 0.5897 3.0755726391897764 10.7724914548996 6.153670535905419 -2 5 4
861 1 1 0.5897 1.0186276234730482 11.512029286151643 10.623574220662881 -3 -3 2
548 1 1 0.5897 3.1512682620575854 11.518238187578499 13.026822413427988 6 2 5
202 1 2 -1.1794 3.778282903517569 10.534364904835211 11.443507365324132 -9 2 1
547 1 2 -1.1794 3.2587168623745866 11.541028782790928 13.977647141107216 6 2 5
305 1 1 0.5897 2.7985715144403045 9.683225499944314 14.482480156652178 7 -2 -6
204 1 1 0.5897 4.132773027205657 9.64687835715574 11.38986699967499 -9 2 1
306 1 1 0.5897 3.6990555423762785 8.522880302624696 14.115925192296341 7 -2 -6
304 1 2 -1.1794 2.9164624450616863 8.743472242124966 14.620925323642464 7 -2 -6
95 1 1 0.5897 4.048037097885531 7.607716513402421 11.503091579734459 -2 3 0
384 1 1 0.5897 1.7749020631230734 8.066419182214513 12.639067401929909 -7 -4 -2
382 1 2 -1.1794 1.701127550070923 7.668478315103718 11.771692960940571 -7 -4 -2
383 1 1 0.5897 0.9727005344974338 7.0526879423697215 11.851336129468686 -7 -4 -2
94 1 2 -1.1794 4.83900433855526 8.145574735858185 11.468166531450395 -3 3 0
859 1 2 -1.1794 1.0380249705828022 10.786989142539692 11.248124560961363 -3 -3 2
203 1 1 0.5897 2.839760787926511 10.427624268089158 11.288804677507523 -9 2 1
854 1 1 0.5897 2.2310922744108113 10.540824544778955 19.10991354605234 -3 0 0
544 1 2 -1.1794 2.7027215967438716 8.331837957978706 17.366237582697963 -4 1 1
853 1 2 -1.1794 2.5079004057185825 9.977000786568215 19.832155411683235 -3 0 0
611 1 1 0.5897 1.9396247249744194 8.511853656352574 20.47437868217141 1 3 -2
612 1 1 0.5897 2.159209612147265 7.210000639810117 21.215052826594167 1 3 -2
405 1 1 0.5897 3.1456409485032237 11.694105512357979 16.93896686290143 2 -4 -3
610 1 2 -1.1794 1.4748103980500566 7.749535451570324 20.819279457258702 1 3 -2
545 1 1 0.5897 2.4416943565329188 9.177889743809216 17.729812181337845 -4 1 1
855 1 1 0.5897 2.4552921026696546 10.536405188994005 20.607029564906057 -3 0 0
33 1 1 0.5897 1.017951286388464 7.409770649334536 17.164234693233453 0 6 1
756 1 1 0.5897 4.4647382421143 9.575724824883206 19.459579677143694 -5 2 -6
546 1 1 0.5897 2.6581230187202025 8.454092998803592 16.417978887041656 -4 1 1
241 1 2 -1.1794 1.059982495687977 11.287892936504047 17.605292282968342 4 -3 3
403 1 2 -1.1794 3.915096944972083 11.397705901195865 17.42500338376478 2 -4 -3
242 1 1 0.5897 0.8085479782756617 10.752928777405268 16.85248836494828 4 -3 3
4 1 2 -1.1794 3.4789408105393265 12.784593213499193 4.006611260459918 0 -3 -3
787 1 2 -1.1794 3.2308502424611145 14.359567645578249 1.8552745241877824 -1 -1 7
140 1 1 0.5897 3.2867383595752093 15.863495339653717 3.067625995720216 2 0 -2
503 1 1 0.5897 0.9678232896121514 14.494134561033796 5.0972492979077515 -6 -4 4
424 1 2 -1.1794 0.8613492021937248 13.093391429297006 1.3982535730377923 9 -4 3
789 1 1 0.5897 2.369127645258454 13.956298538221766 1.7505603496983997 -1 -1 7
141 1 1 0.5897 2.499464423310779 16.09842284574576 4.3390954484956445 2 0 -2
5 1 1 0.5897 3.305701206578406 13.314156887464483 3.228352513162443 0 -3 -3
6 1 1 0.5897 3.1358996892971223 13.305590299897506 4.732587653169201 0 -3 -3
502 1 2 -1.1794 1.5616512949002272 15.138703767792052 5.482039075308249 -6 -4 4
139 1 2 -1.1794 3.127502417090323 16.515869124125132 3.749665221345353 2 0 -2
788 1 1 0.5897 3.7054524230159904 14.121887979426187 1.0587749175086678 -1 -1 7
152 1 1 0.5897 1.7309847243544767 16.506981617560154 0.8617266800972063 2 -1 0
341 1 1 0.5897 0.9155685423914187 15.69689135885021 8.559446660665724 4 2 1
210 1 1 0.5897 4.258599694142447 13.813175209713394 6.694039529197065 -2 -2 2
542 1 1 0.5897 4.473696634625069 12.74283760678838 10.340198788920896 2 1 3
209 1 1 0.5897 3.3158304794402937 13.510741592076446 7.839193289880547 -2 -2 2
370 1 2 -1.1794 1.8681585078589016 12.574661956269034 9.166820408709867 -1 8 -2
371 1 1 0.5897 2.405385480110076 13.00152367458891 9.834130253416454 -1 8 -2
208 1 2 -1.1794 3.3646934826782435 13.528233350859429 6.883450844160072 -2 -2 2
504 1 1 0.5897 2.083833967955383 14.639273400193709 6.109750257466576 -6 -4 4
372 1 1 0.5897 1.2641547420400094 13.256443540001355 8.872758311877758 -1 8 -2
585 1 1 0.5897 2.8049533540947555 13.90317086573759 15.765552907382904 0 -5 1
319 1 2 -1.1794 2.971404494001079 15.931605938702173 14.48503968145067 -1 -4 -3
584 1 1 0.5897 2.3693495886403735 12.704309503211032 14.95032647926498 0 -5 1
667 1 2 -1.1794 0.6397138044168861 16.164282019678247 15.938140235496146 -5 1 2
441 1 1 0.5897 1.1418824925170115 14.04946715245096 14.02068930243077 3 -2 -1
738 1 1 0.5897 3.951478054030752 16.095189270106687 12.847136135949125 6 -2 -1
320 1 1 0.5897 3.6685247136083143 15.652941450722363 15.07874821006321 -1 -4 -3
736 1 2 -1.1794 4.197374859045835 16.04650041262689 11.9234015405981 6 -2 -1
583 1 2 -1.1794 2.0317903349035156 13.394861136419657 15.520690830627457 0 -5 1
510 1 1 0.5897 2.1635615708383296 13.82191784661816 12.040084005903113 5 -1 2
439 1 2 -1.1794 0.8530205320616212 14.169423433499253 13.1160457406059 3 -2 -1
321 1 1 0.5897 2.173129056800123 15.878236326095305 15.010437439837993 -1 -4 -3
509 1 1 0.5897 3.274761979275119 14.702588203209187 11.509617357306526 5 -1 2
508 1 2 -1.1794 2.9250910070728526 13.812962094499701 11.460262489566883 5 -1 2
440 1 1 0.5897 0.7062477293485827 15.111695466914538 13.03398328251378 3 -2 -1
549 1 1 0.5897 4.138689977148422 11.893053117967515 14.111354898852827 6 2 5
637 1 2 -1.1794 2.888875613285495 16.57465915349308 18.444120551043248 -7 -4 2
62 1 1 0.5897 2.457830949342659 13.898821042081055 19.465683519359576 0 0 3
61 1 2 -1.1794 1.5367879458880365 13.64583461345704 19.527753651382636 0 0 3
501 1 1 0.5897 1.1911847303201224 16.184435837325267 18.696962910474266 -2 1 -4
574 1 2 -1.1794 4.252563790491867 13.377529691429979 20.26874274586355 1 -3 3
63 1 1 0.5897 1.426789798006009 12.973359230646285 18.855560932266524 0 0 3
517 1 2 -1.1794 4.051492106361804 14.770701055086848 16.695611943039726 0 -1 -6
404 1 1 0.5897 4.272620134591316 12.194201030622365 17.81732773768702 2 -4 -3
425 1 1 0.5897 1.04569894789675 13.276869629880766 21.203143904525476 9 -4 2
576 1 1 0.5897 4.453231698881565 12.612309637649494 20.80756702537193 1 -3 3
519 1 1 0.5897 3.621950158464571 15.36344881830643 17.312290471297455 0 -1 -6
513 1 1 0.5897 2.379186275452301 21.561218103947184 2.2557361462750904 -1 4 -6
521 1 1 0.5897 4.681056011451409 19.67328153631837 4.232363090514689 -2 0 -2
391 1 2 -1.1794 4.695782002007124 17.10431840183673 5.768691848406573 3 0 -1
580 1 2 -1.1794 3.8980453367280576 19.093147340783368 2.7303964952847672 -3 -1 1
582 1 1 0.5897 3.0721106649020755 19.564085781713338 2.6200951101476724 -3 -1 1
581 1 1 0.5897 3.6407339763949853 18.230018242083702 3.0543416731208572 -3 -1 1
69 1 1 0.5897 0.9467521043859604 18.59106352531289 4.745963952121688 7 -2 -8
2 1 1 0.5897 1.0342993654819215 17.925135118080902 2.4123015525879064 4 -2 4
67 1 2 -1.1794 0.8279007904251373 18.531390933137565 5.6938208845621485 7 -2 -8
522 1 1 0.5897 4.603029899730592 20.28407733576632 5.615277788933381 -2 0 -2
1 1 2 -1.1794 1.044631572968924 18.70345487587027 2.969302972546182 4 -2 4
393 1 1 0.5897 4.214588985532778 16.940162641537782 4.9577436800335 3 0 -1
694 1 2 -1.1794 2.069294902153917 20.830994760216413 0.7832092111633102 2 -5 4
663 1 1 0.5897 2.0172421118724277 20.584263756335375 8.387446964211208 1 -4 -1
662 1 1 0.5897 2.6647028938979025 20.383329171296836 9.740983599032177 1 -4 -1
423 1 1 0.5897 2.7363571042190866 21.7017588048913 6.696772512544321 -4 0 4
600 1 1 0.5897 0.9705527450605371 17.82135344103566 7.2689675019273805 -1 -3 -5
421 1 2 -1.1794 3.0949634242630095 20.814756261071047 6.669456813251465 -4 0 4
661 1 2 -1.1794 1.823512633749702 20.571022105959088 9.324685617678757 1 -4 -1
422 1 1 0.5897 2.5971813491985367 20.3757988205164 5.9797844172964565 -4 0 4
599 1 1 0.5897 2.154695160390112 17.418422596171464 8.121649485905971 -1 -3 -5
167 1 1 0.5897 4.179293233227721 17.141635369338818 7.568882287868484 0 -2 7
281 1 1 0.5897 4.315121664183084 20.094299879641056 7.825164694557846 -2 -5 1
168 1 1 0.5897 4.251697758079294 17.77380326884012 8.942542339447604 0 -2 7
166 1 2 -1.1794 4.050978029671118 16.95028919124237 8.49793286936611 0 -2 7
598 1 2 -1.1794 1.2012188616876123 17.49994724020854 8.140523256542439 -1 -3 -5
280 1 2 -1.1794 4.808508735043027 19.732490129345138 8.561225761973887 -2 -5 1
223 1 2 -1.1794 4.17605264919429 18.964716248517384 14.021879828460728 4 0 -6
14 1 1 0.5897 4.07966565208611 20.757710190810045 15.323319346862174 2 -7 -3
406 1 2 -1.1794 1.6355343793731123 20.698583952177593 12.815101403081496 -3 -3 4
408 1 1 0.5897 2.2599986580209652 20.251765500930198 12.243670884813643 -3 -3 4
225 1 1 0.5897 4.135640313360368 19.04616365726735 13.069061343602868 4 0 -6
379 1 2 -1.1794 3.479240329756708 18.903800858841407 11.360701419945565 8 2 2
13 1 2 -1.1794 3.943320465164303 21.67497587879827 15.560304150342873 2 -7 -3
380 1 1 0.5897 4.413953458575125 18.96600700957093 11.164317771188463 8 2 2
381 1 1 0.5897 3.2805339240831053 17.970276578117478 11.28881056445885 8 2 2
8 1 1 0.5897 2.998279984236608 18.636928894896016 15.578439321734072 1 -2 -2
407 1 1 0.5897 2.137088664811685 21.4141532813111 13.205656115108457 -3 -3 4
635 1 1 0.5897 0.9669996476457786 19.233603702569248 14.268865439387348 -9 3 -3
224 1 1 0.5897 4.455036784625857 18.06182914134847 14.1739349492324 4 0 -6
669 1 1 0.5897 0.7532819310917702 17.089577910593768 15.721235863696478 -5 1 2
695 1 1 0.5897 1.4158328614197266 20.156675165546446 21.323729612172915 2 -5 3
638 1 1 0.5897 2.9509347814453846 17.093727973962416 19.245906757114625 -7 -4 2
533 1 1 0.5897 3.3634637455997525 20.797025711731244 18.623132035903996 -5 -3 -2
813 1 1 0.5897 1.4150592523357461 19.401474592924473 17.13239383117387 -2 2 -4
7 1 2 -1.1794 2.950495068158331 18.532055510907618 16.528625667755634 1 -2 -2
138 1 1 0.5897 0.9813623499985569 18.3561453755553 20.5835274359286 10 -6 -2
808 1 2 -1.1794 3.7082484757482255 19.335808446761256 19.606477625563556 5 -2 1
809 1 1 0.5897 3.3855912200367055 19.698794127731922 20.4312566144087 5 -2 1
639 1 1 0.5897 2.918210709107436 17.219831798431684 17.73769067817405 -7 -4 2
9 1 1 0.5897 3.742441141250136 18.95751471346545 16.857143379222258 1 -2 -2
811 1 2 -1.1794 0.843688658640148 19.790219811474735 17.794624677961817 -2 2 -4
151 1 2 -1.1794 2.1523976995658196 17.247110131890945 21.150977084520655 2 -1 0
696 1 1 0.5897 1.786820366120023 21.586957491637335 20.994601279003607 2 -5 3
810 1 1 0.5897 4.659548900097981 19.31383963928218 19.709831895008918 5 -2 1
153 1 1 0.5897 3.0570516931589076 17.226503801628375 21.46294699663234 2 -1 0
812 1 1 0.5897 0.8756212202736302 20.730231729167755 17.61720348236389 -2 2 -4
532 1 2 -1.1794 3.2210070569434177 21.69811674193958 18.333538247416485 -5 -3 -2
534 1 1 0.5897 3.4426932100599 21.68883533348677 17.40246701219294 -5 -3 -2
378 1 1 0.5897 5.983845245970207 5.482262972776408 2.5316253387922028 3 3 2
84 1 1 0.5897 5.245821093046318 3.1821017434444583 5.004204387751833 -6 -1 -4
82 1 2 -1.1794 5.8860487060124225 3.277988573768767 5.7092117036528505 -6 -1 -4
698 1 1 0.5897 8.99715725067016 2.845862380529791 4.765957468368541 2 4 -1
697 1 2 -1.1794 8.462598271197418 3.5833740553244877 4.471936971886818 2 4 -1
83 1 1 0.5897 6.691624004424133 3.545693170548381 5.267048424843992 -6 -1 -4
376 1 2 -1.1794 5.375737179372773 5.815051329511949 3.1916079001137967 3 3 2
626 1 1 0.5897 7.824939023276287 4.498488708965386 1.2650783752546153 3 -3 3
159 1 1 0.5897 5.287044861912182 2.7542846626615565 2.7476766554906145 0 6 1
589 1 2 -1.1794 8.887872724360607 3.2061598071393416 1.635382963947797 0 8 0
591 1 1 0.5897 8.559334104549887 3.385057942876596 2.5163927914282347 0 8 0
158 1 1 0.5897 4.903054188322812 4.1348951644191345 3.2356483493298933 0 6 1
625 1 2 -1.1794 7.010997822769062 5.0017245842768 1.2456525801256597 3 -3 3
699 1 1 0.5897 9.097168731081569 4.250889489307404 4.211418291554676 2 4 -1
771 1 1 0.5897 7.9213843664377865 2.7496166609620825 7.819642367228693 3 1 2
769 1 2 -1.1794 7.082075813255019 2.359256333940299 8.063153055486925 3 1 2
36 1 1 0.5897 7.370914297056489 4.794312977989655 10.351631244997595 -6 3 0
35 1 1 0.5897 6.657730259009774 4.242600855383552 9.135653355079182 -6 3 0
483 1 1 0.5897 7.475705562849351 6.2231069513440325 7.896105926145273 -1 2 -1
34 1 2 -1.1794 6.515751238930307 4.768815208075598 9.922460136531859 -6 3 0
481 1 2 -1.1794 7.725053476814741 5.95379299524847 7.0121286485502266 -1 2 -1
770 1 1 0.5897 6.524792435391669 2.4905991675150574 7.2961440399034085 3 1 2
482 1 1 0.5897 8.243285770579767 5.15937031562239 7.140510823376477 -1 2 -1
567 1 1 0.5897 5.092621277278008 3.8369409439156565 7.295087669323385 -2 5 -10
315 1 1 0.5897 4.880763771055656 5.241957199061882 10.575426972934789 3 -1 -2
525 1 1 0.5897 6.863544017527279 4.715264479711392 12.339641651356317 3 -2 0
523 1 2 -1.1794 6.935216736456746 5.504270886998359 12.876735063983537 3 -2 0
432 1 1 0.5897 7.334187449147473 3.5516773977082035 15.525851939519148 -9 1 -1
443 1 1 0.5897 5.90547061253956 2.8956280260899843 12.972676605393966 2 3 -4
524 1 1 0.5897 6.045759175680848 5.66016893579453 13.194106135075367 3 -2 0
442 1 2 -1.1794 6.8360912057931165 2.754157492172623 12.799125866437363 2 3 -4
431 1 1 0.5897 7.68302454846315 4.461632480837926 14.367444433690242 -9 1 -1
430 1 2 -1.1794 7.733452148932504 4.397122083743433 15.321076527264985 -9 1 -1
444 1 1 0.5897 6.858139993213049 2.3240853295409405 11.944327102437283 2 3 -4
720 1 1 0.5897 6.590097989398749 5.583826000245701 16.15827159480611 5 3 0
154 1 2 -1.1794 9.101842586597883 4.594898576450009 11.19521722651492 5 2 -5
620 1 1 0.5897 5.801554662050787 3.618377814310091 19.496500011938554 3 -1 3
718 1 2 -1.1794 5.953339909058204 6.093301754442654 16.659391648940783 5 3 0
621 1 1 0.5897 5.9751550308853805 4.874336175615509 18.669397839074666 3 -1 3
97 1 2 -1.1794 6.187229507217295 2.313942264535127 16.95917995026901 5 -9 5
98 1 1 0.5897 6.176925232999301 2.8537203107184275 17.749549302665642 5 -9 5
619 1 2 -1.1794 6.436991266038016 4.085957413221269 18.954500178037314 3 -1 3
563 1 1 0.5897 8.459920231768983 4.3094072128204965 18.855312018558326 1 -1 4
845 1 1 0.5897 8.632595046911916 2.0521872839755653 20.991491136464877 0 -1 1
627 1 1 0.5897 6.6870533076218255 4.899653980675534 21.0768361568049 3 -3 2
792 1 1 0.5897 4.947464090325562 2.0668465301194527 20.931010408203786 2 3 -4
719 1 1 0.5897 6.481539148390789 6.588452243261453 17.285466035028232 5 3 0
99 1 1 0.5897 7.106650822719816 2.0736168815451634 16.844737775717398 5 -9 5
125 1 1 0.5897 5.21213143303022 7.711599360219341 1.1281786426567932 1 3 6
60 1 1 0.5897 5.315179654571573 8.847784121351856 4.433253213855 3 -2 -1
570 1 1 0.5897 6.119299386272512 11.57096507330716 3.7657250385344203 3 -3 0
12 1 1 0.5897 8.349726010249098 7.6104332408730855 4.443557656728613 -3 -2 2
659 1 1 0.5897 6.054677972708913 6.910971279735479 4.6048889393241055 -1 -3 4
194 1 1 0.5897 7.142470238290752 9.481241213368996 1.8737081188279037 4 -3 2
176 1 1 0.5897 8.58396259326543 10.382519292682083 3.8739421516383974 5 -1 4
177 1 1 0.5897 8.49133721023604 10.932522321781926 5.28125375008972 5 -1 4
658 1 2 -1.1794 6.569854535242829 7.532582632926327 5.119000131340662 -1 -3 4
193 1 2 -1.1794 7.78373449560176 10.168769596763518 2.0531965515309727 4 -3 2
124 1 2 -1.1794 5.825309674850265 8.239200039433147 1.6398280957226934 1 3 6
195 1 1 0.5897 8.548338968118726 9.926001788420447 1.531106156221831 4 -3 2
175 1 2 -1.1794 9.10157624854032 10.525786245900312 4.666198963180583 5 -1 4
839 1 1 0.5897 7.87306351260123 6.973821836351011 1.6285425249086667 -5 -2 -3
126 1 1 0.5897 5.276268163162703 8.691636276798723 2.2801475317373843 1 3 6
840 1 1 0.5897 8.97086283262243 7.352566212562727 2.599623478828595 -5 -2 -3
838 1 2 -1.1794 8.753169033336338 7.347997857445475 1.6675789796615657 -5 -2 -3
495 1 1 0.5897 5.527485725999904 11.740683974382607 1.807587375373677 0 -2 1
660 1 1 0.5897 6.9557363662271126 7.004383397892565 5.817731591302264 -1 -3 4
349 1 2 -1.1794 6.488991464219369 9.638319671230068 6.959311737583095 -12 -1 -2
117 1 1 0.5897 5.650230315471301 7.9380950028400115 10.058456911337169 -5 -5 3
116 1 1 0.5897 6.493880060254635 8.786261760229152 9.130830411748219 -5 -5 3
730 1 2 -1.1794 6.862162878102324 10.611656927281524 9.709052076994132 3 0 -2
732 1 1 0.5897 7.749786604478481 10.650521872877254 9.35301408602767 3 0 -2
731 1 1 0.5897 6.985054571255988 10.587427060677348 10.657979951889658 3 0 -2
350 1 1 0.5897 6.363677897104163 8.978348914808631 6.277504205812166 -12 -1 -2
285 1 1 0.5897 7.127718878793692 11.328233701038965 6.8135159031171675 6 -2 -6
115 1 2 -1.1794 6.298647216203595 7.876964979081089 9.357066780047035 -5 -5 3
351 1 1 0.5897 5.603267009470214 9.92559498507319 7.180895628998333 -12 -1 -2
744 1 1 0.5897 7.412996061753276 7.766102983697017 10.728115585531494 -6 -1 4
287 1 1 0.5897 4.925910679625835 7.500160731786438 8.494708778816246 3 4 -2
675 1 1 0.5897 5.786697274404743 7.241264734995497 14.80158593920156 -2 0 -5
742 1 2 -1.1794 7.920175515763397 7.7950245015101975 11.539324497496905 -6 -1 4
96 1 1 0.5897 5.278574604214575 7.9803940538393245 12.302216255195326 -3 3 0
725 1 1 0.5897 7.9242705397375275 10.846714979485911 13.028355161753238 1 -6 3
724 1 2 -1.1794 7.131914098811726 10.467497067079082 12.648204641574967 1 -6 3
743 1 1 0.5897 7.686073609295244 6.9879830485178385 11.997601110607414 -6 -1 4
38 1 1 0.5897 8.697287220953857 9.374840766422526 16.041210223705058 1 2 -3
670 1 2 -1.1794 8.751176926352205 7.932972366329837 15.004284737414638 10 3 0
674 1 1 0.5897 6.857740632830945 7.9622937392906055 14.011268456511631 -2 0 -5
673 1 2 -1.1794 5.908210249638811 7.883655386269866 14.102521392092427 -2 0 -5
726 1 1 0.5897 7.268989142631075 9.52171116996739 12.70169145547629 1 -6 3
356 1 1 0.5897 5.794749681900827 9.018776357865722 15.858826300284807 -2 -2 7
707 1 1 0.5897 8.483159192931417 11.809543211985801 15.031700802552484 -1 -5 -10
794 1 1 0.5897 6.175403686153206 11.592504493990491 13.607225473916941 -2 2 6
592 1 2 -1.1794 7.264039646337279 11.710073727878964 19.25732280705827 0 0 -4
754 1 2 -1.1794 5.348889675530297 9.29072506538352 19.228985548347843 -5 2 -6
207 1 1 0.5897 7.954545869724838 7.523918249376763 18.849203198576596 -7 5 -3
755 1 1 0.5897 5.412351644178007 9.444380368718482 18.286382336602763 -5 2 -6
594 1 1 0.5897 6.665051073918297 10.964754257604822 19.21421312652362 0 0 -4
355 1 2 -1.1794 5.852032737361513 9.678756966076676 16.549679171629577 -2 -2 7
37 1 2 -1.1794 8.528742991077557 10.185920377531366 16.520651457442067 1 2 -3
206 1 1 0.5897 6.490943694915845 7.8922442505405295 18.966889293215612 -7 5 -3
39 1 1 0.5897 7.575702596904164 10.2237765140317 16.60064982592786 1 2 -3
357 1 1 0.5897 5.050837810923015 10.194032659305185 16.45633335858022 -2 -2 7
205 1 2 -1.1794 7.077137830340818 7.141957198195327 18.868964181150048 -7 5 -3
711 1 1 0.5897 8.77157657929927 9.345408616617632 18.00778101754561 -4 2 0
494 1 1 0.5897 5.290439673657745 10.759265279308021 21.405687246384687 0 -2 0
471 1 1 0.5897 8.431703425489193 13.794797036308427 2.4117495135214106 6 -5 4
648 1 1 0.5897 7.922516522460627 16.564510159583172 1.8699238355883139 -7 -3 -2
469 1 2 -1.1794 8.309355377916507 13.83315755131578 3.3602631723451815 6 -5 4
132 1 1 0.5897 5.427313623675095 15.228246680213568 5.58016664713522 -2 3 3
833 1 1 0.5897 6.937314404534931 15.434555760340617 3.5544018924902314 4 -3 0
470 1 1 0.5897 7.569342274393944 13.250478152102033 3.530528105727053 6 -5 4
832 1 2 -1.1794 6.669326256822496 16.3283001691482 3.341039382764025 4 -3 0
569 1 1 0.5897 4.996209498726811 12.573980502252347 3.609784579372228 3 -3 0
568 1 2 -1.1794 5.9288595720754245 12.448691535914254 3.4348567330459483 3 -3 0
647 1 1 0.5897 8.99026405695833 16.306003700327075 0.8283787578333941 -7 -3 -2
543 1 1 0.5897 5.710332488533149 12.152188637461444 9.697168206415958 2 1 3
348 1 1 0.5897 8.398616254826809 13.165284711356946 7.934068851454528 -4 4 -1
283 1 2 -1.1794 7.5325165554948414 12.162863396266172 6.57757833140385 6 -2 -6
147 1 1 0.5897 7.071958024210426 16.33644092139783 9.613453335672293 2 -1 -6
347 1 1 0.5897 8.78814885852017 14.569872126124075 8.342768696019107 -4 4 -1
131 1 1 0.5897 5.91902297141545 14.59752377853746 6.865485583819239 -2 3 3
346 1 2 -1.1794 8.873876207630163 13.653683811833178 8.606168733000175 -4 4 -1
20 1 1 0.5897 8.133173777750851 12.993381171848512 10.002428848875853 -5 -5 0
836 1 1 0.5897 5.318117305734941 15.752773520346544 8.623047417200361 1 4 0
835 1 2 -1.1794 6.1301565202696375 15.24633065182751 8.606199247648949 1 4 0
145 1 2 -1.1794 7.5566278490124175 16.604224087588825 10.394170507607754 2 -1 -6
837 1 1 0.5897 5.97919161832762 14.530207345104978 9.223043102208644 1 4 0
541 1 2 -1.1794 5.097164453600907 12.883857316050545 9.62775376902008 2 1 3
284 1 1 0.5897 6.800952917188827 12.714758339400182 6.301228018543571 6 -2 -6
19 1 2 -1.1794 8.177889551114067 12.837360789786864 10.945715676459178 -5 -5 1
146 1 1 0.5897 7.313277779645315 15.961152239805912 11.060030914725585 2 -1 -6
21 1 1 0.5897 8.779676690789227 12.098853711506388 11.038561624355511 -5 -5 1
130 1 2 -1.1794 5.82437686362153 14.429784350445509 5.927922809476142 -2 3 3
360 1 1 0.5897 7.064125884664632 13.821825360270392 11.802504605373258 1 -2 -4
358 1 2 -1.1794 6.548495243225124 14.500291243406801 12.23834369849007 1 -2 -4
359 1 1 0.5897 6.993752725384786 14.640448882679367 13.073939330275698 1 -2 -4
367 1 2 -1.1794 5.816148413409297 16.69450780172881 14.674841318157448 6 2 -2
795 1 1 0.5897 5.643913359593319 12.952660152278101 13.208304073614627 -2 2 6
793 1 2 -1.1794 5.7755518869128455 12.384208489865026 13.967024717518552 -2 2 6
748 1 2 -1.1794 8.48693581863969 14.774922912649098 14.311901205681018 -2 7 2
737 1 1 0.5897 5.091183240944527 15.704193284928644 11.93072303128958 6 -2 -1
302 1 1 0.5897 6.706450344692984 13.023843159653715 15.867125947980742 -4 3 5
706 1 2 -1.1794 8.88374767537222 11.974243686210853 14.178163106824085 -1 -5 -10
708 1 1 0.5897 8.6946701860568 12.895064346610555 13.998007211607865 -1 -5 -10
749 1 1 0.5897 9.09206134406725 14.590080210465729 15.030077739975754 -2 7 2
368 1 1 0.5897 6.1646568818566685 16.260569664565978 15.453531812728638 6 2 -2
750 1 1 0.5897 8.839354923239664 15.562647013978559 13.897878161840243 -2 7 2
301 1 2 -1.1794 7.042079398088282 12.928820243570225 16.758466063079513 -4 3 5
303 1 1 0.5897 7.06392519523 13.821498974109705 17.103136581666 -4 3 5
412 1 2 -1.1794 6.465021909095874 15.261568277587898 20.059970240604294 7 -2 2
414 1 1 0.5897 7.216303571470883 15.679168747271175 20.481087244182735 7 -2 2
77 1 1 0.5897 6.892502728048215 15.458373118745019 18.40346465450807 -7 -6 0
390 1 1 0.5897 8.043376507699923 13.175434856614237 20.907515730913623 4 4 6
413 1 1 0.5897 5.718425034644364 15.808420183114642 20.30424951847676 7 -2 2
76 1 2 -1.1794 6.854452122243464 15.512307620212399 17.448598667438574 -7 -6 0
78 1 1 0.5897 7.666102546912717 15.954907382515513 17.200707387935473 -7 -6 0
593 1 1 0.5897 7.148833646488827 12.159262210014903 18.420005197903794 0 0 -4
388 1 2 -1.1794 8.631341824719671 13.86743337806911 21.21009246162849 4 4 6
518 1 1 0.5897 4.962269645471621 14.73879608223578 16.988218204326596 0 -1 -6
575 1 1 0.5897 5.108173698000321 13.734478691537054 20.030753265698895 1 -3 3