LAMMPS data file via write_data, version 30 Jul 2021, timestep = 4500000

972 atoms
2 atom types
648 bonds
1 bond types
324 angles
1 angle types

-0.099143751291912 20.099144751291636 xlo xhi
-0.08271836554760448 20.0827193655459 ylo yhi
-0.03256543361461084 20.73256343361539 zlo zhi

Masses

1 1.008
2 15.999

Pair Coeffs # lj/cut/tip4p/long/omp

1 0 0
2 0.21084 3.1668

Bond Coeffs # harmonic/omp

1 450 0.9572

Angle Coeffs # harmonic/omp

1 55 104.52

Atoms # full

17 6 1 0.5897 3.9878276773921035 4.479512289874963 2.700544033888375 0 0 0
4 2 2 -1.1794 3.9874928443231195 1.3326895963999825 3.6451630999180726 0 0 0
33 11 1 0.5897 1.0723327421400346 2.1943207193561927 1.3526793683952711 0 0 0
12 4 1 0.5897 1.8927233477073022 3.9995757530979263 3.504930085874195 0 0 0
23 8 1 0.5897 2.5020040014949934 0.8366932105181947 4.306405526264648 0 0 0
16 6 2 -1.1794 3.6777993634607347 4.11689822050222 3.530379523651899 0 0 0
10 4 2 -1.1794 0.9425212047286762 3.980571402438553 3.390676764304513 0 0 0
11 4 1 0.5897 0.7595417732004294 3.1060554913466176 3.04741218516617 0 0 0
9 3 1 0.5897 4.8732047054713545 4.5761982840262325 4.882880081582828 0 0 0
31 11 2 -1.1794 0.3990998959228355 1.7359785375427035 1.8555658779086983 0 0 0
18 6 1 0.5897 3.8272104611978053 3.174818193264762 3.451300392220498 0 0 0
5 2 1 0.5897 4.118985542023374 0.6824355391644222 2.9551927991227442 0 0 0
6 2 1 0.5897 4.76292666342393 1.2532439976047085 4.20076015726833 0 0 0
34 12 2 -1.1794 4.879969025960919 2.379954840595919 0.08502689487927258 0 0 0
22 8 2 -1.1794 1.8226889252882046 0.500381534404942 4.8909520824380515 0 0 0
1 1 2 -1.1794 2.2435693128040106 3.0040691294558237 0.11513765087242056 0 0 0
3 1 1 0.5897 3.1784366614716064 2.8070514183660835 0.17377871442445464 0 0 0
2 1 1 0.5897 2.203657846707317 3.9571688522658466 0.03709174569381091 0 0 0
356 119 1 0.5897 1.3995407527523966 2.1598116528707068 8.660633135894246 0 0 0
355 119 2 -1.1794 0.5631062158752026 2.0836526400574775 9.119827546719044 0 0 0
342 114 1 0.5897 4.141142209118729 4.696147052525648 9.621575516650154 0 0 0
325 109 2 -1.1794 2.537220394461877 2.3422465407793247 7.254198067022899 0 0 0
326 109 1 0.5897 2.3453976281908897 1.692811676387517 6.577736937229373 0 0 0
327 109 1 0.5897 3.47451534274814 2.2443188360317676 7.422047910029895 0 0 0
330 110 1 0.5897 4.3441813120220845 0.4040462475562168 9.566534189402494 0 0 0
27 9 1 0.5897 2.6563178491364465 4.088727271116196 6.557180993213858 0 0 0
335 112 1 0.5897 0.867905520828619 3.554239420306528 10.165429225086932 0 0 0
328 110 2 -1.1794 4.251328090218454 1.2271887592295982 10.046058410583557 0 0 0
561 187 1 0.5897 0.4228033906096065 0.15329559190894346 8.851702911762667 0 1 0
357 119 1 0.5897 -0.09397604586017039 2.3058576618299433 8.46018059027109 0 0 0
340 114 2 -1.1794 3.804748035701585 4.050601264566319 10.243068018350153 0 0 0
341 114 1 0.5897 4.116083127111569 3.209883129189193 9.907811351483412 0 0 0
102 34 1 0.5897 0.21141903742413148 0.40220501794918534 5.595551220953163 1 0 0
346 116 2 -1.1794 1.5798702566669673 0.8771491487589446 12.067063185846383 0 0 0
651 217 1 0.5897 1.7141443920657862 2.360178545820405 14.909236202916528 0 0 0
650 217 1 0.5897 2.2379837939688065 1.950728427243701 13.549131573606644 0 0 0
336 112 1 0.5897 2.06431159918309 4.25322893989259 10.775340161175906 0 0 0
347 116 1 0.5897 0.6752140514169656 1.053974128735871 11.808912901828654 0 0 0
649 217 2 -1.1794 2.3199971509785007 2.6296247736661305 14.218869217111212 0 0 0
683 228 1 0.5897 4.25910958124663 2.647256067866692 14.252081418447762 0 0 0
348 116 1 0.5897 2.0844745097765562 0.9817172375674272 11.260419127903718 0 0 0
350 117 1 0.5897 2.9320417241155567 4.595332212555284 13.522259197185791 0 0 0
329 110 1 0.5897 4.538993801456281 1.0207107247088036 10.935355408848288 0 0 0
334 112 2 -1.1794 1.10719657901307 4.242171267243947 10.786433836591113 0 0 0
659 220 1 0.5897 0.5593234274133349 4.583248309931969 17.93059936036557 0 0 0
653 218 1 0.5897 3.119102245956279 0.9137420050932322 17.338269836153124 0 0 0
665 222 1 0.5897 3.0307223374103756 3.8774828755566015 17.168557489442104 0 0 0
666 222 1 0.5897 4.233691400631933 3.054494786546356 16.75936135658823 0 0 0
658 220 2 -1.1794 1.0989869174924047 4.432521826976886 17.154511210739656 0 0 0
652 218 2 -1.1794 3.9474525427488922 0.9526991525947586 16.86013162696196 0 0 0
664 222 2 -1.1794 3.9794906863728947 3.929423359835422 17.052593625214858 0 0 0
672 224 1 0.5897 0.9416574084715676 0.8981860949773314 18.605202142189107 0 0 0
654 218 1 0.5897 3.9207860695029133 0.19804529211473926 16.27196749915112 0 0 0
670 224 2 -1.1794 1.8380622841325758 1.1651903751929962 18.808751955264945 0 0 0
671 224 1 0.5897 1.7390764905564742 1.8688777934676721 19.44999167573237 0 0 0
681 227 1 0.5897 0.4279760734718304 2.894355239214217 16.54894479033577 0 0 0
656 219 1 0.5897 4.890048182677712 4.413239422585167 18.437964473584337 0 0 0
679 227 2 -1.1794 0.2913427594616428 2.1005034920230345 16.03198349401827 0 0 0
884 295 1 0.5897 0.5004834835846423 0.3440590108930222 15.614384182166932 0 1 0
19 7 2 -1.1794 0.7392604451275516 6.328337951723236 2.0527224635103947 0 0 0
674 225 1 0.5897 1.4850140707028998 5.904374242188298 0.38965919830350676 0 0 1
141 47 1 0.5897 0.6659232681104863 8.252912425540508 2.2013635668029385 0 0 0
111 37 1 0.5897 4.026625992117762 9.379292072370657 0.20098017946828176 0 0 0
140 47 1 0.5897 0.5530294120576439 9.680930509659278 2.6908567314211065 0 0 0
110 37 1 0.5897 2.703357408415177 9.258314805118877 0.9264796424525521 0 0 0
14 5 1 0.5897 3.9268750795307596 5.904231090629299 0.8589183254059121 0 0 0
13 5 2 -1.1794 4.472946384268168 5.823218317748539 1.6408995555793602 0 0 0
112 38 2 -1.1794 4.109231841645994 7.8431340534646985 3.3716244260620045 0 0 0
139 47 2 -1.1794 0.5829676850437296 9.154788892153308 1.8918201362665898 0 0 0
114 38 1 0.5897 3.2797147978759154 7.729709996299604 3.835660650747662 0 0 0
15 5 1 0.5897 4.307015746916785 6.626744263855038 2.1337616167008413 0 0 0
126 42 1 0.5897 4.048923214810021 9.61606676651136 3.66197239223013 0 0 0
113 38 1 0.5897 4.772484380947755 7.525741513991806 3.98450014749612 0 0 0
20 7 1 0.5897 1.0850746427137856 5.563871956044203 2.513325465240788 0 0 0
109 37 2 -1.1794 3.1197120526569875 9.684629400649422 0.17740376177935369 0 0 0
345 115 1 0.5897 1.0380445704256303 6.691572476537175 8.683851298815148 0 0 0
344 115 1 0.5897 1.0289922695565983 5.369323801356647 9.42084211854478 0 0 0
433 145 2 -1.1794 2.598435034053289 9.063773996038258 7.067034408825173 0 0 0
437 146 1 0.5897 3.875506925548312 7.565264308416883 9.291014969939242 0 0 0
463 155 2 -1.1794 0.8475904244722468 8.573989408697248 8.998678423035606 0 0 0
337 113 2 -1.1794 4.469649909178204 6.04853532293181 8.237137941124246 0 0 0
468 156 1 0.5897 4.3213702932080515 9.012678647800056 7.295717438556436 0 0 0
435 145 1 0.5897 2.364986630175536 8.454402395545312 6.366778448815001 0 0 0
464 155 1 0.5897 1.4942796980899733 8.862705799544157 8.354708684345344 0 0 0
26 9 1 0.5897 1.9120595090264452 5.29445787096763 7.090120156434578 0 0 0
25 9 2 -1.1794 2.524527150384555 5.024571080894265 6.405791862809127 0 0 0
343 115 2 -1.1794 0.9996165399776726 5.745907364551193 8.541342959561113 0 0 0
131 44 1 0.5897 1.934035213748794 6.3724136808029135 5.4919619637632815 0 0 0
339 113 1 0.5897 4.151934523606558 5.646284060190637 7.428751661779805 0 0 0
438 146 1 0.5897 3.6653473604366265 8.927855592898029 9.91612432833207 0 0 0
465 155 1 0.5897 0.009587431785572309 8.878630066709947 8.650511353897658 0 0 0
436 146 2 -1.1794 3.7165450563328313 7.996485626571845 10.130648063096174 0 0 0
434 145 1 0.5897 2.3674059475860636 9.926009906601532 6.721640186312599 0 0 0
130 44 2 -1.1794 1.7779111021550607 7.281450458758736 5.236260403791849 0 0 0
132 44 1 0.5897 0.8256021046481318 7.376289056522453 5.256520711757897 0 0 0
443 148 1 0.5897 1.1663667712856414 9.823655609233267 10.883359269294393 0 0 0
668 223 1 0.5897 1.1617369440782785 6.073387853953447 14.66981743464831 0 0 0
454 152 2 -1.1794 1.855133248148225 7.560300706452252 11.958643318113019 0 0 0
455 152 1 0.5897 2.385946022739484 7.536764445609336 11.162424661033626 0 0 0
456 152 1 0.5897 2.0297749106001834 6.7230457533094246 12.38833480815888 0 0 0
759 253 1 0.5897 2.64024235758862 8.61983086542231 13.360001887335152 0 0 0
351 117 1 0.5897 3.493339056382876 5.792281035773356 14.259789108889754 0 0 0
667 223 2 -1.1794 0.4709799029190038 6.308441924823586 15.289376088261946 0 0 0
757 253 2 -1.1794 2.8757413376630527 9.109771553109468 14.147842392411329 0 0 0
789 263 1 0.5897 1.616040863824683 9.077427750873312 15.403756440275412 0 0 0
349 117 2 -1.1794 2.831313569890589 5.542599469580254 13.61508925717002 0 0 0
661 221 2 -1.1794 4.852109446421719 5.7653451323275995 15.311633477328153 0 0 0
792 264 1 0.5897 4.819138982669972 9.122955907015491 14.402306463712613 0 0 0
533 178 1 0.5897 0.048605498438880956 7.64358737760865 12.276577464828327 1 0 0
675 225 1 0.5897 2.1866058026374473 6.347591611223943 19.888647064527298 0 0 0
780 260 1 0.5897 2.7799205520066423 8.101274000502036 18.375934546245716 0 0 0
778 260 2 -1.1794 1.9581714820755836 8.254901689890726 18.842225043112332 0 0 0
788 263 1 0.5897 1.0214981729419967 9.67288619520662 16.662260523570154 0 0 0
779 260 1 0.5897 2.206772905803464 8.788163797508881 19.59722745869281 0 0 0
761 254 1 0.5897 4.1338996187590915 8.697655015950582 16.99158221307194 0 0 0
663 221 1 0.5897 4.509213071224617 6.519472724346044 15.791090766653777 0 0 0
660 220 1 0.5897 0.8680389895868815 5.14573137535276 16.559397249042096 0 0 0
760 254 2 -1.1794 4.164880452955238 7.750736770238473 17.127522151313993 0 0 0
662 221 1 0.5897 4.547880791652277 5.00629893757482 15.809048997316149 0 0 0
858 286 1 0.5897 0.2736415809940279 7.724858665277599 18.566257555170292 1 0 0
787 263 2 -1.1794 0.936327679068018 8.932311631373054 16.06194725872353 0 0 0
673 225 2 -1.1794 2.259279341130391 5.732896136062362 20.618713895463657 0 0 0
669 223 1 0.5897 0.6906903604290698 7.197447438396946 15.56778168331117 0 0 0
121 41 2 -1.1794 4.756380562450879 12.649733518154644 2.0458177541749487 0 0 0
240 80 1 0.5897 2.595310168436371 14.263330547548112 4.516148883453507 0 0 0
120 40 1 0.5897 0.8975235318872922 11.733484674910647 3.3538905195747937 0 0 0
783 261 1 0.5897 1.3515863363883713 12.230028044401308 1.088358129056181 0 0 1
118 40 2 -1.1794 1.1032104644956535 10.970658392715 3.8942022717522544 0 0 0
123 41 1 0.5897 4.524216598827864 11.868567365724642 2.5478389360618365 0 0 0
129 43 1 0.5897 0.39777360978006565 13.8053815037356 2.093996713184585 0 0 0
782 261 1 0.5897 2.3848425145701593 11.420556806636364 0.3340029506966763 0 0 1
220 74 2 -1.1794 4.747779228179874 14.833130786423176 3.6308952542945914 0 0 0
127 43 2 -1.1794 -0.04220617575373325 12.988353261318911 2.328581098420758 0 0 0
124 42 2 -1.1794 4.019872586599067 10.560050939311106 3.8172958406401665 0 0 0
122 41 1 0.5897 4.146353283622899 12.651026075360338 1.308162119253895 0 0 0
119 40 1 0.5897 2.0004956532341023 11.121897617099732 4.191358861031764 0 0 0
781 261 2 -1.1794 2.1241653221016645 12.320314529659441 0.530453090573185 0 0 1
125 42 1 0.5897 4.581487507781054 10.695079157753364 4.580588591192664 0 0 0
238 80 2 -1.1794 1.8931522131777119 14.078873538264945 5.140038649415337 0 0 0
222 74 1 0.5897 4.6333066272366255 14.173609227193467 2.946718699876026 0 0 0
133 45 2 -1.1794 2.538715753092975 11.97106344515095 6.920830033767467 0 0 0
134 45 1 0.5897 1.8275011122034954 12.090157700945102 7.550330871021269 0 0 0
135 45 1 0.5897 3.323454007874763 12.257242096060718 7.388316124100265 0 0 0
453 151 1 0.5897 0.5989209737671497 12.000828795972618 9.738827566675743 0 0 0
450 150 1 0.5897 3.8800641146476216 11.704671000267862 9.742807373148104 0 0 0
451 151 2 -1.1794 0.6480803582646256 12.380435073549975 8.861505699933335 0 0 0
573 191 1 0.5897 1.0203221922612589 14.349144843267508 9.444710041623502 0 0 0
445 149 2 -1.1794 4.626138283556159 12.83321140002555 8.58116254752349 0 0 0
446 149 1 0.5897 4.467919286483514 13.582825101943856 9.154910284676165 0 0 0
239 80 1 0.5897 2.2846217693047586 13.473621939207504 5.769820621253642 0 0 0
448 150 2 -1.1794 3.8870093575088673 11.11668168639098 10.498046376570679 0 0 0
544 182 2 -1.1794 4.18620041051838 14.694329308517226 10.478098002445636 0 0 0
562 188 2 -1.1794 1.863693259822118 14.058578584260518 11.97831701979991 0 0 0
563 188 1 0.5897 2.1084418537758776 13.24867760698976 12.42585976716572 0 0 0
457 153 2 -1.1794 2.5375932694769565 11.951400017146675 13.589515614525219 0 0 0
458 153 1 0.5897 1.7681296010242629 11.906516947515032 14.15714963414085 0 0 0
459 153 1 0.5897 3.2595923325234297 12.165533207876795 14.18040223345176 0 0 0
449 150 1 0.5897 4.713364128589294 11.306386692137936 10.942364936006536 0 0 0
545 182 1 0.5897 3.424276347012668 14.374510783058913 10.961282712403758 0 0 0
546 182 1 0.5897 4.929818765939222 14.506363382140604 11.050762045690934 0 0 0
564 188 1 0.5897 2.044285675930414 14.749084227363223 12.616090975558766 0 0 0
642 214 1 0.5897 0.02404709717770742 13.98956592309757 11.761800040925403 1 0 0
442 148 2 -1.1794 1.1600369407474391 10.721992257357757 11.21358216099447 0 0 0
444 148 1 0.5897 2.0844337126243766 10.940826414331617 11.331544266163156 0 0 0
769 257 2 -1.1794 4.6211767964349475 12.55156204225685 15.204891574614619 0 0 0
758 253 1 0.5897 2.8060839589394546 10.028543386603838 13.888782565264641 0 0 0
775 259 2 -1.1794 0.47727903389912907 12.250563633051273 15.537080402238871 0 0 0
965 322 1 0.5897 0.14958900631198396 13.914331521368954 18.572310152034863 1 0 0
869 290 1 0.5897 3.4239489557043985 14.417088020156005 17.963739066318574 0 0 0
768 256 1 0.5897 1.2166904271364476 11.708903003142165 17.08177528007343 0 0 0
774 258 1 0.5897 4.346461339603872 11.55940726362538 16.857265061112496 0 0 0
886 296 2 -1.1794 2.0904072915879337 14.253956566760154 19.214303812021967 0 0 0
870 290 1 0.5897 4.928906026350429 14.5637797270757 18.038943151516957 0 0 0
773 258 1 0.5897 3.2290934000672795 10.972378382251597 17.69323411020638 0 0 0
888 296 1 0.5897 2.0191288127613465 13.534429425193798 19.84148485222264 0 0 0
766 256 2 -1.1794 1.379249461893922 11.205325269233986 17.879387486562955 0 0 0
887 296 1 0.5897 2.4973556343068597 14.964650543952827 19.70975412499322 0 0 0
895 299 2 -1.1794 0.6803553807070891 15.013483517152602 15.890162936074868 0 0 0
772 258 2 -1.1794 4.165878788086813 10.888181207563834 17.515304133033744 0 0 0
767 256 1 0.5897 0.5615263600809547 11.267231108995151 18.37314494356951 0 0 0
771 257 1 0.5897 4.573255673402676 13.335087632513057 15.752476973584779 0 0 0
868 290 2 -1.1794 4.205808630094925 14.489018398192927 17.416188695222633 0 0 0
777 259 1 0.5897 0.7172227607014443 13.176185251869352 15.578929351525417 0 0 0
227 76 1 0.5897 1.1038735455363802 18.12359386827081 3.1985409375401397 0 0 0
234 78 1 0.5897 3.186876478437542 17.568305113451423 3.670731791970088 0 0 0
230 77 1 0.5897 4.209343811396068 19.328995979526006 0.6549713462393323 0 0 0
233 78 1 0.5897 4.290024841784785 18.13169262014408 2.800305268760429 0 0 0
226 76 2 -1.1794 1.4396764400099098 17.49467781201262 3.8372073135292184 0 0 0
249 83 1 0.5897 1.8115607986251405 15.571587623661589 1.369956595839105 0 0 0
232 78 2 -1.1794 4.104462862372752 17.43683114270234 3.4318929933009654 0 0 0
221 74 1 0.5897 4.5714007088305735 15.665900161279499 3.193263735110684 0 0 0
248 83 1 0.5897 0.9935292194377192 16.174498230082357 2.4921263048585542 0 0 0
235 79 2 -1.1794 0.4068269874194146 18.87331236641188 1.8154707893254851 0 0 0
247 83 2 -1.1794 1.0878997961945653 15.380128280811881 1.9665663769587485 0 0 0
228 76 1 0.5897 0.7378729970683068 17.410208539779347 4.48267250835332 0 0 0
229 77 2 -1.1794 4.524192225727994 19.42701796458379 1.55359399463083 0 0 0
890 297 1 0.5897 1.381672950742212 18.929096053472904 0.11484345156351464 0 0 1
217 73 2 -1.1794 2.9914831025009008 16.32561021904511 -0.00308318144706609 0 0 0
219 73 1 0.5897 3.93623981246534 16.278900616626323 0.14379831206653151 0 0 0
236 79 1 0.5897 0.460927288306231 19.824721879057634 1.9045569238484277 0 0 0
224 75 1 0.5897 4.891045026491369 17.731305558876578 4.95911948370423 0 0 0
241 81 2 -1.1794 2.582703043871795 18.9755412070783 6.983474663476545 0 0 0
542 181 1 0.5897 1.7374886533927152 16.020158142593402 7.593620090838817 0 0 0
243 81 1 0.5897 1.7844858909659391 19.30571866169123 7.395923223598572 0 0 0
555 185 1 0.5897 4.188390900514866 18.955843434291964 7.991841985161095 0 0 0
541 181 2 -1.1794 2.4141013092646317 16.158311976849483 6.9307704864101956 0 0 0
553 185 2 -1.1794 4.575546170580002 18.96467817141022 8.867206842101623 0 0 0
242 81 1 0.5897 2.4330349698404907 18.034843789481016 6.890098962886322 0 0 0
24 8 1 0.5897 2.2379031890796273 19.93214516741837 5.344257030281612 0 -1 0
559 187 2 -1.1794 0.39341921262770757 19.364742364163185 8.780111996208689 0 0 0
572 191 1 0.5897 0.6565976183524419 15.792884363596816 9.718296300314828 0 0 0
576 192 1 0.5897 4.407531738847106 15.997929391372084 7.73593164922952 0 0 0
543 181 1 0.5897 2.172076288264357 15.571015854279237 6.2147333078122955 0 0 0
551 184 1 0.5897 0.7764322298749298 18.104143017517373 10.081960221083985 0 0 0
571 191 2 -1.1794 0.8158194068764539 15.174495451451643 9.005273567366034 0 0 0
867 289 1 0.5897 2.0636850634087778 15.572179648305303 14.672169394509313 0 0 0
866 289 1 0.5897 3.4904390650580552 15.70079105029027 14.18233886709143 0 0 0
877 293 2 -1.1794 4.59516390567204 18.684760131115922 15.34033917245331 0 0 0
565 189 2 -1.1794 2.3598842790242043 18.656257362739268 13.689610813230491 0 0 0
566 189 1 0.5897 2.4750750368320626 17.713133001129435 13.574102702524009 0 0 0
567 189 1 0.5897 1.9671141655191984 18.952381460892397 12.868460843960621 0 0 0
865 289 2 -1.1794 2.587983925558516 15.921012888968564 13.951282838276358 0 0 0
879 293 1 0.5897 3.8437951379976174 18.713970620525778 14.747992422031414 0 0 0
552 184 1 0.5897 1.9899626274812947 17.513575059779726 10.767949101282907 0 0 0
885 295 1 0.5897 0.9560296490418603 19.498494222527484 14.583790431170257 0 0 0
550 184 2 -1.1794 1.0454318949291534 17.395644071571922 10.66662309596114 0 0 0
556 186 2 -1.1794 3.951836054654631 17.295506319489398 11.097834804644712 0 0 0
883 295 2 -1.1794 0.34258535927313377 19.616231176599463 15.30911597139949 0 0 0
896 299 1 0.5897 -0.03066478350235348 15.265505272541757 15.300934299315747 0 0 0
557 186 1 0.5897 4.122233252303118 16.40137238786683 10.801871403514285 0 0 0
558 186 1 0.5897 4.194897866023627 17.84522066431724 10.352895608804653 0 0 0
874 292 2 -1.1794 1.053577931445801 17.39404832452727 17.06833948802633 0 0 0
876 292 1 0.5897 0.9437420018623812 18.18167948251925 16.535693380846578 0 0 0
897 299 1 0.5897 0.9162322579787983 15.823631318057892 16.34197214097699 0 0 0
875 292 1 0.5897 0.6383267304379232 17.609237119574573 17.903515556278936 0 0 0
880 294 2 -1.1794 3.779513009188986 17.371869036308595 17.563202669316862 0 0 0
881 294 1 0.5897 2.8233542811348684 17.353620788764708 17.521369580791596 0 0 0
882 294 1 0.5897 4.032429633658443 16.45543045974963 17.673979630995134 0 0 0
891 297 1 0.5897 2.1655111413907666 19.754353938631986 19.881804721754538 0 0 0
878 293 1 0.5897 4.332633207818462 18.07643932552392 16.031141663834294 0 0 0
889 297 2 -1.1794 2.130017911099296 18.886845778265958 20.28461061490325 0 0 0
218 73 1 0.5897 2.8342797273885254 17.231897536009967 20.497405662745255 0 0 -1
68 23 1 0.5897 7.604905937073699 2.250324073803432 1.4846287565112077 0 0 0
69 23 1 0.5897 6.092982978714945 2.3052720898818992 1.428503349715067 0 0 0
67 23 2 -1.1794 6.827010060387795 2.271999028401706 2.042013159284442 0 0 0
46 16 2 -1.1794 8.057177171491476 4.088587633174836 3.849123984776819 0 0 0
47 16 1 0.5897 7.797500698221364 3.3318072990653493 3.3237949597216305 0 0 0
48 16 1 0.5897 7.422812207055963 4.112452193866504 4.565553903685344 0 0 0
58 20 2 -1.1794 8.541760060913438 0.8015835300293327 4.729405705183824 0 0 0
29 10 1 0.5897 6.792644171495046 0.5232739056977413 5.0681021393471655 0 0 0
273 91 1 0.5897 7.218635229389393 0.44185083167074835 2.028756229125058 0 1 0
59 20 1 0.5897 9.265961419683943 0.79763946586704 4.10347119593063 0 0 0
53 18 1 0.5897 9.791781475381725 4.208369614259391 3.553882125790085 0 0 0
37 13 2 -1.1794 8.881718641831943 2.4022000696710126 -0.014508452528283294 0 0 0
39 13 1 0.5897 9.733990779413348 1.983103505612024 0.10492257064940061 0 0 0
391 131 2 -1.1794 7.3990610902366685 1.8692088086965026 8.833642387096232 0 0 0
361 121 2 -1.1794 9.199259964430638 2.7205091077461945 6.707664079579675 0 0 0
371 124 1 0.5897 7.697756514772488 3.285347677631519 10.100782004712112 0 0 0
392 131 1 0.5897 8.003405598528282 2.1773552719125524 8.158306707053313 0 0 0
362 121 1 0.5897 9.116010011556853 3.655754077298213 6.522005342975078 0 0 0
360 120 1 0.5897 5.974221662374567 2.3466164090318484 7.806794638088467 0 0 0
393 131 1 0.5897 7.385755877742693 0.91804185940464 8.727818798761673 0 0 0
7 3 2 -1.1794 5.663056310491979 4.531014064675544 5.421752339324013 0 0 0
8 3 1 0.5897 5.472554098313889 3.85344934767758 6.070431320101031 0 0 0
28 10 2 -1.1794 5.913454230106726 0.3644027531471467 5.411752421035143 0 0 0
60 20 1 0.5897 8.668834522349835 1.6021275236913934 5.2384216115850935 0 0 0
358 120 2 -1.1794 5.27960615463041 2.4466192348269975 7.15583158606096 0 0 0
359 120 1 0.5897 5.436257452343641 1.7418103046446498 6.527466136200817 0 0 0
684 228 1 0.5897 5.227878492048657 3.566713979377927 13.539372279957911 0 0 0
686 229 1 0.5897 8.553008541560398 2.1801530197979426 14.319625901139231 0 0 0
382 128 2 -1.1794 8.5234098265203 0.4092715190306427 11.865449751640796 0 0 0
384 128 1 0.5897 8.959772856942749 0.49869610977336665 11.018204423530026 0 0 0
685 229 2 -1.1794 9.026436367878347 2.5012781264959156 13.552165949374544 0 0 0
354 118 1 0.5897 5.565585944273806 1.3233074774914924 13.088420266387027 0 0 0
353 118 1 0.5897 6.436088093430945 0.7407781669124699 11.99533177033583 0 0 0
386 129 1 0.5897 9.034748981110994 4.418178740348123 13.492629887791296 0 0 0
352 118 2 -1.1794 5.60524481997164 0.6093033104237418 12.452187269001435 0 0 0
383 128 1 0.5897 8.711636287032785 1.2301965870609575 12.320193938463872 0 0 0
372 124 1 0.5897 7.247693478101442 4.307992832125389 11.122264019165385 0 0 0
682 228 2 -1.1794 5.191903873508192 2.779492730532334 14.082635937687174 0 0 0
332 111 1 0.5897 5.188357877031295 4.665823340726936 11.42075615946977 0 0 0
331 111 2 -1.1794 5.802793866102634 4.834753222996832 12.135029361285902 0 0 0
370 124 2 -1.1794 7.878834718633109 4.170847058137134 10.415767599116444 0 0 0
717 239 1 0.5897 6.427413404634466 2.2323997210693958 15.188663656313858 0 0 0
687 229 1 0.5897 9.936390623891727 2.248554582174638 13.708373582134387 0 0 0
377 126 1 0.5897 9.685472472121646 3.9562011602842704 10.624696544884033 0 0 0
715 239 2 -1.1794 7.240581111110747 1.9580049375893354 15.612577811449125 0 0 0
694 232 2 -1.1794 8.143711990789978 3.602257018947043 17.66573440122245 0 0 0
38 13 1 0.5897 8.593356116998256 2.1169174678820104 19.883629390866506 0 0 -1
707 236 1 0.5897 8.743717357629093 0.19997949137038784 19.222324893248256 0 0 0
676 226 2 -1.1794 5.838222580179371 0.6208867886807156 18.923436378948146 0 0 0
655 219 2 -1.1794 5.5912592771382865 4.455396277020338 19.088210808863913 0 0 0
657 219 1 0.5897 6.388689491052051 4.265374565045349 18.593952287951403 0 0 0
708 236 1 0.5897 7.63018720595275 0.773864692031324 18.372211789774898 0 0 0
710 237 1 0.5897 9.105227078353355 4.257925232898252 20.6126203657303 0 0 0
695 232 1 0.5897 7.968210411764202 2.917391617068291 17.020512462656466 0 0 0
706 236 2 -1.1794 8.553605246157439 0.895708599497165 18.59305530815766 0 0 0
716 239 1 0.5897 7.172051147732165 1.0050272581316173 15.668947574414545 0 0 0
696 232 1 0.5897 7.956392265236799 4.4198729609919125 17.20469798127783 0 0 0
677 226 1 0.5897 5.14886021823353 0.7785467297533872 18.278304415588664 0 0 0
35 12 1 0.5897 5.110028705386515 1.5634043661366903 20.40693673421633 0 0 -1
36 12 1 0.5897 5.077650481680118 3.0640082824958053 20.21053607517652 0 0 -1
142 48 2 -1.1794 5.832794979750891 8.881142951360934 0.6312531846806454 0 0 0
143 48 1 0.5897 6.543253705335144 8.890317367827503 1.272698009751278 0 0 0
177 59 1 0.5897 8.621028971693592 9.066682938775177 1.480428945963477 0 0 0
175 59 2 -1.1794 8.098816600481376 8.809713718087625 2.2403677778513393 0 0 0
55 19 2 -1.1794 7.259385248974737 5.954714251512419 1.7116314493508797 0 0 0
176 59 1 0.5897 7.77824977031873 7.933677014786154 2.026142383139237 0 0 0
166 56 2 -1.1794 8.718655445357271 7.503086685324247 4.964846568088614 0 0 0
711 237 1 0.5897 8.51662111620406 5.441170516544437 0.5858632482784237 0 0 1
56 19 1 0.5897 6.319032210332064 5.852710038926231 1.5645335569409602 0 0 0
57 19 1 0.5897 7.431390666368483 5.463135604720571 2.5147348036612214 0 0 0
138 46 1 0.5897 6.841817019671562 7.430635219762982 4.815361472123184 0 0 0
149 50 1 0.5897 9.942005098601527 8.063397869588307 3.527594382377545 0 0 0
155 52 1 0.5897 8.226112938782554 9.877978488458503 3.878395495319392 0 0 0
144 48 1 0.5897 6.045176851181094 8.152287430259612 0.0483247423874964 0 0 0
501 167 1 0.5897 6.81522778364111 8.886082441382523 8.540129192254932 0 0 0
379 127 2 -1.1794 7.184269849841901 5.884462049804148 8.31364179435662 0 0 0
380 127 1 0.5897 7.136625229748325 6.764347672733179 8.68732497325352 0 0 0
471 157 1 0.5897 8.645639119552703 8.93465499073598 7.68845887740123 0 0 0
499 167 2 -1.1794 7.565723489699798 8.571213981087672 9.043945536129682 0 0 0
500 167 1 0.5897 7.82875688126374 9.32137040900589 9.577079817829041 0 0 0
466 156 2 -1.1794 5.267997198666488 8.89559067555973 7.376377110423145 0 0 0
61 21 2 -1.1794 9.312107835982811 5.45449691100546 6.515151777298005 0 0 0
467 156 1 0.5897 5.517688277555925 8.4105065712967 6.5898888032600365 0 0 0
136 46 2 -1.1794 6.015908844961992 7.293192962695311 5.27935033158748 0 0 0
168 56 1 0.5897 8.753771437817797 8.193639646360934 5.626703208780594 0 0 0
469 157 2 -1.1794 9.067522801495182 9.349215351414387 6.935867752178826 0 0 0
62 21 1 0.5897 8.634735576114952 5.810378555038557 7.090276516863012 0 0 0
381 127 1 0.5897 7.506551938964496 5.336891024850044 9.029541035813386 0 0 0
338 113 1 0.5897 5.405431272902725 5.8477923164899765 8.253472681168676 0 0 0
167 56 1 0.5897 9.01077160957252 6.715685472558835 5.423970489271999 0 0 0
137 46 1 0.5897 6.00057478513023 6.355223408073474 5.469248196103855 0 0 0
705 235 1 0.5897 7.923649583676751 5.411361617135491 15.077011252048672 0 0 0
791 264 1 0.5897 6.213919115985763 8.796066440798189 14.89201817677104 0 0 0
387 129 1 0.5897 8.843367627020713 5.81652364209636 12.945268744631054 0 0 0
462 154 1 0.5897 5.131112299473775 7.87145809482486 11.161971864998117 0 0 0
461 154 1 0.5897 5.774079230930938 7.905479298701947 12.53216528145233 0 0 0
460 154 2 -1.1794 5.955475669461262 7.696277266584522 11.615877361280047 0 0 0
490 164 2 -1.1794 8.635944968214492 7.281875207386054 11.88719620387217 0 0 0
333 111 1 0.5897 5.9233120774224615 5.784240350119441 12.128370702477287 0 0 0
492 164 1 0.5897 7.73084439057059 7.4689451832228455 11.638057341207249 0 0 0
794 265 1 0.5897 9.489961692952248 8.355870520151766 13.371884056531306 0 0 0
793 265 2 -1.1794 9.829311290202691 8.785751262260025 14.156916539847339 0 0 0
491 164 1 0.5897 9.132483808501755 7.373089292235117 11.07394735717571 0 0 0
790 264 2 -1.1794 5.719439224582384 9.004594879399654 14.099381121089634 0 0 0
385 129 2 -1.1794 9.04984314513087 5.340095864438396 13.749379918361848 0 0 0
825 275 1 0.5897 8.462258235737217 8.222525475615221 15.245463716822597 0 0 0
795 265 1 0.5897 9.60677648358788 9.70927718886584 14.039924630569724 0 0 0
815 272 1 0.5897 8.873216403813375 6.437330984271272 19.295626942649776 0 0 0
785 262 1 0.5897 6.168210998379358 6.357533930502474 19.547207628792655 0 0 0
816 272 1 0.5897 8.831939554748097 7.94215948404042 19.454471214510136 0 0 0
784 262 2 -1.1794 6.187742673961072 7.270118581079398 19.25926024433913 0 0 0
824 275 1 0.5897 7.624847517163948 7.23006783170185 16.0236678970133 0 0 0
786 262 1 0.5897 7.074182293471462 7.395997848902858 18.920598476449413 0 0 0
814 272 2 -1.1794 8.81181843541396 7.249978312289883 18.793689679042924 0 0 0
762 254 1 0.5897 4.960531910091642 7.607789721170913 17.640168688427494 0 0 0
823 275 2 -1.1794 7.746669360530112 8.168316522149173 15.878928755501192 0 0 0
703 235 2 -1.1794 7.475977987589927 5.595658185298651 15.902773819073358 0 0 0
709 237 2 -1.1794 9.113610326910194 5.214682762808671 20.63785008376078 0 0 0
804 268 1 0.5897 7.7698056952920185 9.919452033097372 16.854524330581018 0 0 0
145 49 2 -1.1794 9.244615551922745 9.303583824470042 20.60085569735085 0 0 -1
704 235 1 0.5897 6.54964256358208 5.647784518887994 15.66717581767418 0 0 0
164 55 1 0.5897 6.699785797394892 12.368298221436495 2.0476583514175926 0 0 0
154 52 2 -1.1794 8.037493409976697 10.67301514826678 4.376832271459301 0 0 0
156 52 1 0.5897 8.898629975250564 11.032717965238414 4.589750984015572 0 0 0
165 55 1 0.5897 7.8489670918754415 11.895306899099332 2.9123357768576437 0 0 0
274 92 2 -1.1794 8.60423549683731 14.26650915717087 5.000162868519078 0 0 0
163 55 2 -1.1794 7.635021808958501 12.500990140665907 2.2027092892589084 0 0 0
246 82 1 0.5897 5.496684989557353 14.15749082516326 4.976426130254806 0 0 0
819 273 1 0.5897 8.477406160799323 12.38753576843082 0.6496210634614537 0 0 1
285 95 1 0.5897 7.523098662407942 14.864633079408899 2.471939751677333 0 0 0
275 92 1 0.5897 7.652239093969433 14.308660654587188 5.090419501753321 0 0 0
817 273 2 -1.1794 9.149780386353354 12.175990616224027 0.0019779863693862865 0 0 1
171 57 1 0.5897 9.182752923189714 11.12659927947917 6.493295539474951 0 0 0
487 163 2 -1.1794 7.281932739929836 12.744172693536287 8.442649521035369 0 0 0
115 39 2 -1.1794 5.672590589494534 11.135641179735552 5.882381889041279 0 0 0
117 39 1 0.5897 5.543134411093168 10.351567348795326 6.415862965918218 0 0 0